exampleRNA-OH in water
19027
    1A5    HO5'    1   3.732   3.718   1.164 -0.0850  2.2502  1.2564
    1A5     O5'    2   3.643   3.728   1.129  0.1385 -0.4681 -0.1840
    1A5     C5'    3   3.652   3.737   0.986  0.3467 -0.1690  0.2438
    1A5     H5'    4   3.555   3.702   0.950  0.6161  0.0552 -0.7014
    1A5    H5''    5   3.741   3.679   0.966  1.3149  2.2590 -2.9713
    1A5     C4'    6   3.674   3.885   0.938 -0.8034  0.4116  0.5888
    1A5     H4'    7   3.682   3.886   0.829 -0.2687  0.4082  0.6266
    1A5     O4'    8   3.549   3.962   0.952  0.0701 -0.0207 -0.2509
    1A5     C1'    9   3.587   4.097   0.980  0.0894  0.1560 -0.2804
    1A5     H1'   10   3.529   4.167   0.920 -0.3669  1.2519  1.4133
    1A5      N9   11   3.558   4.135   1.126 -0.3583 -0.4937  0.4041
    1A5      C8   12   3.552   4.054   1.236 -0.8569 -0.9201 -0.0821
    1A5      H8   13   3.545   3.946   1.235 -3.2431 -0.7837  0.6772
    1A5      N7   14   3.532   4.115   1.352 -0.4600  0.1961  0.1243
    1A5      C5   15   3.530   4.248   1.312 -0.0227  0.2431  0.1387
    1A5      C6   16   3.504   4.372   1.369 -0.1750 -0.0274 -0.8649
    1A5      N6   17   3.483   4.388   1.499  0.1342  0.8288  0.2021
    1A5     H61   18   3.482   4.486   1.525  2.3919  1.0070 -0.3650
    1A5     H62   19   3.523   4.322   1.565 -0.8495  1.8898  1.9149
    1A5      N1   20   3.512   4.486   1.300  0.0829 -0.1602 -0.2772
    1A5      C2   21   3.527   4.479   1.168  0.3392  0.0005  0.7763
    1A5      H2   22   3.512   4.572   1.114 -4.1844  0.3700  2.4873
    1A5      N3   23   3.551   4.371   1.096  0.3722  0.3440  0.1879
    1A5      C4   24   3.552   4.265   1.179 -0.7901 -0.3654 -0.0680
    1A5     C3'   25   3.784   3.979   0.989  0.0466  0.6135 -0.6596
    1A5     H3'   26   3.800   3.970   1.097 -0.1989 -0.8652 -0.7334
    1A5     C2'   27   3.737   4.108   0.946  0.1072  0.2504 -0.3828
    1A5     H2'   28   3.771   4.187   1.012 -0.0062  1.0077 -1.2282
    1A5     O2'   29   3.737   4.144   0.809  0.1152 -0.5476  0.0082
    1A5    HO2'   30   3.777   4.068   0.767 -0.9264 -0.5772 -0.9357
    1A5     O3'   31   3.905   3.954   0.913  0.6733  0.4683  0.6484
    2G        P   32   4.039   3.964   0.989 -0.0311 -0.1273 -0.7447
    2G      OP1   33   4.142   3.915   0.893  0.1470 -0.6157  0.0882
    2G      OP2   34   4.031   3.905   1.126 -0.0498  0.4917 -0.2742
    2G      O5'   35   4.054   4.119   0.992 -0.0759 -0.1993 -0.5637
    2G      C5'   36   4.067   4.199   0.873 -0.0327  0.2430  0.3577
    2G      H5'   37   4.003   4.170   0.790 -0.6065 -1.1310  1.2786
    2G     H5''   38   4.164   4.182   0.825  0.8810 -0.6455  2.4441
    2G      C4'   39   4.052   4.349   0.889  0.0869 -0.5080 -0.6561
    2G      H4'   40   4.076   4.401   0.796  0.9282  0.1742 -0.0644
    2G      O4'   41   3.914   4.385   0.932  0.3855 -0.0709 -0.5631
    2G      C1'   42   3.931   4.501   1.008  0.6346  0.5935  0.3391
    2G      H1'   43   3.865   4.582   0.978  2.3288  1.3803 -1.3297
    2G       N9   44   3.902   4.469   1.149  1.3099 -0.1420  0.0760
    2G       C8   45   3.902   4.340   1.209  0.3554 -0.7246  0.0057
    2G       H8   46   3.927   4.254   1.149  0.7900  0.3092 -1.3137
    2G       N7   47   3.846   4.342   1.329 -0.2508 -0.1261 -0.0242
    2G       C5   48   3.824   4.477   1.351  0.3615  0.8162 -0.3682
    2G       C6   49   3.781   4.541   1.475 -0.7109  0.8276 -0.3832
    2G       O6   50   3.762   4.485   1.581 -0.0571 -0.3180 -0.4141
    2G       N1   51   3.782   4.683   1.460 -0.4578 -0.0585 -0.2267
    2G       H1   52   3.762   4.740   1.541 -1.1887  0.7402 -0.9682
    2G       C2   53   3.816   4.749   1.352 -0.6196  0.8331 -0.3131
    2G       N2   54   3.822   4.876   1.348  0.2065 -0.4370 -0.2059
    2G      H21   55   3.820   4.922   1.438  0.4296  0.8703 -0.8693
    2G      H22   56   3.802   4.923   1.261  3.4569  0.3674 -0.5765
    2G       N3   57   3.848   4.686   1.236 -0.6590 -0.4701  0.3536
    2G       C4   58   3.854   4.551   1.243  0.1709  0.0938  0.3811
    2G      C3'   59   4.152   4.423   0.978 -0.6523  1.0862  0.4420
    2G      H3'   60   4.177   4.362   1.065  0.2962 -0.1057 -0.6459
    2G      C2'   61   4.073   4.553   1.005  0.9400  0.5741  0.4547
    2G      H2'   62   4.103   4.596   1.101  0.5154  1.0664  0.3683
    2G      O2'   63   4.088   4.664   0.910  0.6431  0.8665 -0.6035
    2G     HO2'   64   4.161   4.723   0.929  0.3220  1.1883 -0.3462
    2G      O3'   65   4.262   4.453   0.894  0.2664 -0.2131  0.1498
    3C        P   66   4.414   4.460   0.954  0.0497  0.2696  0.0362
    3C      OP1   67   4.505   4.497   0.836  0.0899  0.6834 -0.3647
    3C      OP2   68   4.449   4.339   1.030  0.0603 -0.0668 -0.3468
    3C      O5'   69   4.400   4.592   1.047 -0.5075 -0.2780  0.1771
    3C      C5'   70   4.416   4.715   0.988  0.0226 -0.6708  0.0342
    3C      H5'   71   4.345   4.735   0.907  0.9722 -0.2824 -0.7237
    3C     H5''   72   4.517   4.732   0.949  0.1526  0.0287  0.6663
    3C      C4'   73   4.389   4.837   1.079  0.7725 -1.3458 -0.0186
    3C      H4'   74   4.406   4.928   1.021  0.4160 -1.8949 -1.0013
    3C      O4'   75   4.251   4.840   1.128 -0.7831  0.6159  0.4591
    3C      C1'   76   4.247   4.887   1.262  0.6149  0.6129  0.3513
    3C      H1'   77   4.171   4.966   1.263 -2.7929 -2.5412 -0.5312
    3C       N1   78   4.216   4.778   1.364 -0.2150  0.2988 -0.4672
    3C       C6   79   4.232   4.644   1.342 -0.0334 -0.3105 -0.2455
    3C       H6   80   4.293   4.621   1.255 -2.6477  2.2593 -2.8835
    3C       C5   81   4.184   4.550   1.428  0.2899  0.3736 -0.3265
    3C       H5   82   4.204   4.445   1.411 -0.7937  0.2288 -0.7162
    3C       C4   83   4.118   4.598   1.549 -0.6348 -0.3622 -0.1997
    3C       N4   84   4.077   4.513   1.635  0.4817 -0.6047  0.0195
    3C      H41   85   4.107   4.419   1.610  0.7814 -0.1604 -1.3551
    3C      H42   86   4.032   4.539   1.722  0.1157  0.3764 -0.4553
    3C       N3   87   4.103   4.729   1.569  0.2138 -0.2983  0.0313
    3C       C2   88   4.147   4.820   1.482 -0.4576 -0.1679 -0.2636
    3C       O2   89   4.119   4.935   1.516 -1.1268  0.0819 -0.6055
    3C      C3'   90   4.484   4.838   1.198  0.0022  0.2286 -0.3504
    3C      H3'   91   4.494   4.743   1.249  2.4909  1.5060  1.5993
    3C      C2'   92   4.396   4.937   1.274 -0.6381  0.0260  0.2484
    3C      H2'   93   4.431   4.924   1.377  0.2173 -0.7762 -0.1319
    3C      O2'   94   4.404   5.069   1.220  0.1725 -0.6528  0.0386
    3C     HO2'   95   4.476   5.085   1.158  0.1084  0.6756  0.2787
    3C      O3'   96   4.609   4.888   1.162  0.3551  0.2794 -0.6309
    4G        P   97   4.727   4.890   1.274  0.0157 -0.2039 -0.1843
    4G      OP1   98   4.841   4.949   1.209  0.3669  0.2195 -0.0603
    4G      OP2   99   4.746   4.750   1.331  0.1085 -0.2456  0.5325
    4G      O5'  100   4.680   4.978   1.399  0.0717 -0.7721  0.1160
    4G      C5'  101   4.688   5.119   1.412  0.1095 -0.5586 -0.2200
    4G      H5'  102   4.639   5.168   1.328  1.9818  1.0337 -0.4212
    4G     H5''  103   4.793   5.147   1.426 -0.6821  1.8153  1.2179
    4G      C4'  104   4.615   5.157   1.543  0.7878 -0.1524  0.2904
    4G      H4'  105   4.605   5.265   1.559 -1.5408 -0.4712  1.1679
    4G      O4'  106   4.482   5.105   1.560  0.2578  0.1447  0.0431
    4G      C1'  107   4.466   5.075   1.697  0.6767 -0.6919  0.0544
    4G      H1'  108   4.399   5.155   1.729 -0.7121 -1.3082 -1.2655
    4G       N9  109   4.428   4.928   1.702  0.6967  0.3938 -0.3742
    4G       C8  110   4.476   4.822   1.632 -0.2983  0.6454  0.0693
    4G       H8  111   4.536   4.835   1.543 -0.0155 -1.6505 -0.1037
    4G       N7  112   4.434   4.702   1.671  1.0131 -0.0228  0.9299
    4G       C5  113   4.369   4.728   1.794 -0.7197  0.0561 -0.2583
    4G       C6  114   4.322   4.640   1.888  0.3285 -0.7819 -0.1731
    4G       O6  115   4.300   4.524   1.881  0.7841 -0.5229  0.1615
    4G       N1  116   4.292   4.708   2.005 -0.6577  0.1871  0.0658
    4G       H1  117   4.262   4.652   2.084  1.3605 -0.0840  0.6757
    4G       C2  118   4.324   4.835   2.034  0.5766 -0.1388 -0.7845
    4G       N2  119   4.296   4.889   2.151  0.4590  0.2198 -0.7139
    4G      H21  120   4.268   4.832   2.230  2.7034  1.6521  1.2044
    4G      H22  121   4.298   4.990   2.161  2.6479  0.0436  1.2528
    4G       N3  122   4.361   4.924   1.945  0.2497 -0.2500  0.3012
    4G       C4  123   4.384   4.862   1.821 -1.0015  0.0379  0.1088
    4G      C3'  124   4.700   5.106   1.661  0.0093 -0.1400  0.1566
    4G      H3'  125   4.737   5.005   1.640 -1.1857 -0.2283 -1.7110
    4G      C2'  126   4.597   5.103   1.772  0.0817  0.6795 -0.2190
    4G      H2'  127   4.611   5.023   1.844  0.2573 -0.1089 -1.1293
    4G      O2'  128   4.588   5.231   1.828 -0.1171 -0.5795  0.2349
    4G     HO2'  129   4.676   5.269   1.837 -0.3316  0.3926 -1.5710
    4G      O3'  130   4.808   5.201   1.678 -0.7313  0.1305 -0.2948
    5C        P  131   4.945   5.152   1.743  0.0149 -0.0922  0.5375
    5C      OP1  132   5.033   5.270   1.751 -0.1613  0.1664  0.3148
    5C      OP2  133   4.989   5.030   1.676 -0.1940 -0.5786  0.6154
    5C      O5'  134   4.899   5.113   1.893 -0.5170  0.2691  0.1526
    5C      C5'  135   4.875   5.215   1.990  0.4803 -0.0865  0.6533
    5C      H5'  136   4.814   5.301   1.963  0.2966 -0.3012  0.3751
    5C     H5''  137   4.973   5.258   2.011  0.2515 -0.4762  2.5466
    5C      C4'  138   4.817   5.152   2.117  0.5406  1.0275 -0.1160
    5C      H4'  139   4.785   5.225   2.190 -0.0443 -0.5400  1.2249
    5C      O4'  140   4.702   5.080   2.095  0.0211  0.0457  0.2456
    5C      C1'  141   4.697   4.983   2.198 -0.3300 -0.4222  0.2450
    5C      H1'  142   4.609   5.011   2.256 -1.2548 -1.5269 -0.5913
    5C       N1  143   4.688   4.851   2.143 -1.0576  0.9664 -0.2829
    5C       C6  144   4.729   4.818   2.014  0.1738 -0.4547  0.0160
    5C       H6  145   4.781   4.897   1.961 -3.8525  1.0246 -2.0021
    5C       C5  146   4.691   4.697   1.959 -0.2057 -0.2710  0.2682
    5C       H5  147   4.718   4.663   1.860  1.7537 -0.8082  0.9523
    5C       C4  148   4.633   4.606   2.052  0.6007 -0.1490  0.2097
    5C       N4  149   4.594   4.489   2.006 -0.7097  0.2335  0.2249
    5C      H41  150   4.632   4.484   1.913  2.6683  0.4591  1.5309
    5C      H42  151   4.537   4.423   2.057  1.2240 -1.8991 -0.2976
    5C       N3  152   4.595   4.633   2.173 -0.1821 -0.3138 -0.4786
    5C       C2  153   4.620   4.756   2.223 -0.0062  0.0375 -0.1086
    5C       O2  154   4.578   4.775   2.340 -0.0340 -0.3118  0.7883
    5C      C3'  155   4.926   5.060   2.195  0.1539 -0.6201  0.1596
    5C      H3'  156   4.968   4.979   2.134 -0.2205 -0.1841 -0.6933
    5C      C2'  157   4.825   4.995   2.288  0.5025  0.0983  0.3167
    5C      H2'  158   4.858   4.897   2.322 -2.2195 -0.9107  0.1787
    5C      O2'  159   4.794   5.069   2.407  0.0032 -0.1341  0.0455
    5C     HO2'  160   4.863   5.056   2.471  0.6437 -0.7413 -0.7534
    5C      O3'  161   5.025   5.131   2.262 -0.2649 -0.1265  0.0236
    6U        P  162   5.153   5.054   2.311 -0.2496 -0.1532 -0.4024
    6U      OP1  163   5.237   5.153   2.380  0.5412  0.2598 -0.4072
    6U      OP2  164   5.218   4.981   2.201  0.1570 -0.3237 -0.9393
    6U      O5'  165   5.114   4.940   2.408  0.1971  0.0094  0.0931
    6U      C5'  166   5.109   4.971   2.544  0.0998  0.4410 -0.1134
    6U      H5'  167   5.055   5.061   2.571 -2.1542 -0.9456  0.0581
    6U     H5''  168   5.212   4.988   2.577  0.6302 -0.4081 -1.2583
    6U      C4'  169   5.049   4.852   2.624 -0.0450  0.3205  0.6106
    6U      H4'  170   5.022   4.897   2.720 -2.0084 -2.0298  1.1967
    6U      O4'  171   4.923   4.810   2.569  0.4293  0.7453  0.3031
    6U      C1'  172   4.902   4.673   2.604  0.2585  0.5713 -0.4791
    6U      H1'  173   4.807   4.670   2.658  0.3250  0.6815 -0.3541
    6U       N1  174   4.888   4.585   2.485 -0.4834 -0.4535 -0.7546
    6U       C6  175   4.939   4.624   2.359 -0.1949  0.2154 -0.4277
    6U       H6  176   4.998   4.714   2.356  0.5793 -0.2753 -0.1886
    6U       C5  177   4.925   4.541   2.253  0.3835  0.1146  0.0632
    6U       H5  178   4.951   4.570   2.152  1.0402 -2.5944 -0.5841
    6U       C4  179   4.851   4.420   2.270 -0.5765 -0.0566 -0.3395
    6U       O4  180   4.824   4.340   2.181 -0.0279  0.0993  0.1259
    6U       N3  181   4.805   4.388   2.396 -0.5273  0.5276  0.4342
    6U       H3  182   4.754   4.300   2.397  1.7608 -0.8231  0.8369
    6U       C2  183   4.807   4.471   2.500  0.3184  1.0608 -0.2626
    6U       O2  184   4.746   4.433   2.599 -0.1945  0.9040 -0.1929
    6U      C3'  185   5.132   4.736   2.645 -0.1091 -0.2940  0.2300
    6U      H3'  186   5.186   4.710   2.554  1.7463  1.0727  0.9081
    6U      C2'  187   5.027   4.638   2.693  0.1059 -0.7474  0.6232
    6U      H2'  188   5.058   4.539   2.660 -1.2142 -1.1058  0.4415
    6U      O2'  189   4.988   4.648   2.831  0.5071 -0.7469  0.2695
    6U     HO2'  190   4.968   4.557   2.853 -1.4838 -0.0700  1.3309
    6U      O3'  191   5.221   4.739   2.757  0.1097 -0.2807  0.0624
    7U        P  192   5.368   4.667   2.737  0.0071 -0.1206 -0.1505
    7U      OP1  193   5.434   4.669   2.868  0.4298 -0.1229  0.3460
    7U      OP2  194   5.429   4.736   2.616  0.0097  0.0934  0.0446
    7U      O5'  195   5.321   4.509   2.708 -0.0119  0.2318  0.4678
    7U      C5'  196   5.286   4.439   2.824 -0.6476 -0.2272 -0.4628
    7U      H5'  197   5.215   4.502   2.878 -0.7476 -0.6030 -0.1575
    7U     H5''  198   5.366   4.430   2.899 -1.3157 -0.6280  0.2039
    7U      C4'  199   5.235   4.293   2.797  0.0691 -0.1696 -0.7721
    7U      H4'  200   5.207   4.247   2.892  0.6007  0.8693 -0.1079
    7U      O4'  201   5.125   4.300   2.709  0.5153  0.5442  0.5675
    7U      C1'  202   5.125   4.185   2.626  0.0069  0.4845 -0.3488
    7U      H1'  203   5.034   4.127   2.642  0.3274  0.0877  0.0545
    7U       N1  204   5.134   4.227   2.479  0.0676  0.1606  0.0724
    7U       C6  205   5.198   4.335   2.439 -0.0116  0.0912  0.4050
    7U       H6  206   5.250   4.395   2.513 -0.6998 -0.9999  1.7962
    7U       C5  207   5.209   4.364   2.307  0.0267 -0.6897 -0.2930
    7U       H5  208   5.263   4.452   2.275  0.2730 -0.4335  0.7928
    7U       C4  209   5.151   4.281   2.208  0.3015 -0.2330  0.0424
    7U       O4  210   5.165   4.301   2.089  0.0469  0.4192  0.3772
    7U       N3  211   5.077   4.177   2.254 -0.0455  0.3679 -0.5842
    7U       H3  212   5.048   4.104   2.191  0.5962  0.0103 -0.4657
    7U       C2  213   5.070   4.140   2.388 -0.2850  0.2380 -1.0459
    7U       O2  214   5.008   4.040   2.418  0.2467  0.6515  0.2816
    7U      C3'  215   5.345   4.203   2.732  0.5053 -0.4925 -0.7603
    7U      H3'  216   5.387   4.265   2.653 -0.8072 -0.5977 -1.5620
    7U      C2'  217   5.241   4.097   2.682  0.1965 -0.0782  1.1823
    7U      H2'  218   5.283   4.037   2.601  1.5404  0.6923  1.2882
    7U      O2'  219   5.188   4.005   2.777  0.0493  0.8106 -0.2370
    7U     HO2'  220   5.112   3.959   2.742 -1.0893  0.3580  2.7240
    7U      O3'  221   5.439   4.155   2.827  0.4451  0.1017  0.0413
    8U        P  222   5.573   4.090   2.774  0.2404  0.3711 -0.5720
    8U      OP1  223   5.686   4.156   2.846 -0.0823  0.3438 -0.0320
    8U      OP2  224   5.569   4.106   2.627 -0.4139  0.4220 -0.2655
    8U      O5'  225   5.574   3.935   2.816 -0.1261  0.2625 -0.0816
    8U      C5'  226   5.499   3.844   2.741  0.3579  0.0844  0.2675
    8U      H5'  227   5.534   3.839   2.638  2.7224  1.1381  0.9727
    8U     H5''  228   5.392   3.861   2.743  0.3273  0.0488 -0.7943
    8U      C4'  229   5.525   3.709   2.800  0.1478 -0.6710  0.4738
    8U      H4'  230   5.626   3.676   2.776  1.1791  3.3368 -1.0307
    8U      O4'  231   5.509   3.701   2.946  0.2701 -0.3032  0.2884
    8U      C1'  232   5.381   3.661   2.980 -0.3439 -0.2434 -0.5542
    8U      H1'  233   5.398   3.566   3.032  1.1538  0.1314 -0.3190
    8U       N1  234   5.310   3.751   3.073  0.6073 -0.2066  0.2220
    8U       C6  235   5.303   3.887   3.050  1.4484  0.3817  0.2302
    8U       H6  236   5.354   3.932   2.966  0.1034  2.4875  0.5144
    8U       C5  237   5.237   3.972   3.131  0.7132 -0.3481 -0.3596
    8U       H5  238   5.237   4.078   3.112 -0.8180 -0.2769 -0.0401
    8U       C4  239   5.161   3.916   3.239 -0.2059  0.4103  0.2516
    8U       O4  240   5.084   3.969   3.305  0.4809  0.2500 -0.0240
    8U       N3  241   5.173   3.785   3.263  0.0087 -1.0402  0.3633
    8U       H3  242   5.109   3.737   3.325 -2.5414 -0.6370 -1.8497
    8U       C2  243   5.244   3.697   3.182 -0.6580  0.1387  0.1046
    8U       O2  244   5.236   3.575   3.197 -0.1607  0.3618 -0.0549
    8U      C3'  245   5.419   3.611   2.750 -0.2773  0.4657  0.9966
    8U      H3'  246   5.381   3.648   2.655  0.6058  0.4791  0.6446
    8U      C2'  247   5.303   3.636   2.853 -0.3457 -0.4740 -0.1729
    8U      H2'  248   5.238   3.717   2.821 -2.0061 -1.4348  0.6772
    8U      O2'  249   5.214   3.531   2.869  0.2817 -0.3474 -0.1525
    8U     HO2'  250   5.126   3.558   2.894 -0.3826 -2.3556 -0.2558
    8U      O3'  251   5.456   3.476   2.741  0.1707 -0.7779  0.2148
    9C        P  252   5.549   3.425   2.630 -0.2850  0.3618 -0.1083
    9C      OP1  253   5.581   3.278   2.664  0.5377 -0.6706 -0.3266
    9C      OP2  254   5.658   3.520   2.603  0.2027 -0.0668  0.0428
    9C      O5'  255   5.452   3.425   2.506  0.2141 -0.2549 -0.3227
    9C      C5'  256   5.324   3.371   2.514 -0.2836 -0.0829 -0.5536
    9C      H5'  257   5.260   3.394   2.599 -2.9570  0.8264 -2.7239
    9C     H5''  258   5.336   3.263   2.514  0.2640 -0.0229  1.2372
    9C      C4'  259   5.236   3.422   2.394 -0.3765  0.1329  0.1820
    9C      H4'  260   5.141   3.370   2.397  0.0163 -0.5298  1.6182
    9C      O4'  261   5.223   3.562   2.409 -1.1672  0.1444  0.2788
    9C      C1'  262   5.248   3.630   2.285 -0.2537 -0.2778 -0.0355
    9C      H1'  263   5.157   3.633   2.224 -1.5577  3.8766  1.8992
    9C       N1  264   5.303   3.769   2.308  0.1748 -0.4281 -0.0832
    9C       C6  265   5.421   3.781   2.384  0.6565 -0.0904 -0.3617
    9C       H6  266   5.461   3.699   2.441 -1.9448 -0.5318  0.8908
    9C       C5  267   5.483   3.903   2.379  0.3464  0.3481  0.2799
    9C       H5  268   5.565   3.925   2.446 -1.1766 -1.2970  2.7344
    9C       C4  269   5.423   4.008   2.306  0.6566 -0.6122 -0.5753
    9C       N4  270   5.481   4.129   2.310  0.0423 -0.2811 -0.9668
    9C      H41  271   5.436   4.210   2.270  0.9879  0.0713 -1.3318
    9C      H42  272   5.557   4.145   2.374 -1.0295  3.5113 -0.5301
    9C       N3  273   5.316   3.993   2.228  0.9005 -0.0498  0.7128
    9C       C2  274   5.250   3.873   2.236  0.6539  1.3600  0.0074
    9C       O2  275   5.148   3.863   2.174  0.1975 -0.2747  0.1531
    9C      C3'  276   5.298   3.399   2.253 -0.2990 -0.1303  0.3349
    9C      H3'  277   5.385   3.335   2.269 -1.1668 -1.5715 -0.5941
    9C      C2'  278   5.351   3.536   2.211  0.3342 -0.1622  0.6321
    9C      H2'  279   5.449   3.558   2.254  1.2288 -1.5988 -0.6364
    9C      O2'  280   5.354   3.558   2.068  0.2263 -0.9212  0.3054
    9C     HO2'  281   5.300   3.490   2.029 -0.2278 -0.3463 -0.0817
    9C      O3'  282   5.205   3.369   2.150 -0.4379  0.3981  0.1329
   10G        P  283   5.158   3.219   2.126 -0.2719  0.2075 -0.0786
   10G      OP1  284   5.271   3.133   2.155 -0.6689  0.2233  0.5549
   10G      OP2  285   5.086   3.217   1.999 -0.3003  0.1309 -0.2799
   10G      O5'  286   5.045   3.186   2.239 -0.2154 -0.5103 -0.4326
   10G      C5'  287   4.911   3.235   2.243 -0.4720  0.6775  0.1468
   10G      H5'  288   4.860   3.179   2.164  3.3193 -1.8166 -0.6688
   10G     H5''  289   4.909   3.339   2.212 -0.9715  0.6277  0.0060
   10G      C4'  290   4.851   3.200   2.381  0.6962 -0.0435  0.1603
   10G      H4'  291   4.844   3.091   2.384 -0.7206  0.0274 -0.0969
   10G      O4'  292   4.932   3.234   2.488  0.8213 -0.4120 -0.2326
   10G      C1'  293   4.863   3.270   2.602 -0.2200 -0.3388  0.2710
   10G      H1'  294   4.881   3.201   2.685  1.0590 -0.2744  0.0594
   10G       N9  295   4.878   3.410   2.649  0.7288  0.3939  0.3158
   10G       C8  296   4.903   3.448   2.778  0.3091  0.4213  0.3439
   10G       H8  297   4.910   3.381   2.861  0.6384 -0.2204 -0.1987
   10G       N7  298   4.920   3.577   2.796 -0.3850  0.4379  0.5911
   10G       C5  299   4.922   3.628   2.670  0.1990  0.6730  0.5141
   10G       C6  300   4.951   3.755   2.619 -0.0567 -0.0784 -0.1367
   10G       O6  301   4.968   3.864   2.671  0.0474  0.2176  0.3350
   10G       N1  302   4.954   3.769   2.479 -0.1613  0.0619  0.1499
   10G       H1  303   4.982   3.859   2.443  0.4267 -1.4530 -3.4353
   10G       C2  304   4.917   3.669   2.398 -0.4679  0.2523  0.4883
   10G       N2  305   4.928   3.682   2.264  0.0672  0.4061 -0.2435
   10G      H21  306   4.896   3.605   2.207  0.8019 -1.2400  1.5410
   10G      H22  307   4.975   3.763   2.224 -0.1459  0.8133  0.3316
   10G       N3  308   4.878   3.549   2.444 -0.4261 -0.1383  0.1402
   10G       C4  309   4.887   3.525   2.579 -0.3858 -0.3637 -0.6564
   10G      C3'  310   4.716   3.261   2.412  0.6347 -0.7104  0.3375
   10G      H3'  311   4.698   3.365   2.389  0.4298 -1.0557 -1.0869
   10G      C2'  312   4.718   3.257   2.564  0.3734 -0.3146  0.1263
   10G      H2'  313   4.648   3.335   2.595  0.8205  0.1497 -0.0265
   10G      O2'  314   4.666   3.131   2.616 -0.4892 -0.1464 -0.1939
   10G     HO2'  315   4.591   3.102   2.564 -0.9126 -3.8104  2.2581
   10G      O3'  316   4.609   3.190   2.345 -0.4742  0.0339  0.6358
   11A        P  317   4.474   3.254   2.302  0.0175 -0.4835  0.1137
   11A      OP1  318   4.365   3.152   2.317 -0.2249 -0.3161  0.0335
   11A      OP2  319   4.495   3.305   2.174  0.3564  0.0399 -0.1819
   11A      O5'  320   4.440   3.376   2.398 -0.6815  0.2618 -0.0067
   11A      C5'  321   4.387   3.356   2.533 -0.8287  0.2294  0.5368
   11A      H5'  322   4.445   3.278   2.583 -1.2178  0.4957  1.4199
   11A     H5''  323   4.281   3.329   2.531 -0.6875 -0.2965  0.2340
   11A      C4'  324   4.409   3.482   2.619 -0.5009  1.0948  0.2233
   11A      H4'  325   4.396   3.442   2.720 -1.1140 -3.4725 -1.5331
   11A      O4'  326   4.541   3.534   2.612 -0.4731 -0.4850  0.6865
   11A      C1'  327   4.550   3.680   2.619  0.1210 -0.0911 -0.1044
   11A      H1'  328   4.613   3.712   2.702 -0.8868  2.3103 -0.2361
   11A       N9  329   4.583   3.745   2.493 -0.2768  0.2831  0.3167
   11A       C8  330   4.582   3.700   2.363  0.4273 -0.0335  0.6036
   11A       H8  331   4.553   3.596   2.350 -2.0410  0.9116 -1.7962
   11A       N7  332   4.622   3.785   2.274 -0.7013  0.5482 -0.4204
   11A       C5  333   4.649   3.895   2.353 -0.2698 -0.1836  0.0985
   11A       C6  334   4.685   4.025   2.323 -0.1270 -0.0652 -0.5524
   11A       N6  335   4.725   4.074   2.200 -0.3700  0.4031 -0.3918
   11A      H61  336   4.748   4.172   2.193  1.0670  0.0660 -0.5721
   11A      H62  337   4.716   4.015   2.119  0.8718  0.4010 -0.5462
   11A       N1  338   4.680   4.120   2.412 -0.1983 -0.6886  0.1475
   11A       C2  339   4.658   4.088   2.536 -1.0097 -0.1180  0.4000
   11A       H2  340   4.669   4.170   2.605  0.2521 -0.7402  0.9466
   11A       N3  341   4.644   3.965   2.586  0.2106 -0.2583  0.1299
   11A       C4  342   4.626   3.874   2.484  0.2289 -0.1598  0.1537
   11A      C3'  343   4.318   3.598   2.585 -0.4253  0.6040 -0.0074
   11A      H3'  344   4.315   3.606   2.476  1.4778  3.0639  0.0691
   11A      C2'  345   4.407   3.715   2.646 -0.1135  1.0001 -0.3618
   11A      H2'  346   4.389   3.814   2.604 -0.8616  1.4918  1.0819
   11A      O2'  347   4.388   3.723   2.787 -0.0728 -0.5466  0.2292
   11A     HO2'  348   4.306   3.678   2.809  0.1492 -0.6629  0.8419
   11A      O3'  349   4.200   3.593   2.655  0.1530  0.1093  0.0167
   12G        P  350   4.063   3.653   2.601  0.0148  0.0027 -0.4163
   12G      OP1  351   3.965   3.578   2.678  0.4997  0.6456 -0.2707
   12G      OP2  352   4.054   3.647   2.454 -0.2079  0.0335  1.3423
   12G      O5'  353   4.077   3.809   2.647 -0.3698 -0.6080 -0.1079
   12G      C5'  354   4.068   3.843   2.784 -0.1866 -0.4135  0.4828
   12G      H5'  355   4.140   3.782   2.838 -0.9356 -0.3223  1.5998
   12G     H5''  356   3.966   3.829   2.822  0.4452  0.1138  2.3970
   12G      C4'  357   4.126   3.981   2.807 -0.1772  0.0668  0.1825
   12G      H4'  358   4.123   3.996   2.915  0.1290  2.6220 -0.1556
   12G      O4'  359   4.261   3.997   2.752  0.3604 -0.2725 -0.1861
   12G      C1'  360   4.273   4.134   2.711  0.4092 -0.4066  0.5159
   12G      H1'  361   4.363   4.187   2.744 -0.0593 -0.0264  1.1802
   12G       N9  362   4.287   4.137   2.561  0.4959 -0.4536 -0.6201
   12G       C8  363   4.254   4.044   2.462 -0.6968 -0.8331 -0.2407
   12G       H8  364   4.213   3.945   2.473  0.0103 -1.1168 -0.1750
   12G       N7  365   4.317   4.071   2.351  0.3072  0.3486 -0.2897
   12G       C5  366   4.367   4.200   2.367 -1.2909 -0.6658 -0.9282
   12G       C6  367   4.435   4.294   2.277 -0.0841 -0.3277 -0.1364
   12G       O6  368   4.454   4.288   2.153 -0.0180  0.5210  0.1864
   12G       N1  369   4.471   4.415   2.336 -0.0430  0.2873  1.1374
   12G       H1  370   4.517   4.482   2.276 -2.9381  0.5184 -0.9354
   12G       C2  371   4.429   4.451   2.459  0.0279  0.2660  0.1437
   12G       N2  372   4.468   4.568   2.503  0.5499 -0.6176 -0.0892
   12G      H21  373   4.509   4.634   2.440 -0.8733  0.3707 -0.0174
   12G      H22  374   4.467   4.587   2.602 -0.3223 -1.9939  0.1801
   12G       N3  375   4.368   4.371   2.543 -0.3402 -0.7597  0.3174
   12G       C4  376   4.343   4.246   2.495  0.1374  0.6922 -0.6406
   12G      C3'  377   4.048   4.099   2.757  1.0506  0.1848  0.0355
   12G      H3'  378   4.022   4.070   2.655  0.1645  1.3612 -0.0834
   12G      C2'  379   4.150   4.208   2.762  0.3460  0.2351  0.6704
   12G      H2'  380   4.119   4.285   2.691  0.4337 -0.6163 -0.3007
   12G      O2'  381   4.177   4.266   2.884  0.3788  0.2376 -0.3744
   12G     HO2'  382   4.117   4.226   2.947  1.8646  0.1895  1.0399
   12G      O3'  383   3.930   4.131   2.837 -0.1347  0.0255 -0.3459
   13C        P  384   3.809   4.222   2.782 -0.0291  0.2484 -0.3513
   13C      OP1  385   3.717   4.233   2.898  0.1911 -0.0554  0.5539
   13C      OP2  386   3.752   4.159   2.661 -0.2997 -0.2108 -0.2820
   13C      O5'  387   3.865   4.369   2.736 -0.5703 -0.3125 -0.4439
   13C      C5'  388   3.899   4.452   2.843 -0.7576 -0.6020 -0.3262
   13C      H5'  389   3.976   4.403   2.901  1.0877  3.0611  0.4879
   13C     H5''  390   3.804   4.467   2.894 -0.6815  0.3039 -0.4353
   13C      C4'  391   3.964   4.580   2.788  0.6749 -0.1667  0.5952
   13C      H4'  392   3.991   4.652   2.865 -0.8648  0.2357  0.7815
   13C      O4'  393   4.086   4.555   2.716  0.5279  0.2205  0.0637
   13C      C1'  394   4.093   4.658   2.615 -0.3409 -0.1583  0.2904
   13C      H1'  395   4.182   4.719   2.633 -0.5308  0.3548 -0.5096
   13C       N1  396   4.112   4.587   2.486 -0.1524 -0.1887 -0.3124
   13C       C6  397   4.059   4.463   2.461  0.0846  0.2556 -0.3082
   13C       H6  398   4.004   4.405   2.534  1.1541  1.2501  1.3072
   13C       C5  399   4.079   4.397   2.337  0.3103 -0.2108 -0.4789
   13C       H5  400   4.041   4.302   2.305 -0.1611 -0.1016 -0.2496
   13C       C4  401   4.153   4.468   2.236 -0.2132  0.3595 -0.2316
   13C       N4  402   4.165   4.426   2.117 -0.2013 -0.4927 -0.2846
   13C      H41  403   4.133   4.333   2.094 -0.4138 -0.7628  1.0950
   13C      H42  404   4.207   4.481   2.044  1.8493 -0.7219  0.6934
   13C       N3  405   4.210   4.589   2.258  0.5578 -0.1907 -0.5022
   13C       C2  406   4.182   4.651   2.385  0.2671 -0.7821  0.5114
   13C       O2  407   4.228   4.764   2.404  0.5859 -0.3501 -0.3612
   13C      C3'  408   3.869   4.662   2.687 -0.0854 -0.2563  0.6257
   13C      H3'  409   3.821   4.592   2.619  2.6689 -1.8227  0.2103
   13C      C2'  410   3.969   4.750   2.614  0.1185 -0.1705  0.1723
   13C      H2'  411   3.938   4.778   2.514 -1.1548 -0.7890  0.3854
   13C      O2'  412   4.002   4.865   2.682 -0.6265 -0.9023  0.0153
   13C     HO2'  413   4.030   4.929   2.616 -0.3070 -0.7468  0.2984
   13C      O3'  414   3.772   4.748   2.748 -0.1587  0.0645 -0.2006
   14G        P  415   3.637   4.789   2.670 -0.5537 -0.5691  0.6253
   14G      OP1  416   3.552   4.859   2.765  0.0984  0.3566  0.0381
   14G      OP2  417   3.595   4.663   2.603 -0.1780 -0.1567  0.1468
   14G      O5'  418   3.684   4.888   2.549 -0.3350 -0.0713 -0.3243
   14G      C5'  419   3.721   5.021   2.589 -0.0050  0.3459  0.0327
   14G      H5'  420   3.790   5.024   2.673 -1.1480  1.7378  0.9232
   14G     H5''  421   3.625   5.068   2.610 -0.7240 -0.9303 -0.2954
   14G      C4'  422   3.788   5.090   2.471 -0.0971  0.0543  0.0097
   14G      H4'  423   3.817   5.189   2.505 -2.1931  0.3769  0.9358
   14G      O4'  424   3.906   5.028   2.426 -0.1525 -0.3688 -0.0169
   14G      C1'  425   3.913   5.024   2.282  0.4883  0.3589  1.1308
   14G      H1'  426   4.005   5.077   2.258  0.4280 -0.3976 -0.8392
   14G       N9  427   3.914   4.893   2.219 -0.2751  0.3120 -0.6758
   14G       C8  428   3.857   4.774   2.257 -0.1347  0.1575  0.2426
   14G       H8  429   3.806   4.743   2.347 -1.2533  0.7363 -0.1745
   14G       N7  430   3.867   4.680   2.170  0.2789 -0.0002  0.0917
   14G       C5  431   3.933   4.744   2.064  0.2732 -0.5687 -0.1966
   14G       C6  432   3.967   4.694   1.931 -0.2879  0.1071  0.0573
   14G       O6  433   3.951   4.582   1.884  0.1758  0.3923 -1.0367
   14G       N1  434   4.021   4.786   1.841  0.3589 -0.3790 -0.1318
   14G       H1  435   4.034   4.758   1.745  0.6175  1.6546 -0.7093
   14G       C2  436   4.039   4.914   1.883  0.0011  0.3019 -0.1546
   14G       N2  437   4.046   4.998   1.784 -0.3981 -0.3671  0.0325
   14G      H21  438   4.045   4.970   1.687  3.5686 -0.7386  0.0085
   14G      H22  439   4.043   5.096   1.809  3.4008  0.1593 -1.1897
   14G       N3  440   4.006   4.961   2.002  0.4622 -0.1751 -0.8256
   14G       C4  441   3.955   4.871   2.089  0.1618 -0.2000 -0.3443
   14G      C3'  442   3.695   5.097   2.347  0.3579  0.5652 -0.0424
   14G      H3'  443   3.644   5.003   2.327  0.7316  0.1546  0.8819
   14G      C2'  444   3.801   5.113   2.227  0.0245  0.1128 -1.1059
   14G      H2'  445   3.771   5.081   2.127  0.9643  2.4460 -2.1552
   14G      O2'  446   3.853   5.246   2.228  0.1239 -0.0179 -0.1705
   14G     HO2'  447   3.777   5.301   2.247 -0.1037 -0.9459  1.7617
   14G      O3'  448   3.620   5.213   2.354 -0.1261 -0.1382  0.1505
   15C        P  449   3.483   5.240   2.262  0.2823  0.4598  0.2928
   15C      OP1  450   3.436   5.375   2.303 -0.6006  0.0750  0.0046
   15C      OP2  451   3.392   5.128   2.269  0.5529 -0.0432 -0.4835
   15C      O5'  452   3.545   5.249   2.113 -0.0383 -0.1246 -0.1350
   15C      C5'  453   3.596   5.374   2.062  0.1764 -0.2888  0.6715
   15C      H5'  454   3.679   5.404   2.126 -0.1933  1.8588  0.1815
   15C     H5''  455   3.517   5.448   2.068  0.1442 -0.3514  1.0029
   15C      C4'  456   3.655   5.363   1.919  0.1149 -0.3073  0.1751
   15C      H4'  457   3.695   5.456   1.879 -1.4319  0.1310 -0.3797
   15C      O4'  458   3.747   5.259   1.911 -0.2510 -0.1309 -0.2980
   15C      C1'  459   3.734   5.195   1.787  0.0938 -0.1735 -0.3174
   15C      H1'  460   3.831   5.196   1.737  0.9536  1.2274  1.3311
   15C       N1  461   3.703   5.049   1.798  0.0782  0.4136  0.5901
   15C       C6  462   3.638   4.993   1.903 -0.1754  0.4880  0.8031
   15C       H6  463   3.602   5.058   1.980 -1.1670  1.0980 -0.1618
   15C       C5  464   3.618   4.860   1.913  0.9721 -0.1557  0.3889
   15C       H5  465   3.569   4.820   2.001 -0.6433  1.4962  0.2709
   15C       C4  466   3.675   4.781   1.810 -0.0351  0.0710 -0.4845
   15C       N4  467   3.659   4.654   1.814  0.1653 -0.0263 -0.3572
   15C      H41  468   3.619   4.610   1.896 -1.7230  1.6320 -0.3683
   15C      H42  469   3.690   4.601   1.733  1.9960 -0.1986  0.4369
   15C       N3  470   3.726   4.831   1.698  0.6809  0.0697 -0.1881
   15C       C2  471   3.740   4.967   1.692 -0.6173 -0.2080 -0.2750
   15C       O2  472   3.781   5.022   1.588  0.6304  0.5923 -0.1957
   15C      C3'  473   3.552   5.325   1.816 -0.2303  0.2549  0.4071
   15C      H3'  474   3.491   5.245   1.858  0.9753 -1.5743 -1.2649
   15C      C2'  475   3.633   5.275   1.706 -0.4328  0.5658  0.4277
   15C      H2'  476   3.578   5.204   1.644 -0.7801 -0.5486  1.9867
   15C      O2'  477   3.710   5.374   1.644  0.0662 -0.1556  0.6360
   15C     HO2'  478   3.664   5.458   1.647 -1.8997 -1.1308 -1.3594
   15C      O3'  479   3.472   5.437   1.784  0.2747  0.0273 -0.1233
   16U3       P  480   3.315   5.417   1.752  0.2961  0.1479  0.1913
   16U3     OP1  481   3.251   5.550   1.743 -0.3098 -0.1308  0.1445
   16U3     OP2  482   3.252   5.309   1.833 -0.2274 -0.3120  0.2834
   16U3     O5'  483   3.313   5.351   1.606  0.3285 -0.5967 -0.1978
   16U3     C5'  484   3.365   5.422   1.496  0.4861 -0.2099 -0.0171
   16U3     H5'  485   3.454   5.478   1.527  0.0529 -0.0871  1.0584
   16U3    H5''  486   3.302   5.507   1.469  2.5163  0.8729 -1.4500
   16U3     C4'  487   3.392   5.335   1.370 -0.3130  0.1846 -0.5676
   16U3     H4'  488   3.430   5.410   1.301  1.5752 -0.1887  0.0345
   16U3     O4'  489   3.492   5.231   1.394  0.0996 -0.0366  0.2830
   16U3     C1'  490   3.460   5.119   1.315  0.0474  0.6411 -1.0358
   16U3     H1'  491   3.534   5.100   1.236 -0.3489 -1.2930 -0.9684
   16U3      N1  492   3.451   4.996   1.396  0.6312  0.1229  0.8530
   16U3      C6  493   3.400   4.998   1.521 -0.3411  0.0140 -0.4968
   16U3      H6  494   3.374   5.093   1.566  0.1827 -0.2349  0.3623
   16U3      C5  495   3.389   4.887   1.594  0.4272  1.0507 -0.9506
   16U3      H5  496   3.350   4.894   1.694  1.4233 -0.4802 -0.4256
   16U3      C4  497   3.420   4.757   1.541 -0.1833 -0.5879  0.3725
   16U3      O4  498   3.402   4.650   1.597  0.1854 -0.0079  0.4787
   16U3      N3  499   3.460   4.759   1.412 -0.5577 -0.4626 -0.3808
   16U3      H3  500   3.487   4.674   1.364  2.1645  0.7783 -1.1451
   16U3      C2  501   3.493   4.871   1.338 -0.7807  0.6395 -0.3071
   16U3      O2  502   3.554   4.853   1.228  0.5495 -0.0611  0.1794
   16U3     C3'  503   3.271   5.261   1.315 -0.7490  0.3822 -0.0844
   16U3     H3'  504   3.213   5.224   1.399 -1.3440  0.9294 -0.2525
   16U3     C2'  505   3.332   5.149   1.238 -0.5449  0.4530 -0.3209
   16U3     H2'  506   3.269   5.060   1.235  1.6194 -1.1844  0.5044
   16U3     O2'  507   3.369   5.175   1.109  0.1215 -0.0412  0.2583
   16U3    HO2'  508   3.286   5.163   1.061  0.1969  0.9535 -0.1383
   16U3     O3'  509   3.172   5.339   1.247  1.0243  0.1230  0.5028
   16U3    HO3'  510   3.104   5.280   1.214  0.9015 -0.8748  2.4841
   17SOL      O  511   0.016   4.808   0.316  0.7931  0.0549  0.0598
   17SOL     H1  512   0.066   4.731   0.344 -0.7604 -0.1550  2.3849
   17SOL     H2  513   0.076   4.881   0.328  1.8892 -0.6294 -1.0738
   17SOL    EPW  514   0.028   4.807   0.320  0.7443 -0.0405  0.1869
   18SOL      O  515   3.121   1.609   1.891  0.2091 -0.3728  0.2408
   18SOL     H1  516   3.148   1.532   1.940 -1.3215 -2.0121 -1.4387
   18SOL     H2  517   3.181   1.614   1.817  1.0655  0.7754  0.9863
   18SOL    EPW  518   3.130   1.601   1.888  0.1372 -0.4252  0.1412
   19SOL      O  519   2.704   4.728   4.145  0.1917  0.1380 -0.0821
   19SOL     H1  520   2.730   4.641   4.116 -0.9614 -0.4652  0.6632
   19SOL     H2  521   2.611   4.734   4.123  0.3779  1.3517 -0.5493
   19SOL    EPW  522   2.697   4.719   4.140  0.0886  0.2031 -0.0524
   20SOL      O  523   2.260   1.947   0.828 -0.1502 -0.0284  0.2377
   20SOL     H1  524   2.335   2.004   0.844  0.7444 -1.1830  0.1881
   20SOL     H2  525   2.188   1.988   0.877  0.0962  1.9659 -1.0143
   20SOL    EPW  526   2.260   1.957   0.835 -0.0285  0.0612  0.0989
   21SOL      O  527   0.804   1.630   0.729 -0.2261  0.1622 -0.0267
   21SOL     H1  528   0.729   1.656   0.781 -0.1754  1.5176 -0.5972
   21SOL     H2  529   0.786   1.664   0.641  1.6749  1.7545  0.1561
   21SOL    EPW  530   0.794   1.636   0.725 -0.0179  0.4767 -0.0681
   22SOL      O  531   1.963   1.026   1.751  0.1377 -0.3355  0.3777
   22SOL     H1  532   1.944   1.088   1.682 -2.0394 -0.9689  0.3726
   22SOL     H2  533   1.971   1.079   1.830  2.0429  0.3219 -0.2363
   22SOL    EPW  534   1.962   1.038   1.752  0.1087 -0.3330  0.3116
   23SOL      O  535   1.498   3.133   3.108  0.2783  0.1151  0.2106
   23SOL     H1  536   1.536   3.103   3.191 -0.1901 -0.2346  0.2991
   23SOL     H2  537   1.429   3.195   3.135  0.2119  0.0982  0.0767
   23SOL    EPW  538   1.495   3.137   3.120  0.2212  0.0760  0.2058
   24SOL      O  539   5.291   1.890   0.201  0.2585 -0.4664 -0.1937
   24SOL     H1  540   5.240   1.960   0.161  0.0990 -0.9995 -0.9207
   24SOL     H2  541   5.235   1.812   0.196  0.6040 -0.7480  0.2253
   24SOL    EPW  542   5.280   1.889   0.197  0.2783 -0.5533 -0.2265
   25SOL      O  543   4.053   2.203   1.437  0.2597 -0.0457 -0.5708
   25SOL     H1  544   4.032   2.202   1.530 -0.2510 -0.3037 -0.6887
   25SOL     H2  545   4.107   2.281   1.426 -2.0321  1.5779 -0.5801
   25SOL    EPW  546   4.057   2.211   1.446 -0.0392  0.1000 -0.5844
   26SOL      O  547   2.709   3.021   3.909 -0.2264  0.1098 -0.0392
   26SOL     H1  548   2.757   2.959   3.854  0.1730  0.8707 -0.5593
   26SOL     H2  549   2.777   3.059   3.966 -0.7203 -1.0937  1.4079
   26SOL    EPW  550   2.722   3.018   3.910 -0.2365  0.0626  0.0597
   27SOL      O  551   5.058   2.787   1.102  0.2876 -0.2313 -0.4662
   27SOL     H1  552   4.975   2.815   1.141 -0.0530  0.5638 -1.7189
   27SOL     H2  553   5.124   2.841   1.146  0.3138 -1.8344  1.5180
   27SOL    EPW  554   5.056   2.796   1.111  0.2541 -0.3175 -0.3882
   28SOL      O  555   0.195   0.845   0.887 -0.6389 -0.5288  0.3948
   28SOL     H1  556   0.191   0.927   0.838  2.5638 -0.3417  0.3392
   28SOL     H2  557   0.165   0.779   0.824 -0.6859  0.2467 -0.4179
   28SOL    EPW  558   0.191   0.847   0.875 -0.3023 -0.4261  0.3022
   29SOL      O  559   3.974   4.115   3.995  0.6698 -0.2261  0.1582
   29SOL     H1  560   3.919   4.074   3.929 -0.7383 -0.6052  1.5280
   29SOL     H2  561   4.000   4.043   4.052 -1.1001  0.5984  2.0709
   29SOL    EPW  562   3.971   4.103   3.994  0.3308 -0.1786  0.5083
   30SOL      O  563   0.356   1.874   1.391 -0.3456  0.5184  0.5884
   30SOL     H1  564   0.300   1.840   1.322  0.2960 -0.2078  0.4190
   30SOL     H2  565   0.443   1.838   1.372  0.1495  1.5095  0.9286
   30SOL    EPW  566   0.359   1.866   1.382 -0.2244  0.5467  0.6066
   31SOL      O  567   2.017   2.296   3.808  0.3529 -0.0657 -0.3928
   31SOL     H1  568   2.051   2.280   3.897  1.8868  1.4099 -0.6959
   31SOL     H2  569   1.930   2.333   3.822  1.2108  1.6354  0.5426
   31SOL    EPW  570   2.012   2.298   3.819  0.6081  0.2732 -0.3254
   32SOL      O  571   5.776   1.476   1.318  0.4973 -0.2863  0.5346
   32SOL     H1  572   5.730   1.560   1.320  2.5090  0.9176 -1.3592
   32SOL     H2  573   5.860   1.496   1.277  1.5224 -2.9984  1.2081
   32SOL    EPW  574   5.780   1.487   1.314  0.8213 -0.4472  0.4044
   33SOL      O  575   0.340   2.193   1.629  0.0808  0.1380  0.0085
   33SOL     H1  576   0.245   2.198   1.620 -0.1534 -1.0931  1.5943
   33SOL     H2  577   0.354   2.151   1.714  2.0449  0.2066 -0.2569
   33SOL    EPW  578   0.331   2.189   1.637  0.2653  0.0139  0.1493
   34SOL      O  579   2.232   0.930   0.849 -0.0437  0.4499 -0.2984
   34SOL     H1  580   2.235   0.842   0.886 -1.4939  0.1750 -0.8087
   34SOL     H2  581   2.192   0.920   0.763  0.9760  1.4411 -0.9090
   34SOL    EPW  582   2.228   0.920   0.844 -0.0896  0.5263 -0.4180
   35SOL      O  583   5.352   2.563   1.804 -0.4907 -0.4605  0.0031
   35SOL     H1  584   5.355   2.634   1.740  0.9123  0.4674  1.1009
   35SOL     H2  585   5.283   2.589   1.865  1.8863  1.3598  2.0033
   35SOL    EPW  586   5.345   2.573   1.804 -0.0875 -0.1673  0.3336
   36SOL      O  587   2.310   3.677   3.898  0.1509  0.5498  0.2008
   36SOL     H1  588   2.289   3.672   3.805  2.2220  0.7626 -0.3069
   36SOL     H2  589   2.385   3.618   3.909 -1.2189 -0.9035  2.1015
   36SOL    EPW  590   2.316   3.670   3.890  0.2257  0.4175  0.3494
   37SOL      O  591   0.498   3.151   1.468 -0.0788 -0.7650 -0.3893
   37SOL     H1  592   0.559   3.126   1.399  0.1834  0.5559 -0.6568
   37SOL     H2  593   0.469   3.239   1.444 -0.2451 -0.4142  0.9997
   37SOL    EPW  594   0.501   3.158   1.458 -0.0685 -0.5867 -0.2697
   38SOL      O  595   3.488   4.332   3.963  0.2506 -0.2991 -0.0483
   38SOL     H1  596   3.522   4.397   4.024  0.5663  1.5883 -2.1400
   38SOL     H2  597   3.396   4.321   3.989  0.3828  0.4891  0.7809
   38SOL    EPW  598   3.481   4.338   3.972  0.2984 -0.0137 -0.1830
   39SOL      O  599   0.845   4.620   0.058 -0.1222 -0.5756 -0.0437
   39SOL     H1  600   0.915   4.565   0.092  1.8647  0.1694 -2.7589
   39SOL     H2  601   0.806   4.567  -0.012  0.1286  0.4351 -0.9586
   39SOL    EPW  602   0.848   4.608   0.054  0.1165 -0.3883 -0.4309
   40SOL      O  603   0.310   5.702   0.086 -0.3852 -0.3545 -0.0050
   40SOL     H1  604   0.390   5.744   0.056 -0.1892 -0.7068  0.0203
   40SOL     H2  605   0.336   5.611   0.104 -0.7798 -0.4597  0.0372
   40SOL    EPW  606   0.321   5.697   0.085 -0.4064 -0.4033  0.0022
   41SOL      O  607   5.564   0.101   0.500  0.3682 -0.3544 -0.4535
   41SOL     H1  608   5.613   0.155   0.438  0.7153 -0.2588 -0.1027
   41SOL     H2  609   5.503   0.051   0.446 -1.6473  2.1660 -0.5845
   41SOL    EPW  610   5.563   0.102   0.488  0.1902 -0.0753 -0.4300
   42SOL      O  611   5.131   2.235   0.945  0.6269  0.2150 -0.1361
   42SOL     H1  612   5.125   2.143   0.920 -1.4875  0.2687  0.1549
   42SOL     H2  613   5.176   2.234   1.029 -2.4557 -0.8418  1.5599
   42SOL    EPW  614   5.135   2.225   0.951  0.0725  0.1080  0.0758
   43SOL      O  615   3.483   3.293   3.503  0.1548  0.5315  0.1381
   43SOL     H1  616   3.573   3.287   3.537  0.0279  1.3562  0.6335
   43SOL     H2  617   3.468   3.387   3.491 -0.9973  0.4729  1.0355
   43SOL    EPW  618   3.491   3.303   3.506  0.0184  0.6133  0.2867
   44SOL      O  619   1.281   1.992   0.103  0.0240  0.6042 -0.1611
   44SOL     H1  620   1.194   2.030   0.107 -0.0407  0.5525 -0.8880
   44SOL     H2  621   1.292   1.967   0.011  0.3672 -0.4227  0.1461
   44SOL    EPW  622   1.273   1.993   0.093  0.0537  0.4892 -0.2059
   45SOL      O  623   0.583   2.817   1.453 -0.2201 -0.5009  0.0926
   45SOL     H1  624   0.565   2.811   1.359  1.2065  0.3517 -0.2525
   45SOL     H2  625   0.665   2.865   1.458  0.6187 -2.0407  1.7138
   45SOL    EPW  626   0.590   2.821   1.443  0.0216 -0.5742  0.2287
   46SOL      O  627   3.997   3.622   3.700 -0.4255 -0.4248  0.0392
   46SOL     H1  628   4.078   3.623   3.648  1.1070  1.2913  2.3600
   46SOL     H2  629   3.996   3.535   3.740  0.1342 -0.5465 -0.2071
   46SOL    EPW  630   4.006   3.612   3.699 -0.2023 -0.2547  0.2605
   47SOL      O  631   4.626   2.596   3.774  0.1420  0.4868  0.0560
   47SOL     H1  632   4.612   2.556   3.688 -1.2764  1.6762 -0.2793
   47SOL     H2  633   4.652   2.686   3.754  0.1009  0.6782  0.8758
   47SOL    EPW  634   4.627   2.601   3.762 -0.0137  0.6341  0.1076
   48SOL      O  635   0.152   1.534   1.236  0.7424  0.6086 -0.1007
   48SOL     H1  636   0.173   1.623   1.209 -0.0546  0.5451 -0.9638
   48SOL     H2  637   0.191   1.525   1.323 -0.5967  2.3699  0.7221
   48SOL    EPW  638   0.158   1.542   1.242  0.5145  0.7897 -0.1050
   49SOL      O  639   0.137   3.424   4.025  0.1363 -0.3924 -0.7899
   49SOL     H1  640   0.176   3.481   3.958  0.1678  1.2494  0.6023
   49SOL     H2  641   0.177   3.451   4.107 -0.0669 -2.2523 -0.0388
   49SOL    EPW  642   0.145   3.433   4.026  0.1180 -0.4156 -0.5613
   50SOL      O  643   1.206   1.130   0.384  0.5131  0.3368 -0.2168
   50SOL     H1  644   1.115   1.114   0.362  0.2899 -0.9314  1.5361
   50SOL     H2  645   1.253   1.054   0.348  0.6983  0.2813  0.1433
   50SOL    EPW  646   1.202   1.120   0.377  0.5091  0.1956  0.0086
   51SOL      O  647   4.067   2.898   3.524 -0.5380  0.0093 -0.4245
   51SOL     H1  648   4.151   2.860   3.549 -0.0593  1.2743 -0.0532
   51SOL     H2  649   4.046   2.858   3.440  0.0632 -0.8768 -0.1554
   51SOL    EPW  650   4.073   2.890   3.518 -0.4228  0.0497 -0.3562
   52SOL      O  651   0.585   0.676   1.828 -0.2838 -0.0340  0.5140
   52SOL     H1  652   0.529   0.720   1.764  1.5833  2.2896  0.3856
   52SOL     H2  653   0.524   0.641   1.894 -1.9700  0.9821 -0.4720
   52SOL    EPW  654   0.572   0.677   1.828 -0.2645  0.3223  0.3951
   53SOL      O  655   4.980   1.271   0.695 -0.7049 -0.0866 -0.5862
   53SOL     H1  656   4.907   1.211   0.713 -2.3105  1.8449 -0.5607
   53SOL     H2  657   5.022   1.283   0.780  0.4929 -2.2263 -0.8282
   53SOL    EPW  658   4.977   1.266   0.706 -0.7484 -0.1088 -0.6093
   54SOL      O  659   1.591   4.739   1.133  0.4833  0.0404 -0.1328
   54SOL     H1  660   1.524   4.720   1.199  1.0285  1.1176  0.7485
   54SOL     H2  661   1.542   4.752   1.052 -0.3562  0.4725  0.4354
   54SOL    EPW  662   1.578   4.738   1.132  0.4519  0.2014  0.0218
   55SOL      O  663   2.463   5.321   3.574 -0.0229  0.5609  0.2409
   55SOL     H1  664   2.522   5.255   3.537  0.3622  0.2464  1.3962
   55SOL     H2  665   2.391   5.328   3.511  1.5338  1.3920 -1.5017
   55SOL    EPW  666   2.462   5.315   3.563  0.1842  0.6160  0.1782
   56SOL      O  667   1.468   0.082   0.905 -0.1906  0.4124 -0.2198
   56SOL     H1  668   1.386   0.098   0.951  1.0495  3.5318  0.9977
   56SOL     H2  669   1.535   0.080   0.973  1.1225  0.7475 -1.4578
   56SOL    EPW  670   1.466   0.083   0.917  0.0818  0.7809 -0.2220
   57SOL      O  671   1.296   3.124   0.094  0.3121  0.0928  0.1807
   57SOL     H1  672   1.273   3.159   0.180 -3.7535  0.5686 -0.9688
   57SOL     H2  673   1.299   3.200   0.037 -0.0041 -0.5094 -0.6531
   57SOL    EPW  674   1.294   3.136   0.097 -0.1554  0.0793 -0.0308
   58SOL      O  675   2.044   3.083   4.033  0.0446  0.4243 -0.2147
   58SOL     H1  676   2.045   3.007   3.975  1.7666  1.1631 -1.2027
   58SOL     H2  677   1.977   3.141   3.997  2.5380  1.8425 -2.8315
   58SOL    EPW  678   2.037   3.081   4.023  0.4943  0.6544 -0.5992
   59SOL      O  679   4.011   1.891   3.420  0.6985 -0.2627 -0.0824
   59SOL     H1  680   4.021   1.799   3.444  0.8828 -0.5441 -1.1804
   59SOL     H2  681   4.044   1.895   3.330  2.6057  1.2605  0.6387
   59SOL    EPW  682   4.016   1.882   3.413  0.9216 -0.1302 -0.1226
   60SOL      O  683   5.813   1.228   1.424 -0.3069  0.1505 -0.0360
   60SOL     H1  684   5.774   1.311   1.397  1.5943  1.1303  0.1246
   60SOL     H2  685   5.890   1.218   1.368  0.4358 -0.6635  1.0973
   60SOL    EPW  686   5.818   1.236   1.415 -0.0248  0.1682  0.1020
   61SOL      O  687   1.641   5.773   0.719 -0.5059 -0.3443  0.2889
   61SOL     H1  688   1.654   5.694   0.666 -1.4814 -0.0691 -0.3788
   61SOL     H2  689   1.729   5.809   0.731  0.0275 -1.9078  1.1991
   61SOL    EPW  690   1.652   5.769   0.714 -0.5531 -0.4818  0.3148
   62SOL      O  691   0.480   0.414   1.145 -0.4549 -0.2882 -1.0772
   62SOL     H1  692   0.454   0.498   1.105  3.8265  3.5034  3.4238
   62SOL     H2  693   0.406   0.390   1.200 -0.8738  1.7710 -0.6955
   62SOL    EPW  694   0.469   0.421   1.146 -0.0429  0.3360 -0.5564
   63SOL      O  695   1.010   1.476   0.624  0.1156 -0.1510  0.1977
   63SOL     H1  696   0.950   1.538   0.667  0.2315  0.0107  0.1296
   63SOL     H2  697   1.051   1.429   0.696  0.0791 -0.0992  0.2526
   63SOL    EPW  698   1.008   1.478   0.636  0.1240 -0.1282  0.1963
   64SOL      O  699   1.478   0.748   2.835  0.0130 -0.3197  0.2760
   64SOL     H1  700   1.415   0.679   2.852 -0.5201  0.5494  2.0408
   64SOL     H2  701   1.425   0.825   2.815  0.5309  0.1357  0.6160
   64SOL    EPW  702   1.466   0.749   2.835  0.0114 -0.1784  0.5005
   65SOL      O  703   0.147   0.298   0.916 -0.0874  0.4769 -0.0467
   65SOL     H1  704   0.073   0.328   0.968 -0.2210  0.7549 -0.3945
   65SOL     H2  705   0.152   0.204   0.934 -1.1233  0.2781 -0.7609
   65SOL    EPW  706   0.139   0.291   0.923 -0.2121  0.4854 -0.1600
   66SOL      O  707   3.161   2.313   3.777 -0.0719 -0.1111  0.8859
   66SOL     H1  708   3.074   2.289   3.809 -0.5403 -0.3459 -0.5142
   66SOL     H2  709   3.221   2.282   3.844 -0.9048 -2.1439  0.7244
   66SOL    EPW  710   3.158   2.307   3.787 -0.2107 -0.3530  0.7193
   67SOL      O  711   2.866   1.718   2.270 -0.3212  0.0769 -0.3107
   67SOL     H1  712   2.930   1.754   2.209  0.5288  1.9033  1.5796
   67SOL     H2  713   2.889   1.758   2.354 -2.2048 -1.4375  0.9567
   67SOL    EPW  714   2.876   1.726   2.272 -0.4314  0.1101  0.0262
   68SOL      O  715   2.049   5.019   1.438  0.3515 -0.2153 -0.4827
   68SOL     H1  716   2.005   4.994   1.357 -0.9690  2.5404 -0.6718
   68SOL     H2  717   2.142   5.023   1.415  0.3835 -2.7033 -0.9512
   68SOL    EPW  718   2.054   5.016   1.427  0.2141 -0.1867 -0.5528
   69SOL      O  719   1.499   1.049   0.688  0.2286 -0.1476  0.1233
   69SOL     H1  720   1.539   1.035   0.774 -0.3762 -0.4426  0.3614
   69SOL     H2  721   1.566   1.023   0.625  0.6670  0.0520  0.5083
   69SOL    EPW  722   1.510   1.045   0.691  0.2109 -0.1578  0.1898
   70SOL      O  723   0.917   0.287   1.542  0.1315  0.0040  0.3125
   70SOL     H1  724   0.828   0.306   1.512 -0.2403 -2.4984 -0.2912
   70SOL     H2  725   0.909   0.203   1.588  2.4978 -1.2358 -1.4313
   70SOL    EPW  726   0.907   0.280   1.544  0.3443 -0.3952  0.0620
   71SOL      O  727   5.621   0.629   1.832 -0.4033  0.4108  0.8450
   71SOL     H1  728   5.603   0.722   1.843  1.0215  0.7062  0.7242
   71SOL     H2  729   5.705   0.625   1.787 -0.0029 -0.9465  1.6696
   71SOL    EPW  730   5.628   0.638   1.828 -0.2086  0.2975  0.9201
   72SOL      O  731   2.818   2.128   2.200  0.1399  0.0575 -0.0096
   72SOL     H1  732   2.773   2.189   2.258  0.0394  0.7578 -0.8139
   72SOL     H2  733   2.867   2.070   2.259 -0.1204  0.6332  0.7736
   72SOL    EPW  734   2.819   2.128   2.212  0.1014  0.1936 -0.0118
   73SOL      O  735   5.177   0.037   0.504  0.4048 -0.2275 -0.6317
   73SOL     H1  736   5.228   0.117   0.506  0.9871 -0.5793 -1.1199
   73SOL     H2  737   5.098   0.059   0.454  0.1676  0.2590 -0.0460
   73SOL    EPW  738   5.174   0.048   0.499  0.4416 -0.2131 -0.6213
   74SOL      O  739   2.053   0.466   2.599 -0.3019  0.4877 -0.2785
   74SOL     H1  740   2.122   0.456   2.665  0.6956  1.5793 -1.1329
   74SOL     H2  741   1.975   0.432   2.642  0.6682 -0.3486  0.8779
   74SOL    EPW  742   2.052   0.461   2.611 -0.0920  0.5149 -0.2462
   75SOL      O  743   0.744   2.251   1.220  0.0145  0.1441 -0.3057
   75SOL     H1  744   0.692   2.331   1.216  0.2287  0.2529 -0.9063
   75SOL     H2  745   0.769   2.244   1.312  0.1413  0.8592 -0.2832
   75SOL    EPW  746   0.741   2.259   1.230  0.0509  0.2320 -0.3674
   76SOL      O  747   1.722   1.351   1.043  0.0484  0.2777  0.0397
   76SOL     H1  748   1.774   1.411   1.098 -1.7892  1.9559  0.0122
   76SOL     H2  749   1.770   1.346   0.961 -0.3260  2.6484 -0.3644
   76SOL    EPW  750   1.733   1.357   1.040 -0.1876  0.7097 -0.0063
   77SOL      O  751   0.270   1.179   0.452  0.9448  0.3731 -0.3317
   77SOL     H1  752   0.293   1.188   0.359  3.0266 -0.3485  0.0763
   77SOL     H2  753   0.270   1.268   0.486 -1.5011  0.8042 -1.3709
   77SOL    EPW  754   0.272   1.189   0.446  0.9060  0.3421 -0.3990
   78SOL      O  755   1.269   1.562   0.275  0.1227  0.4415 -0.0820
   78SOL     H1  756   1.352   1.567   0.323  0.5913 -0.7125 -0.7536
   78SOL     H2  757   1.294   1.572   0.183 -0.0359 -3.4862 -0.6220
   78SOL    EPW  758   1.280   1.564   0.270  0.1558 -0.1006 -0.2113
   79SOL      O  759   3.885   2.418   3.806  0.6251  0.1298 -0.1519
   79SOL     H1  760   3.963   2.385   3.762  1.6459  1.2474  0.7794
   79SOL     H2  761   3.816   2.357   3.781  2.2506 -2.1693  0.7371
   79SOL    EPW  762   3.886   2.408   3.799  0.9074  0.0038  0.0423
   80SOL      O  763   0.064   3.061   2.297 -0.1760 -0.3506  0.6535
   80SOL     H1  764   0.035   3.081   2.386 -2.0607 -0.4577  0.0933
   80SOL     H2  765   0.121   2.984   2.307 -0.0318 -0.1071  1.8050
   80SOL    EPW  766   0.067   3.055   2.308 -0.3617 -0.3360  0.7165
   81SOL      O  767   2.844   3.990   3.833  0.5217  0.3659  0.4016
   81SOL     H1  768   2.754   4.001   3.804  0.3483  0.1295  0.8465
   81SOL     H2  769   2.842   4.010   3.927  0.3757 -2.4207  1.0284
   81SOL    EPW  770   2.834   3.993   3.840  0.4876  0.0434  0.5159
   82SOL      O  771   5.564   0.663   1.552  0.3698 -0.5634  0.1558
   82SOL     H1  772   5.591   0.662   1.643 -0.4583 -1.9505  0.4044
   82SOL     H2  773   5.506   0.739   1.545  1.8472  0.6035  0.3384
   82SOL    EPW  774   5.561   0.671   1.561  0.4390 -0.5869  0.2018
   83SOL      O  775   5.262   0.289   0.445 -0.4312 -0.0538 -0.3616
   83SOL     H1  776   5.261   0.270   0.352 -0.9215  0.0175 -0.3766
   83SOL     H2  777   5.203   0.364   0.455  1.2107  1.2634 -0.2622
   83SOL    EPW  778   5.255   0.295   0.436 -0.3084  0.0943 -0.3526
   84SOL      O  779   2.208   0.472   0.317  0.4718  0.0908 -0.0135
   84SOL     H1  780   2.193   0.454   0.409  0.7387 -2.7258 -0.4663
   84SOL     H2  781   2.285   0.529   0.315  0.9780 -0.5379  1.4534
   84SOL    EPW  782   2.214   0.476   0.326  0.5542 -0.2768  0.0947
   85SOL      O  783   1.214   1.572   1.296  0.3296  0.4005  0.7565
   85SOL     H1  784   1.169   1.615   1.223  2.3238  1.5136  0.1376
   85SOL     H2  785   1.220   1.480   1.269  2.9663  1.1912 -1.5130
   85SOL    EPW  786   1.210   1.566   1.285  0.8236  0.6036  0.4483
   86SOL      O  787   2.769   1.922   1.364  0.6017 -0.8830 -0.5597
   86SOL     H1  788   2.797   1.849   1.310  1.6475 -1.3363  0.5603
   86SOL     H2  789   2.695   1.887   1.415  0.4377 -0.8431 -0.7691
   86SOL    EPW  790   2.764   1.910   1.364  0.6957 -0.9271 -0.4625
   87SOL      O  791   5.640   0.502   0.104  0.1462  0.0655 -0.3019
   87SOL     H1  792   5.675   0.422   0.143  2.3225  1.0956 -0.0496
   87SOL     H2  793   5.701   0.571   0.131 -0.9769  1.6036 -1.5573
   87SOL    EPW  794   5.650   0.501   0.111  0.2586  0.3395 -0.4089
   88SOL      O  795   1.204   5.543   1.236  0.2631  0.2354  0.1756
   88SOL     H1  796   1.270   5.477   1.259  0.1420 -0.2988 -1.0031
   88SOL     H2  797   1.121   5.496   1.238  0.0964  0.5226  0.0132
   88SOL    EPW  798   1.202   5.531   1.239  0.2324  0.2091  0.0325
   89SOL      O  799   1.140   0.359   0.729 -0.2370  0.1596  0.5309
   89SOL     H1  800   1.172   0.379   0.817 -0.2359  1.3632  0.2518
   89SOL     H2  801   1.048   0.337   0.741 -0.8026  2.4717  0.5474
   89SOL    EPW  802   1.134   0.358   0.740 -0.2972  0.5347  0.5029
   90SOL      O  803   1.465   1.706   2.460 -0.3678 -0.0183  0.9151
   90SOL     H1  804   1.376   1.725   2.431  0.1165  0.4643 -0.2875
   90SOL     H2  805   1.496   1.638   2.400  0.5254  0.7391  0.5124
   90SOL    EPW  806   1.459   1.701   2.451 -0.2209  0.1140  0.7439
   91SOL      O  807   4.607   4.270   3.726 -0.9034 -0.4090 -0.1545
   91SOL     H1  808   4.587   4.259   3.633  0.0569 -1.0909 -0.2913
   91SOL     H2  809   4.572   4.191   3.768  1.5182 -1.6436 -0.4081
   91SOL    EPW  810   4.601   4.260   3.721 -0.5426 -0.6135 -0.1961
   92SOL      O  811   1.837   0.629   1.745  0.0577  0.8088  0.1153
   92SOL     H1  812   1.789   0.711   1.757 -1.3270  0.1633 -0.8334
   92SOL     H2  813   1.778   0.561   1.778  0.6904  0.0807 -0.2213
   92SOL    EPW  814   1.826   0.630   1.750 -0.0225  0.6622 -0.0218
   93SOL      O  815   4.336   0.645   0.533 -0.9348 -0.4261 -0.2657
   93SOL     H1  816   4.313   0.615   0.445 -0.2071 -0.0767 -0.5828
   93SOL     H2  817   4.384   0.726   0.518 -1.0181 -0.2408  0.4722
   93SOL    EPW  818   4.339   0.650   0.522 -0.8661 -0.3691 -0.2208
   94SOL      O  819   2.893   3.309   3.946  0.2677  0.1270  0.3230
   94SOL     H1  820   2.924   3.271   4.028 -0.8766  2.3684  1.8265
   94SOL     H2  821   2.946   3.388   3.934 -0.4769  0.5168 -0.4403
   94SOL    EPW  822   2.902   3.313   3.953  0.0662  0.4077  0.4020
   95SOL      O  823   4.193   5.200   0.195  0.1192 -0.2329 -0.2102
   95SOL     H1  824   4.099   5.216   0.208 -0.0324 -1.1672 -0.1095
   95SOL     H2  825   4.219   5.149   0.271  0.5645 -0.5613 -0.5819
   95SOL    EPW  826   4.186   5.196   0.204  0.1505 -0.3676 -0.2391
   96SOL      O  827   1.388   0.916   0.362  0.3634  0.0115  0.2405
   96SOL     H1  828   1.410   0.928   0.269 -0.7872  0.6104  0.0275
   96SOL     H2  829   1.373   0.822   0.371  1.8339 -0.2411  0.1339
   96SOL    EPW  830   1.389   0.907   0.353  0.3975  0.0484  0.2064
   97SOL      O  831   5.499   5.518   0.967 -0.1240 -0.6279  0.0546
   97SOL     H1  832   5.509   5.423   0.981  2.7180 -0.4074 -0.0925
   97SOL     H2  833   5.528   5.532   0.877 -2.4416  0.1656 -0.6024
   97SOL    EPW  834   5.503   5.509   0.959 -0.0681 -0.5198 -0.0311
   98SOL      O  835   0.011   1.120   0.902  0.3470 -0.7008 -0.1446
   98SOL     H1  836  -0.012   1.059   0.972  0.7893 -0.6397  0.0580
   98SOL     H2  837   0.023   1.064   0.825  1.5485 -0.9688  0.2286
   98SOL    EPW  838   0.010   1.107   0.901  0.5224 -0.7229 -0.0832
   99SOL      O  839   5.710   4.359   1.128 -0.0159 -0.6955 -0.1428
   99SOL     H1  840   5.666   4.339   1.045  2.1899  0.8015 -1.7193
   99SOL     H2  841   5.664   4.437   1.161  1.2586  0.7612 -1.6994
   99SOL    EPW  842   5.700   4.365   1.123  0.3553 -0.3804 -0.4770
  100SOL      O  843   1.197   0.653   1.665  0.6601 -0.7054 -0.0543
  100SOL     H1  844   1.279   0.672   1.711  0.8521  0.4181 -0.8369
  100SOL     H2  845   1.129   0.681   1.726  0.8659 -0.9898  0.3128
  100SOL    EPW  846   1.199   0.658   1.676  0.7026 -0.6159 -0.0986
  101SOL      O  847   0.376   1.989   1.033 -0.2027 -0.4494  0.0930
  101SOL     H1  848   0.339   2.007   0.947 -0.4012  1.4543  0.5698
  101SOL     H2  849   0.365   2.070   1.082  1.2749 -1.0395  1.4399
  101SOL    EPW  850   0.371   1.999   1.029 -0.0663 -0.3092  0.2875
  102SOL      O  851   0.783   5.646   0.791  0.0459  0.2273  0.2890
  102SOL     H1  852   0.712   5.685   0.741  0.5917  0.8202 -0.0323
  102SOL     H2  853   0.808   5.713   0.854  1.2463  0.5725 -0.5252
  102SOL    EPW  854   0.778   5.657   0.792  0.2322  0.3273  0.1679
  103SOL      O  855   0.734   0.609   0.906 -0.0427  0.5855 -0.1790
  103SOL     H1  856   0.776   0.595   0.991  1.2954  0.6683 -0.8212
  103SOL     H2  857   0.722   0.704   0.900 -1.2661  0.4855  0.4362
  103SOL    EPW  858   0.737   0.617   0.915 -0.0304  0.5837 -0.1819
  104SOL      O  859   3.029   1.722   1.037  0.1697 -0.1518 -0.4317
  104SOL     H1  860   3.061   1.637   1.005  0.9638  1.0728 -3.0915
  104SOL     H2  861   3.065   1.785   0.975 -1.5175  2.0087  0.7203
  104SOL    EPW  862   3.036   1.719   1.027  0.0744  0.2093 -0.5925
  105SOL      O  863   5.830   0.709   0.490  0.3014  0.0554 -0.2067
  105SOL     H1  864   5.883   0.682   0.565  2.1072  1.9969 -0.7302
  105SOL     H2  865   5.753   0.750   0.529 -0.4777 -2.0550  0.5609
  105SOL    EPW  866   5.827   0.710   0.502  0.4109  0.0374 -0.1807
  106SOL      O  867   0.008   1.939   1.606 -0.5222 -0.1699 -0.6406
  106SOL     H1  868   0.093   1.894   1.608 -0.1501  0.4815 -1.5433
  106SOL     H2  869  -0.034   1.908   1.526 -1.1719 -0.5511 -0.1550
  106SOL    EPW  870   0.013   1.931   1.598 -0.5518 -0.1411 -0.6851
  107SOL      O  871   1.076   0.777   2.509  0.1103  0.0087 -0.3383
  107SOL     H1  872   1.106   0.809   2.423 -0.6365 -0.2253 -0.6866
  107SOL     H2  873   1.071   0.682   2.498 -0.1009 -0.0106 -0.0678
  107SOL    EPW  874   1.079   0.770   2.498  0.0081 -0.0183 -0.3466
  108SOL      O  875   1.354   1.282   3.230  0.1315 -0.0516 -0.2399
  108SOL     H1  876   1.411   1.249   3.300  1.5220  2.7292 -0.0136
  108SOL     H2  877   1.414   1.323   3.168 -1.4050  0.6075 -1.3233
  108SOL    EPW  878   1.367   1.282   3.231  0.1159  0.3153 -0.3313
  109SOL      O  879   3.134   2.965   3.489  0.5385  0.3194 -0.1932
  109SOL     H1  880   3.149   2.958   3.394  1.6513  1.2951 -0.1037
  109SOL     H2  881   3.102   3.054   3.501 -1.2516 -0.3527  0.1639
  109SOL    EPW  882   3.132   2.974   3.480  0.4663  0.3518 -0.1456
  110SOL      O  883   0.478   4.239   0.254  0.0907 -0.3347  0.1049
  110SOL     H1  884   0.439   4.185   0.323 -1.5146  0.4171 -0.1843
  110SOL     H2  885   0.432   4.213   0.175 -0.0430  0.7875 -0.1968
  110SOL    EPW  886   0.469   4.231   0.253 -0.0948 -0.1348  0.0419
  111SOL      O  887   0.740   5.330   0.139 -0.1961  0.8558  0.6769
  111SOL     H1  888   0.780   5.416   0.151 -0.9079  0.9714  2.2535
  111SOL     H2  889   0.782   5.274   0.204 -0.3190  0.2069  0.2071
  111SOL    EPW  890   0.749   5.333   0.147 -0.2851  0.7989  0.7950
  112SOL      O  891   1.577   1.529   2.294 -0.4630 -0.0564 -0.4253
  112SOL     H1  892   1.555   1.445   2.336 -0.1942 -1.1086 -2.3213
  112SOL     H2  893   1.666   1.548   2.325 -1.2781  0.5669  1.5977
  112SOL    EPW  894   1.584   1.522   2.302 -0.5213 -0.1021 -0.4118
  113SOL      O  895   0.783   3.899   0.205  0.6073 -0.5112 -0.9443
  113SOL     H1  896   0.694   3.866   0.207  0.1786  0.6570 -0.2808
  113SOL     H2  897   0.777   3.988   0.241  2.7725 -2.1502  4.0102
  113SOL    EPW  898   0.773   3.905   0.209  0.7926 -0.5614 -0.3450
  114SOL      O  899   1.696   1.516   0.163 -0.3292  0.1120  0.1466
  114SOL     H1  900   1.678   1.428   0.193 -2.7064  0.1201 -1.1498
  114SOL     H2  901   1.701   1.509   0.068 -1.9737  1.5909 -0.0762
  114SOL    EPW  902   1.695   1.506   0.156 -0.7582  0.2706 -0.0155
  115SOL      O  903   0.456   0.922   0.886  0.0451 -0.1086  0.2750
  115SOL     H1  904   0.452   0.960   0.799 -1.8300 -0.1392  0.3307
  115SOL     H2  905   0.377   0.867   0.893 -0.0309  0.1857  2.1079
  115SOL    EPW  906   0.447   0.920   0.878 -0.1630 -0.0805  0.4765
  116SOL      O  907   5.228   1.067   0.645 -0.4955  0.5056  0.3921
  116SOL     H1  908   5.289   1.030   0.581 -0.4141 -0.5137  1.0364
  116SOL     H2  909   5.174   1.127   0.595  0.4014  0.6884 -0.3832
  116SOL    EPW  910   5.229   1.069   0.633 -0.3911  0.4164  0.3781
  117SOL      O  911   4.260   1.203   1.228 -0.0315  0.2439 -0.2856
  117SOL     H1  912   4.168   1.204   1.202 -1.0963  0.3183  3.1696
  117SOL     H2  913   4.279   1.294   1.251 -0.1621 -0.3564  2.3311
  117SOL    EPW  914   4.253   1.213   1.228 -0.1590  0.1878  0.3621
  118SOL      O  915   0.465   1.448   1.695  0.6252 -0.5921  0.3308
  118SOL     H1  916   0.436   1.438   1.786 -1.0987 -0.0934 -0.1326
  118SOL     H2  917   0.486   1.360   1.666  0.6453 -0.8247  1.0576
  118SOL    EPW  918   0.464   1.438   1.702  0.4434 -0.5637  0.3589
  119SOL      O  919   0.745   2.128   0.691  0.1854 -0.6806 -0.2835
  119SOL     H1  920   0.799   2.203   0.667 -1.5167  0.8882  0.6298
  119SOL     H2  921   0.763   2.115   0.784 -2.5688  1.2541  0.5824
  119SOL    EPW  922   0.753   2.135   0.698 -0.2900 -0.3068 -0.0937
  120SOL      O  923   0.008   5.182   1.731  0.1571  0.0575  0.4428
  120SOL     H1  924   0.067   5.181   1.806  1.0861 -1.9876 -0.2916
  120SOL     H2  925  -0.076   5.211   1.767  1.0579  0.9134  1.8967
  120SOL    EPW  926   0.005   5.185   1.743  0.3523 -0.0694  0.5196
  121SOL      O  927   3.414   1.134   1.437 -0.2913  0.1900  0.2865
  121SOL     H1  928   3.362   1.202   1.480  0.0934 -0.5760  1.9869
  121SOL     H2  929   3.501   1.142   1.475 -0.2962 -1.3806  0.6460
  121SOL    EPW  930   3.418   1.142   1.445 -0.2508 -0.0593  0.5062
  122SOL      O  931   4.911   0.764   2.224 -0.3572  0.5266  0.1953
  122SOL     H1  932   4.826   0.791   2.259 -1.2788 -1.0291 -0.7674
  122SOL     H2  933   4.890   0.724   2.139  1.0154 -2.2788  1.1338
  122SOL    EPW  934   4.899   0.763   2.218 -0.3091  0.0614  0.1927
  123SOL      O  935   1.020   5.736   0.100 -0.4972  0.2718 -0.1317
  123SOL     H1  936   1.113   5.744   0.122 -0.5721 -0.0854  0.3230
  123SOL     H2  937   1.018   5.739   0.005 -0.2785  3.0319 -0.1015
  123SOL    EPW  938   1.030   5.737   0.093 -0.4818  0.5281 -0.0799
  124SOL      O  939   2.238   4.516   4.041 -0.5560 -0.2908 -0.2101
  124SOL     H1  940   2.313   4.564   4.078 -2.7956  3.6279 -0.4808
  124SOL     H2  941   2.277   4.439   4.000  3.0837  0.5147  1.5241
  124SOL    EPW  942   2.251   4.513   4.040 -0.4066  0.2131 -0.0539
  125SOL      O  943   1.215   1.982   1.434  0.4247 -0.4333  0.2409
  125SOL     H1  944   1.165   2.055   1.398 -0.0639 -0.2950  1.2065
  125SOL     H2  945   1.306   2.011   1.431  0.2600  0.0937  0.3497
  125SOL    EPW  946   1.219   1.993   1.429  0.3550 -0.3623  0.3555
  126SOL      O  947   0.878   0.791   1.289  0.1677 -0.4213  0.4982
  126SOL     H1  948   0.881   0.741   1.208 -2.0096 -0.7294  0.5845
  126SOL     H2  949   0.928   0.739   1.352  0.8733 -0.7451 -0.3304
  126SOL    EPW  950   0.884   0.781   1.287  0.0107 -0.4887  0.4190
  127SOL      O  951   2.088   0.603   1.622  0.3828 -0.0734 -0.0211
  127SOL     H1  952   2.076   0.590   1.528  0.3893  0.9637 -0.1732
  127SOL     H2  953   2.002   0.585   1.660  0.1162  0.5133 -0.3405
  127SOL    EPW  954   2.078   0.600   1.616  0.3551  0.0998 -0.0714
  128SOL      O  955   4.462   4.168   0.332 -0.2290 -0.5133  0.5444
  128SOL     H1  956   4.516   4.209   0.265  0.3528  1.5777  2.2458
  128SOL     H2  957   4.512   4.092   0.361  0.4616 -0.2390  0.0693
  128SOL    EPW  958   4.473   4.164   0.328 -0.0932 -0.2610  0.6752
  129SOL      O  959   1.571   2.156   0.755  0.3157 -0.3738 -0.5011
  129SOL     H1  960   1.622   2.190   0.682 -1.4373 -1.1306 -2.1210
  129SOL     H2  961   1.480   2.158   0.724 -0.6115  0.4616  2.1078
  129SOL    EPW  962   1.566   2.160   0.744  0.0298 -0.3654 -0.3956
  130SOL      O  963   1.289   1.744   2.229 -0.1527  0.0498 -0.0083
  130SOL     H1  964   1.263   1.832   2.202 -0.1295 -0.1452 -0.6798
  130SOL     H2  965   1.340   1.710   2.155  0.7596 -0.1278  0.6958
  130SOL    EPW  966   1.291   1.750   2.218 -0.0529  0.0100 -0.0049
  131SOL      O  967   5.837   0.642   0.223 -0.2676  0.3074 -0.5055
  131SOL     H1  968   5.830   0.673   0.313 -0.6214 -0.5125 -0.2413
  131SOL     H2  969   5.916   0.587   0.223 -1.1395 -0.9585 -0.3083
  131SOL    EPW  970   5.845   0.639   0.233 -0.3983  0.0849 -0.4562
  132SOL      O  971   1.794   2.004   0.853 -0.2241 -0.1376 -0.1530
  132SOL     H1  972   1.751   1.943   0.913 -0.1614  1.0234  1.1072
  132SOL     H2  973   1.723   2.054   0.813 -0.2458 -0.6782 -0.7957
  132SOL    EPW  974   1.782   2.003   0.855 -0.2197 -0.0714 -0.0872
  133SOL      O  975   1.514   1.411   1.206 -0.5323  0.5425 -0.2019
  133SOL     H1  976   1.576   1.394   1.135 -0.8584  1.4035 -0.6949
  133SOL     H2  977   1.472   1.326   1.221  1.4905 -0.3102  0.8624
  133SOL    EPW  978   1.516   1.400   1.200 -0.3513  0.5434 -0.1410
  134SOL      O  979   5.873   0.685   2.162 -0.3112  0.0676 -0.0268
  134SOL     H1  980   5.833   0.605   2.128  0.6599  0.4613 -2.1426
  134SOL     H2  981   5.811   0.755   2.139 -0.2524  0.1733  0.1339
  134SOL    EPW  982   5.862   0.684   2.156 -0.2013  0.1209 -0.2354
  135SOL      O  983   1.025   0.730   1.881 -0.1696 -0.0709 -0.4001
  135SOL     H1  984   0.990   0.642   1.896 -1.9783  0.4704 -1.3021
  135SOL     H2  985   0.954   0.789   1.906  1.6495  1.2155  1.8912
  135SOL    EPW  986   1.014   0.727   1.885 -0.1685  0.1241 -0.2519
  136SOL      O  987   5.346   0.446   2.105 -0.6389 -0.1067 -0.2351
  136SOL     H1  988   5.256   0.414   2.105 -0.4043 -0.9330  2.2640
  136SOL     H2  989   5.338   0.541   2.106 -1.4852 -0.1811 -0.0941
  136SOL    EPW  990   5.336   0.453   2.105 -0.7042 -0.2028  0.0466
  137SOL      O  991   5.411   0.539   1.326  0.7495 -0.1509  0.3253
  137SOL     H1  992   5.495   0.581   1.343  0.8113 -0.1743  0.0795
  137SOL     H2  993   5.396   0.483   1.402  0.3626  0.7993  0.9500
  137SOL    EPW  994   5.418   0.537   1.336  0.7148 -0.0520  0.3657
  138SOL      O  995   1.687   0.758   0.868  0.0198 -0.4708  0.5376
  138SOL     H1  996   1.725   0.731   0.784  0.6700  0.2691  0.5906
  138SOL     H2  997   1.593   0.738   0.859  0.1756 -0.9359 -0.1407
  138SOL    EPW  998   1.681   0.753   0.858  0.1058 -0.4414  0.4709
  139SOL      O  999   5.672   1.037   1.122  0.2522  0.1082  0.2178
  139SOL     H1 1000   5.755   0.995   1.146  0.6034  0.1933 -0.8516
  139SOL     H2 1001   5.685   1.129   1.146  0.5176  0.1493 -0.0795
  139SOL    EPW 1002   5.682   1.043   1.127  0.3180  0.1217  0.0720
  140SOL      O 1003   0.726   0.107   1.020  0.5394  0.1081 -0.2900
  140SOL     H1 1004   0.656   0.083   0.959  0.1704 -0.7345  0.4488
  140SOL     H2 1005   0.695   0.187   1.062  0.2511  0.0325 -0.3567
  140SOL    EPW 1006   0.715   0.113   1.018  0.4693  0.0102 -0.2183
  141SOL      O 1007   5.234   4.971   0.484  0.6545  0.4000 -0.3840
  141SOL     H1 1008   5.256   4.886   0.522  2.7223  0.5255 -1.2371
  141SOL     H2 1009   5.180   4.949   0.408  0.6747 -0.1186 -0.2522
  141SOL    EPW 1010   5.230   4.959   0.480  0.8773  0.3580 -0.4610
  142SOL      O 1011   0.221   0.529   0.230 -0.1850  0.0822 -0.7862
  142SOL     H1 1012   0.227   0.477   0.309 -0.2232  2.8928  1.1295
  142SOL     H2 1013   0.303   0.578   0.227 -1.0777  1.5801 -1.3196
  142SOL    EPW 1014   0.230   0.529   0.238 -0.2843  0.5418 -0.6387
  143SOL      O 1015   2.904   0.710   1.557 -0.1681  0.0508 -0.2796
  143SOL     H1 1016   2.816   0.692   1.591 -0.4064 -0.9179 -1.3737
  143SOL     H2 1017   2.960   0.714   1.636 -1.7468  4.3304  0.7388
  143SOL    EPW 1018   2.901   0.708   1.569 -0.3620  0.4040 -0.2877
  144SOL      O 1019   1.916   3.583   2.425 -0.5402  0.9953  0.0234
  144SOL     H1 1020   1.895   3.552   2.513 -1.1734 -0.7608 -0.7181
  144SOL     H2 1021   2.009   3.564   2.415 -0.7548 -0.0136 -0.1420
  144SOL    EPW 1022   1.924   3.578   2.433 -0.6307  0.7003 -0.0734
  145SOL      O 1023   4.776   5.385   0.787  0.2062 -0.0929 -0.1121
  145SOL     H1 1024   4.760   5.360   0.878 -0.1107 -0.0477 -0.1556
  145SOL     H2 1025   4.851   5.332   0.761  1.1246  0.8179  0.5736
  145SOL    EPW 1026   4.782   5.377   0.794  0.2704  0.0091 -0.0436
  146SOL      O 1027   0.647   1.260   2.715 -0.3197 -0.6976  0.2988
  146SOL     H1 1028   0.652   1.226   2.804 -0.6577  0.5441  0.8041
  146SOL     H2 1029   0.726   1.315   2.706 -0.0920 -1.1065 -0.2998
  146SOL    EPW 1030   0.656   1.262   2.723 -0.3315 -0.6087  0.2889
  147SOL      O 1031   0.467   0.609   0.939  0.0653  0.1569  0.1269
  147SOL     H1 1032   0.559   0.608   0.912  0.1172 -2.1915  0.2164
  147SOL     H2 1033   0.419   0.586   0.860 -0.1275 -2.2071  0.8804
  147SOL    EPW 1034   0.472   0.606   0.928  0.0503 -0.3458  0.2169
  148SOL      O 1035   4.865   0.620   1.974 -0.2514  0.4992  0.0062
  148SOL     H1 1036   4.804   0.551   1.947  0.5773  0.1662 -1.0888
  148SOL     H2 1037   4.857   0.686   1.906 -0.1750  0.9375  0.4245
  148SOL    EPW 1038   4.858   0.619   1.964 -0.1549  0.5104 -0.0660
  149SOL      O 1039   5.148   0.511   1.198  0.8312  0.0710  0.0199
  149SOL     H1 1040   5.085   0.566   1.244  1.8269  1.6397 -0.4459
  149SOL     H2 1041   5.225   0.509   1.255  0.4593 -1.6635  0.4940
  149SOL    EPW 1042   5.150   0.517   1.209  0.8978  0.0533  0.0208
  150SOL      O 1043   5.179   0.253   3.344  0.3074  0.9282  0.4337
  150SOL     H1 1044   5.225   0.335   3.362  1.9684  0.2552 -0.6555
  150SOL     H2 1045   5.195   0.236   3.252 -0.4314 -0.3948  0.5369
  150SOL    EPW 1046   5.185   0.260   3.336  0.4058  0.7152  0.3285
  151SOL      O 1047   1.443   1.157   1.242 -0.2929  0.0265 -0.6462
  151SOL     H1 1048   1.523   1.117   1.209 -0.6254 -0.2743 -1.0914
  151SOL     H2 1049   1.379   1.146   1.171 -1.1731 -1.1163  0.3012
  151SOL    EPW 1050   1.444   1.152   1.231 -0.4223 -0.1275 -0.5926
  152SOL      O 1051   0.019   0.632   1.668  0.2517 -0.3945  0.4791
  152SOL     H1 1052   0.102   0.624   1.715 -0.4977 -2.0011  1.5615
  152SOL     H2 1053   0.030   0.577   1.590  0.4484 -0.0206  0.2376
  152SOL    EPW 1054   0.029   0.625   1.664  0.1927 -0.5260  0.5688
  153SOL      O 1055   1.154   2.471   0.842 -0.1316 -0.3220  0.2531
  153SOL     H1 1056   1.197   2.505   0.921 -0.6120 -0.2380  0.4805
  153SOL     H2 1057   1.075   2.428   0.874 -0.9487  0.7495 -0.2811
  153SOL    EPW 1058   1.150   2.470   0.854 -0.2700 -0.1987  0.2204
  154SOL      O 1059   0.700   0.481   1.677  0.8042  0.3548 -0.4275
  154SOL     H1 1060   0.661   0.548   1.732  2.0023  0.5336  0.2302
  154SOL     H2 1061   0.767   0.527   1.627  3.0555 -0.6802  1.5200
  154SOL    EPW 1062   0.703   0.493   1.678  1.1722  0.2635 -0.1496
  155SOL      O 1063   2.986   0.433   1.934 -0.1024  0.4831  0.0950
  155SOL     H1 1064   3.024   0.365   1.989  1.2533  0.5067 -0.7864
  155SOL     H2 1065   2.965   0.389   1.852 -1.1466  0.6738  0.2519
  155SOL    EPW 1066   2.988   0.421   1.931 -0.0692  0.5060  0.0177
  156SOL      O 1067   2.867   3.901   3.567  0.4622 -0.6843 -0.4678
  156SOL     H1 1068   2.894   3.939   3.651 -1.4876  0.1309 -0.1841
  156SOL     H2 1069   2.905   3.959   3.501 -0.7817  0.6056 -0.0684
  156SOL    EPW 1070   2.874   3.911   3.569  0.1215 -0.4597 -0.3949
  157SOL      O 1071   1.010   1.035   1.561  0.1547 -0.2253  0.1366
  157SOL     H1 1072   1.079   1.085   1.605  0.3149 -0.6235  0.3398
  157SOL     H2 1073   0.941   1.028   1.626  0.2089 -0.4258  0.1746
  157SOL    EPW 1074   1.010   1.039   1.573  0.1775 -0.2892  0.1623
  158SOL      O 1075   2.332   5.273   1.876 -0.0472 -0.2411  0.2671
  158SOL     H1 1076   2.427   5.282   1.882 -0.1884  0.9897  0.7054
  158SOL     H2 1077   2.310   5.201   1.936  0.6928 -1.1564 -0.5311
  158SOL    EPW 1078   2.339   5.266   1.883  0.0167 -0.2074  0.2287
  159SOL      O 1079   2.208   1.505   1.855  0.7067 -0.4044  1.0836
  159SOL     H1 1080   2.172   1.581   1.810 -0.3636 -0.4957  1.7803
  159SOL     H2 1081   2.258   1.541   1.928  1.7294 -0.2941  0.3354
  159SOL    EPW 1082   2.210   1.517   1.858  0.7016 -0.4024  1.0781
  160SOL      O 1083   2.021   1.965   1.006  0.6239  0.1543  0.3391
  160SOL     H1 1084   1.943   1.979   0.954 -2.6470 -2.3811  4.2181
  160SOL     H2 1085   2.038   2.049   1.049  0.9455  1.1142 -1.6386
  160SOL    EPW 1086   2.015   1.975   1.005  0.3093 -0.0137  0.5419
  161SOL      O 1087   0.854   0.785   0.549 -0.1213 -0.2333  0.3153
  161SOL     H1 1088   0.929   0.730   0.528  0.7940  0.2617  2.1537
  161SOL     H2 1089   0.878   0.827   0.632 -2.2728  0.2020  0.7464
  161SOL    EPW 1090   0.864   0.783   0.556 -0.2532 -0.1341  0.5574
  162SOL      O 1091   0.581   1.428   3.074 -0.2556  0.1537 -0.1371
  162SOL     H1 1092   0.590   1.523   3.065 -0.1607  0.3668  1.9447
  162SOL     H2 1093   0.634   1.406   3.150  2.6796 -2.1248 -2.7497
  162SOL    EPW 1094   0.587   1.436   3.081  0.0676 -0.0666 -0.1937
  163SOL      O 1095   2.416   3.068   3.676 -0.4888  0.4136 -0.0813
  163SOL     H1 1096   2.370   3.044   3.756  1.7843  0.8065  1.3772
  163SOL     H2 1097   2.397   3.161   3.664 -1.4506  0.1812 -0.4541
  163SOL    EPW 1098   2.409   3.075   3.683 -0.3489  0.4307  0.0345
  164SOL      O 1099   2.675   2.281   2.861  0.4624 -0.1040 -0.2681
  164SOL     H1 1100   2.652   2.193   2.831 -0.0375  0.4481 -1.5686
  164SOL     H2 1101   2.624   2.293   2.941  1.7729 -1.6013  0.8192
  164SOL    EPW 1102   2.667   2.273   2.866  0.5488 -0.2049 -0.2908
  165SOL      O 1103   0.892   0.862   2.177 -0.2128  0.0405  0.2860
  165SOL     H1 1104   0.873   0.876   2.084  1.2123  1.1403  0.1397
  165SOL     H2 1105   0.986   0.844   2.180 -0.1766  0.3600  1.5491
  165SOL    EPW 1106   0.900   0.861   2.167 -0.0569  0.1919  0.4052
  166SOL      O 1107   1.453   1.023   1.523  0.5877 -0.0640  0.0433
  166SOL     H1 1108   1.477   1.094   1.463  0.8278 -0.8481 -0.7891
  166SOL     H2 1109   1.375   0.984   1.484  0.5169 -0.3258  0.4504
  166SOL    EPW 1110   1.448   1.026   1.512  0.6058 -0.1756 -0.0020
  167SOL      O 1111   0.520   2.004   2.252 -0.3026 -0.2550  0.4100
  167SOL     H1 1112   0.438   2.052   2.237 -0.9618 -1.0927  1.2725
  167SOL     H2 1113   0.493   1.926   2.301  0.9520 -0.7767  0.2804
  167SOL    EPW 1114   0.508   2.001   2.255 -0.2391 -0.4000  0.4882
  168SOL      O 1115   1.521   0.434   0.966 -0.0659 -0.0919 -0.5684
  168SOL     H1 1116   1.580   0.463   1.035 -1.0680  2.0025 -0.5597
  168SOL     H2 1117   1.434   0.448   1.001 -0.5847  0.3601 -1.9986
  168SOL    EPW 1118   1.518   0.438   0.977 -0.2282  0.1797 -0.7201
  169SOL      O 1119   5.840   2.003   2.391 -0.1632 -0.1408  0.0174
  169SOL     H1 1120   5.876   1.965   2.471  0.4925  0.6073  0.0793
  169SOL     H2 1121   5.860   2.096   2.397  0.0027 -0.0924 -1.0711
  169SOL    EPW 1122   5.846   2.009   2.400 -0.0756 -0.0558 -0.0921
  170SOL      O 1123   1.514   0.171   0.642  0.2693  0.0470 -0.1015
  170SOL     H1 1124   1.528   0.209   0.555 -1.5895  1.3363  0.1298
  170SOL     H2 1125   1.554   0.234   0.702 -0.7884  0.5201  0.1274
  170SOL    EPW 1126   1.520   0.182   0.639 -0.0419  0.2350 -0.0524
  171SOL      O 1127   4.600   2.932   0.345 -0.1106 -0.2295 -0.0213
  171SOL     H1 1128   4.550   3.012   0.357 -0.0027 -0.0524 -0.6826
  171SOL     H2 1129   4.625   2.905   0.433 -1.9127 -0.6816  0.3757
  171SOL    EPW 1130   4.597   2.938   0.355 -0.2913 -0.2588 -0.0495
  172SOL      O 1131   0.623   1.355   1.049  0.1696  0.0510 -0.2474
  172SOL     H1 1132   0.655   1.379   0.962 -0.7464 -1.2072 -0.9490
  172SOL     H2 1133   0.682   1.285   1.078  0.9553  1.0013  0.4935
  172SOL    EPW 1134   0.633   1.350   1.043  0.1557  0.0182 -0.2432
  173SOL      O 1135   1.439   0.770   0.727 -0.8478 -0.2010 -0.4546
  173SOL     H1 1136   1.434   0.853   0.680  1.2205  0.2020  0.0034
  173SOL     H2 1137   1.413   0.704   0.662 -0.5356  0.6117 -1.4142
  173SOL    EPW 1138   1.436   0.772   0.715 -0.5938 -0.0713 -0.5081
  174SOL      O 1139   1.116   0.682   0.560 -0.4702  0.2605 -0.2518
  174SOL     H1 1140   1.117   0.654   0.652  0.0365  1.1378  0.0138
  174SOL     H2 1141   1.114   0.778   0.564 -1.7288  0.2907 -1.1543
  174SOL    EPW 1142   1.116   0.690   0.570 -0.5504  0.3573 -0.3197
  175SOL      O 1143   0.799   0.912   2.772 -0.1355  0.1849 -0.4555
  175SOL     H1 1144   0.876   0.965   2.749 -0.6042  0.6724 -0.9125
  175SOL     H2 1145   0.770   0.949   2.855 -0.0869  0.2271 -0.4568
  175SOL    EPW 1146   0.804   0.922   2.779 -0.1803  0.2414 -0.5044
  176SOL      O 1147   1.095   1.458   0.994  0.6263 -0.1640  0.2405
  176SOL     H1 1148   1.115   1.416   1.078  0.7749  0.3231  0.4524
  176SOL     H2 1149   1.065   1.386   0.938  0.7437 -0.5295  0.6392
  176SOL    EPW 1150   1.094   1.446   0.997  0.6547 -0.1511  0.3056
  177SOL      O 1151   0.509   0.299   1.746 -0.3805 -0.5732 -0.5988
  177SOL     H1 1152   0.582   0.349   1.709  1.1678 -1.0271  1.7431
  177SOL     H2 1153   0.436   0.315   1.686  1.0747  1.5512 -1.8590
  177SOL    EPW 1154   0.509   0.306   1.736 -0.0601 -0.3950 -0.4834
  178SOL      O 1155   5.594   0.242   1.896  0.1726 -0.0677  0.5051
  178SOL     H1 1156   5.536   0.314   1.873 -1.6468 -1.2771  1.1747
  178SOL     H2 1157   5.589   0.182   1.822 -0.0895 -0.5522  0.9056
  178SOL    EPW 1158   5.587   0.244   1.886 -0.0495 -0.2484  0.6193
  179SOL      O 1159   5.596   0.901   1.831  0.1056 -0.0066  0.4347
  179SOL     H1 1160   5.649   0.950   1.768  0.2126 -1.1046 -0.3429
  179SOL     H2 1161   5.515   0.951   1.839 -0.0480 -0.0483 -0.8503
  179SOL    EPW 1162   5.593   0.911   1.826  0.1006 -0.1282  0.2147
  180SOL      O 1163   1.647   3.957   0.080  0.3042  0.3885  0.3341
  180SOL     H1 1164   1.587   3.897   0.123 -0.2267  0.8034  0.1795
  180SOL     H2 1165   1.598   4.039   0.074  0.1519  0.1741 -1.5873
  180SOL    EPW 1166   1.636   3.960   0.084  0.2314  0.4099  0.1126
  181SOL      O 1167   0.510   2.928   2.402  0.1383  0.0987 -0.2616
  181SOL     H1 1168   0.570   2.854   2.405 -1.3609 -1.1030  1.1985
  181SOL     H2 1169   0.517   2.968   2.489 -0.4304  0.5602 -0.4237
  181SOL    EPW 1170   0.517   2.925   2.412 -0.0823  0.0197 -0.1231
  182SOL      O 1171   0.048   0.043   2.631  0.1190  0.2298 -0.1150
  182SOL     H1 1172  -0.010  -0.014   2.581 -1.2949  2.8045 -1.4900
  182SOL     H2 1173  -0.010   0.111   2.667  2.0572  2.1183 -0.4411
  182SOL    EPW 1174   0.036   0.044   2.630  0.1749  0.7059 -0.2965
  183SOL      O 1175   0.838   1.602   2.374  0.0888 -0.0926  0.1185
  183SOL     H1 1176   0.902   1.614   2.303 -0.6998  0.4340 -0.5102
  183SOL     H2 1177   0.807   1.513   2.363 -0.8735  0.3600 -0.9091
  183SOL    EPW 1178   0.842   1.594   2.365 -0.0980  0.0119 -0.0582
  184SOL      O 1179   1.838   1.232   1.537 -1.1686  0.3864 -0.1250
  184SOL     H1 1180   1.744   1.248   1.531 -1.2753 -0.1629 -0.0322
  184SOL     H2 1181   1.878   1.308   1.497 -1.6558  0.6383 -0.1436
  184SOL    EPW 1182   1.832   1.242   1.532 -1.2320  0.3547 -0.1171
  185SOL      O 1183   1.654   0.964   0.473 -0.1869 -0.1568  0.1163
  185SOL     H1 1184   1.708   0.885   0.479  0.9473  0.4675 -1.6072
  185SOL     H2 1185   1.612   0.959   0.388 -1.5742  0.1920  0.7652
  185SOL    EPW 1186   1.655   0.955   0.465 -0.2139 -0.0529  0.0017
  186SOL      O 1187   0.932   4.111   0.992 -0.2802 -0.3438  0.1831
  186SOL     H1 1188   0.955   4.204   0.994  0.9158 -0.6218 -0.3224
  186SOL     H2 1189   1.005   4.067   1.035 -1.6456 -0.9116  1.9807
  186SOL    EPW 1190   0.942   4.116   0.997 -0.2983 -0.4340  0.3210
  187SOL      O 1191   0.605   1.240   3.754 -0.3647 -0.6430  0.5704
  187SOL     H1 1192   0.512   1.224   3.772 -0.3460 -0.4566  0.8480
  187SOL     H2 1193   0.650   1.205   3.831 -0.1856 -0.9768  0.3123
  187SOL    EPW 1194   0.600   1.235   3.764 -0.3436 -0.6587  0.5725
  188SOL      O 1195   5.490   3.831   3.727  0.2295 -0.1418  0.2369
  188SOL     H1 1196   5.583   3.810   3.713  0.4467  1.7739 -1.3289
  188SOL     H2 1197   5.471   3.795   3.814  2.5431 -0.2311  0.7517
  188SOL    EPW 1198   5.498   3.825   3.735  0.4995  0.0530  0.1248
  189SOL      O 1199   0.992   0.693   0.262  0.2276 -0.5059 -0.0074
  189SOL     H1 1200   1.065   0.692   0.325  0.0873  2.0416  0.2402
  189SOL     H2 1201   0.962   0.784   0.261 -1.6381 -1.0993 -1.6472
  189SOL    EPW 1202   0.997   0.702   0.269  0.0136 -0.2974 -0.1559
  190SOL      O 1203   4.871   2.157   3.858  0.3044 -0.0982  0.1782
  190SOL     H1 1204   4.827   2.226   3.908  0.2230 -0.2254  0.2786
  190SOL     H2 1205   4.954   2.198   3.830  0.8004 -0.3586  1.2639
  190SOL    EPW 1206   4.875   2.169   3.860  0.3486 -0.1395  0.3047
  191SOL      O 1207   1.593   0.265   0.386  0.1945 -0.4077  0.1079
  191SOL     H1 1208   1.541   0.226   0.317 -1.1111  1.6066 -0.0841
  191SOL     H2 1209   1.624   0.348   0.349 -0.1498  0.4815  1.7723
  191SOL    EPW 1210   1.591   0.270   0.375  0.0185 -0.0980  0.2650
  192SOL      O 1211   5.565   5.472   0.008  0.6225 -0.3038  0.5001
  192SOL     H1 1212   5.640   5.460  -0.050  0.3929  1.5616 -0.2192
  192SOL     H2 1213   5.501   5.407  -0.021  0.8968 -0.0419 -0.7139
  192SOL    EPW 1214   5.566   5.464  -0.001  0.6273 -0.0768  0.2939
  193SOL      O 1215   3.051   1.199   0.616 -0.2278 -0.4885  0.0630
  193SOL     H1 1216   2.976   1.251   0.645  1.9102  4.4580 -2.5127
  193SOL     H2 1217   3.037   1.189   0.522  1.0216 -1.8691  0.0162
  193SOL    EPW 1218   3.041   1.203   0.609  0.1335 -0.1081 -0.2168
  194SOL      O 1219   0.766   1.329   2.364 -0.4200 -0.3311  0.4913
  194SOL     H1 1220   0.795   1.300   2.451  3.3663 -2.0785 -1.2276
  194SOL     H2 1221   0.750   1.248   2.316 -3.1333  0.6216 -0.2914
  194SOL    EPW 1222   0.767   1.317   2.368 -0.3056 -0.4159  0.2244
  195SOL      O 1223   1.222   4.933   1.082 -0.0937  0.1885 -0.0059
  195SOL     H1 1224   1.175   4.886   1.152 -0.2405  1.1972  0.5738
  195SOL     H2 1225   1.162   5.002   1.054  0.2104  0.1743 -0.7126
  195SOL    EPW 1226   1.210   4.935   1.086 -0.0769  0.2946 -0.0195
  196SOL      O 1227   4.322   5.575   0.493  0.4526  0.4238 -0.1422
  196SOL     H1 1228   4.357   5.598   0.579 -1.3611  2.7736  0.0058
  196SOL     H2 1229   4.249   5.515   0.512  1.0827 -0.3566 -0.1554
  196SOL    EPW 1230   4.318   5.571   0.504  0.3263  0.5912 -0.1278
  197SOL      O 1231   1.639   0.423   1.822  0.6316  0.1614  0.1192
  197SOL     H1 1232   1.676   0.363   1.886  2.0411  1.2023  0.2825
  197SOL     H2 1233   1.672   0.391   1.738  0.4826  0.0581  0.0988
  197SOL    EPW 1234   1.646   0.413   1.820  0.7660  0.2614  0.1345
  198SOL      O 1235   0.289   0.288   1.580  0.5750  0.3467  0.1277
  198SOL     H1 1236   0.208   0.248   1.614  1.7097 -2.2358 -0.0741
  198SOL     H2 1237   0.277   0.287   1.485  0.9672 -0.3381  0.0825
  198SOL    EPW 1238   0.279   0.283   1.573  0.7379 -0.0019  0.1014
  199SOL      O 1239   0.705   2.007   1.391 -0.1042 -0.4905  0.0518
  199SOL     H1 1240   0.727   2.045   1.476  2.5955 -0.4292 -0.6476
  199SOL     H2 1241   0.718   2.079   1.329  1.4131 -1.4905 -0.8224
  199SOL    EPW 1242   0.709   2.019   1.394  0.3457 -0.5907 -0.1161
  200SOL      O 1243   1.044   0.551   2.122  0.0834 -0.4715 -0.0741
  200SOL     H1 1244   1.001   0.503   2.052 -0.9748  0.2993  0.0333
  200SOL     H2 1245   0.973   0.577   2.181  0.6276  1.1681 -0.1009
  200SOL    EPW 1246   1.032   0.549   2.121  0.0286 -0.2144 -0.0655
  201SOL      O 1247   0.218   1.480   2.444 -0.0013  0.7846  0.5336
  201SOL     H1 1248   0.151   1.451   2.506  1.5139  2.0966  2.8685
  201SOL     H2 1249   0.176   1.551   2.395 -1.2075 -0.2501  0.0578
  201SOL    EPW 1250   0.206   1.485   2.445  0.0317  0.8142  0.7319
  202SOL      O 1251   3.060   2.711   4.073  0.4242 -0.3465  0.4733
  202SOL     H1 1252   3.144   2.727   4.117  0.1470 -1.2738  1.3459
  202SOL     H2 1253   3.049   2.787   4.016  1.7208 -0.0676  0.5644
  202SOL    EPW 1254   3.068   2.721   4.071  0.5329 -0.4156  0.5761
  203SOL      O 1255   2.297   3.072   3.961 -1.1122  0.1885 -0.1904
  203SOL     H1 1256   2.358   3.006   3.995 -0.1589  0.9395 -0.4179
  203SOL     H2 1257   2.222   3.069   4.020  0.6473  1.6918  2.1924
  203SOL    EPW 1258   2.296   3.064   3.971 -0.8228  0.4290  0.0395
  204SOL      O 1259   1.247   0.044   0.705  0.5715 -0.3387 -0.4918
  204SOL     H1 1260   1.204   0.123   0.738  1.6821  0.8202 -1.7456
  204SOL     H2 1261   1.175  -0.016   0.686 -0.3158  0.5209  0.0971
  204SOL    EPW 1262   1.235   0.046   0.707  0.5953 -0.1234 -0.5627
  205SOL      O 1263   5.729   0.465   0.497 -0.8273 -0.2535 -0.1136
  205SOL     H1 1264   5.738   0.458   0.592  1.4376  0.3774 -0.2436
  205SOL     H2 1265   5.745   0.557   0.477 -1.8920 -0.2611 -1.0550
  205SOL    EPW 1266   5.732   0.474   0.505 -0.6993 -0.1870 -0.2279
  206SOL      O 1267   0.304   1.206   0.172  0.0756 -0.2026 -0.2204
  206SOL     H1 1268   0.374   1.266   0.198  0.3675  0.2120 -1.8720
  206SOL     H2 1269   0.227   1.261   0.162 -0.0122 -0.3426 -0.3259
  206SOL    EPW 1270   0.303   1.218   0.174  0.0973 -0.1733 -0.4078
  207SOL      O 1271   2.193   2.751   4.145  0.1388  0.6419  0.1658
  207SOL     H1 1272   2.190   2.755   4.050  0.5461 -0.7361  0.0697
  207SOL     H2 1273   2.184   2.841   4.174  1.1689  1.2069 -1.2170
  207SOL    EPW 1274   2.192   2.761   4.138  0.2922  0.5552  0.0080
  208SOL      O 1275   4.658   0.744   1.522  0.5892  0.2084  0.6494
  208SOL     H1 1276   4.567   0.757   1.548  0.2919 -0.2708 -0.1212
  208SOL     H2 1277   4.664   0.651   1.503  0.2259  0.8609 -3.0130
  208SOL    EPW 1278   4.649   0.736   1.523  0.5187  0.2268  0.1765
  209SOL      O 1279   3.902   2.545   4.055 -0.7870 -0.2835  0.2021
  209SOL     H1 1280   3.975   2.511   4.106  0.2740 -0.0962 -1.1659
  209SOL     H2 1281   3.894   2.484   3.982 -1.2676  0.3247 -0.2575
  209SOL    EPW 1282   3.909   2.535   4.053 -0.7251 -0.1986  0.0071
  210SOL      O 1283   0.051   2.614   1.700 -0.2851  0.1748  0.2957
  210SOL     H1 1284   0.130   2.656   1.735 -0.0595  0.9246 -1.0861
  210SOL     H2 1285  -0.020   2.671   1.729 -0.0213  1.2736 -1.1535
  210SOL    EPW 1286   0.052   2.625   1.707 -0.2329  0.3720 -0.0063
  211SOL      O 1287   5.578   1.054   1.428 -0.3080  0.7827 -1.0085
  211SOL     H1 1288   5.622   0.970   1.418 -0.1643  0.5049  1.6133
  211SOL     H2 1289   5.649   1.118   1.429 -0.3708  0.8937 -2.2596
  211SOL    EPW 1290   5.590   1.052   1.427 -0.2994  0.7649 -0.8623
  212SOL      O 1291   0.738   5.691   1.630  0.0677 -0.2687  0.3251
  212SOL     H1 1292   0.703   5.654   1.550  0.7993 -0.9648  0.3216
  212SOL     H2 1293   0.704   5.781   1.633 -1.9144 -1.0196  0.4675
  212SOL    EPW 1294   0.731   5.697   1.622 -0.0657 -0.4230  0.3399
  213SOL      O 1295   0.912   1.846   2.772  0.3048 -0.3582  0.3137
  213SOL     H1 1296   0.963   1.925   2.756  0.4100 -0.5029 -0.0837
  213SOL     H2 1297   0.869   1.829   2.688  0.8726 -1.1476  0.1785
  213SOL    EPW 1298   0.912   1.853   2.761  0.3766 -0.4579  0.2569
  214SOL      O 1299   4.771   5.562   1.271  0.0427 -0.1441  0.3325
  214SOL     H1 1300   4.829   5.637   1.285  0.1865  0.0886 -1.3325
  214SOL     H2 1301   4.689   5.586   1.315  0.3568  0.6408  0.4934
  214SOL    EPW 1302   4.768   5.573   1.277  0.0916 -0.0355  0.1720
  215SOL      O 1303   0.796   2.530   0.674 -0.1325 -0.0569  0.2620
  215SOL     H1 1304   0.831   2.459   0.620 -1.4824 -0.5708  0.0264
  215SOL     H2 1305   0.845   2.608   0.647 -0.5251 -0.3801 -1.4494
  215SOL    EPW 1306   0.805   2.531   0.665 -0.3183 -0.1462  0.0543
  216SOL      O 1307   0.835   2.687   2.072  0.5425 -0.4380 -1.0266
  216SOL     H1 1308   0.743   2.663   2.086  1.1969 -1.0067  2.7524
  216SOL     H2 1309   0.837   2.781   2.085  1.0987 -0.9224  3.1267
  216SOL    EPW 1310   0.825   2.694   2.075  0.6717 -0.5503 -0.1804
  217SOL      O 1311   5.183   0.953   1.955 -0.4883  0.5195  0.1553
  217SOL     H1 1312   5.105   1.003   1.930 -1.6486  0.4790  3.5473
  217SOL     H2 1313   5.217   0.998   2.032  1.5844 -0.7733  0.0305
  217SOL    EPW 1314   5.178   0.963   1.960 -0.3910  0.3772  0.5039
  218SOL      O 1315   1.547   5.841   3.050 -0.8678  0.4247  0.0032
  218SOL     H1 1316   1.591   5.921   3.021  0.4923  0.6854  2.6367
  218SOL     H2 1317   1.617   5.784   3.081 -1.9694 -1.1099 -0.2318
  218SOL    EPW 1318   1.559   5.843   3.051 -0.8403  0.2888  0.2590
  219SOL      O 1319   3.757   2.658   3.802  0.7349 -0.0872 -0.2719
  219SOL     H1 1320   3.827   2.715   3.770  1.4374 -0.8744 -0.1314
  219SOL     H2 1321   3.797   2.571   3.807 -0.5289 -0.7376 -1.1553
  219SOL    EPW 1322   3.769   2.655   3.799  0.6750 -0.2405 -0.3511
  220SOL      O 1323   3.384   3.557   3.943  0.1831 -0.4079 -1.1158
  220SOL     H1 1324   3.363   3.640   3.984  1.7788 -0.3585 -0.3645
  220SOL     H2 1325   3.386   3.494   4.015  0.2774 -0.8541 -1.5034
  220SOL    EPW 1326   3.382   3.559   3.955  0.3633 -0.4502 -1.0770
  221SOL      O 1327   5.751   1.239   1.992 -0.4234 -0.0469  0.2543
  221SOL     H1 1328   5.833   1.192   1.981 -0.7779 -0.3363 -1.1949
  221SOL     H2 1329   5.741   1.246   2.087  0.6744 -1.0498  0.4634
  221SOL    EPW 1330   5.759   1.235   2.001 -0.3441 -0.1847  0.1220
  222SOL      O 1331   1.615   1.581   0.830 -0.4415 -0.0433 -0.0419
  222SOL     H1 1332   1.547   1.617   0.773 -0.4489 -2.3157 -1.5810
  222SOL     H2 1333   1.581   1.496   0.857  0.0768  0.5145  2.4903
  222SOL    EPW 1334   1.604   1.576   0.826 -0.3870 -0.2262  0.0641
  223SOL      O 1335   0.141   5.780   0.308 -0.0937  0.6244  0.0417
  223SOL     H1 1336   0.075   5.713   0.326 -0.2164  0.7776  0.1612
  223SOL     H2 1337   0.193   5.743   0.236  1.1151 -0.4974  1.4453
  223SOL    EPW 1338   0.139   5.769   0.303  0.0222  0.5211  0.2042
  224SOL      O 1339   2.897   0.673   0.816 -0.4392 -0.5256  0.6610
  224SOL     H1 1340   2.851   0.621   0.751 -1.2216  1.2131 -0.2281
  224SOL     H2 1341   2.984   0.686   0.778 -0.4012 -0.7975  0.6566
  224SOL    EPW 1342   2.902   0.669   0.805 -0.5186 -0.3691  0.5657
  225SOL      O 1343   4.678   4.206   0.610 -0.6471 -0.2769  0.4042
  225SOL     H1 1344   4.710   4.199   0.520 -0.3673 -3.2776  0.7095
  225SOL     H2 1345   4.755   4.189   0.664 -0.5153  2.7900  1.2800
  225SOL    EPW 1346   4.690   4.204   0.606 -0.6032 -0.2698  0.5302
  226SOL      O 1347   2.474   1.473   1.441 -0.3415 -0.3723  0.0810
  226SOL     H1 1348   2.554   1.459   1.490 -0.2370 -0.9675 -0.2522
  226SOL     H2 1349   2.473   1.403   1.375  0.3255  1.3331 -1.8044
  226SOL    EPW 1350   2.482   1.464   1.439 -0.2592 -0.2538 -0.1557
  227SOL      O 1351   0.154   0.791   1.446  0.1428 -0.3247  0.5715
  227SOL     H1 1352   0.206   0.850   1.391 -0.7301 -0.7324 -0.7012
  227SOL     H2 1353   0.200   0.707   1.441 -0.1030 -0.4384  0.2232
  227SOL    EPW 1354   0.164   0.788   1.439  0.0235 -0.3803  0.3986
  228SOL      O 1355   0.620   5.059   0.628 -1.1974  0.0860 -0.4585
  228SOL     H1 1356   0.648   5.149   0.645 -2.0976  0.4147 -0.6994
  228SOL     H2 1357   0.576   5.032   0.708  1.5677 -1.1620  0.7329
  228SOL    EPW 1358   0.619   5.066   0.639 -0.9984 -0.0121 -0.3571
  229SOL      O 1359   0.608   0.188   0.247 -0.4601 -0.4882 -0.5853
  229SOL     H1 1360   0.664   0.172   0.170 -1.1078 -2.1180 -0.7396
  229SOL     H2 1361   0.569   0.274   0.231  1.4216  0.3473 -0.8311
  229SOL    EPW 1362   0.610   0.195   0.237 -0.3285 -0.5729 -0.6280
  230SOL      O 1363   5.606   3.428   0.558  0.2898  0.3694  0.5953
  230SOL     H1 1364   5.575   3.413   0.469 -0.8016 -1.5957  1.2823
  230SOL     H2 1365   5.663   3.353   0.577  0.8609  0.9926  1.4134
  230SOL    EPW 1366   5.609   3.419   0.550  0.2343  0.2263  0.7559
  231SOL      O 1367   0.385   1.355   2.075 -0.3352  0.2298 -0.0158
  231SOL     H1 1368   0.462   1.320   2.029 -0.1035 -0.1980  0.6846
  231SOL     H2 1369   0.420   1.390   2.157 -0.5725  2.1085 -0.6977
  231SOL    EPW 1370   0.397   1.355   2.079 -0.3358  0.3846 -0.0139
  232SOL      O 1371   1.328   1.370   1.682 -0.5423 -0.4446 -0.2741
  232SOL     H1 1372   1.396   1.356   1.748 -1.1161  1.2522  0.7029
  232SOL     H2 1373   1.377   1.390   1.602  0.1787 -3.4196 -0.6150
  232SOL    EPW 1374   1.341   1.371   1.681 -0.5266 -0.5809 -0.2063
  233SOL      O 1375   1.658   0.842   1.450 -0.2690  0.2439  0.2177
  233SOL     H1 1376   1.617   0.756   1.442  1.7241 -0.6396 -0.8015
  233SOL     H2 1377   1.598   0.892   1.506 -2.2139 -1.2992 -0.4452
  233SOL    EPW 1378   1.647   0.838   1.455 -0.2639 -0.0150  0.0382
  234SOL      O 1379   4.626   0.998   3.213  0.3371  0.0572  0.1743
  234SOL     H1 1380   4.713   0.958   3.221  0.5186  0.5950  0.9246
  234SOL     H2 1381   4.596   1.007   3.303 -1.6378 -2.5949 -0.1379
  234SOL    EPW 1382   4.632   0.994   3.223  0.1458 -0.1683  0.2210
  235SOL      O 1383   3.027   2.020   2.352 -0.0978 -0.1609 -0.2986
  235SOL     H1 1384   3.086   2.071   2.298 -0.7017  0.0426 -0.7752
  235SOL     H2 1385   3.047   2.046   2.442 -0.6659  1.2130 -0.5577
  235SOL    EPW 1386   3.035   2.028   2.356 -0.2228  0.0074 -0.3771
  236SOL      O 1387   1.321   0.835   3.525  0.1927  0.1799  0.0532
  236SOL     H1 1388   1.299   0.782   3.601  2.3898 -0.8214  0.0312
  236SOL     H2 1389   1.391   0.894   3.556 -0.2062  1.0680 -0.6891
  236SOL    EPW 1390   1.326   0.836   3.536  0.3845  0.1678 -0.0283
  237SOL      O 1391   0.842   0.233   2.751  0.0036  0.3794 -0.5421
  237SOL     H1 1392   0.800   0.312   2.784  0.7048 -0.1250  1.6227
  237SOL     H2 1393   0.923   0.226   2.802 -0.2163 -1.9248 -0.4668
  237SOL    EPW 1394   0.846   0.240   2.760  0.0549  0.0798 -0.3031
  238SOL      O 1395   0.163   0.368   2.713 -0.5126 -0.0958  0.1428
  238SOL     H1 1396   0.210   0.293   2.750 -0.0695 -0.1601 -0.5456
  238SOL     H2 1397   0.136   0.340   2.626 -1.1468  0.2223  0.2322
  238SOL    EPW 1398   0.165   0.357   2.708 -0.5330 -0.0687  0.0789
  239SOL      O 1399   2.247   1.247   1.828  0.4103  0.0127  0.3167
  239SOL     H1 1400   2.323   1.255   1.770  0.0688 -0.9733 -0.2848
  239SOL     H2 1401   2.218   1.337   1.843  1.3911  0.3640  0.1473
  239SOL    EPW 1402   2.252   1.257   1.824  0.4785 -0.0550  0.2344
  240SOL      O 1403   3.774   4.010   0.058  0.4745  0.4214  0.0561
  240SOL     H1 1404   3.794   3.922   0.090  1.6573  1.2349  1.6168
  240SOL     H2 1405   3.851   4.035   0.007 -1.3184 -0.7914 -3.4182
  240SOL    EPW 1406   3.784   4.003   0.056  0.4094  0.3788 -0.1480
  241SOL      O 1407   5.512   0.703   2.230  0.5187  0.1192  0.1007
  241SOL     H1 1408   5.568   0.772   2.194  0.0020  0.4911  0.0028
  241SOL     H2 1409   5.426   0.719   2.192  0.0936  0.1917  1.0648
  241SOL    EPW 1410   5.509   0.712   2.222  0.4182  0.1666  0.1931
  242SOL      O 1411   1.012   0.574   3.020  0.2041  0.2266 -0.3413
  242SOL     H1 1412   0.934   0.585   3.075 -2.1828 -1.2468 -3.3220
  242SOL     H2 1413   1.060   0.503   3.061 -1.7873 -1.1873 -0.3849
  242SOL    EPW 1414   1.008   0.568   3.031 -0.2630 -0.0814 -0.6639
  243SOL      O 1415   1.182   0.341   3.210 -0.1432 -0.0827  0.1060
  243SOL     H1 1416   1.141   0.264   3.249  1.1798 -0.3972  0.9144
  243SOL     H2 1417   1.160   0.412   3.271 -1.2618  0.1760 -0.5768
  243SOL    EPW 1418   1.175   0.340   3.221 -0.1214 -0.0887  0.1194
  244SOL      O 1419   0.934   0.174   2.498  0.2153 -0.0250 -0.4730
  244SOL     H1 1420   0.912   0.198   2.588 -0.2760 -1.8829 -0.0671
  244SOL     H2 1421   0.857   0.197   2.447 -1.1713 -2.7391  0.2822
  244SOL    EPW 1422   0.924   0.179   2.502  0.0150 -0.5127 -0.3491
  245SOL      O 1423   1.524   2.576   3.850 -0.1802  0.5207 -0.3580
  245SOL     H1 1424   1.608   2.530   3.849 -0.7949 -0.5993 -0.9808
  245SOL     H2 1425   1.507   2.597   3.758 -0.2398  1.4080 -0.1567
  245SOL    EPW 1426   1.531   2.574   3.840 -0.2521  0.4959 -0.4030
  246SOL      O 1427   5.134   1.982   2.963  0.1242 -0.5488  0.3059
  246SOL     H1 1428   5.105   1.966   3.053 -1.9144  1.3630  0.0236
  246SOL     H2 1429   5.076   2.051   2.931  1.7442 -0.2258 -2.0238
  246SOL    EPW 1430   5.124   1.987   2.969  0.0796 -0.3104  0.0273
  247SOL      O 1431   0.146   1.348   2.824  0.4001  0.5186  0.3799
  247SOL     H1 1432   0.081   1.351   2.754  0.5703  1.4206  0.2571
  247SOL     H2 1433   0.211   1.284   2.793  0.3386  0.7153 -0.1608
  247SOL    EPW 1434   0.146   1.341   2.813  0.4117  0.6358  0.3091
  248SOL      O 1435   0.285   3.126   3.120  0.0159 -0.4625 -0.3549
  248SOL     H1 1436   0.205   3.118   3.067 -0.0555 -0.4640 -0.2454
  248SOL     H2 1437   0.262   3.088   3.204 -0.4036  1.1342  0.2667
  248SOL    EPW 1438   0.274   3.121   3.123 -0.0365 -0.2924 -0.2769
  249SOL      O 1439   2.091   0.942   3.048  0.5889  0.2102  0.1150
  249SOL     H1 1440   2.125   1.032   3.050 -0.1673  0.4790  1.8265
  249SOL     H2 1441   2.063   0.925   3.138  1.2177 -1.9392 -0.0594
  249SOL    EPW 1442   2.092   0.950   3.058  0.5753  0.0096  0.2790
  250SOL      O 1443   1.048   1.022   2.725 -0.5029  0.1317 -0.3211
  250SOL     H1 1444   1.078   0.960   2.791 -1.6280 -0.7557 -0.6222
  250SOL     H2 1445   1.090   1.104   2.748  0.2379 -0.5146  0.6598
  250SOL    EPW 1446   1.055   1.024   2.735 -0.5439 -0.0319 -0.2486
  251SOL      O 1447   0.568   0.765   2.674  0.7593 -0.9931 -0.0675
  251SOL     H1 1448   0.487   0.788   2.720  1.3265  0.2842  0.3095
  251SOL     H2 1449   0.629   0.834   2.698  1.3588 -0.8387 -1.9967
  251SOL    EPW 1450   0.566   0.775   2.681  0.8837 -0.8404 -0.2331
  252SOL      O 1451   1.086   1.375   3.694  0.0925 -0.4991  0.4267
  252SOL     H1 1452   1.077   1.296   3.640  0.8503 -1.2309  1.3429
  252SOL     H2 1453   1.019   1.366   3.762 -0.4636  0.1246 -0.0419
  252SOL    EPW 1454   1.078   1.365   3.696  0.1140 -0.5106  0.4745
  253SOL      O 1455   0.727   2.103   2.432 -0.0060  0.5804 -0.5039
  253SOL     H1 1456   0.689   2.051   2.362 -2.7109  1.1448  0.4661
  253SOL     H2 1457   0.717   2.049   2.510  1.1472  0.7869 -0.1939
  253SOL    EPW 1458   0.722   2.092   2.433 -0.1716  0.6626 -0.3674
  254SOL      O 1459   2.401   5.694   1.035  0.2896  0.0123  0.0972
  254SOL     H1 1460   2.316   5.709   1.075 -1.3940 -1.4477 -2.7539
  254SOL     H2 1461   2.416   5.773   0.982  0.2872 -0.1018 -0.0750
  254SOL    EPW 1462   2.394   5.704   1.033  0.1098 -0.1556 -0.2253
  255SOL      O 1463   4.519   5.626   2.072  0.5613 -0.3166  0.5816
  255SOL     H1 1464   4.429   5.626   2.040  0.5433  1.2652  0.5914
  255SOL     H2 1465   4.519   5.564   2.144 -0.0139 -1.9481 -0.7930
  255SOL    EPW 1466   4.509   5.620   2.076  0.4980 -0.3219  0.4360
  256SOL      O 1467   5.354   1.881   2.800 -0.2970 -0.4027  0.5916
  256SOL     H1 1468   5.267   1.904   2.833  0.3481 -0.3843  2.3632
  256SOL     H2 1469   5.372   1.795   2.839  1.2206  0.4208  1.7712
  256SOL    EPW 1470   5.347   1.874   2.808 -0.0663 -0.3129  0.9064
  257SOL      O 1471   1.820   1.764   2.196 -0.2460  0.0381 -0.7205
  257SOL     H1 1472   1.763   1.834   2.164 -0.0385  0.5663  0.0659
  257SOL     H2 1473   1.793   1.751   2.287 -0.5169 -1.1346 -0.9584
  257SOL    EPW 1474   1.811   1.770   2.202 -0.2528 -0.0307 -0.6620
  258SOL      O 1475   1.731   0.522   1.132  0.2472  0.3236 -0.0309
  258SOL     H1 1476   1.795   0.544   1.064 -0.5472 -0.2318 -0.9875
  258SOL     H2 1477   1.751   0.432   1.156 -0.9163 -0.2761 -1.2179
  258SOL    EPW 1478   1.740   0.515   1.127  0.0384  0.2004 -0.2595
  259SOL      O 1479   1.370   2.089   2.734  0.3904 -0.2222 -0.0437
  259SOL     H1 1480   1.388   2.183   2.744  1.6207 -0.6267  1.8440
  259SOL     H2 1481   1.455   2.047   2.747  0.3167 -1.5145 -3.1474
  259SOL    EPW 1482   1.381   2.095   2.736  0.5138 -0.4032 -0.1734
  260SOL      O 1483   1.682   0.076   2.644 -0.0056 -0.4975 -0.4077
  260SOL     H1 1484   1.601   0.118   2.674 -0.0076 -0.2788 -0.7187
  260SOL     H2 1485   1.672  -0.016   2.669 -1.4203 -0.9795 -2.6044
  260SOL    EPW 1486   1.672   0.071   2.650 -0.1567 -0.5256 -0.6752
  261SOL      O 1487   5.074   3.021   4.140  0.2130  0.2076 -0.5113
  261SOL     H1 1488   5.034   3.050   4.222  1.0774 -1.1794  0.4282
  261SOL     H2 1489   5.001   2.992   4.087 -0.1765 -1.0868  0.6953
  261SOL    EPW 1490   5.062   3.021   4.143  0.2637 -0.0784 -0.2824
  262SOL      O 1491   1.158   0.736   4.123 -0.2657  0.1269 -0.1891
  262SOL     H1 1492   1.242   0.733   4.076 -0.4768  1.9871 -0.7078
  262SOL     H2 1493   1.180   0.710   4.212  0.9574  1.0871 -0.1950
  262SOL    EPW 1494   1.169   0.733   4.127 -0.1577  0.4278 -0.2450
  263SOL      O 1495   0.475   0.414   3.799  0.4065  0.5601  0.4595
  263SOL     H1 1496   0.516   0.447   3.878  1.2084  3.0744 -0.9403
  263SOL     H2 1497   0.545   0.370   3.751  0.6374  1.5824 -0.1738
  263SOL    EPW 1498   0.487   0.413   3.802  0.5166  0.9373  0.2427
  264SOL      O 1499   2.452   0.523   1.940 -0.2480 -0.0808 -0.1013
  264SOL     H1 1500   2.432   0.506   1.848 -0.0176 -0.0030 -0.1655
  264SOL     H2 1501   2.546   0.504   1.948  0.1827  1.9033 -0.3457
  264SOL    EPW 1502   2.460   0.519   1.931 -0.1775  0.1391 -0.1342
  265SOL      O 1503   0.606   1.035   2.519 -0.4296  0.3389  0.0225
  265SOL     H1 1504   0.701   1.052   2.522 -0.2896 -0.3885 -0.1796
  265SOL     H2 1505   0.574   1.067   2.604  0.2519 -0.8622  0.7558
  265SOL    EPW 1506   0.613   1.040   2.529 -0.3419  0.1332  0.0792
  266SOL      O 1507   2.834   1.859   2.888  0.0276 -0.1422  0.0579
  266SOL     H1 1508   2.810   1.926   2.823  4.0643  0.7045 -0.7341
  266SOL     H2 1509   2.839   1.778   2.837 -1.6150 -0.4423  0.3489
  266SOL    EPW 1510   2.832   1.858   2.875  0.2830 -0.0839  0.0045
  267SOL      O 1511   4.790   0.696   3.665  0.8138  0.0145 -0.1337
  267SOL     H1 1512   4.836   0.670   3.585 -1.0458 -0.7043 -0.9929
  267SOL     H2 1513   4.698   0.697   3.641  0.3008  0.7769  1.7458
  267SOL    EPW 1514   4.785   0.693   3.654  0.5607  0.0191 -0.0249
  268SOL      O 1515   5.716   2.839   3.751 -0.1569 -0.4002  0.2597
  268SOL     H1 1516   5.666   2.779   3.807 -1.8270  0.8493  0.1437
  268SOL     H2 1517   5.678   2.925   3.769  0.5388  0.2739 -1.4407
  268SOL    EPW 1518   5.706   2.842   3.759 -0.2609 -0.1950  0.0660
  269SOL      O 1519   1.815   5.636   1.839 -0.0046  0.1356 -0.1826
  269SOL     H1 1520   1.829   5.660   1.931 -2.8291  2.4632 -0.2968
  269SOL     H2 1521   1.900   5.651   1.798  1.2668 -0.7870  2.0073
  269SOL    EPW 1522   1.826   5.640   1.845 -0.1703  0.2855  0.0388
  270SOL      O 1523   5.081   1.914   3.210  0.1487  0.0803  0.1101
  270SOL     H1 1524   5.131   1.932   3.289 -0.9463  0.4244  0.7283
  270SOL     H2 1525   4.989   1.925   3.236 -0.2459 -0.3804 -1.0496
  270SOL    EPW 1526   5.076   1.917   3.221 -0.0102  0.0678  0.0524
  271SOL      O 1527   0.133   5.460   1.383  0.0131  1.0925 -1.1682
  271SOL     H1 1528   0.090   5.522   1.323 -0.7489  2.5974  0.8724
  271SOL     H2 1529   0.106   5.488   1.470  1.2234 -0.9681 -0.0841
  271SOL    EPW 1530   0.126   5.470   1.385  0.0609  1.0332 -0.8349
  272SOL      O 1531   2.669   1.163   2.770  0.5075 -0.0757 -0.8615
  272SOL     H1 1532   2.710   1.089   2.815 -2.3896 -0.7071  0.8879
  272SOL     H2 1533   2.605   1.123   2.711  0.1306  0.9748 -1.1753
  272SOL    EPW 1534   2.666   1.151   2.769  0.1583 -0.0310 -0.7084
  273SOL      O 1535   0.903   0.565   1.469  0.5994 -0.6825  0.0767
  273SOL     H1 1536   0.960   0.498   1.432  1.6805  0.0803  0.3427
  273SOL     H2 1537   0.838   0.581   1.400  1.8826 -0.1416 -1.0309
  273SOL    EPW 1538   0.902   0.560   1.458  0.8516 -0.5434 -0.0131
  274SOL      O 1539   1.316   0.581   2.093 -0.2043 -0.4115  0.2303
  274SOL     H1 1540   1.368   0.562   2.172  0.9490  2.9131  0.3623
  274SOL     H2 1541   1.225   0.576   2.122  0.1690 -0.9481  1.3428
  274SOL    EPW 1542   1.312   0.579   2.105 -0.0415 -0.1141  0.3630
  275SOL      O 1543   1.182   1.028   3.630 -0.3313  0.5102  0.0561
  275SOL     H1 1544   1.106   1.059   3.580  0.7041  2.4666 -0.3249
  275SOL     H2 1545   1.220   0.959   3.575 -1.8476 -0.5186  0.2722
  275SOL    EPW 1546   1.178   1.024   3.619 -0.3826  0.6091  0.0385
  276SOL      O 1547   1.381   0.212   1.230  0.3836  0.4819 -0.2614
  276SOL     H1 1548   1.332   0.276   1.177 -1.1061  0.5926  1.2171
  276SOL     H2 1549   1.313   0.165   1.279  1.7376  0.3108  1.4765
  276SOL    EPW 1550   1.368   0.214   1.229  0.3692  0.4754  0.0817
  277SOL      O 1551   0.587   0.802   2.393 -0.1383 -0.2149  0.3517
  277SOL     H1 1552   0.597   0.828   2.301  1.5189 -1.1631  0.2493
  277SOL     H2 1553   0.596   0.883   2.442  1.1427 -0.0284 -0.1939
  277SOL    EPW 1554   0.589   0.813   2.388  0.1752 -0.2961  0.2826
  278SOL      O 1555   1.860   5.819   1.323 -0.1006  0.1710  0.4517
  278SOL     H1 1556   1.800   5.784   1.389 -0.1576  0.0355  0.3276
  278SOL     H2 1557   1.879   5.745   1.266  1.6139 -0.2400  1.5394
  278SOL    EPW 1558   1.855   5.807   1.324  0.0762  0.1127  0.5545
  279SOL      O 1559   2.047   2.884   3.870 -0.3668 -0.1024 -0.9495
  279SOL     H1 1560   2.015   2.911   3.783  0.2821 -0.5534 -1.3315
  279SOL     H2 1561   2.141   2.869   3.857 -0.3089 -0.3769 -0.2135
  279SOL    EPW 1562   2.054   2.885   3.859 -0.2914 -0.1798 -0.9117
  280SOL      O 1563   1.717   5.705   3.213 -0.4121 -0.4633  0.2075
  280SOL     H1 1564   1.803   5.745   3.200 -0.3644 -1.1034 -1.5562
  280SOL     H2 1565   1.737   5.615   3.239 -0.5373 -0.7256 -0.5857
  280SOL    EPW 1566   1.729   5.700   3.215 -0.4204 -0.5596 -0.0653
  281SOL      O 1567   5.155   3.829   0.500  0.7440  0.0014  1.1237
  281SOL     H1 1568   5.071   3.875   0.500  0.8455  0.2208 -0.1935
  281SOL     H2 1569   5.220   3.897   0.516  0.7255 -0.0319  1.3351
  281SOL    EPW 1570   5.153   3.841   0.501  0.7529  0.0213  1.0058
  282SOL      O 1571   1.369   0.998   2.841 -0.7671  0.1325 -0.4864
  282SOL     H1 1572   1.300   0.976   2.779  0.2469 -1.8949 -0.9219
  282SOL     H2 1573   1.401   1.084   2.812  0.9363 -1.5790 -3.9248
  282SOL    EPW 1574   1.365   1.005   2.831 -0.4772 -0.2664 -0.8997
  283SOL      O 1575   5.765   5.427   3.898 -0.0309  0.0724 -0.3427
  283SOL     H1 1576   5.857   5.416   3.921 -0.0665  0.2880 -0.1021
  283SOL     H2 1577   5.749   5.359   3.832 -0.0138 -0.7387  0.4776
  283SOL    EPW 1578   5.773   5.418   3.893 -0.0329  0.0089 -0.2295
  284SOL      O 1579   2.426   1.034   3.012 -0.6821 -0.4828  0.2668
  284SOL     H1 1580   2.357   1.031   2.945 -0.2154 -1.0042 -0.1935
  284SOL     H2 1581   2.378   1.040   3.095 -1.2583  0.3235 -0.1200
  284SOL    EPW 1582   2.413   1.034   3.014 -0.6938 -0.4524  0.1764
  285SOL      O 1583   5.054   0.377   2.051  0.3281  0.2774  0.4216
  285SOL     H1 1584   5.026   0.316   2.120 -0.5607  0.7430  0.4754
  285SOL     H2 1585   5.016   0.461   2.076  0.0842  0.4724 -0.5860
  285SOL    EPW 1586   5.047   0.379   2.061  0.2073  0.3479  0.3198
  286SOL      O 1587   0.561   2.338   2.102  0.0330 -0.5132 -0.2826
  286SOL     H1 1588   0.601   2.327   2.189  1.3285 -1.0557 -0.9306
  286SOL     H2 1589   0.467   2.325   2.117  0.1666  0.1044  1.1540
  286SOL    EPW 1590   0.555   2.335   2.113  0.1855 -0.5052 -0.1985
  287SOL      O 1591   2.125   1.217   2.963  0.2957 -0.3691  0.7376
  287SOL     H1 1592   2.091   1.306   2.975 -1.0778 -0.5327 -1.5583
  287SOL     H2 1593   2.180   1.224   2.885 -0.4072 -1.6578  0.1093
  287SOL    EPW 1594   2.127   1.227   2.956  0.0742 -0.5240  0.4256
  288SOL      O 1595   5.291   1.766   1.905 -0.4162 -0.4797 -0.1398
  288SOL     H1 1596   5.287   1.673   1.881  1.7602 -0.4834 -0.6527
  288SOL     H2 1597   5.256   1.812   1.829 -3.3545 -0.9218  0.8751
  288SOL    EPW 1598   5.287   1.761   1.894 -0.4974 -0.5273 -0.0863
  289SOL      O 1599   2.340   0.734   2.323 -0.3053 -0.3356 -0.2560
  289SOL     H1 1600   2.258   0.736   2.373 -1.2670 -0.3383 -1.7874
  289SOL     H2 1601   2.366   0.642   2.325  0.1251 -0.1919  0.9612
  289SOL    EPW 1602   2.334   0.724   2.328 -0.3620 -0.3206 -0.2895
  290SOL      O 1603   2.323   2.457   3.817 -0.0093 -0.1698 -0.0747
  290SOL     H1 1604   2.342   2.398   3.890 -1.0610  0.6124  0.8473
  290SOL     H2 1605   2.287   2.535   3.859  2.0576  1.4334 -1.2162
  290SOL    EPW 1606   2.322   2.459   3.830  0.0990  0.0847 -0.0981
  291SOL      O 1607   1.832   0.659   2.231 -0.1286 -0.5463  0.2257
  291SOL     H1 1608   1.877   0.589   2.280  1.2181  1.4176  1.8655
  291SOL     H2 1609   1.869   0.653   2.143 -0.0801 -1.9556  0.3179
  291SOL    EPW 1610   1.841   0.651   2.227  0.0203 -0.4872  0.4105
  292SOL      O 1611   0.700   0.279   2.381  0.3829  0.0701  0.3353
  292SOL     H1 1612   0.737   0.255   2.296 -0.0064  0.4183  0.0651
  292SOL     H2 1613   0.655   0.200   2.410  0.4797 -0.0370  0.1981
  292SOL    EPW 1614   0.699   0.268   2.375  0.3517  0.0958  0.2919
  293SOL      O 1615   2.477   5.684   3.283  0.1108  0.1285  0.4335
  293SOL     H1 1616   2.469   5.643   3.369 -2.1957 -0.4573 -0.0164
  293SOL     H2 1617   2.465   5.778   3.301 -1.0925 -0.0575  0.7025
  293SOL    EPW 1618   2.475   5.690   3.294 -0.2636  0.0461  0.4142
  294SOL      O 1619   0.718   4.264   0.713 -0.4499  0.2269  0.1703
  294SOL     H1 1620   0.661   4.337   0.689 -0.9260 -0.0317  0.5124
  294SOL     H2 1621   0.670   4.217   0.780  0.2662  0.1324  0.6270
  294SOL    EPW 1622   0.707   4.267   0.717 -0.4243  0.1892  0.2555
  295SOL      O 1623   0.689   3.107   3.298 -0.0548  0.0840 -0.0044
  295SOL     H1 1624   0.698   3.053   3.376 -0.3825 -1.6762 -1.1576
  295SOL     H2 1625   0.612   3.161   3.314  0.2039  0.1428  1.1018
  295SOL    EPW 1626   0.682   3.107   3.308 -0.0622 -0.0975 -0.0094
  296SOL      O 1627   0.354   1.323   3.026 -0.1346 -0.1803 -0.1015
  296SOL     H1 1628   0.342   1.254   3.092  0.9244 -0.9429 -0.6909
  296SOL     H2 1629   0.445   1.348   3.033  0.8169 -2.3737 -3.2463
  296SOL    EPW 1630   0.362   1.318   3.034  0.0799 -0.4956 -0.4999
  297SOL      O 1631   0.620   5.723   3.050  0.4961  0.5232 -0.3830
  297SOL     H1 1632   0.711   5.735   3.077  0.2010  1.0825  0.3966
  297SOL     H2 1633   0.595   5.806   3.010  1.0900 -0.4841 -2.9304
  297SOL    EPW 1634   0.627   5.733   3.049  0.5279  0.4754 -0.5716
  298SOL      O 1635   3.423   0.746   3.062 -0.3227  0.0937  0.2864
  298SOL     H1 1636   3.428   0.829   3.108  1.8216 -0.4789  1.1448
  298SOL     H2 1637   3.329   0.728   3.054 -0.7881  2.4268  0.3553
  298SOL    EPW 1638   3.414   0.753   3.066 -0.1436  0.2815  0.3853
  299SOL      O 1639   2.177   4.191   0.573  0.4193  0.1091  0.4355
  299SOL     H1 1640   2.088   4.159   0.561  0.7310 -0.8473  0.5793
  299SOL     H2 1641   2.186   4.263   0.511 -0.0690 -0.5691 -0.4319
  299SOL    EPW 1642   2.169   4.195   0.565  0.4004 -0.0653  0.3583
  300SOL      O 1643   1.641   1.221   2.072  0.0672 -0.0625  1.0593
  300SOL     H1 1644   1.610   1.235   2.162  2.1741 -0.6078  1.9071
  300SOL     H2 1645   1.645   1.126   2.063  0.2873 -0.0024  0.5310
  300SOL    EPW 1646   1.638   1.213   2.081  0.3155 -0.1142  1.0934
  301SOL      O 1647   0.972   0.391   3.964 -0.3633  0.8635 -0.3747
  301SOL     H1 1648   1.060   0.392   4.003 -1.0276 -0.1041  1.2064
  301SOL     H2 1649   0.952   0.483   3.947  0.0927  1.2677  1.2259
  301SOL    EPW 1650   0.979   0.401   3.966 -0.3855  0.8034 -0.0353
  302SOL      O 1651   1.344   0.576   3.014  0.6600 -0.2618  0.2517
  302SOL     H1 1652   1.321   0.599   3.104 -1.8619 -1.5627 -0.0268
  302SOL     H2 1653   1.436   0.551   3.019  0.8737  0.7961  2.2531
  302SOL    EPW 1654   1.352   0.576   3.024  0.4138 -0.2877  0.4355
  303SOL      O 1655   2.994   3.254   1.216  0.1836 -0.2787  0.4077
  303SOL     H1 1656   2.914   3.210   1.247  0.2787  0.2377  1.4014
  303SOL     H2 1657   2.967   3.345   1.203  0.5340 -0.1752  0.4197
  303SOL    EPW 1658   2.982   3.259   1.218  0.2311 -0.2126  0.5150
  304SOL      O 1659   2.937   3.407   0.542 -0.4995 -0.0122 -0.1063
  304SOL     H1 1660   2.899   3.449   0.619  1.7351 -0.7341  1.4568
  304SOL     H2 1661   2.951   3.478   0.480 -2.0985  0.6204  0.2500
  304SOL    EPW 1662   2.935   3.419   0.544 -0.4317 -0.0217  0.0984
  305SOL      O 1663   2.517   1.819   2.799  0.4409 -0.0682  0.1466
  305SOL     H1 1664   2.476   1.735   2.819  0.9304 -0.3753 -0.1364
  305SOL     H2 1665   2.592   1.824   2.859  1.1169 -0.3821 -0.6563
  305SOL    EPW 1666   2.521   1.811   2.807  0.5653 -0.1345  0.0308
  306SOL      O 1667   1.697   4.235   2.142  0.4609  0.2427  0.3065
  306SOL     H1 1668   1.657   4.315   2.175 -0.0405 -0.3266  1.0842
  306SOL     H2 1669   1.784   4.263   2.111 -0.2437  1.3413 -0.7266
  306SOL    EPW 1670   1.702   4.246   2.142  0.3323  0.2992  0.2793
  307SOL      O 1671   1.431   0.945   3.168 -0.3488  0.5324  0.4315
  307SOL     H1 1672   1.509   0.953   3.113  0.7927  0.4908  2.0061
  307SOL     H2 1673   1.369   1.008   3.133  0.3555  0.4867 -0.9054
  307SOL    EPW 1674   1.433   0.952   3.159 -0.1519  0.5231  0.4569
  308SOL      O 1675   0.678   1.369   3.302 -0.1309  0.5057 -0.3964
  308SOL     H1 1676   0.584   1.377   3.320 -0.0702  1.3925 -0.4706
  308SOL     H2 1677   0.719   1.430   3.363  0.4287 -0.1545 -0.1068
  308SOL    EPW 1678   0.672   1.376   3.311 -0.0647  0.5299 -0.3734
  309SOL      O 1679   0.535   0.384   0.658 -0.4697 -0.0838  0.1010
  309SOL     H1 1680   0.604   0.450   0.645 -0.7665  0.7176  2.2184
  309SOL     H2 1681   0.559   0.311   0.602  3.6478 -0.9552  2.7760
  309SOL    EPW 1682   0.545   0.384   0.651 -0.0621 -0.0913  0.6122
  310SOL      O 1683   1.081   5.259   1.682  0.1936  0.2582 -0.4383
  310SOL     H1 1684   1.090   5.263   1.777  0.0103  2.0246 -0.4609
  310SOL     H2 1685   1.169   5.274   1.649  0.1380  0.3551 -0.5446
  310SOL    EPW 1686   1.091   5.261   1.688  0.1681  0.4570 -0.4521
  311SOL      O 1687   0.836   0.644   2.778  0.5014 -0.1743  0.0270
  311SOL     H1 1688   0.842   0.739   2.780  0.5300 -0.1724 -0.1277
  311SOL     H2 1689   0.918   0.614   2.819  1.3884 -0.1432 -1.6604
  311SOL    EPW 1690   0.846   0.651   2.783  0.5991 -0.1708 -0.1695
  312SOL      O 1691   1.789   0.765   2.483 -0.0083 -0.1013 -0.0139
  312SOL     H1 1692   1.727   0.716   2.536 -0.2003 -0.0463 -0.1886
  312SOL     H2 1693   1.798   0.715   2.402  1.4233 -0.9789  0.6634
  312SOL    EPW 1694   1.783   0.755   2.480  0.1239 -0.1890  0.0397
  313SOL      O 1695   0.711   5.010   3.931 -0.1279  0.0004 -0.7058
  313SOL     H1 1696   0.688   4.920   3.952 -1.7195  0.8650  1.2937
  313SOL     H2 1697   0.804   5.006   3.908 -0.6430 -2.4455 -2.5883
  313SOL    EPW 1698   0.719   5.000   3.930 -0.3527 -0.1683 -0.6933
  314SOL      O 1699   0.728   0.601   2.512 -0.6286  0.1646 -0.0322
  314SOL     H1 1700   0.780   0.599   2.431 -0.3229  0.0692  0.1650
  314SOL     H2 1701   0.793   0.594   2.582 -0.9530 -0.5387  0.2014
  314SOL    EPW 1702   0.741   0.600   2.511 -0.6306  0.0794  0.0137
  315SOL      O 1703   0.286   2.049   0.788 -0.0969  0.0543 -0.5450
  315SOL     H1 1704   0.245   2.117   0.734  0.2356 -0.0945 -0.9961
  315SOL     H2 1705   0.338   1.998   0.725 -0.6008 -0.8123 -0.2657
  315SOL    EPW 1706   0.287   2.051   0.775 -0.1151 -0.0540 -0.5633
  316SOL      O 1707   0.509   1.410   2.333 -0.3435 -0.5434 -0.1859
  316SOL     H1 1708   0.487   1.492   2.377 -2.1836 -2.2942  2.2762
  316SOL     H2 1709   0.600   1.394   2.357 -0.7647 -0.5191  1.4932
  316SOL    EPW 1710   0.517   1.418   2.340 -0.5848 -0.7275  0.2559
  317SOL      O 1711   1.151   0.875   2.262  0.8190 -0.5013  0.3690
  317SOL     H1 1712   1.142   0.970   2.275  0.5942 -0.6944  1.6005
  317SOL     H2 1713   1.224   0.868   2.199 -0.4380  0.5539 -1.2548
  317SOL    EPW 1714   1.158   0.885   2.257  0.6609 -0.4094  0.3272
  318SOL      O 1715   3.983   3.218   0.443  0.5372 -0.1548 -0.2967
  318SOL     H1 1716   4.071   3.216   0.406  0.7092 -1.7644  0.1608
  318SOL     H2 1717   3.997   3.244   0.535  0.6483 -1.4952  0.0685
  318SOL    EPW 1718   3.994   3.221   0.449  0.5674 -0.4695 -0.2089
  319SOL      O 1719   1.218   0.843   1.471 -0.6309 -0.4854 -0.0528
  319SOL     H1 1720   1.243   0.787   1.545  2.2519  1.0913  0.2536
  319SOL     H2 1721   1.133   0.880   1.497  0.4646  0.2666  2.6331
  319SOL    EPW 1722   1.211   0.841   1.482 -0.2065 -0.2370  0.2664
  320SOL      O 1723   0.308   1.552   2.863 -0.0269  0.1413  0.3579
  320SOL     H1 1724   0.288   1.643   2.842  0.2979  0.0792 -0.2418
  320SOL     H2 1725   0.379   1.529   2.802  1.2650  0.0956  1.8340
  320SOL    EPW 1726   0.314   1.559   2.854  0.1455  0.1298  0.4514
  321SOL      O 1727   1.501   1.009   3.649  0.0260 -0.1685  0.1239
  321SOL     H1 1728   1.517   1.083   3.590 -0.0449 -0.2065  0.0577
  321SOL     H2 1729   1.496   1.050   3.736  0.5706 -0.1680  0.1577
  321SOL    EPW 1730   1.502   1.021   3.652  0.0765 -0.1725  0.1205
  322SOL      O 1731   5.155   1.560   2.926 -0.2095  0.1721 -0.4668
  322SOL     H1 1732   5.090   1.570   2.996 -0.6367 -1.0038 -0.6844
  322SOL     H2 1733   5.234   1.602   2.961 -0.1018 -1.3154  1.1785
  322SOL    EPW 1734   5.156   1.565   2.938 -0.2436 -0.1120 -0.3145
  323SOL      O 1735   1.848   0.285   1.204  0.0976 -0.2254  0.2429
  323SOL     H1 1736   1.920   0.241   1.158 -0.2207 -0.3329 -0.1609
  323SOL     H2 1737   1.874   0.283   1.296  1.0029  0.4830  0.0103
  323SOL    EPW 1738   1.859   0.280   1.209  0.1602 -0.1613  0.1750
  324SOL      O 1739   1.633   0.594   2.638  0.7978  0.1850  0.5216
  324SOL     H1 1740   1.594   0.664   2.692  0.8209  0.0146  0.7605
  324SOL     H2 1741   1.559   0.556   2.591  0.9421  1.1076 -0.4558
  324SOL    EPW 1742   1.621   0.598   2.639  0.8157  0.2653  0.4429
  325SOL      O 1743   5.710   5.341   0.513  0.7586  0.4511 -0.3115
  325SOL     H1 1744   5.668   5.276   0.456  0.5765 -1.1133  1.5675
  325SOL     H2 1745   5.709   5.301   0.600  1.7211  2.4851  0.6645
  325SOL    EPW 1746   5.705   5.330   0.516  0.8419  0.5012 -0.0069
  326SOL      O 1747   0.298   1.793   2.548  0.1027 -0.1774  0.6625
  326SOL     H1 1748   0.334   1.756   2.467  0.5700 -0.5337  1.0209
  326SOL     H2 1749   0.352   1.870   2.565 -0.6363  0.4730  0.1106
  326SOL    EPW 1750   0.308   1.797   2.541  0.0737 -0.1460  0.6418
  327SOL      O 1751   1.768   4.613   2.534  0.0560 -0.5550 -0.0746
  327SOL     H1 1752   1.803   4.693   2.574 -1.2510  1.7807 -3.3890
  327SOL     H2 1753   1.826   4.597   2.459 -1.7430 -0.6321 -1.4932
  327SOL    EPW 1754   1.778   4.620   2.530 -0.2753 -0.3141 -0.5795
  328SOL      O 1755   1.162   1.568   3.482 -0.1384  0.1506 -0.5840
  328SOL     H1 1756   1.139   1.492   3.535  0.6173  0.3985  0.0885
  328SOL     H2 1757   1.255   1.583   3.499  0.2261 -0.0387 -2.3097
  328SOL    EPW 1758   1.169   1.561   3.489 -0.0189  0.1569 -0.6964
  329SOL      O 1759   4.858   3.123   0.744  0.0478 -0.0327 -0.4495
  329SOL     H1 1760   4.782   3.181   0.750 -0.3549 -0.6738  1.0035
  329SOL     H2 1761   4.822   3.041   0.709 -0.1104 -0.6083  1.0173
  329SOL    EPW 1762   4.846   3.120   0.741 -0.0120 -0.1625 -0.1380
  330SOL      O 1763   1.806   1.170   3.334 -0.1229  0.1727  0.2428
  330SOL     H1 1764   1.867   1.230   3.377  0.4724  0.8783 -1.5578
  330SOL     H2 1765   1.858   1.091   3.318  0.8147  1.3132 -2.6542
  330SOL    EPW 1766   1.818   1.168   3.337  0.0406  0.3696 -0.2583
  331SOL      O 1767   0.675   1.829   1.969 -0.5284 -0.2848 -0.2444
  331SOL     H1 1768   0.723   1.909   1.989  1.3554 -1.1712 -1.0953
  331SOL     H2 1769   0.603   1.857   1.913 -0.1337  0.8625 -0.1749
  331SOL    EPW 1770   0.672   1.840   1.965 -0.2853 -0.2570 -0.3277
  332SOL      O 1771   2.924   2.367   1.585 -0.4333  0.4768  0.1300
  332SOL     H1 1772   2.896   2.435   1.524  0.7543 -0.4084 -1.4465
  332SOL     H2 1773   2.882   2.287   1.553  1.6638 -0.3481 -0.6760
  332SOL    EPW 1774   2.917   2.366   1.575 -0.0829  0.2944 -0.1241
  333SOL      O 1775   1.262   0.389   2.837 -0.1045 -0.1550  0.2098
  333SOL     H1 1776   1.231   0.473   2.804  0.2360  0.1699  0.7197
  333SOL     H2 1777   1.308   0.410   2.917 -1.1050 -0.9608  1.0180
  333SOL    EPW 1778   1.263   0.400   2.842 -0.1749 -0.2063  0.3504
  334SOL      O 1779   3.534   2.623   0.675 -0.5007  0.0520 -0.4661
  334SOL     H1 1780   3.576   2.693   0.725 -0.4475  0.1549 -0.6533
  334SOL     H2 1781   3.478   2.578   0.739 -0.0487 -0.1346 -0.2031
  334SOL    EPW 1782   3.532   2.626   0.687 -0.4468  0.0431 -0.4580
  335SOL      O 1783   1.297   5.851   2.623  0.0389 -0.2225 -0.3136
  335SOL     H1 1784   1.306   5.900   2.541 -2.0460 -0.0536 -0.4648
  335SOL     H2 1785   1.356   5.896   2.683 -0.5429  1.4352 -0.9417
  335SOL    EPW 1786   1.304   5.861   2.621 -0.2456 -0.0277 -0.3968
  336SOL      O 1787   5.442   0.320   3.849 -0.3456 -0.1135 -0.1253
  336SOL     H1 1788   5.396   0.387   3.800 -1.9131 -0.9778  0.1079
  336SOL     H2 1789   5.443   0.352   3.939 -1.5467 -0.6013  0.0799
  336SOL    EPW 1790   5.437   0.330   3.854 -0.6409 -0.2577 -0.0785
  337SOL      O 1791   1.111   5.191   3.663  0.0525 -0.0818  0.1181
  337SOL     H1 1792   1.178   5.236   3.612 -0.7764  0.7981 -0.1999
  337SOL     H2 1793   1.142   5.194   3.753  1.4929 -1.5822 -0.2966
  337SOL    EPW 1794   1.121   5.196   3.667  0.1177 -0.1480  0.0400
  338SOL      O 1795   5.868   1.428   2.597 -0.1749  0.2832 -0.5990
  338SOL     H1 1796   5.855   1.450   2.504 -2.9231 -1.0319 -0.6033
  338SOL     H2 1797   5.835   1.503   2.645 -0.2507  0.3047 -0.6847
  338SOL    EPW 1798   5.863   1.438   2.592 -0.4762  0.1452 -0.6086
  339SOL      O 1799   0.877   1.181   3.191 -0.2380  0.5121  0.4973
  339SOL     H1 1800   0.836   1.242   3.253 -0.8557 -0.9871  1.6284
  339SOL     H2 1801   0.911   1.236   3.121 -0.4023  2.1759  1.6941
  339SOL    EPW 1802   0.876   1.193   3.191 -0.3214  0.5296  0.7456
  340SOL      O 1803   4.925   0.377   2.876 -0.4917  0.1993 -0.4109
  340SOL     H1 1804   5.015   0.386   2.907 -0.0708  0.0407 -1.5561
  340SOL     H2 1805   4.898   0.289   2.901  0.3345 -0.4380 -1.7198
  340SOL    EPW 1806   4.931   0.369   2.882 -0.3586  0.1144 -0.6727
  341SOL      O 1807   1.877   1.590   1.963  0.7419  0.1386  0.1701
  341SOL     H1 1808   1.842   1.657   2.022  1.7878 -0.8407  1.9469
  341SOL     H2 1809   1.893   1.514   2.019  3.1445 -0.3469 -1.1055
  341SOL    EPW 1810   1.875   1.589   1.975  1.1098 -0.0177  0.2236
  342SOL      O 1811   0.493   0.046   2.918  0.0429  0.1510 -0.2541
  342SOL     H1 1812   0.404   0.072   2.894 -1.2108 -3.2007  0.4594
  342SOL     H2 1813   0.534   0.022   2.836 -0.8644 -1.4835 -0.2637
  342SOL    EPW 1814   0.488   0.046   2.907 -0.1876 -0.3809 -0.1790
  343SOL      O 1815   0.224   1.064   3.900 -0.4471 -0.3126  0.0867
  343SOL     H1 1816   0.183   1.053   3.985  1.5796 -1.5341  0.9493
  343SOL     H2 1817   0.258   1.154   3.900 -0.2805 -0.3778  0.6548
  343SOL    EPW 1818   0.224   1.072   3.909 -0.2131 -0.4498  0.2393
  344SOL      O 1819   5.776   5.190   2.866  0.7519 -0.6486 -0.2930
  344SOL     H1 1820   5.771   5.102   2.903 -3.2203 -0.4859 -0.1920
  344SOL     H2 1821   5.684   5.215   2.851  1.8521  2.8693 -1.7456
  344SOL    EPW 1822   5.765   5.183   2.869  0.4455 -0.2560 -0.4372
  345SOL      O 1823   0.782   0.830   1.938 -0.2093  0.1913  0.4049
  345SOL     H1 1824   0.719   0.767   1.904  2.4454 -2.7084  0.6467
  345SOL     H2 1825   0.785   0.899   1.872 -1.8285 -0.8421 -0.7857
  345SOL    EPW 1826   0.775   0.831   1.927 -0.0988 -0.2282  0.3037
  346SOL      O 1827   2.061   2.494   3.626 -0.7099 -0.8578 -0.4569
  346SOL     H1 1828   2.156   2.501   3.617 -0.6515  0.2576  0.8139
  346SOL     H2 1829   2.048   2.439   3.704 -1.0839  0.8888  0.7284
  346SOL    EPW 1830   2.070   2.489   3.634 -0.7435 -0.5525 -0.1949
  347SOL      O 1831   1.524   0.265   2.990 -0.5589  0.2321  0.3511
  347SOL     H1 1832   1.513   0.255   3.085 -0.2297 -0.8027  0.2872
  347SOL     H2 1833   1.550   0.356   2.979 -0.0543  0.2175  1.3088
  347SOL    EPW 1834   1.526   0.274   2.999 -0.4700  0.1202  0.4464
  348SOL      O 1835   1.207   4.937   1.529  0.1498  0.6460 -0.0184
  348SOL     H1 1836   1.290   4.899   1.558  1.3907  1.9478 -1.8184
  348SOL     H2 1837   1.224   5.031   1.523 -2.2109  1.2833  2.0897
  348SOL    EPW 1838   1.218   4.943   1.532  0.0304  0.8528  0.0145
  349SOL      O 1839   4.998   1.336   0.265 -0.5083 -0.2380 -0.3208
  349SOL     H1 1840   4.912   1.338   0.306 -0.6247  1.1662 -0.6083
  349SOL     H2 1841   5.048   1.274   0.318 -1.8273 -1.4352 -0.4403
  349SOL    EPW 1842   4.994   1.330   0.275 -0.6614 -0.2159 -0.3642
  350SOL      O 1843   4.803   1.976   3.362 -0.0432 -0.5982  0.2517
  350SOL     H1 1844   4.726   1.920   3.365 -0.1022 -0.4836  0.8941
  350SOL     H2 1845   4.769   2.065   3.371  0.1374 -0.5298  0.2745
  350SOL    EPW 1846   4.792   1.980   3.363 -0.0303 -0.5787  0.3227
  351SOL      O 1847   4.772   1.283   3.991  0.1518 -0.3197 -0.2224
  351SOL     H1 1848   4.678   1.300   4.003  0.1652 -0.6455  0.3385
  351SOL     H2 1849   4.804   1.360   3.944 -0.8227 -1.1689 -2.3436
  351SOL    EPW 1850   4.765   1.293   3.987  0.0493 -0.4451 -0.3888
  352SOL      O 1851   0.732   1.145   2.157  0.5158  0.9261  0.5771
  352SOL     H1 1852   0.683   1.217   2.118 -0.3914 -0.5813 -1.1783
  352SOL     H2 1853   0.797   1.123   2.090 -0.8159 -1.4572  0.0047
  352SOL    EPW 1854   0.734   1.150   2.145  0.2769  0.5111  0.3288
  353SOL      O 1855   5.425   1.279   1.372  0.0341 -0.6336  0.0486
  353SOL     H1 1856   5.439   1.185   1.388  0.5880 -0.8718 -1.6642
  353SOL     H2 1857   5.377   1.281   1.289 -0.4316  0.5929  0.3445
  353SOL    EPW 1858   5.422   1.269   1.365  0.0435 -0.5282 -0.1026
  354SOL      O 1859   2.877   0.213   2.401  0.6981 -0.2798 -0.1086
  354SOL     H1 1860   2.909   0.122   2.403  0.8724 -0.2427 -1.2507
  354SOL     H2 1861   2.905   0.249   2.485  1.1544 -1.1055  0.1032
  354SOL    EPW 1862   2.884   0.207   2.410  0.7654 -0.3639 -0.2079
  355SOL      O 1863   1.185   5.587   2.880  0.2935 -0.0520 -0.2398
  355SOL     H1 1864   1.193   5.574   2.975 -1.4739 -0.5225 -0.1499
  355SOL     H2 1865   1.195   5.681   2.868  1.2403 -0.0665  0.3297
  355SOL    EPW 1866   1.187   5.596   2.889  0.2060 -0.1037 -0.1695
  356SOL      O 1867   1.680   0.977   2.341  0.0226  0.3431 -0.5769
  356SOL     H1 1868   1.653   0.943   2.255 -0.1157 -1.5849  0.2248
  356SOL     H2 1869   1.720   0.903   2.385  0.6359  1.4878  0.8281
  356SOL    EPW 1870   1.682   0.966   2.336  0.0733  0.2595 -0.3415
  357SOL      O 1871   4.225   4.192   0.143  0.0756  0.7463  0.1460
  357SOL     H1 1872   4.151   4.177   0.202  0.2723 -1.6527 -0.1833
  357SOL     H2 1873   4.301   4.163   0.193  0.4434  0.4177 -0.6040
  357SOL    EPW 1874   4.225   4.187   0.155  0.1358  0.4553  0.0309
  358SOL      O 1875   4.153   3.315   3.255 -0.5742  0.4355 -0.4588
  358SOL     H1 1876   4.226   3.375   3.270 -0.9148  0.7641 -0.0876
  358SOL     H2 1877   4.081   3.372   3.227 -0.0388 -0.1337 -3.0751
  358SOL    EPW 1878   4.153   3.328   3.254 -0.5534  0.4098 -0.6983
  359SOL      O 1879   0.742   2.240   1.844 -0.1078  0.1381 -0.3526
  359SOL     H1 1880   0.747   2.226   1.939  2.0795  1.0547 -0.3250
  359SOL     H2 1881   0.717   2.332   1.834  0.9668  0.3936 -0.6811
  359SOL    EPW 1882   0.740   2.248   1.853  0.2402  0.2631 -0.3847
  360SOL      O 1883   3.631   4.813   0.099  0.0962  0.0227 -0.3489
  360SOL     H1 1884   3.666   4.732   0.061  1.3567  1.1281 -1.6237
  360SOL     H2 1885   3.554   4.834   0.045 -0.9212 -0.9300  0.7119
  360SOL    EPW 1886   3.627   4.807   0.089  0.1222  0.0390 -0.3717
  361SOL      O 1887   2.132   0.854   2.109  0.1578  0.2657 -0.6727
  361SOL     H1 1888   2.086   0.773   2.087  0.7582  0.3772 -2.4481
  361SOL     H2 1889   2.214   0.825   2.149  0.3476 -0.0110 -1.2522
  361SOL    EPW 1890   2.136   0.842   2.111  0.2421  0.2481 -0.9239
  362SOL      O 1891   1.364   0.705   3.278  0.0984  0.1924 -0.2895
  362SOL     H1 1892   1.380   0.792   3.244 -0.4680  0.9554  1.3245
  362SOL     H2 1893   1.356   0.717   3.373 -0.9072 -1.4692 -0.1349
  362SOL    EPW 1894   1.365   0.715   3.285 -0.0693  0.0966 -0.1008
  363SOL      O 1895   0.242   0.111   2.868 -0.4709  0.2086 -0.6087
  363SOL     H1 1896   0.204   0.082   2.785 -0.9785  0.4302 -0.4534
  363SOL     H2 1897   0.171   0.157   2.913 -0.2358 -0.0194  0.0050
  363SOL    EPW 1898   0.231   0.113   2.864 -0.5000  0.2079 -0.5267
  364SOL      O 1899   3.435   3.873   0.254  0.1467 -0.0643 -0.4691
  364SOL     H1 1900   3.360   3.877   0.314  0.0384  1.5278 -0.6964
  364SOL     H2 1901   3.508   3.846   0.309 -0.1832  0.3376  0.1775
  364SOL    EPW 1902   3.434   3.871   0.266  0.0999  0.1484 -0.4244
  365SOL      O 1903   0.638   0.246   3.659  0.4362  0.1535 -0.5447
  365SOL     H1 1904   0.654   0.285   3.573  1.4170  1.7945  0.3468
  365SOL     H2 1905   0.597   0.162   3.640  0.0989  0.7504 -2.5945
  365SOL    EPW 1906   0.635   0.241   3.648  0.5048  0.3922 -0.6682
  366SOL      O 1907   2.197   5.384   1.673 -0.2302  0.3748 -0.1402
  366SOL     H1 1908   2.270   5.379   1.611  0.6396  1.2276  0.7749
  366SOL     H2 1909   2.226   5.331   1.748 -0.4722  0.8382  0.2868
  366SOL    EPW 1910   2.208   5.378   1.675 -0.1632  0.5152  0.0030
  367SOL      O 1911   0.984   2.004   4.050  0.0913  0.3379 -0.0268
  367SOL     H1 1912   0.976   2.099   4.051 -1.3808  0.2351 -0.6497
  367SOL     H2 1913   0.958   1.977   4.139 -2.3969  0.3335 -0.7097
  367SOL    EPW 1914   0.980   2.011   4.060 -0.3312  0.3264 -0.1661
  368SOL      O 1915   1.929   0.582   2.980 -0.2166 -0.3402 -0.1272
  368SOL     H1 1916   1.878   0.628   3.047 -0.7571 -0.2380 -0.6016
  368SOL     H2 1917   2.018   0.614   2.991 -0.2079 -0.6501  0.8296
  368SOL    EPW 1918   1.933   0.590   2.988 -0.2733 -0.3624 -0.0758
  369SOL      O 1919   1.533   1.139   3.402  0.1864  0.4728 -0.5190
  369SOL     H1 1920   1.513   1.059   3.353 -2.3964  0.6931  0.1103
  369SOL     H2 1921   1.617   1.169   3.367  0.9592 -2.2530 -1.0779
  369SOL    EPW 1922   1.540   1.134   3.393 -0.0067  0.2055 -0.5115
  370SOL      O 1923   0.521   0.510   2.363 -0.4674 -0.1694 -0.3150
  370SOL     H1 1924   0.441   0.482   2.319 -0.5322 -0.1568 -0.2049
  370SOL     H2 1925   0.580   0.435   2.356 -0.3160 -0.0064 -0.8197
  370SOL    EPW 1926   0.519   0.499   2.357 -0.4581 -0.1507 -0.3571
  371SOL      O 1927   0.877   2.584   1.473 -0.4707  0.3354  0.0083
  371SOL     H1 1928   0.967   2.590   1.442 -0.3483 -1.5403 -0.1014
  371SOL     H2 1929   0.884   2.593   1.568  0.0623 -1.4126  0.1650
  371SOL    EPW 1930   0.887   2.585   1.480 -0.4008 -0.0512  0.0133
  372SOL      O 1931   1.915   0.710   3.929 -0.4502  0.2615 -0.4269
  372SOL     H1 1932   1.873   0.722   4.014 -1.6282 -0.2404 -0.9307
  372SOL     H2 1933   1.885   0.624   3.899  1.4887 -0.4288 -0.4868
  372SOL    EPW 1934   1.907   0.702   3.935 -0.3691  0.1343 -0.4870
  373SOL      O 1935   0.994   0.773   3.419  0.0404  0.0799  0.1340
  373SOL     H1 1936   0.901   0.765   3.398  0.0474 -1.0761  0.4830
  373SOL     H2 1937   1.025   0.845   3.365 -0.8213 -0.2574 -0.8246
  373SOL    EPW 1938   0.988   0.780   3.411 -0.0508 -0.0794  0.0690
  374SOL      O 1939   5.686   0.255   3.184  0.8143 -0.8447 -0.1101
  374SOL     H1 1940   5.696   0.332   3.128 -2.7508 -0.3378 -0.1351
  374SOL     H2 1941   5.712   0.286   3.271  1.0153 -0.0997 -0.4284
  374SOL    EPW 1942   5.690   0.267   3.188  0.4554 -0.7111 -0.1467
  375SOL      O 1943   1.295   0.920   2.574  0.3142 -0.0359  0.4104
  375SOL     H1 1944   1.334   0.834   2.558  0.4200 -0.5326  3.1440
  375SOL     H2 1945   1.205   0.911   2.544  0.4440 -0.9841  0.2987
  375SOL    EPW 1946   1.289   0.910   2.569  0.3394 -0.1900  0.6901
  376SOL      O 1947   1.747   0.890   1.838  0.2626 -0.2937 -0.7528
  376SOL     H1 1948   1.835   0.925   1.820 -0.6499  3.3838  1.4930
  376SOL     H2 1949   1.688   0.956   1.802 -1.5804 -0.9066  1.1023
  376SOL    EPW 1950   1.750   0.901   1.832 -0.0313  0.0332 -0.3153
  377SOL      O 1951   4.016   2.832   0.618 -0.2484  0.1740 -0.0579
  377SOL     H1 1952   4.072   2.902   0.583  0.8531 -0.7247 -0.1133
  377SOL     H2 1953   4.012   2.767   0.548 -1.8992  0.5139 -0.2993
  377SOL    EPW 1954   4.021   2.833   0.607 -0.3070  0.1144 -0.0896
  378SOL      O 1955   1.094   0.847   2.957 -0.4047 -0.2134  0.2626
  378SOL     H1 1956   1.166   0.882   3.009 -1.0379  2.4445 -0.5730
  378SOL     H2 1957   1.081   0.758   2.991  2.4162 -0.3020  1.2563
  378SOL    EPW 1958   1.100   0.841   2.966 -0.1713  0.0607  0.2795
  379SOL      O 1959   2.120   2.578   2.981  0.3695 -0.3698 -0.5682
  379SOL     H1 1960   2.171   2.658   2.988 -1.3834  1.0307 -2.9123
  379SOL     H2 1961   2.036   2.600   3.021 -0.2971 -0.8264 -1.6737
  379SOL    EPW 1962   2.116   2.589   2.986  0.1114 -0.2691 -0.9362
  380SOL      O 1963   5.084   0.967   4.152 -0.3803  0.1101  0.0254
  380SOL     H1 1964   5.119   1.049   4.187 -3.1089  1.6496 -0.7469
  380SOL     H2 1965   5.130   0.899   4.201  0.7484  2.1073  1.8206
  380SOL    EPW 1966   5.093   0.969   4.161 -0.5510  0.4874  0.1345
  381SOL      O 1967   1.410   0.657   2.484 -0.2669 -0.5525 -0.0546
  381SOL     H1 1968   1.466   0.615   2.419 -0.4172  1.2512 -1.3752
  381SOL     H2 1969   1.326   0.611   2.476 -0.1383 -0.6729 -0.7782
  381SOL    EPW 1970   1.407   0.647   2.476 -0.2692 -0.3729 -0.2726
  382SOL      O 1971   5.774   0.390   0.751  0.5525  0.1896  0.3286
  382SOL     H1 1972   5.705   0.327   0.774  0.6208 -0.5397 -1.3432
  382SOL     H2 1973   5.855   0.338   0.751  0.7196  0.4437 -0.2758
  382SOL    EPW 1974   5.775   0.377   0.753  0.5776  0.1389  0.0858
  383SOL      O 1975   1.946   2.708   3.270 -0.0570  0.2613  0.3103
  383SOL     H1 1976   1.941   2.620   3.233 -0.2630  0.0866  0.7428
  383SOL     H2 1977   1.868   2.753   3.238 -0.6638 -0.1471  1.1715
  383SOL    EPW 1978   1.937   2.704   3.263 -0.1437  0.1991  0.4483
  384SOL      O 1979   4.115   2.216   0.235  0.0655 -0.5454 -0.6959
  384SOL     H1 1980   4.115   2.241   0.327 -1.0425  1.8628 -1.2976
  384SOL     H2 1981   4.207   2.213   0.210  0.2801  2.2884 -0.3767
  384SOL    EPW 1982   4.125   2.218   0.242 -0.0298  0.0138 -0.7261
  385SOL      O 1983   1.066   1.498   2.512  0.3195 -0.5751  0.3327
  385SOL     H1 1984   1.020   1.571   2.472  1.9858  1.7914  2.5630
  385SOL     H2 1985   1.135   1.475   2.450 -0.4405 -0.5023 -0.5331
  385SOL    EPW 1986   1.068   1.503   2.501  0.4162 -0.3148  0.4783
  386SOL      O 1987   5.679   0.991   3.370  0.2041 -0.0929 -0.5047
  386SOL     H1 1988   5.596   1.030   3.343  0.2446  1.5893  1.6364
  386SOL     H2 1989   5.655   0.929   3.438  0.7033  0.5570  0.2750
  386SOL    EPW 1990   5.668   0.989   3.374  0.2617  0.1559 -0.1931
  387SOL      O 1991   1.037   1.906   1.788 -0.6465 -0.0541  0.9151
  387SOL     H1 1992   1.003   1.816   1.785 -0.8389  0.0416 -1.3359
  387SOL     H2 1993   1.103   1.909   1.718  0.0390  1.2954  1.5993
  387SOL    EPW 1994   1.040   1.897   1.780 -0.5939  0.1000  0.7479
  388SOL      O 1995   0.329   1.111   3.186 -0.7725 -0.1026  0.4021
  388SOL     H1 1996   0.343   1.145   3.274 -0.3363 -1.7246  0.9688
  388SOL     H2 1997   0.261   1.045   3.196 -2.0117  0.9613 -0.7869
  388SOL    EPW 1998   0.323   1.108   3.196 -0.8582 -0.1621  0.3357
  389SOL      O 1999   0.349   0.716   2.489 -0.1060 -0.0996  0.3843
  389SOL     H1 2000   0.313   0.759   2.411  1.0910  0.0281 -0.1109
  389SOL     H2 2001   0.275   0.668   2.526 -0.5733 -0.5938 -1.1335
  389SOL    EPW 2002   0.337   0.716   2.484 -0.0282 -0.1387  0.1696
  390SOL      O 2003   5.357   0.676   2.669  0.0600  0.9722  0.4019
  390SOL     H1 2004   5.273   0.630   2.675  1.3354 -1.6186 -0.7000
  390SOL     H2 2005   5.337   0.757   2.623 -2.0194  0.8835  1.0964
  390SOL    EPW 2006   5.346   0.680   2.665 -0.0258  0.6864  0.3585
  391SOL      O 2007   2.502   4.375   0.078  0.0411  0.1433  0.2557
  391SOL     H1 2008   2.491   4.455   0.129  1.9165  0.9157 -0.5268
  391SOL     H2 2009   2.596   4.368   0.063 -0.1053 -2.1095  0.1478
  391SOL    EPW 2010   2.510   4.382   0.082  0.2255 -0.0147  0.1607
  392SOL      O 2011   0.034   0.340   2.488  0.1299 -0.4363  0.0210
  392SOL     H1 2012  -0.017   0.267   2.455 -1.0804  0.1258  0.5967
  392SOL     H2 2013   0.114   0.339   2.437  0.3036 -2.4051  0.2995
  392SOL    EPW 2014   0.037   0.332   2.479  0.0193 -0.5864  0.1121
  393SOL      O 2015   3.807   3.365   0.267 -0.2714 -0.2581 -0.0637
  393SOL     H1 2016   3.871   3.329   0.328 -2.2072 -1.5158  1.2798
  393SOL     H2 2017   3.722   3.345   0.306 -1.4961  2.9634 -0.8712
  393SOL    EPW 2018   3.805   3.359   0.277 -0.6086 -0.0486 -0.0065
  394SOL      O 2019   3.749   1.680   0.092 -0.1929 -0.3669 -0.1910
  394SOL     H1 2020   3.694   1.606   0.066 -0.3147 -0.5980  0.7232
  394SOL     H2 2021   3.697   1.757   0.071 -1.2703 -0.5949  1.5245
  394SOL    EPW 2022   3.738   1.680   0.087 -0.3208 -0.4158  0.0895
  395SOL      O 2023   1.600   2.225   4.017  0.7292 -0.4389 -0.4822
  395SOL     H1 2024   1.518   2.218   4.065  1.0808  0.3696  0.2478
  395SOL     H2 2025   1.654   2.153   4.051  1.7211  1.3161  1.8463
  395SOL    EPW 2026   1.597   2.216   4.026  0.8725 -0.1654 -0.1559
  396SOL      O 2027   0.222   0.316   4.027  0.0055  0.5673  0.6487
  396SOL     H1 2028   0.236   0.242   3.968 -1.8844 -1.0758  2.1668
  396SOL     H2 2029   0.166   0.376   3.978  2.0095  1.2966 -0.8001
  396SOL    EPW 2030   0.218   0.315   4.015  0.0177  0.4699  0.6561
  397SOL      O 2031   4.999   1.058   2.941  0.2792  0.2203  0.0623
  397SOL     H1 2032   4.928   1.120   2.926  0.1900  0.2964  0.7854
  397SOL     H2 2033   5.076   1.112   2.955  0.3860  0.1487 -0.2572
  397SOL    EPW 2034   4.999   1.070   2.941  0.2811  0.2208  0.1054
  398SOL      O 2035   1.103   2.045   2.784  0.0294  0.0826 -0.5449
  398SOL     H1 2036   1.109   2.099   2.863  0.7716 -1.5710  0.5533
  398SOL     H2 2037   1.188   2.057   2.741  0.0234  0.1428 -0.5404
  398SOL    EPW 2038   1.113   2.052   2.788  0.1079 -0.0874 -0.4273
  399SOL      O 2039   0.255   0.031   0.546  0.0580 -0.4888  0.2471
  399SOL     H1 2040   0.174   0.037   0.597  0.5659 -0.3377  1.0549
  399SOL     H2 2041   0.233  -0.026   0.473 -0.9172 -0.0458  0.1808
  399SOL    EPW 2042   0.244   0.026   0.544  0.0081 -0.4254  0.3262
  400SOL      O 2043   0.515   5.692   1.148 -0.2758  0.5744 -0.3059
  400SOL     H1 2044   0.504   5.735   1.063  0.2229 -1.7511 -1.5804
  400SOL     H2 2045   0.495   5.600   1.131  0.4171 -0.0216  1.9689
  400SOL    EPW 2046   0.511   5.687   1.137 -0.1487  0.2628 -0.1992
  401SOL      O 2047   5.747   1.629   3.152 -0.3656  0.1822  0.0800
  401SOL     H1 2048   5.762   1.700   3.215 -1.4263  0.0816  0.4577
  401SOL     H2 2049   5.686   1.666   3.088 -1.3975 -0.5668  0.6100
  401SOL    EPW 2050   5.742   1.640   3.152 -0.5888  0.0915  0.1768
  402SOL      O 2051   2.860   2.203   3.154 -0.0795  0.1641 -0.7595
  402SOL     H1 2052   2.831   2.113   3.137 -1.6994  0.1835  1.6622
  402SOL     H2 2053   2.933   2.193   3.214 -0.0885  0.4491 -0.7019
  402SOL    EPW 2054   2.864   2.193   3.159 -0.2532  0.1965 -0.4950
  403SOL      O 2055   1.096   2.440   2.291 -0.0590  0.3592  0.0747
  403SOL     H1 2056   1.188   2.414   2.285 -0.6463 -1.2514 -2.8601
  403SOL     H2 2057   1.054   2.366   2.336 -0.0461  0.7938  0.8075
  403SOL    EPW 2058   1.101   2.429   2.295 -0.1203  0.2338 -0.1602
  404SOL      O 2059   0.159   1.178   1.989 -0.1031 -0.3714  0.4779
  404SOL     H1 2060   0.221   1.115   2.027  0.1353 -0.3925  0.0612
  404SOL     H2 2061   0.176   1.260   2.036  1.9990  0.2890 -1.3392
  404SOL    EPW 2062   0.168   1.180   1.998  0.1465 -0.3032  0.2396
  405SOL      O 2063   1.445   5.448   3.955  0.0581  0.2668 -1.1057
  405SOL     H1 2064   1.473   5.523   4.007  2.1218 -1.0522 -0.2145
  405SOL     H2 2065   1.356   5.430   3.983  1.5623 -1.2454  3.1037
  405SOL    EPW 2066   1.439   5.454   3.963  0.4387 -0.0352 -0.5616
  406SOL      O 2067   2.140   4.147   1.010  0.0353  0.4452  0.4240
  406SOL     H1 2068   2.050   4.126   1.034  0.9386 -2.0082  1.8503
  406SOL     H2 2069   2.174   4.196   1.085  0.4320 -0.1862  0.6554
  406SOL    EPW 2070   2.134   4.150   1.021  0.1740  0.1161  0.6008
  407SOL      O 2071   2.149   1.737   1.739  0.3050 -0.3658  0.0268
  407SOL     H1 2072   2.078   1.787   1.781 -0.7309 -2.7456  1.2176
  407SOL     H2 2073   2.116   1.719   1.651 -0.6741 -1.6170  0.6358
  407SOL    EPW 2074   2.138   1.741   1.734  0.0900 -0.7531  0.2188
  408SOL      O 2075   3.108   3.647   0.001 -0.1356  0.6927 -0.0894
  408SOL     H1 2076   3.155   3.579   0.048  1.8883  1.3245 -1.1371
  408SOL     H2 2077   3.099   3.614  -0.088  0.9538  1.7963 -0.6340
  408SOL    EPW 2078   3.112   3.637  -0.004  0.1965  0.8778 -0.2593
  409SOL      O 2079   0.548   1.584   4.017 -0.0287  0.4995  0.3614
  409SOL     H1 2080   0.572   1.554   4.105 -1.8905  2.0512  1.4298
  409SOL     H2 2081   0.480   1.649   4.032 -0.2732  0.8775 -2.2467
  409SOL    EPW 2082   0.544   1.588   4.028 -0.2534  0.7054  0.1971
  410SOL      O 2083   5.320   5.202   1.782 -0.1529  0.1508  0.0527
  410SOL     H1 2084   5.226   5.205   1.765 -0.0123  1.1571 -0.5749
  410SOL     H2 2085   5.328   5.199   1.877 -0.8379 -0.9701  0.0907
  410SOL    EPW 2086   5.311   5.202   1.790 -0.2109  0.1386 -0.0102
  411SOL      O 2087   2.439   0.615   3.035 -0.6212  0.0542 -0.1683
  411SOL     H1 2088   2.511   0.678   3.043 -1.0717  0.6839 -0.9851
  411SOL     H2 2089   2.423   0.586   3.125 -0.0408  0.6942  0.1538
  411SOL    EPW 2090   2.445   0.619   3.046 -0.6073  0.1897 -0.2211
  412SOL      O 2091   4.294   3.305   0.740  0.2115  0.2003 -0.0985
  412SOL     H1 2092   4.317   3.285   0.830 -1.4819  1.0748  0.5488
  412SOL     H2 2093   4.199   3.296   0.736  0.1926  0.7938 -1.6336
  412SOL    EPW 2094   4.286   3.302   0.749  0.0289  0.3569 -0.1932
  413SOL      O 2095   1.437   2.511   1.348  0.2315 -0.3766 -0.4589
  413SOL     H1 2096   1.470   2.600   1.359  0.3597 -0.4271 -0.4283
  413SOL     H2 2097   1.427   2.500   1.254  0.7383 -0.5158 -0.5002
  413SOL    EPW 2098   1.440   2.519   1.339  0.2992 -0.3968 -0.4601
  414SOL      O 2099   1.835   0.453   2.741 -0.4629  0.4124  0.7467
  414SOL     H1 2100   1.872   0.520   2.799 -0.2779 -1.0312  2.3505
  414SOL     H2 2101   1.762   0.497   2.698 -1.5747  1.1126  3.2276
  414SOL    EPW 2102   1.831   0.465   2.743 -0.5618  0.3331  1.1824
  415SOL      O 2103   5.273   3.737   1.291  0.2687 -0.7313 -0.0998
  415SOL     H1 2104   5.229   3.652   1.297 -1.1407  0.0137  0.2839
  415SOL     H2 2105   5.235   3.789   1.361  1.6867 -0.0129  0.1651
  415SOL    EPW 2106   5.264   3.733   1.299  0.2696 -0.5752 -0.0306
  416SOL      O 2107   0.154   0.616   2.628  0.1625 -0.0738  0.3899
  416SOL     H1 2108   0.197   0.662   2.701 -1.0130 -0.1097  1.1367
  416SOL     H2 2109   0.156   0.524   2.653 -1.6089  0.0623  1.1497
  416SOL    EPW 2110   0.159   0.611   2.639 -0.1518 -0.0631  0.5506
  417SOL      O 2111   0.912   0.326   3.503  0.4687  0.1894 -0.5991
  417SOL     H1 2112   0.824   0.357   3.484  0.7250  1.7970  0.7285
  417SOL     H2 2113   0.905   0.282   3.588  0.7986 -0.3981 -0.8699
  417SOL    EPW 2114   0.902   0.325   3.510  0.5312  0.2982 -0.4864
  418SOL      O 2115   1.789   0.042   1.825  0.3310 -0.2774 -0.0536
  418SOL     H1 2116   1.751   0.037   1.737  2.1886 -3.1151 -0.7847
  418SOL     H2 2117   1.769  -0.042   1.865 -1.0657  1.2316  2.5565
  418SOL    EPW 2118   1.783   0.033   1.819  0.3802 -0.4191  0.1468
  419SOL      O 2119   0.322   1.168   2.765  0.3134 -0.2948  0.8617
  419SOL     H1 2120   0.282   1.115   2.833  1.3132 -1.4280  0.5946
  419SOL     H2 2121   0.275   1.145   2.685 -1.4738  1.7144  1.2928
  419SOL    EPW 2122   0.313   1.160   2.764  0.2294 -0.2013  0.8792
  420SOL      O 2123   0.638   2.211   3.484  0.0819 -0.6443  0.3247
  420SOL     H1 2124   0.657   2.283   3.422 -2.4425  1.7962  2.2646
  420SOL     H2 2125   0.713   2.211   3.543  0.7459 -0.5289 -0.4956
  420SOL    EPW 2126   0.648   2.219   3.484 -0.1165 -0.3717  0.4441
  421SOL      O 2127   2.640   2.235   3.903  1.2900  0.1540  0.6095
  421SOL     H1 2128   2.734   2.249   3.911  1.2188  1.4522 -0.5816
  421SOL     H2 2129   2.614   2.290   3.829 -0.2060 -1.0918  0.1837
  421SOL    EPW 2130   2.647   2.243   3.896  1.1228  0.1596  0.4370
  422SOL      O 2131   4.847   1.001   3.985 -0.1208 -0.2529  0.2972
  422SOL     H1 2132   4.814   1.089   4.002 -1.3520 -0.4478 -1.0009
  422SOL     H2 2133   4.896   0.979   4.064 -1.2040  0.9376  1.3362
  422SOL    EPW 2134   4.849   1.008   3.995 -0.3677 -0.1467  0.2695
  423SOL      O 2135   2.308   0.535   0.696 -0.0592 -0.2768  0.1250
  423SOL     H1 2136   2.298   0.569   0.785  1.7593  1.5018 -0.3011
  423SOL     H2 2137   2.347   0.608   0.647  0.4480 -1.7657 -1.7518
  423SOL    EPW 2138   2.311   0.547   0.700  0.1889 -0.2459 -0.1207
  424SOL      O 2139   1.428   0.175   2.773  0.1820 -0.1837 -0.0023
  424SOL     H1 2140   1.469   0.189   2.858 -0.2318  1.9613 -0.1221
  424SOL     H2 2141   1.358   0.240   2.770  0.0563 -0.3835 -1.8956
  424SOL    EPW 2142   1.425   0.183   2.781  0.1244  0.0238 -0.2171
  425SOL      O 2143   0.914   1.626   2.919 -0.0367  0.0517  0.4222
  425SOL     H1 2144   0.940   1.705   2.873  2.0705 -1.3562 -0.9065
  425SOL     H2 2145   0.882   1.656   3.004  0.5071  2.3125 -0.1551
  425SOL    EPW 2146   0.913   1.637   2.924  0.2461  0.1426  0.2189
  426SOL      O 2147   2.229   5.027   3.659  0.2264 -0.4071 -0.0222
  426SOL     H1 2148   2.212   4.938   3.691 -0.5974 -0.4424 -0.5498
  426SOL     H2 2149   2.312   5.052   3.700  0.1374 -1.1762  0.6338
  426SOL    EPW 2150   2.236   5.020   3.667  0.1290 -0.4929 -0.0085
  427SOL      O 2151   0.458   0.501   2.633 -1.0960 -0.4524  0.6589
  427SOL     H1 2152   0.504   0.465   2.709 -0.6122 -1.6214 -0.1718
  427SOL     H2 2153   0.411   0.427   2.595  0.8691 -0.5744 -1.7657
  427SOL    EPW 2154   0.458   0.489   2.637 -0.8348 -0.5901  0.3117
  428SOL      O 2155   0.349   1.587   0.395 -0.5137 -0.3155 -0.0605
  428SOL     H1 2156   0.408   1.511   0.387 -0.1262 -0.3115  2.2671
  428SOL     H2 2157   0.295   1.567   0.471 -1.0068  1.3522  0.0445
  428SOL    EPW 2158   0.350   1.576   0.402 -0.5250 -0.1372  0.1990
  429SOL      O 2159   1.633   1.828   3.596 -0.0399  0.6230 -0.5181
  429SOL     H1 2160   1.586   1.746   3.582 -1.1841  1.2207 -0.1743
  429SOL     H2 2161   1.721   1.811   3.561  0.1300 -1.1623  0.7056
  429SOL    EPW 2162   1.638   1.817   3.591 -0.1438  0.4963 -0.3509
  430SOL      O 2163   1.555   0.528   2.292  0.8266  1.3534  0.3980
  430SOL     H1 2164   1.563   0.433   2.301  1.3607  1.5321  1.9201
  430SOL     H2 2165   1.638   0.555   2.253  0.7529  1.2304  0.1495
  430SOL    EPW 2166   1.565   0.521   2.289  0.8757  1.3593  0.5338
  431SOL      O 2167   5.469   0.667   3.332  0.0588  0.0916  0.2760
  431SOL     H1 2168   5.554   0.671   3.287  0.4148 -0.8038  0.8618
  431SOL     H2 2169   5.423   0.745   3.302  0.8558  0.2650 -0.5210
  431SOL    EPW 2170   5.473   0.676   3.324  0.1818  0.0146  0.2534
  432SOL      O 2171   4.774   4.517   0.607 -0.3185 -0.0196  0.1094
  432SOL     H1 2172   4.779   4.449   0.675 -0.4176 -0.0452  0.0901
  432SOL     H2 2173   4.688   4.556   0.619 -0.8032 -0.8006 -0.7498
  432SOL    EPW 2174   4.765   4.514   0.616 -0.3807 -0.1056  0.0157
  433SOL      O 2175   1.918   5.371   2.695  0.0022  0.2399 -0.4565
  433SOL     H1 2176   1.886   5.385   2.606 -2.6241 -0.9210  0.2388
  433SOL     H2 2177   1.941   5.279   2.699  0.8717  0.4678 -0.1615
  433SOL    EPW 2178   1.917   5.363   2.686 -0.1852  0.1403 -0.3509
  434SOL      O 2179   1.373   2.321   2.320  0.5824 -0.3785 -0.0729
  434SOL     H1 2180   1.401   2.354   2.405  1.1291 -0.6112 -0.1573
  434SOL     H2 2181   1.336   2.235   2.339 -0.7106  0.2169  0.1285
  434SOL    EPW 2182   1.372   2.315   2.331  0.5028 -0.3398 -0.0604
  435SOL      O 2183   3.026   3.695   0.460 -0.2504  0.1602 -0.3213
  435SOL     H1 2184   2.940   3.727   0.432  0.5007  2.2763 -0.3040
  435SOL     H2 2185   3.087   3.764   0.434  1.4454 -1.3032 -0.3051
  435SOL    EPW 2186   3.023   3.706   0.454  0.0107  0.2299 -0.3178
  436SOL      O 2187   0.344   5.666   2.704  0.2530 -0.2392 -0.1061
  436SOL     H1 2188   0.294   5.650   2.784 -0.6886  1.0403 -0.4293
  436SOL     H2 2189   0.435   5.651   2.730 -0.1087 -0.5715  1.0054
  436SOL    EPW 2190   0.349   5.662   2.716  0.1140 -0.1381 -0.0220
  437SOL      O 2191   0.979   1.898   2.088 -0.3911 -0.3960 -0.3695
  437SOL     H1 2192   0.982   1.900   1.993  0.3410  1.0121 -0.3214
  437SOL     H2 2193   0.920   1.969   2.111 -0.5021 -0.6821  0.2444
  437SOL    EPW 2194   0.973   1.905   2.080 -0.3249 -0.2763 -0.2989
  438SOL      O 2195   2.781   5.201   2.686  0.1782 -0.0753  0.1410
  438SOL     H1 2196   2.732   5.279   2.659  1.6636  0.4661 -1.0841
  438SOL     H2 2197   2.727   5.128   2.657 -0.9574  0.5072  0.7855
  438SOL    EPW 2198   2.770   5.202   2.680  0.2155  0.0446  0.0791
  439SOL      O 2199   2.953   3.300   0.175 -0.2294 -0.0866 -0.7116
  439SOL     H1 2200   3.031   3.334   0.131  0.4628 -0.0625  0.5344
  439SOL     H2 2201   2.937   3.216   0.131  0.7253 -0.2755 -0.7210
  439SOL    EPW 2202   2.960   3.294   0.165 -0.0537 -0.1042 -0.5796
  440SOL      O 2203   2.345   1.343   3.746 -0.4867  0.5958 -0.4557
  440SOL     H1 2204   2.430   1.373   3.777  0.6774 -0.6132 -2.3873
  440SOL     H2 2205   2.281   1.395   3.795  1.3604  1.5519  0.9614
  440SOL    EPW 2206   2.347   1.351   3.754 -0.1655  0.5688 -0.5106
  441SOL      O 2207   4.793   1.591   2.572  0.2736 -0.4448  0.5571
  441SOL     H1 2208   4.880   1.598   2.531  0.4670  0.7061  1.1319
  441SOL     H2 2209   4.753   1.515   2.530  1.5202 -0.9257  0.2041
  441SOL    EPW 2210   4.798   1.584   2.563  0.4272 -0.3733  0.5807
  442SOL      O 2211   0.081   1.838   3.064  0.2849  0.1367  0.3481
  442SOL     H1 2212   0.085   1.916   3.119 -1.9781  1.2222 -0.9607
  442SOL     H2 2213   0.163   1.840   3.014  0.2285  1.7098  0.2858
  442SOL    EPW 2214   0.091   1.847   3.065  0.0375  0.4203  0.2018
  443SOL      O 2215   1.196   0.507   2.385  0.4759 -0.5572 -0.3973
  443SOL     H1 2216   1.128   0.530   2.322 -0.4568  1.2088  1.2250
  443SOL     H2 2217   1.188   0.412   2.395  0.4905 -0.8472 -2.7263
  443SOL    EPW 2218   1.188   0.500   2.379  0.3779 -0.3998 -0.4727
  444SOL      O 2219   0.174   0.902   1.711  0.3273  0.8556 -0.1655
  444SOL     H1 2220   0.136   0.982   1.747  0.3541  1.0202 -0.5072
  444SOL     H2 2221   0.109   0.870   1.648  0.2433  0.5200  0.0832
  444SOL    EPW 2222   0.163   0.907   1.708  0.3212  0.8373 -0.1754
  445SOL      O 2223   1.483   1.221   2.760  0.4201 -0.0147 -0.4737
  445SOL     H1 2224   1.416   1.277   2.721  0.6039 -0.8758 -2.0389
  445SOL     H2 2225   1.513   1.165   2.689  1.4613 -0.9440  0.6659
  445SOL    EPW 2226   1.479   1.221   2.748  0.5508 -0.2057 -0.5191
  446SOL      O 2227   4.206   3.148   0.130  0.0072  0.2105 -0.2573
  446SOL     H1 2228   4.196   3.214   0.061  1.3568  1.1595  0.4267
  446SOL     H2 2229   4.196   3.198   0.211 -2.0670 -0.9869  0.2382
  446SOL    EPW 2230   4.204   3.161   0.131 -0.0701  0.1840 -0.1315
  447SOL      O 2231   2.794   0.366   3.914 -0.6061 -0.1772 -0.0971
  447SOL     H1 2232   2.812   0.278   3.882 -2.0393 -0.2709 -0.6705
  447SOL     H2 2233   2.854   0.422   3.865 -0.3047 -0.7306 -0.3646
  447SOL    EPW 2234   2.802   0.363   3.905 -0.7268 -0.2463 -0.1868
  448SOL      O 2235   2.718   3.445   0.934  0.0056 -0.0476  0.4887
  448SOL     H1 2236   2.782   3.504   0.975  0.3554  0.1212 -0.2897
  448SOL     H2 2237   2.633   3.476   0.964  0.2134  0.5933  0.4112
  448SOL    EPW 2238   2.716   3.454   0.942  0.0651  0.0388  0.3974
  449SOL      O 2239   1.285   2.461   3.929 -0.2161 -0.1628 -0.0849
  449SOL     H1 2240   1.365   2.514   3.928 -2.0208  2.7362  2.1079
  449SOL     H2 2241   1.288   2.414   4.012 -0.9469  0.2836  0.2056
  449SOL    EPW 2242   1.294   2.462   3.938 -0.4866  0.1941  0.1800
  450SOL      O 2243   2.767   4.428   0.048  0.2324  0.0448  0.0335
  450SOL     H1 2244   2.828   4.475   0.105 -0.6522  0.9828  0.2424
  450SOL     H2 2245   2.811   4.346   0.026  1.0372  0.1649  1.1804
  450SOL    EPW 2246   2.778   4.425   0.052  0.2239  0.1577  0.1781
  451SOL      O 2247   2.076   4.316   1.852  0.1524  0.2762  0.3864
  451SOL     H1 2248   2.100   4.378   1.783 -0.0265 -0.4906 -0.3697
  451SOL     H2 2249   2.039   4.241   1.806  1.6404 -0.9943  1.2197
  451SOL    EPW 2250   2.075   4.315   1.840  0.2921  0.0589  0.3947
  452SOL      O 2251   0.708   5.706   3.548  0.6519  0.5562 -0.4127
  452SOL     H1 2252   0.679   5.757   3.623 -2.1502 -1.0134 -0.4133
  452SOL     H2 2253   0.732   5.773   3.483  2.4089  1.9050  1.5225
  452SOL    EPW 2254   0.708   5.719   3.549  0.5404  0.5327 -0.2063
  453SOL      O 2255   4.323   2.484   0.647  0.2030 -0.6775 -0.1498
  453SOL     H1 2256   4.321   2.574   0.614 -0.7812 -0.6416 -0.0233
  453SOL     H2 2257   4.402   2.480   0.701 -0.1063  0.3156  0.3954
  453SOL    EPW 2258   4.331   2.493   0.649  0.0650 -0.5677 -0.0782
  454SOL      O 2259   4.032   4.115   0.528 -0.6728  0.3012  0.0912
  454SOL     H1 2260   3.998   4.114   0.439 -0.9425  1.9747  0.1588
  454SOL     H2 2261   4.098   4.046   0.529 -0.1490  0.7495 -1.6209
  454SOL    EPW 2262   4.036   4.108   0.519 -0.6457  0.5275 -0.0842
  455SOL      O 2263   2.622   3.374   0.475  0.1322  0.0713 -0.4173
  455SOL     H1 2264   2.680   3.436   0.518 -1.2180  1.6660 -0.8280
  455SOL     H2 2265   2.549   3.428   0.443 -0.3983 -1.5222 -1.9774
  455SOL    EPW 2266   2.620   3.387   0.476 -0.0684  0.0714 -0.6275
  456SOL      O 2267   4.129   2.322   0.510 -0.0151  0.1770  0.1738
  456SOL     H1 2268   4.192   2.392   0.528 -0.7086  0.3897  1.8732
  456SOL     H2 2269   4.080   2.312   0.592 -0.8334 -1.3738 -0.4811
  456SOL    EPW 2270   4.130   2.329   0.521 -0.1763  0.0342  0.2852
  457SOL      O 2271   0.579   1.464   3.597 -0.1867 -0.1678  0.3507
  457SOL     H1 2272   0.580   1.393   3.662  0.9522  0.8668  1.4856
  457SOL     H2 2273   0.671   1.475   3.573 -0.5619 -0.2602 -1.1448
  457SOL    EPW 2274   0.589   1.457   3.601 -0.1052 -0.0673  0.3123
  458SOL      O 2275   3.401   3.935   0.724 -0.4220  0.1777  0.7702
  458SOL     H1 2276   3.456   3.945   0.802 -0.4845 -1.2584  1.0048
  458SOL     H2 2277   3.361   3.849   0.734 -2.4776  1.0873  0.4411
  458SOL    EPW 2278   3.403   3.927   0.733 -0.6480  0.1216  0.7601
  459SOL      O 2279   0.274   5.838   2.497 -0.4207  0.4027 -0.4395
  459SOL     H1 2280   0.286   5.763   2.555  0.1231 -0.5340 -1.7492
  459SOL     H2 2281   0.199   5.885   2.534 -0.3754 -0.4421  0.7458
  459SOL    EPW 2282   0.267   5.835   2.507 -0.3579  0.2127 -0.4527
  460SOL      O 2283   1.006   0.794   3.690 -0.1595 -0.1986  0.1561
  460SOL     H1 2284   1.006   0.804   3.595 -1.8494  0.6646  0.2092
  460SOL     H2 2285   0.971   0.878   3.722  0.4267 -0.4705  1.5267
  460SOL    EPW 2286   1.002   0.804   3.683 -0.2773 -0.1355  0.3080
  461SOL      O 2287   3.830   3.243   1.353 -0.1429 -0.6584 -0.5170
  461SOL     H1 2288   3.814   3.335   1.374  0.8077 -0.9991  1.8192
  461SOL     H2 2289   3.920   3.227   1.381 -0.2861 -2.2871 -0.9244
  461SOL    EPW 2290   3.838   3.251   1.358 -0.0568 -0.8685 -0.3113
  462SOL      O 2291   4.015   2.965   0.041  0.5246 -0.0583  0.7746
  462SOL     H1 2292   3.928   3.001   0.027  0.3403 -1.0713 -0.8916
  462SOL     H2 2293   4.065   3.036   0.080 -0.4503  1.2504 -0.3136
  462SOL    EPW 2294   4.011   2.976   0.043  0.4009 -0.0268  0.4808
  463SOL      O 2295   2.422   5.334   0.348 -0.1885 -0.3360 -0.0088
  463SOL     H1 2296   2.466   5.296   0.273 -1.2090 -1.6113  0.0129
  463SOL     H2 2297   2.484   5.397   0.384  0.4653 -0.0133 -1.6645
  463SOL    EPW 2298   2.433   5.337   0.344 -0.2276 -0.4376 -0.1831
  464SOL      O 2299   5.637   3.957   1.131 -0.0446  0.1043 -0.1013
  464SOL     H1 2300   5.545   3.974   1.113  0.4713  2.1002 -1.0583
  464SOL     H2 2301   5.639   3.870   1.171 -2.0091 -1.3232 -2.9636
  464SOL    EPW 2302   5.627   3.950   1.133 -0.1991  0.1650 -0.5088
  465SOL      O 2303   2.703   3.379   0.216 -0.4820 -0.2442  0.1865
  465SOL     H1 2304   2.678   3.371   0.308 -0.6664  1.3630  0.2942
  465SOL     H2 2305   2.793   3.347   0.212  0.1783  1.4085  1.2880
  465SOL    EPW 2306   2.710   3.375   0.225 -0.4313  0.1035  0.3155
  466SOL      O 2307   5.121   4.054   0.035  0.5532  0.2267  0.1599
  466SOL     H1 2308   5.040   4.018   0.071  0.6478 -0.6225 -0.4650
  466SOL     H2 2309   5.126   4.143   0.071  0.0672 -0.2129  1.3286
  466SOL    EPW 2310   5.113   4.060   0.043  0.5114  0.0892  0.2179
  467SOL      O 2311   2.235   4.329   0.312  0.1319  0.4173 -0.6320
  467SOL     H1 2312   2.329   4.310   0.322 -0.3941 -0.9824  1.9378
  467SOL     H2 2313   2.200   4.252   0.268  0.1513  0.8981 -1.5017
  467SOL    EPW 2314   2.242   4.319   0.309  0.0779  0.3193 -0.4506
  468SOL      O 2315   0.434   0.007   3.294 -0.6369 -0.2874  0.3431
  468SOL     H1 2316   0.456  -0.083   3.315 -1.0237 -0.7097 -0.9761
  468SOL     H2 2317   0.513   0.041   3.251  0.1395  0.5556  2.3744
  468SOL    EPW 2318   0.445   0.001   3.291 -0.5954 -0.2425  0.4191
  469SOL      O 2319   1.207   5.693   4.049 -0.1183 -0.6019  0.2817
  469SOL     H1 2320   1.185   5.773   4.097 -0.5020  0.1327 -1.0726
  469SOL     H2 2321   1.147   5.627   4.083 -0.2385 -0.1547  0.9586
  469SOL    EPW 2322   1.198   5.695   4.058 -0.1721 -0.4758  0.2095
  470SOL      O 2323   2.347   3.029   0.655 -0.0859  0.1989 -0.3501
  470SOL     H1 2324   2.313   3.033   0.744  2.2431 -0.8620  0.6342
  470SOL     H2 2325   2.271   3.043   0.599 -1.7203  0.0488  1.7917
  470SOL    EPW 2326   2.335   3.031   0.659 -0.0118  0.0697 -0.0167
  471SOL      O 2327   2.401   4.768   1.203  0.5491 -0.2234 -0.4806
  471SOL     H1 2328   2.438   4.732   1.122 -0.2698  0.4165 -1.1509
  471SOL     H2 2329   2.307   4.775   1.185  0.1667 -1.2570  0.9792
  471SOL    EPW 2330   2.395   4.765   1.192  0.4209 -0.2654 -0.3964
  472SOL      O 2331   2.994   4.844   0.900  0.3331  0.1617  0.4666
  472SOL     H1 2332   2.946   4.825   0.981  0.4939 -1.2225  0.2398
  472SOL     H2 2333   2.937   4.810   0.831  2.0439 -2.3418  0.2468
  472SOL    EPW 2334   2.982   4.839   0.901  0.5328 -0.2530  0.4190
  473SOL      O 2335   3.331   5.114   0.712 -0.2313 -0.4651  0.3167
  473SOL     H1 2336   3.408   5.070   0.748  0.6313 -0.1641 -1.1116
  473SOL     H2 2337   3.330   5.199   0.756 -0.9473 -1.2520  1.8536
  473SOL    EPW 2338   3.339   5.119   0.721 -0.2156 -0.5169  0.3283
  474SOL      O 2339   0.341   4.419   0.990 -0.2747 -0.6365  0.0066
  474SOL     H1 2340   0.255   4.385   1.014  0.2929 -2.6974 -0.8014
  474SOL     H2 2341   0.394   4.341   0.972  1.3380  0.6398 -0.9302
  474SOL    EPW 2342   0.337   4.407   0.991 -0.0421 -0.7202 -0.1795
  475SOL      O 2343   1.127   1.529   3.180 -0.6570  0.1847  0.2203
  475SOL     H1 2344   1.163   1.615   3.159  0.4210  0.2149  2.0124
  475SOL     H2 2345   1.161   1.510   3.268 -1.2774 -1.8517  0.0526
  475SOL    EPW 2346   1.134   1.536   3.187 -0.6082 -0.0294  0.3936
  476SOL      O 2347   3.719   2.049   1.268  0.0692  0.4602 -0.1666
  476SOL     H1 2348   3.812   2.039   1.247  0.5405  0.0523  1.9713
  476SOL     H2 2349   3.717   2.118   1.335 -1.1048  0.0014  0.2773
  476SOL    EPW 2350   3.729   2.055   1.273 -0.0058  0.3678  0.1088
  477SOL      O 2351   3.116   4.456   0.356 -0.1146 -0.3713  0.2428
  477SOL     H1 2352   3.144   4.456   0.448  0.7123  0.5013 -0.0038
  477SOL     H2 2353   3.056   4.530   0.349 -0.0896 -0.3709  0.0441
  477SOL    EPW 2354   3.113   4.464   0.365 -0.0238 -0.2781  0.1953
  478SOL      O 2355   3.204   3.605   1.061  0.2749  0.3205  0.0857
  478SOL     H1 2356   3.251   3.659   0.999 -0.3162 -0.1088 -0.7448
  478SOL     H2 2357   3.226   3.515   1.037 -2.3879  0.0336 -1.5195
  478SOL    EPW 2358   3.211   3.601   1.052 -0.0722  0.2441 -0.1741
  479SOL      O 2359   1.933   1.481   4.114  0.2659  0.5193 -0.2806
  479SOL     H1 2360   1.868   1.499   4.046 -2.2240 -0.9760  1.6225
  479SOL     H2 2361   1.897   1.522   4.193  0.9455 -1.4749  1.1067
  479SOL    EPW 2362   1.922   1.487   4.115  0.0728  0.1471  0.0704
  480SOL      O 2363   0.472   2.738   3.057 -0.3041  0.2024 -0.2925
  480SOL     H1 2364   0.472   2.832   3.037 -0.0428  0.1863 -0.3626
  480SOL     H2 2365   0.546   2.703   3.009 -0.0193  0.0669  0.2436
  480SOL    EPW 2366   0.480   2.744   3.050 -0.2458  0.1863 -0.2428
  481SOL      O 2367   3.316   3.335   0.975  0.3444  0.1260 -0.6078
  481SOL     H1 2368   3.347   3.251   1.010 -0.4002  0.1942  0.2521
  481SOL     H2 2369   3.261   3.311   0.901 -1.9123 -0.3178  1.1567
  481SOL    EPW 2370   3.314   3.323   0.971  0.0242  0.0860 -0.3278
  482SOL      O 2371   2.900   3.512   1.274 -0.0334 -0.4141  0.8606
  482SOL     H1 2372   2.820   3.558   1.296  0.4710 -0.2445  2.4577
  482SOL     H2 2373   2.969   3.562   1.318  0.5651 -2.3808  2.2510
  482SOL    EPW 2374   2.899   3.522   1.281  0.0842 -0.6058  1.1793
  483SOL      O 2375   2.854   4.584   0.237 -0.3268 -0.0514 -0.0338
  483SOL     H1 2376   2.761   4.604   0.234 -0.1526  0.8298  0.2693
  483SOL     H2 2377   2.896   4.669   0.252  0.4775 -0.5361  0.4713
  483SOL    EPW 2378   2.849   4.595   0.238 -0.2225 -0.0091  0.0524
  484SOL      O 2379   2.640   4.547   0.881  0.2124 -0.5355 -0.0856
  484SOL     H1 2380   2.730   4.557   0.850 -0.4108  1.3460 -1.3462
  484SOL     H2 2381   2.592   4.516   0.804 -0.2258 -1.5610  0.5934
  484SOL    EPW 2382   2.644   4.545   0.869  0.0992 -0.4442 -0.1476
  485SOL      O 2383   4.282   4.865   0.201  0.3695  0.0967  0.2359
  485SOL     H1 2384   4.250   4.847   0.289 -0.1879 -0.6727 -0.1140
  485SOL     H2 2385   4.332   4.787   0.177 -0.6179 -0.2792 -0.6463
  485SOL    EPW 2386   4.284   4.855   0.208  0.2047 -0.0254  0.1045
  486SOL      O 2387   4.003   2.695   0.856 -0.0993  0.3680  0.0258
  486SOL     H1 2388   4.034   2.606   0.838 -1.0743 -0.0224  0.2596
  486SOL     H2 2389   3.999   2.736   0.770  0.1764  0.1331 -0.1019
  486SOL    EPW 2390   4.006   2.690   0.845 -0.1739  0.3013  0.0371
  487SOL      O 2391   4.089   2.726   0.370  0.2959 -0.2191  0.8689
  487SOL     H1 2392   4.111   2.641   0.331 -1.0562  0.9852 -2.7720
  487SOL     H2 2393   4.170   2.777   0.363  0.3740 -0.3792  0.5725
  487SOL    EPW 2394   4.100   2.723   0.365  0.1600 -0.1077  0.4489
  488SOL      O 2395   2.609   4.952   2.742  0.5368  0.0289 -0.1573
  488SOL     H1 2396   2.553   5.027   2.762  1.5729  0.7268  0.1650
  488SOL     H2 2397   2.650   4.929   2.825  0.6711 -0.5193 -0.3734
  488SOL    EPW 2398   2.608   4.957   2.753  0.6616  0.0448 -0.1460
  489SOL      O 2399   3.927   3.000   1.007  0.2541 -0.0782  0.9454
  489SOL     H1 2400   3.877   3.066   0.960  0.6291  0.7746  1.7357
  489SOL     H2 2401   4.011   3.042   1.025  0.9961 -1.2373  0.2733
  489SOL    EPW 2402   3.931   3.011   1.004  0.3732 -0.1108  0.9580
  490SOL      O 2403   2.035   5.272   1.178 -0.0332  0.5932 -0.0898
  490SOL     H1 2404   2.020   5.177   1.174  0.7918  0.4647 -0.1963
  490SOL     H2 2405   2.024   5.294   1.270  0.6986  0.2312  0.0927
  490SOL    EPW 2406   2.032   5.264   1.188  0.1328  0.5409 -0.0817
  491SOL      O 2407   4.895   5.073   0.103  0.2570  0.5569  0.7355
  491SOL     H1 2408   4.946   5.054   0.025 -0.5400 -0.8321  0.5423
  491SOL     H2 2409   4.866   5.163   0.092 -1.9848 -0.4185 -1.7865
  491SOL    EPW 2410   4.897   5.080   0.094 -0.0672  0.3046  0.4459
  492SOL      O 2411   1.445   5.168   3.735 -0.4350 -0.4082  0.2054
  492SOL     H1 2412   1.427   5.259   3.712  0.0414 -0.5102 -0.5909
  492SOL     H2 2413   1.533   5.151   3.701  0.6548 -0.3294  2.8234
  492SOL    EPW 2414   1.453   5.175   3.729 -0.2680 -0.4107  0.3998
  493SOL      O 2415   0.117   1.127   4.145  0.0274 -0.1675 -0.0998
  493SOL     H1 2416   0.043   1.187   4.137  0.0520 -0.0000  0.9257
  493SOL     H2 2417   0.108   1.088   4.231  0.5164 -0.9764 -0.4074
  493SOL    EPW 2418   0.108   1.129   4.153  0.0822 -0.2360 -0.0232
  494SOL      O 2419   4.480   2.973   0.011  0.3652  0.0676  0.0517
  494SOL     H1 2420   4.542   3.042  -0.014  1.1489 -0.5702  0.2059
  494SOL     H2 2421   4.394   3.012  -0.003  0.8012  0.8722 -0.4312
  494SOL    EPW 2422   4.478   2.984   0.007  0.4953  0.0854  0.0166
  495SOL      O 2423   3.224   3.020   0.689  0.3938 -0.4936  0.2755
  495SOL     H1 2424   3.163   3.084   0.726 -0.6177 -1.6549  0.6745
  495SOL     H2 2425   3.218   3.033   0.594 -1.8100 -1.7343  0.1959
  495SOL    EPW 2426   3.217   3.028   0.683  0.0508 -0.7499  0.3096
  496SOL      O 2427   3.148   2.539   0.645 -0.2276  0.5855  0.0179
  496SOL     H1 2428   3.080   2.472   0.655  0.0395  0.4115  0.7319
  496SOL     H2 2429   3.210   2.520   0.716  0.3563  0.9865 -0.3871
  496SOL    EPW 2430   3.148   2.530   0.654 -0.1368  0.6097  0.0509
  497SOL      O 2431   1.183   5.851   2.999 -0.4272  0.1144  0.2208
  497SOL     H1 2432   1.261   5.901   3.021 -0.4462 -0.2778  1.2011
  497SOL     H2 2433   1.122   5.915   2.963  0.6740  0.2747 -1.4386
  497SOL    EPW 2434   1.185   5.863   2.997 -0.3118  0.0897  0.1483
  498SOL      O 2435   3.729   3.114   0.495 -0.3174 -0.0617 -0.1428
  498SOL     H1 2436   3.811   3.141   0.453  0.2871 -2.1890 -0.3608
  498SOL     H2 2437   3.664   3.178   0.464  0.9436  0.7600 -1.1357
  498SOL    EPW 2438   3.731   3.124   0.488 -0.1184 -0.2010 -0.2720
  499SOL      O 2439   1.248   0.720   3.795 -0.1056  0.1555  0.2859
  499SOL     H1 2440   1.284   0.648   3.744 -0.3324  0.8515 -0.8876
  499SOL     H2 2441   1.164   0.739   3.754  0.5964  2.0310 -0.3519
  499SOL    EPW 2442   1.243   0.715   3.785 -0.0549  0.4299  0.0927
  500SOL      O 2443   4.897   5.524   3.514  0.1618  0.1666 -0.3722
  500SOL     H1 2444   4.891   5.552   3.422  1.6669 -1.7227 -1.0900
  500SOL     H2 2445   4.959   5.585   3.554 -1.4487  1.7671 -0.2838
  500SOL    EPW 2446   4.903   5.534   3.508  0.1505  0.1358 -0.4394
  501SOL      O 2447   3.278   3.589   0.365 -0.1405 -0.4928 -0.0902
  501SOL     H1 2448   3.224   3.559   0.439  0.2898 -1.1060 -0.0231
  501SOL     H2 2449   3.214   3.622   0.302 -0.4949  0.3492  0.6918
  501SOL    EPW 2450   3.265   3.589   0.367 -0.1324 -0.4683  0.0004
  502SOL      O 2451   3.567   3.334   0.414  0.3185  0.4104 -0.2385
  502SOL     H1 2452   3.553   3.413   0.465 -0.8893 -1.4401  2.4071
  502SOL     H2 2453   3.480   3.312   0.380  0.5647 -0.0041 -0.5992
  502SOL    EPW 2454   3.556   3.340   0.416  0.2159  0.1688  0.0053
  503SOL      O 2455   4.185   3.619   0.214 -0.2813 -0.4273  0.0160
  503SOL     H1 2456   4.278   3.602   0.196 -0.3541 -1.8629  0.9334
  503SOL     H2 2457   4.174   3.598   0.306 -1.1750  1.3280  0.3298
  503SOL    EPW 2458   4.194   3.615   0.222 -0.3844 -0.3932  0.1473
  504SOL      O 2459   2.386   0.079   3.246  0.3760 -0.3261 -0.2398
  504SOL     H1 2460   2.455   0.123   3.196  0.4330  0.9520  0.9437
  504SOL     H2 2461   2.305   0.124   3.221  0.6533  1.7058  2.2962
  504SOL    EPW 2462   2.385   0.088   3.238  0.4116  0.0270  0.1570
  505SOL      O 2463   1.102   0.504   3.423  0.3068  0.2139  0.2310
  505SOL     H1 2464   1.068   0.593   3.415  0.4090  0.3741  1.3967
  505SOL     H2 2465   1.029   0.453   3.459 -0.0810 -0.4075 -1.4032
  505SOL    EPW 2466   1.091   0.508   3.426  0.2763  0.1647  0.1810
  506SOL      O 2467   3.579   2.326   0.588 -0.0193 -0.1714  0.6691
  506SOL     H1 2468   3.493   2.367   0.591 -0.4924 -1.1720  0.8672
  506SOL     H2 2469   3.622   2.366   0.512  0.0147  1.6269  1.5906
  506SOL    EPW 2470   3.574   2.335   0.580 -0.0662 -0.0863  0.7885
  507SOL      O 2471   2.227   5.249   0.718 -0.8523  0.1580  0.0410
  507SOL     H1 2472   2.229   5.307   0.794 -0.6311  0.7037 -0.3752
  507SOL     H2 2473   2.160   5.185   0.738 -1.1133  0.5708  0.5010
  507SOL    EPW 2474   2.220   5.249   0.728 -0.8566  0.2603  0.0456
  508SOL      O 2475   3.544   4.263   0.479 -0.1607  0.5369 -0.9530
  508SOL     H1 2476   3.591   4.294   0.557  1.4375  3.7944 -3.1185
  508SOL     H2 2477   3.607   4.209   0.433 -0.6743 -0.3137 -0.6674
  508SOL    EPW 2478   3.556   4.261   0.483 -0.0450  0.7937 -1.1535
  509SOL      O 2479   1.237   1.094   3.087 -0.4575 -0.2982 -0.3060
  509SOL     H1 2480   1.236   1.126   2.997 -1.2422  2.0559  0.5129
  509SOL     H2 2481   1.269   1.168   3.139 -1.2998 -1.1565  1.5023
  509SOL    EPW 2482   1.240   1.105   3.083 -0.6310 -0.1386 -0.0258
  510SOL      O 2483   4.896   3.167   1.106 -0.1400 -0.1629 -0.3810
  510SOL     H1 2484   4.887   3.239   1.169  0.5931  1.4612 -2.0690
  510SOL     H2 2485   4.813   3.120   1.112 -0.6984  0.9235  0.6411
  510SOL    EPW 2486   4.886   3.170   1.113 -0.1214  0.1262 -0.4521
  511SOL      O 2487   5.512   4.799   4.092 -0.7376 -0.2761  0.0865
  511SOL     H1 2488   5.509   4.887   4.131 -1.0537 -0.4957  0.5718
  511SOL     H2 2489   5.585   4.802   4.031 -0.6993  0.3037  0.1566
  511SOL    EPW 2490   5.519   4.809   4.090 -0.7672 -0.2377  0.1457
  512SOL      O 2491   5.027   2.947   0.514  0.6045  0.0698  0.4746
  512SOL     H1 2492   4.992   3.036   0.508  0.4260  0.1548  2.5056
  512SOL     H2 2493   5.061   2.929   0.426 -0.2200  1.7761 -0.2198
  512SOL    EPW 2494   5.027   2.955   0.504  0.4975  0.2609  0.6172
  513SOL      O 2495   1.808   0.713   3.174 -0.4285  0.1728  0.4227
  513SOL     H1 2496   1.758   0.652   3.227 -0.6862 -1.5103 -1.7303
  513SOL     H2 2497   1.744   0.779   3.147 -0.9485 -0.6066 -0.2632
  513SOL    EPW 2498   1.796   0.714   3.177 -0.5115 -0.0899  0.1199
  514SOL      O 2499   4.245   3.577   0.480  0.0484  0.1972 -0.2969
  514SOL     H1 2500   4.190   3.654   0.494  0.0278 -0.0114  0.8430
  514SOL     H2 2501   4.318   3.588   0.540  0.6357 -0.1178 -0.9458
  514SOL    EPW 2502   4.247   3.586   0.488  0.1088  0.1414 -0.2445
  515SOL      O 2503   4.419   3.449   1.216 -0.0253  0.2418 -0.1241
  515SOL     H1 2504   4.493   3.503   1.191  0.8243  0.2576  2.3377
  515SOL     H2 2505   4.350   3.511   1.238 -0.3143  0.2465 -1.0228
  515SOL    EPW 2506   4.419   3.461   1.215  0.0345  0.2440  0.0426
  516SOL      O 2507   3.199   4.104   0.698 -0.1704 -0.3257  0.2570
  516SOL     H1 2508   3.228   4.149   0.619 -0.0723 -0.3736  0.2652
  516SOL     H2 2509   3.264   4.035   0.712 -0.4318 -0.6036  0.1289
  516SOL    EPW 2510   3.209   4.101   0.691 -0.1878 -0.3605  0.2442
  517SOL      O 2511   4.359   3.756   0.934  0.3371  0.4294  0.0673
  517SOL     H1 2512   4.350   3.693   0.863 -1.0768  0.6457  0.0420
  517SOL     H2 2513   4.303   3.829   0.909  0.3473  0.8008  1.0892
  517SOL    EPW 2514   4.352   3.757   0.924  0.1874  0.4921  0.1736
  518SOL      O 2515   4.188   4.913   0.782 -0.2405  0.0486  0.3825
  518SOL     H1 2516   4.129   4.872   0.719 -1.8431  1.3022  1.0305
  518SOL     H2 2517   4.130   4.944   0.852  1.1881  1.3816  0.9939
  518SOL    EPW 2518   4.176   4.912   0.783 -0.2591  0.3246  0.5169
  519SOL      O 2519   5.579   5.824   3.857  0.0890 -0.6353  0.3445
  519SOL     H1 2520   5.583   5.896   3.793  2.1785  0.6999  1.9056
  519SOL     H2 2521   5.573   5.745   3.803  2.3913  0.4281 -1.5796
  519SOL    EPW 2522   5.579   5.823   3.844  0.5575 -0.3794  0.3058
  520SOL      O 2523   0.930   3.862   3.379 -0.0364  0.0760  0.0071
  520SOL     H1 2524   0.842   3.868   3.417  0.8608  2.5370  1.8289
  520SOL     H2 2525   0.936   3.938   3.321  0.7480 -0.3423 -0.4750
  520SOL    EPW 2526   0.921   3.871   3.377  0.1430  0.2939  0.1500
  521SOL      O 2527   0.019   5.385   3.089  0.1450  0.4970  0.4619
  521SOL     H1 2528  -0.044   5.342   3.031  0.5217 -0.8496  1.0385
  521SOL     H2 2529  -0.032   5.410   3.165 -0.0648  1.0640  0.1429
  521SOL    EPW 2530   0.007   5.383   3.091  0.1628  0.4138  0.4894
  522SOL      O 2531   3.473   5.742   0.778 -0.4066  0.0180 -0.3154
  522SOL     H1 2532   3.441   5.817   0.827 -0.5780  0.5132 -1.1805
  522SOL     H2 2533   3.547   5.776   0.728 -0.6691 -0.3160 -0.9389
  522SOL    EPW 2534   3.478   5.754   0.778 -0.4529  0.0352 -0.4742
  523SOL      O 2535   5.606   1.341   3.874  0.1507  0.3324 -0.0835
  523SOL     H1 2536   5.637   1.276   3.811  0.0707 -1.4642  1.6833
  523SOL     H2 2537   5.527   1.302   3.911  0.9745  0.7263  2.1545
  523SOL    EPW 2538   5.601   1.330   3.871  0.2300  0.1828  0.3437
  524SOL      O 2539   1.814   0.875   3.519  0.3032 -0.0734  0.1368
  524SOL     H1 2540   1.757   0.896   3.593  2.4717  0.1791  1.7556
  524SOL     H2 2541   1.776   0.923   3.446 -0.0532  2.2109  1.7710
  524SOL    EPW 2542   1.804   0.882   3.519  0.4965  0.1972  0.4838
  525SOL      O 2543   0.678   1.057   2.967  0.8992  0.1855 -0.1660
  525SOL     H1 2544   0.730   1.085   3.042 -0.4737 -0.8694  1.2224
  525SOL     H2 2545   0.631   0.979   2.998  0.5713 -0.4761 -2.2282
  525SOL    EPW 2546   0.678   1.051   2.978  0.7178  0.0023 -0.2379
  526SOL      O 2547   4.036   3.890   0.180 -0.0885 -0.5282 -0.0086
  526SOL     H1 2548   4.034   3.863   0.088 -0.0135 -0.2996 -0.0770
  526SOL     H2 2549   4.022   3.809   0.229 -3.3726 -0.2109 -0.2889
  526SOL    EPW 2550   4.034   3.879   0.175 -0.4309 -0.4699 -0.0458
  527SOL      O 2551   0.694   5.098   3.045  0.1597  0.1557  0.0217
  527SOL     H1 2552   0.708   5.143   2.962 -1.2686  1.6453  0.5413
  527SOL     H2 2553   0.599   5.083   3.048  0.3429 -0.9009  0.8692
  527SOL    EPW 2554   0.685   5.101   3.037  0.0269  0.2019  0.1675
  528SOL      O 2555   1.001   0.150   3.327 -0.1673 -0.0699 -0.3942
  528SOL     H1 2556   0.977   0.058   3.328 -1.0064  0.1562 -0.0361
  528SOL     H2 2557   0.964   0.186   3.407  0.9309  0.3856 -0.0892
  528SOL    EPW 2558   0.995   0.144   3.335 -0.1397  0.0028 -0.3234
  529SOL      O 2559   2.736   3.555   0.662  0.5506  0.0964  0.1363
  529SOL     H1 2560   2.706   3.646   0.672 -1.9966 -0.3909 -2.3618
  529SOL     H2 2561   2.708   3.511   0.742 -1.9157  0.6039 -0.4131
  529SOL    EPW 2562   2.730   3.560   0.672  0.0157  0.0985 -0.1888
  530SOL      O 2563   5.031   3.917   0.867 -0.3168 -0.1401  0.7122
  530SOL     H1 2564   4.983   3.854   0.920 -0.7621  0.2164  0.7353
  530SOL     H2 2565   5.123   3.896   0.882 -0.4657 -1.7087 -0.3830
  530SOL    EPW 2566   5.035   3.908   0.874 -0.3802 -0.2694  0.5978
  531SOL      O 2567   2.404   1.937   0.305 -0.4423 -0.2325 -0.1286
  531SOL     H1 2568   2.484   1.989   0.296 -0.1544 -0.7959 -0.9460
  531SOL     H2 2569   2.434   1.846   0.298 -1.0775 -0.4667  0.1845
  531SOL    EPW 2570   2.416   1.933   0.303 -0.4793 -0.3176 -0.1824
  532SOL      O 2571   1.800   5.422   2.444  0.2952  0.4658 -0.4733
  532SOL     H1 2572   1.849   5.480   2.386  0.6318  1.4951  0.8173
  532SOL     H2 2573   1.710   5.428   2.413  0.8095 -0.7059 -2.2674
  532SOL    EPW 2574   1.796   5.429   2.434  0.3860  0.4506 -0.5270
  533SOL      O 2575   5.356   3.131   0.417 -0.1339  0.1979 -0.3198
  533SOL     H1 2576   5.288   3.116   0.351 -0.3201 -0.0963 -0.0649
  533SOL     H2 2577   5.308   3.164   0.493  0.2139  1.5999 -0.7027
  533SOL    EPW 2578   5.344   3.133   0.418 -0.1167  0.3161 -0.3335
  534SOL      O 2579   4.484   4.688   4.010 -0.4003 -0.6652 -0.4871
  534SOL     H1 2580   4.539   4.632   3.955  0.4170 -0.1829 -0.1692
  534SOL     H2 2581   4.469   4.767   3.957 -0.2499 -0.5266 -0.3264
  534SOL    EPW 2582   4.488   4.691   3.999 -0.2971 -0.5990 -0.4361
  535SOL      O 2583   0.326   3.357   1.878 -0.6172  0.1501 -0.1603
  535SOL     H1 2584   0.369   3.308   1.949  0.6804 -1.3003 -1.8928
  535SOL     H2 2585   0.234   3.331   1.884 -0.1431 -1.6336 -0.3206
  535SOL    EPW 2586   0.321   3.349   1.887 -0.4282 -0.1949 -0.3622
  536SOL      O 2587   0.776   2.098   0.966  0.1277  0.1391 -0.1859
  536SOL     H1 2588   0.732   2.016   0.986 -2.4057  1.8408  1.5900
  536SOL     H2 2589   0.774   2.147   1.048  1.4880  2.0373 -1.2356
  536SOL    EPW 2590   0.771   2.095   0.976  0.0026  0.5231 -0.1084
  537SOL      O 2591   1.243   3.114   1.446 -0.0034  0.2476 -0.6389
  537SOL     H1 2592   1.273   3.065   1.369  0.8817  0.9881 -0.7646
  537SOL     H2 2593   1.238   3.204   1.416  0.0499  0.4920  0.0943
  537SOL    EPW 2594   1.245   3.118   1.435  0.0967  0.3526 -0.5741
  538SOL      O 2595   3.029   4.995   3.366 -0.4814 -0.0105 -0.2766
  538SOL     H1 2596   2.939   4.994   3.333 -0.6755 -0.1062  0.2513
  538SOL     H2 2597   3.058   4.904   3.358 -0.9406 -0.2747  0.9245
  538SOL    EPW 2598   3.022   4.985   3.362 -0.5511 -0.0489 -0.0922
  539SOL      O 2599   5.346   2.269   1.414 -0.1681  0.1143 -0.3975
  539SOL     H1 2600   5.409   2.327   1.457 -0.6486  0.3096  0.0382
  539SOL     H2 2601   5.266   2.276   1.466  0.1210 -1.8183  0.3637
  539SOL    EPW 2602   5.344   2.276   1.424 -0.1885 -0.0711 -0.2698
  540SOL      O 2603   0.322   2.579   0.403 -0.2876  0.1055 -0.0371
  540SOL     H1 2604   0.394   2.565   0.466 -1.1540  2.9225  1.6681
  540SOL     H2 2605   0.243   2.570   0.456 -1.0486  1.6453 -0.8894
  540SOL    EPW 2606   0.321   2.577   0.416 -0.4612  0.5703  0.0539
  541SOL      O 2607   0.858   5.266   2.129  0.4782  0.2824 -0.1421
  541SOL     H1 2608   0.823   5.290   2.215  0.7663 -0.7672  0.2886
  541SOL     H2 2609   0.788   5.285   2.068 -0.2027 -0.1560  0.4926
  541SOL    EPW 2610   0.847   5.270   2.132  0.4363  0.1236 -0.0285
  542SOL      O 2611   1.617   2.260   2.211  0.2772  0.3563 -0.3502
  542SOL     H1 2612   1.538   2.289   2.256 -0.5313  0.9800 -2.1320
  542SOL     H2 2613   1.677   2.237   2.281 -1.4816 -0.1268  1.0328
  542SOL    EPW 2614   1.615   2.261   2.223  0.0034  0.3713 -0.3927
  543SOL      O 2615   0.635   3.296   1.836  1.1400 -0.1963  0.0948
  543SOL     H1 2616   0.574   3.322   1.904  2.7542 -0.0454  1.5153
  543SOL     H2 2617   0.601   3.336   1.756 -1.7323 -1.7960  0.4604
  543SOL    EPW 2618   0.625   3.303   1.834  1.0058 -0.3509  0.2853
  544SOL      O 2619   0.569   3.970   0.935 -0.0050 -0.3808  0.2983
  544SOL     H1 2620   0.603   3.955   1.023 -0.5712  0.4479  0.6667
  544SOL     H2 2621   0.493   3.912   0.929  1.2832 -2.0175 -0.4220
  544SOL    EPW 2622   0.564   3.962   0.944  0.0720 -0.4670  0.2607
  545SOL      O 2623   0.933   3.075   2.658  0.2932 -0.1592  0.3170
  545SOL     H1 2624   0.981   3.010   2.709 -0.4742  0.0268  1.2766
  545SOL     H2 2625   0.847   3.080   2.699 -0.3759 -0.1042 -1.0771
  545SOL    EPW 2626   0.929   3.069   2.668  0.1400 -0.1335  0.2707
  546SOL      O 2627   5.858   2.348   1.346 -0.2786  0.0633  0.2760
  546SOL     H1 2628   5.912   2.413   1.392 -0.2254  0.2951 -0.1097
  546SOL     H2 2629   5.916   2.311   1.280  0.0007 -1.1552  1.2069
  546SOL    EPW 2630   5.870   2.351   1.344 -0.2432 -0.0420  0.3342
  547SOL      O 2631   5.115   2.541   1.222 -0.3855 -0.0304  0.0448
  547SOL     H1 2632   5.044   2.534   1.286 -1.5270  0.1542 -1.1739
  547SOL     H2 2633   5.087   2.611   1.163  0.2566 -0.7649 -1.1488
  547SOL    EPW 2634   5.104   2.548   1.222 -0.4388 -0.0890 -0.2125
  548SOL      O 2635   0.713   5.168   4.150  0.5300  0.9309 -0.1905
  548SOL     H1 2636   0.635   5.134   4.194  0.7784  1.2531  0.5082
  548SOL     H2 2637   0.715   5.122   4.066  2.6623 -3.3518  2.0169
  548SOL    EPW 2638   0.705   5.159   4.146  0.7840  0.5084  0.1195
  549SOL      O 2639   1.328   2.507   1.060 -0.1018 -0.0213 -0.5585
  549SOL     H1 2640   1.348   2.571   0.991 -1.5527  0.1536 -0.8433
  549SOL     H2 2641   1.376   2.429   1.034  1.2789  0.7742 -0.4886
  549SOL    EPW 2642   1.335   2.506   1.050 -0.1093  0.0822 -0.5815
  550SOL      O 2643   2.446   1.706   0.703  0.0490 -0.1347  0.1477
  550SOL     H1 2644   2.364   1.676   0.664 -0.3856 -0.1893  1.0844
  550SOL     H2 2645   2.506   1.631   0.695 -1.1407 -1.4290  2.8072
  550SOL    EPW 2646   2.444   1.695   0.698 -0.1243 -0.2786  0.5314
  551SOL      O 2647   5.668   4.195   1.368  0.0088  0.9651 -0.4969
  551SOL     H1 2648   5.619   4.126   1.412 -1.0759  3.4686  2.4341
  551SOL     H2 2649   5.622   4.208   1.285 -1.7556  0.3691  0.3623
  551SOL    EPW 2650   5.657   4.189   1.364 -0.2951  1.1686 -0.0926
  552SOL      O 2651   0.711   3.155   0.014  0.1573  0.0111 -0.3648
  552SOL     H1 2652   0.767   3.083  -0.017  1.4228  0.3852  0.9753
  552SOL     H2 2653   0.626   3.115   0.029  0.4653 -0.9004 -0.9812
  552SOL    EPW 2654   0.708   3.143   0.012  0.3252 -0.0462 -0.2876
  553SOL      O 2655   1.106   2.115   0.701 -0.2641  0.2413 -0.6075
  553SOL     H1 2656   1.088   2.115   0.795 -1.5394 -0.5316 -0.8395
  553SOL     H2 2657   1.021   2.133   0.660  0.0033 -0.8213 -1.6636
  553SOL    EPW 2658   1.095   2.117   0.706 -0.3716  0.0455 -0.7449
  554SOL      O 2659   0.613   1.760   1.374 -0.6799 -0.2736  0.4282
  554SOL     H1 2660   0.605   1.727   1.463  0.8877 -0.0448  0.6615
  554SOL     H2 2661   0.659   1.843   1.382  0.7479 -0.9217 -0.6964
  554SOL    EPW 2662   0.617   1.765   1.384 -0.3604 -0.3183  0.3331
  555SOL      O 2663   3.475   4.851   3.332 -0.3838 -0.3912  0.0784
  555SOL     H1 2664   3.497   4.939   3.303 -0.9712 -0.0528  0.6376
  555SOL     H2 2665   3.494   4.852   3.426  0.3038 -1.0804 -0.0578
  555SOL    EPW 2666   3.479   4.861   3.339 -0.3731 -0.4286  0.1235
  556SOL      O 2667   4.188   1.569   3.674 -0.5118  0.3522  0.4849
  556SOL     H1 2668   4.283   1.573   3.683 -0.2475 -0.9862 -1.3942
  556SOL     H2 2669   4.157   1.540   3.760  0.9115 -0.7162  0.6619
  556SOL    EPW 2670   4.195   1.566   3.684 -0.3318  0.0955  0.3033
  557SOL      O 2671   0.992   1.381   0.365  0.0625 -0.4373  0.3706
  557SOL     H1 2672   1.081   1.410   0.347 -0.1212 -0.5060 -0.6359
  557SOL     H2 2673   0.978   1.403   0.458  0.4252  1.3557  0.0110
  557SOL    EPW 2674   1.000   1.386   0.373  0.0816 -0.2534  0.2249
  558SOL      O 2675   2.211   1.990   0.513 -0.3842 -0.1621  0.6274
  558SOL     H1 2676   2.141   1.944   0.561 -0.7655  0.3494  0.5638
  558SOL     H2 2677   2.285   1.989   0.573 -1.3301  1.8427  1.8918
  558SOL    EPW 2678   2.211   1.985   0.525 -0.5258  0.1063  0.7555
  559SOL      O 2679   1.218   2.032   2.123  0.1135  0.1401  0.0623
  559SOL     H1 2680   1.136   1.984   2.112 -1.3422  2.3507  0.8611
  559SOL     H2 2681   1.211   2.106   2.063  1.2713  0.6625  0.5609
  559SOL    EPW 2682   1.209   2.035   2.116  0.0817  0.4317  0.2007
  560SOL      O 2683   1.565   3.855   2.900 -0.2789 -0.1034 -0.5419
  560SOL     H1 2684   1.560   3.950   2.907  0.2079 -0.1722  1.0744
  560SOL     H2 2685   1.642   3.839   2.845 -1.8430  0.4548 -2.9521
  560SOL    EPW 2686   1.573   3.863   2.895 -0.3938 -0.0512 -0.6266
  561SOL      O 2687   0.795   2.517   1.008  0.2762  0.0644 -0.5288
  561SOL     H1 2688   0.827   2.605   0.988  0.4818 -0.6233 -3.4480
  561SOL     H2 2689   0.783   2.475   0.923 -3.2559 -1.5474  0.6321
  561SOL    EPW 2690   0.797   2.522   0.997 -0.0787 -0.1809 -0.7164
  562SOL      O 2691   1.531   3.316   1.692 -0.1706 -0.3061 -0.3232
  562SOL     H1 2692   1.510   3.224   1.679  0.6275 -0.9574  2.6399
  562SOL     H2 2693   1.446   3.361   1.693 -0.7166 -1.3470  0.6032
  562SOL    EPW 2694   1.520   3.311   1.691 -0.1437 -0.4867  0.0917
  563SOL      O 2695   5.029   4.878   3.468  0.2793  0.2495 -0.6334
  563SOL     H1 2696   4.953   4.936   3.467  0.1747  0.1141 -1.3845
  563SOL     H2 2697   5.084   4.911   3.539 -0.0227  0.9441 -0.7189
  563SOL    EPW 2698   5.027   4.888   3.475  0.2360  0.3091 -0.7226
  564SOL      O 2699   1.308   2.301   0.682  0.3334 -0.4176  0.1022
  564SOL     H1 2700   1.232   2.243   0.673 -1.3607  1.8986 -1.1571
  564SOL     H2 2701   1.288   2.356   0.758  0.5729  0.4093 -0.4173
  564SOL    EPW 2702   1.298   2.301   0.689  0.1782 -0.0823 -0.0875
  565SOL      O 2703   2.125   1.820   0.300  0.1228 -0.0947  0.1074
  565SOL     H1 2704   2.029   1.822   0.291 -0.2008 -1.5858  2.7241
  565SOL     H2 2705   2.145   1.728   0.317  2.0998  0.1465 -0.7965
  565SOL    EPW 2706   2.117   1.810   0.301  0.2992 -0.2280  0.2901
  566SOL      O 2707   2.406   1.654   2.015  0.5850  0.7400 -0.2289
  566SOL     H1 2708   2.471   1.653   2.085 -0.5714  1.7313  0.8920
  566SOL     H2 2709   2.457   1.662   1.934  1.8548  1.2682  0.6142
  566SOL    EPW 2710   2.418   1.655   2.013  0.5971  0.9021 -0.0194
  567SOL      O 2711   0.189   4.223   1.620 -0.1014 -0.3514  0.3384
  567SOL     H1 2712   0.161   4.299   1.672  1.0022 -0.1145  0.5997
  567SOL     H2 2713   0.134   4.152   1.651 -0.0898  0.0004  1.2012
  567SOL    EPW 2714   0.180   4.224   1.629  0.0176 -0.2886  0.4583
  568SOL      O 2715   0.609   1.314   1.938  1.1020  0.4756  0.3323
  568SOL     H1 2716   0.601   1.274   1.851 -0.8535  0.3800  0.5429
  568SOL     H2 2717   0.633   1.405   1.920 -0.9282  0.8853 -0.3852
  568SOL    EPW 2718   0.611   1.319   1.927  0.6768  0.5091  0.2782
  569SOL      O 2719   0.120   4.283   0.677 -0.2802  0.2032  0.0101
  569SOL     H1 2720   0.152   4.369   0.705  1.0602 -0.9355  2.1714
  569SOL     H2 2721   0.143   4.278   0.584  0.8729  1.6399  0.1994
  569SOL    EPW 2722   0.126   4.292   0.670 -0.0142  0.2350  0.2608
  570SOL      O 2723   0.521   2.538   0.586  0.2516  0.7033  0.0291
  570SOL     H1 2724   0.501   2.444   0.576  0.3309  0.9359 -2.7467
  570SOL     H2 2725   0.614   2.540   0.609  0.6964  0.1056 -1.5817
  570SOL    EPW 2726   0.529   2.528   0.587  0.3075  0.6643 -0.4388
  571SOL      O 2727   1.193   3.851   0.165  0.8565 -0.3633 -0.4098
  571SOL     H1 2728   1.122   3.796   0.201 -1.4324  1.8630 -1.4035
  571SOL     H2 2729   1.205   3.919   0.231  0.1916  0.7993 -1.4804
  571SOL    EPW 2730   1.187   3.852   0.176  0.5414 -0.0018 -0.6300
  572SOL      O 2731   1.195   2.883   0.624  0.6155  0.1990 -0.2850
  572SOL     H1 2732   1.235   2.873   0.537  0.5381  2.7607 -0.6616
  572SOL     H2 2733   1.263   2.925   0.676  0.4938 -0.9091  0.7832
  572SOL    EPW 2734   1.207   2.886   0.620  0.5942  0.3540 -0.2112
  573SOL      O 2735   1.429   1.767   0.735  0.3372  0.2293 -0.1876
  573SOL     H1 2736   1.360   1.706   0.712 -0.9714  1.1114  1.3013
  573SOL     H2 2737   1.405   1.849   0.691 -1.0874  1.3265  2.4832
  573SOL    EPW 2738   1.419   1.769   0.728  0.0456  0.4405  0.2561
  574SOL      O 2739   1.479   4.265   1.983  0.5232 -0.2683  0.0858
  574SOL     H1 2740   1.504   4.329   1.916 -0.3582 -0.0210 -0.0228
  574SOL     H2 2741   1.562   4.236   2.021  0.9212  1.2813  0.4457
  574SOL    EPW 2742   1.490   4.269   1.980  0.4717 -0.0766  0.1126
  575SOL      O 2743   0.526   1.496   1.288 -0.1042  0.0583 -0.5574
  575SOL     H1 2744   0.564   1.469   1.204  1.4950  1.7544 -0.4206
  575SOL     H2 2745   0.562   1.584   1.303 -0.3970 -0.2138  1.8940
  575SOL    EPW 2746   0.534   1.503   1.280  0.0351  0.2102 -0.2813
  576SOL      O 2747   1.114   3.003   1.701 -0.5454 -0.4081 -0.8157
  576SOL     H1 2748   1.193   2.992   1.753  0.0064 -0.0221 -1.5628
  576SOL     H2 2749   1.142   2.984   1.611 -1.5140 -1.2215 -0.9594
  576SOL    EPW 2750   1.125   3.000   1.697 -0.5899 -0.4537 -0.9107
  577SOL      O 2751   3.115   2.722   2.911  0.2304  0.2948  0.5441
  577SOL     H1 2752   3.110   2.626   2.906  0.2854  0.2059  1.9594
  577SOL     H2 2753   3.027   2.749   2.937  0.0761  0.6822 -0.3450
  577SOL    EPW 2754   3.105   2.715   2.913  0.2198  0.3267  0.6003
  578SOL      O 2755   1.401   3.633   1.730 -0.6136  0.0545  0.0369
  578SOL     H1 2756   1.351   3.700   1.685  0.8585  1.5425  0.5772
  578SOL     H2 2757   1.492   3.663   1.725  0.2054 -2.4098 -0.6199
  578SOL    EPW 2758   1.406   3.643   1.725 -0.3692 -0.0496  0.0244
  579SOL      O 2759   0.795   2.124   2.102  0.6876 -0.6812 -0.1646
  579SOL     H1 2760   0.715   2.109   2.153  0.8963 -1.7860 -0.1452
  579SOL     H2 2761   0.824   2.211   2.129  1.6682 -1.8848  2.8461
  579SOL    EPW 2762   0.789   2.131   2.111  0.8145 -0.9274  0.1586
  580SOL      O 2763   1.132   2.574   2.044  0.4177 -0.1653  0.0453
  580SOL     H1 2764   1.046   2.600   2.009 -0.1458  0.5623  1.9166
  580SOL     H2 2765   1.111   2.521   2.120  1.6416 -0.0354  0.4714
  580SOL    EPW 2766   1.120   2.571   2.048  0.4881 -0.0739  0.2904
  581SOL      O 2767   1.708   0.976   1.176  0.2009  0.0757  0.4104
  581SOL     H1 2768   1.776   0.982   1.244  0.3273  0.2898  0.2678
  581SOL     H2 2769   1.655   0.902   1.202  0.4918 -0.0953  0.5246
  581SOL    EPW 2770   1.710   0.969   1.186  0.2454  0.0803  0.4074
  582SOL      O 2771   5.254   1.121   2.414 -0.3653 -0.1872  0.2302
  582SOL     H1 2772   5.337   1.096   2.455 -0.8485  0.1447  1.4449
  582SOL     H2 2773   5.270   1.116   2.320  1.0481 -0.0530  0.4638
  582SOL    EPW 2774   5.264   1.118   2.408 -0.2660 -0.1375  0.3847
  583SOL      O 2775   2.358   2.529   0.599 -0.2850 -0.6199 -0.1871
  583SOL     H1 2776   2.296   2.509   0.529 -0.7943  0.2929 -0.0012
  583SOL     H2 2777   2.396   2.613   0.574 -0.5113 -0.2613  0.6581
  583SOL    EPW 2778   2.355   2.536   0.589 -0.3635 -0.4842 -0.0771
  584SOL      O 2779   5.160   2.815   1.460 -0.1968 -0.4014  0.4892
  584SOL     H1 2780   5.189   2.905   1.447 -0.9812 -0.1743  0.2884
  584SOL     H2 2781   5.223   2.762   1.410 -0.0760  0.0806  0.1247
  584SOL    EPW 2782   5.170   2.819   1.453 -0.2676 -0.3258  0.4289
  585SOL      O 2783   4.550   1.784   0.493  0.1255 -0.5484  0.0196
  585SOL     H1 2784   4.474   1.769   0.437  0.0802  0.4069 -0.1724
  585SOL     H2 2785   4.605   1.845   0.443 -0.1374  0.6790  1.2077
  585SOL    EPW 2786   4.548   1.789   0.482  0.0926 -0.3156  0.1259
  586SOL      O 2787   0.681   3.016   1.792  1.2515 -0.2723  0.2382
  586SOL     H1 2788   0.698   3.106   1.819  1.9669 -0.5120  0.5941
  586SOL     H2 2789   0.611   3.023   1.727  0.2419  0.4032  1.3680
  586SOL    EPW 2790   0.675   3.026   1.788  1.2201 -0.2258  0.3967
  587SOL      O 2791   0.967   1.755   0.097  0.2825  0.3399  0.6672
  587SOL     H1 2792   0.967   1.674   0.047  0.6248  1.1260 -0.6186
  587SOL     H2 2793   0.921   1.818   0.041 -1.0853  0.7245  2.1709
  587SOL    EPW 2794   0.962   1.753   0.086  0.1731  0.4648  0.6905
  588SOL      O 2795   2.691   3.793   1.955 -0.0185 -0.1927  0.2063
  588SOL     H1 2796   2.647   3.713   1.983  1.0205 -1.4317 -1.6152
  588SOL     H2 2797   2.784   3.770   1.950  0.4325  1.4397  0.7368
  588SOL    EPW 2798   2.696   3.782   1.957  0.1404 -0.1508  0.0685
  589SOL      O 2799   1.371   3.566   0.834  1.0552 -0.1972 -0.4610
  589SOL     H1 2800   1.340   3.644   0.788  0.1094 -0.5317 -0.4109
  589SOL     H2 2801   1.406   3.598   0.917 -0.8461  0.0170  0.2751
  589SOL    EPW 2802   1.371   3.577   0.838  0.7515 -0.2101 -0.3771
  590SOL      O 2803   1.766   3.148   0.688  0.2053 -0.5212 -0.0876
  590SOL     H1 2804   1.679   3.187   0.672  0.5999  0.6032  0.4436
  590SOL     H2 2805   1.771   3.139   0.783  0.5878 -0.7681 -0.1334
  590SOL    EPW 2806   1.757   3.151   0.696  0.2882 -0.4276 -0.0358
  591SOL      O 2807   5.795   3.595   0.202 -0.1351  0.1003 -0.5081
  591SOL     H1 2808   5.754   3.555   0.126 -0.3248 -0.1340 -0.2797
  591SOL     H2 2809   5.736   3.667   0.226 -0.9171 -0.8429  0.4168
  591SOL    EPW 2810   5.784   3.599   0.197 -0.2388 -0.0253 -0.3851
  592SOL      O 2811   4.238   5.496   3.033  0.1008  0.0504 -0.3859
  592SOL     H1 2812   4.235   5.529   3.123 -0.3434 -2.1161  0.4420
  592SOL     H2 2813   4.234   5.574   2.978  0.4213  1.4097  1.4785
  592SOL    EPW 2814   4.237   5.508   3.037  0.0876 -0.0357 -0.0987
  593SOL      O 2815   4.924   4.317   3.731  0.8023  0.0699  0.2441
  593SOL     H1 2816   4.836   4.281   3.719  1.1924 -0.8223 -0.0271
  593SOL     H2 2817   4.979   4.265   3.673  1.4632  0.8219  0.1922
  593SOL    EPW 2818   4.921   4.307   3.724  0.9144  0.0550  0.2096
  594SOL      O 2819   5.341   4.739   0.526  0.0485 -0.1526 -0.4264
  594SOL     H1 2820   5.320   4.687   0.448  1.6555 -1.8476  0.2521
  594SOL     H2 2821   5.275   4.715   0.590 -0.4630  0.2247 -0.8077
  594SOL    EPW 2822   5.332   4.731   0.524  0.1654 -0.2931 -0.3947
  595SOL      O 2823   0.189   2.836   1.118  0.8903  0.2026 -0.5828
  595SOL     H1 2824   0.096   2.857   1.122  0.9155  0.1842  0.3779
  595SOL     H2 2825   0.210   2.834   1.025 -0.2005 -0.3464 -0.8201
  595SOL    EPW 2826   0.181   2.838   1.109  0.7766  0.1421 -0.5056
  596SOL      O 2827   0.839   3.823   2.177 -0.3268 -0.0377  0.4801
  596SOL     H1 2828   0.900   3.866   2.117  0.9539 -1.6235  0.6503
  596SOL     H2 2829   0.753   3.856   2.149  0.3621  0.2843 -1.3537
  596SOL    EPW 2830   0.836   3.831   2.168 -0.1167 -0.1725  0.3026
  597SOL      O 2831   0.828   2.931   0.319 -0.5662  0.2662 -0.0846
  597SOL     H1 2832   0.790   3.018   0.320 -0.6214  0.2356  0.7012
  597SOL     H2 2833   0.906   2.939   0.265 -1.3150  0.4823 -1.1509
  597SOL    EPW 2834   0.832   2.941   0.314 -0.6519  0.2860 -0.1145
  598SOL      O 2835   0.096   3.260   1.452 -0.1615  0.3907  0.3039
  598SOL     H1 2836   0.119   3.167   1.459 -0.4609  0.5115  3.7886
  598SOL     H2 2837   0.177   3.303   1.426  0.9146 -0.4724  2.1290
  598SOL    EPW 2838   0.107   3.255   1.450 -0.0786  0.3115  0.8704
  599SOL      O 2839   0.852   1.446   2.689 -0.2640 -0.4720 -0.3917
  599SOL     H1 2840   0.879   1.504   2.761 -1.8090 -0.2807  0.0495
  599SOL     H2 2841   0.919   1.459   2.622  0.0482  0.9500  0.1687
  599SOL    EPW 2842   0.862   1.454   2.690 -0.3955 -0.2999 -0.2849
  600SOL      O 2843   0.286   2.271   2.050 -0.3132 -0.1793  0.3499
  600SOL     H1 2844   0.228   2.335   2.008 -0.1240 -0.1239  0.1738
  600SOL     H2 2845   0.327   2.224   1.978 -0.6307 -0.6639  0.4837
  600SOL    EPW 2846   0.284   2.273   2.038 -0.3268 -0.2251  0.3454
  601SOL      O 2847   1.613   3.637   2.577 -0.9216  0.5385 -0.4451
  601SOL     H1 2848   1.586   3.625   2.486  0.2389  1.3052 -0.8950
  601SOL     H2 2849   1.682   3.703   2.574 -1.3454  1.0761  1.0701
  601SOL    EPW 2850   1.618   3.643   2.567 -0.8430  0.6776 -0.3315
  602SOL      O 2851   1.213   1.786   2.572  0.4630 -0.0063 -0.1881
  602SOL     H1 2852   1.148   1.758   2.636 -0.5997  0.4553 -1.0522
  602SOL     H2 2853   1.297   1.769   2.615 -0.2326  1.1929  1.7109
  602SOL    EPW 2854   1.215   1.781   2.584  0.2754  0.1709 -0.0777
  603SOL      O 2855   3.018   4.574   3.841 -0.6453 -0.0451 -0.1548
  603SOL     H1 2856   3.032   4.669   3.844  0.1081 -0.1566 -0.1064
  603SOL     H2 2857   3.067   4.545   3.764 -1.3970 -0.3115 -0.5420
  603SOL    EPW 2858   3.024   4.581   3.833 -0.6451 -0.0854 -0.1910
  604SOL      O 2859   0.657   1.981   2.864 -0.9277  0.0593  0.0171
  604SOL     H1 2860   0.703   2.049   2.814 -0.0435 -1.2955 -1.0629
  604SOL     H2 2861   0.721   1.910   2.871 -1.9003 -0.7372  0.9892
  604SOL    EPW 2862   0.669   1.981   2.860 -0.9371 -0.1702  0.0056
  605SOL      O 2863   5.002   4.898   3.138  0.1249  0.3045  0.1826
  605SOL     H1 2864   5.059   4.884   3.062 -0.4147 -1.3262  0.0616
  605SOL     H2 2865   4.947   4.972   3.113 -0.6401 -0.7668 -1.3786
  605SOL    EPW 2866   5.002   4.904   3.127 -0.0143  0.0163  0.0032
  606SOL      O 2867   3.024   2.057   2.625 -0.2775 -0.0229  0.3838
  606SOL     H1 2868   3.107   2.030   2.665  1.1508  0.7415 -1.9785
  606SOL     H2 2869   3.027   2.152   2.626 -1.5102  0.0172  0.9925
  606SOL    EPW 2870   3.034   2.064   2.630 -0.2567  0.0629  0.1968
  607SOL      O 2871   3.867   5.267   4.062  0.3873 -0.4970 -0.2044
  607SOL     H1 2872   3.780   5.276   4.023  0.0055  1.0498  0.9583
  607SOL     H2 2873   3.926   5.255   3.987 -0.6566 -0.1536 -1.0871
  607SOL    EPW 2874   3.864   5.267   4.050  0.2352 -0.2953 -0.1745
  608SOL      O 2875   0.268   0.749   0.490  0.8547 -0.0303  0.1696
  608SOL     H1 2876   0.195   0.778   0.435  0.5718  0.1929  0.6685
  608SOL     H2 2877   0.331   0.712   0.427  0.7077  0.5796 -0.3488
  608SOL    EPW 2878   0.267   0.748   0.477  0.8088  0.0586  0.1676
  609SOL      O 2879   2.691   3.372   1.893  0.0975 -0.0931 -0.0076
  609SOL     H1 2880   2.690   3.286   1.849 -0.2892 -0.0768 -0.0355
  609SOL     H2 2881   2.778   3.408   1.873 -1.2202  1.3268 -3.5667
  609SOL    EPW 2882   2.700   3.367   1.886 -0.0843  0.0601 -0.3902
  610SOL      O 2883   1.258   2.577   1.549 -0.2521 -0.0003  0.1350
  610SOL     H1 2884   1.321   2.532   1.492 -1.4947 -0.5990 -0.7923
  610SOL     H2 2885   1.216   2.506   1.598 -0.6377  0.3326  0.2851
  610SOL    EPW 2886   1.260   2.564   1.548 -0.4258 -0.0287  0.0521
  611SOL      O 2887   0.451   3.580   0.943  0.1636  0.0795 -0.7331
  611SOL     H1 2888   0.483   3.572   1.033  0.8526 -1.3571 -1.0907
  611SOL     H2 2889   0.376   3.520   0.939  0.3429 -0.1177 -1.2012
  611SOL    EPW 2890   0.446   3.573   0.952  0.2562 -0.0948 -0.8211
  612SOL      O 2891   1.128   3.440   1.159 -0.6539 -0.1122 -0.0722
  612SOL     H1 2892   1.070   3.365   1.145 -0.0492 -0.6752  0.4282
  612SOL     H2 2893   1.209   3.416   1.114 -1.1258  1.0829 -1.5886
  612SOL    EPW 2894   1.131   3.429   1.153 -0.6397 -0.0448 -0.1806
  613SOL      O 2895   0.296   2.539   1.330 -0.1527 -0.1275  0.1488
  613SOL     H1 2896   0.389   2.516   1.332 -0.4158 -1.3591 -1.3208
  613SOL     H2 2897   0.277   2.553   1.237 -1.2413  0.9888  0.5240
  613SOL    EPW 2898   0.304   2.538   1.320 -0.2969 -0.1398  0.0321
  614SOL      O 2899   1.858   2.123   0.132 -0.1106  0.3536  0.7877
  614SOL     H1 2900   1.921   2.128   0.060  0.1166 -1.7726  0.8055
  614SOL     H2 2901   1.773   2.123   0.087 -0.0733  1.5756  0.6821
  614SOL    EPW 2902   1.855   2.124   0.119 -0.0824  0.2572  0.7783
  615SOL      O 2903   2.792   5.498   3.853  0.4917 -0.2825  0.2891
  615SOL     H1 2904   2.876   5.453   3.859 -0.2511 -1.6342  0.6561
  615SOL     H2 2905   2.728   5.429   3.835 -0.9531  0.3074  2.8643
  615SOL    EPW 2906   2.794   5.486   3.852  0.2584 -0.3638  0.6030
  616SOL      O 2907   3.419   5.367   3.558  0.0112  0.0082  0.4944
  616SOL     H1 2908   3.424   5.311   3.481 -0.0858 -0.9857  1.1945
  616SOL     H2 2909   3.508   5.369   3.593  0.3690  1.6910 -0.4914
  616SOL    EPW 2910   3.429   5.361   3.554  0.0390  0.0817  0.4639
  617SOL      O 2911   2.576   2.124   1.918  0.2691  0.1285  0.2735
  617SOL     H1 2912   2.554   2.138   1.825  3.5428 -0.0231 -0.5947
  617SOL     H2 2913   2.609   2.209   1.947  1.5415 -0.4752  0.6075
  617SOL    EPW 2914   2.577   2.135   1.911  0.7541  0.0479  0.2166
  618SOL      O 2915   1.173   4.789   1.937  0.0918  0.4170 -0.4189
  618SOL     H1 2916   1.260   4.756   1.915 -0.2336 -0.5905 -0.2111
  618SOL     H2 2917   1.155   4.855   1.869  0.2448 -0.6971 -1.5601
  618SOL    EPW 2918   1.180   4.793   1.927  0.0734  0.1907 -0.5185
  619SOL      O 2919   1.124   2.555   1.322  0.6276  0.1182 -0.2991
  619SOL     H1 2920   1.153   2.470   1.288 -1.0364 -1.3137  1.6310
  619SOL     H2 2921   1.174   2.566   1.403  2.2183  1.9284 -1.4972
  619SOL    EPW 2922   1.132   2.547   1.327  0.6198  0.1586 -0.2210
  620SOL      O 2923   0.485   3.297   2.099  0.0381 -0.1579 -0.6220
  620SOL     H1 2924   0.511   3.389   2.101 -1.1721  0.2414 -1.7962
  620SOL     H2 2925   0.411   3.292   2.160  0.3904 -0.4447 -0.2210
  620SOL    EPW 2926   0.480   3.306   2.105 -0.0534 -0.1459 -0.7045
  621SOL      O 2927   5.797   1.731   1.840  0.5740  0.1402  0.3999
  621SOL     H1 2928   5.724   1.734   1.778  0.6398  0.5301  0.3390
  621SOL     H2 2929   5.809   1.638   1.859  1.8845 -0.1539 -1.7578
  621SOL    EPW 2930   5.790   1.721   1.836  0.7208  0.1505  0.1632
  622SOL      O 2931   1.126   4.232   1.950 -0.2068  0.0472  0.0619
  622SOL     H1 2932   1.137   4.272   2.037  0.6357 -1.5731  0.7184
  622SOL     H2 2933   1.031   4.218   1.943 -0.5170  2.1218 -0.1802
  622SOL    EPW 2934   1.117   4.235   1.959 -0.1500  0.0957  0.1061
  623SOL      O 2935   4.055   4.368   3.882 -0.7855  0.2006  0.0564
  623SOL     H1 2936   4.034   4.277   3.900 -3.1056  0.9621  1.2717
  623SOL     H2 2937   4.115   4.364   3.806 -1.0345 -2.2818 -0.0369
  623SOL    EPW 2938   4.059   4.358   3.876 -1.0596  0.0170  0.1761
  624SOL      O 2939   5.474   2.072   0.312  0.0490 -0.1097  0.4092
  624SOL     H1 2940   5.420   1.999   0.281 -0.7686  0.5435  0.2760
  624SOL     H2 2941   5.411   2.140   0.334  0.7889  0.4089  0.9262
  624SOL    EPW 2942   5.461   2.071   0.311  0.0407  0.0153  0.4501
  625SOL      O 2943   4.083   4.717   4.041 -0.0836  0.0525  0.4641
  625SOL     H1 2944   4.130   4.634   4.037 -0.8705 -0.4386  1.2409
  625SOL     H2 2945   4.053   4.724   4.131 -1.0938  0.5747  0.1016
  625SOL    EPW 2946   4.085   4.709   4.050 -0.2753  0.0558  0.5083
  626SOL      O 2947   5.701   2.784   1.722 -0.0922  0.0857 -0.0128
  626SOL     H1 2948   5.644   2.718   1.762 -0.9962  0.2903 -0.9163
  626SOL     H2 2949   5.655   2.809   1.642  1.0015  0.6901 -0.4634
  626SOL    EPW 2950   5.690   2.780   1.718 -0.0720  0.1720 -0.1573
  627SOL      O 2951   0.821   2.963   1.455  0.3075  0.0187 -0.0103
  627SOL     H1 2952   0.844   2.924   1.371 -0.5260  1.6629 -1.0356
  627SOL     H2 2953   0.868   3.046   1.457 -0.0107  0.1854  0.9650
  627SOL    EPW 2954   0.828   2.968   1.447  0.1847  0.2119 -0.0156
  628SOL      O 2955   5.408   4.330   0.335  0.0643  0.3813 -0.3002
  628SOL     H1 2956   5.488   4.364   0.296  0.9620 -0.3767  0.8321
  628SOL     H2 2957   5.419   4.235   0.334  0.3012  0.3465  2.1073
  628SOL    EPW 2958   5.417   4.324   0.331  0.1854  0.2967  0.0774
  629SOL      O 2959   2.546   3.156   3.218 -0.1316 -0.6350 -0.3465
  629SOL     H1 2960   2.560   3.238   3.264 -0.2798 -0.9892  0.3407
  629SOL     H2 2961   2.632   3.131   3.185  0.1474 -0.8724  0.5710
  629SOL    EPW 2962   2.556   3.162   3.219 -0.1176 -0.6981 -0.1753
  630SOL      O 2963   1.083   3.225   1.966 -0.1338 -0.3886 -0.5310
  630SOL     H1 2964   1.142   3.293   1.935 -0.4359  1.0869  2.0176
  630SOL     H2 2965   1.012   3.223   1.901 -0.5571  2.3442 -0.1780
  630SOL    EPW 2966   1.082   3.232   1.956 -0.2112  0.0604 -0.2215
  631SOL      O 2967   5.010   0.704   3.849 -0.4758  0.0559 -0.1452
  631SOL     H1 2968   4.940   0.734   3.791  0.4484  0.1071 -1.2508
  631SOL     H2 2969   5.081   0.767   3.834  0.5981 -1.2631 -0.6749
  631SOL    EPW 2970   5.010   0.714   3.841 -0.2626 -0.0794 -0.3197
  632SOL      O 2971   1.956   2.456   0.072  0.2421 -0.0498 -0.4173
  632SOL     H1 2972   2.032   2.418   0.027 -0.0635 -0.9184 -0.2018
  632SOL     H2 2973   1.931   2.391   0.137 -2.1461 -0.8584 -2.0593
  632SOL    EPW 2974   1.962   2.445   0.074 -0.0453 -0.2287 -0.5695
  633SOL      O 2975   1.768   4.277   2.607  0.0157  0.4752  0.5134
  633SOL     H1 2976   1.804   4.208   2.551 -0.0387 -0.3217  1.4551
  633SOL     H2 2977   1.822   4.274   2.686  1.3383  2.8597 -0.2314
  633SOL    EPW 2978   1.778   4.269   2.609  0.1510  0.6446  0.5344
  634SOL      O 2979   2.219   2.423   1.544 -0.4360 -0.1817  0.1178
  634SOL     H1 2980   2.211   2.421   1.639 -0.7343  2.0092  0.1630
  634SOL     H2 2981   2.143   2.473   1.514  0.8061  0.9918 -1.1151
  634SOL    EPW 2982   2.210   2.428   1.551 -0.3353  0.1772 -0.0089
  635SOL      O 2983   1.289   1.969   0.591  0.1608 -1.0060 -0.0853
  635SOL     H1 2984   1.246   1.910   0.529  1.2207 -1.0019 -0.8377
  635SOL     H2 2985   1.217   2.020   0.629 -0.6487 -2.0381 -0.2127
  635SOL    EPW 2986   1.277   1.968   0.589  0.1875 -1.1156 -0.1792
  636SOL      O 2987   5.270   1.869   1.397 -0.1383 -0.5688  0.0852
  636SOL     H1 2988   5.353   1.847   1.355  1.2237  0.0988  2.3220
  636SOL     H2 2989   5.246   1.954   1.361  0.2351 -0.6769 -0.4267
  636SOL    EPW 2990   5.276   1.876   1.389  0.0468 -0.5091  0.2692
  637SOL      O 2991   0.827   1.033   1.757 -0.3407 -0.3173  0.2151
  637SOL     H1 2992   0.876   1.094   1.811 -0.8003  1.3490 -1.2089
  637SOL     H2 2993   0.753   1.083   1.725 -1.6448 -2.1032  0.3473
  637SOL    EPW 2994   0.824   1.045   1.759 -0.5288 -0.3301  0.0773
  638SOL      O 2995   5.641   1.853   0.257  0.7206 -0.1000 -0.0063
  638SOL     H1 2996   5.603   1.941   0.267 -0.4841 -0.4103 -1.6462
  638SOL     H2 2997   5.644   1.839   0.162 -0.9179 -2.6174  0.2737
  638SOL    EPW 2998   5.638   1.861   0.248  0.4173 -0.4017 -0.1513
  639SOL      O 2999   0.737   4.945   1.246  0.6766  0.8036 -0.1545
  639SOL     H1 3000   0.764   4.893   1.170  2.1497  3.0293 -1.2139
  639SOL     H2 3001   0.653   4.907   1.272  0.5171 -0.5060 -2.4011
  639SOL    EPW 3002   0.731   4.935   1.241  0.8167  0.9013 -0.5072
  640SOL      O 3003   0.935   1.862   0.332  0.0393 -0.6448  0.5208
  640SOL     H1 3004   1.020   1.842   0.372  0.5577  0.6683  0.0869
  640SOL     H2 3005   0.935   1.815   0.249  1.0784  0.8269 -0.3057
  640SOL    EPW 3006   0.944   1.855   0.328  0.2054 -0.3477  0.3864
  641SOL      O 3007   0.978   4.243   1.622  0.4856 -0.3163 -0.2588
  641SOL     H1 3008   0.961   4.151   1.644 -0.5023  0.4090  2.1192
  641SOL     H2 3009   1.063   4.261   1.662  0.9642 -0.3670 -1.2550
  641SOL    EPW 3010   0.985   4.235   1.629  0.4312 -0.2443 -0.1114
  642SOL      O 3011   0.650   2.316   2.937 -0.5105 -0.1172 -0.0040
  642SOL     H1 3012   0.693   2.240   2.899  1.5088  1.4346 -0.9175
  642SOL     H2 3013   0.654   2.302   3.032  0.9011 -0.5831 -0.1316
  642SOL    EPW 3014   0.655   2.307   2.943 -0.1445 -0.0013 -0.1151
  643SOL      O 3015   3.686   3.076   1.575 -0.6932  0.4491  0.3509
  643SOL     H1 3016   3.726   3.162   1.558  0.7242 -0.2596  0.0778
  643SOL     H2 3017   3.617   3.094   1.639 -0.6572  1.8474  0.0222
  643SOL    EPW 3018   3.683   3.087   1.580 -0.5381  0.5227  0.2867
  644SOL      O 3019   1.291   1.430   2.725  0.3076  0.1110  1.1786
  644SOL     H1 3020   1.223   1.474   2.675  0.5342  0.7816  1.4596
  644SOL     H2 3021   1.292   1.475   2.809  2.2706  1.2709  0.5764
  644SOL    EPW 3022   1.284   1.439   2.728  0.5412  0.3062  1.1443
  645SOL      O 3023   5.437   2.647   0.831 -0.3685 -0.4062 -0.0062
  645SOL     H1 3024   5.408   2.736   0.811  0.1914 -0.3193 -0.4816
  645SOL     H2 3025   5.526   2.658   0.864 -0.7654 -0.6867  1.1686
  645SOL    EPW 3026   5.443   2.657   0.832 -0.3511 -0.4269  0.0684
  646SOL      O 3027   3.406   5.160   3.943  0.5621  0.0851  0.2856
  646SOL     H1 3028   3.397   5.175   4.037  0.3878 -2.4610  0.6998
  646SOL     H2 3029   3.369   5.073   3.929 -0.1383  0.7415 -2.2758
  646SOL    EPW 3030   3.401   5.152   3.951  0.4688 -0.1165  0.0565
  647SOL      O 3031   3.398   2.785   2.614  0.0787  0.8233 -0.2838
  647SOL     H1 3032   3.330   2.719   2.627  0.1873  1.0025  1.2857
  647SOL     H2 3033   3.371   2.858   2.670  1.5625  0.8814  0.3849
  647SOL    EPW 3034   3.388   2.786   2.622  0.2486  0.8486 -0.0450
  648SOL      O 3035   0.339   1.364   1.143 -0.0886  0.5227  0.2864
  648SOL     H1 3036   0.413   1.392   1.197 -0.0278 -0.3026  0.6535
  648SOL     H2 3037   0.277   1.436   1.148 -0.4221  0.1382  2.1309
  648SOL    EPW 3038   0.341   1.374   1.150 -0.1177  0.3936  0.5223
  649SOL      O 3039   0.958   2.584   1.723  0.3314  0.1998 -0.0105
  649SOL     H1 3040   0.870   2.551   1.743  0.3639  0.0413 -0.1240
  649SOL     H2 3041   0.955   2.676   1.747 -0.3729  0.5955 -1.5956
  649SOL    EPW 3042   0.948   2.590   1.728  0.2598  0.2251 -0.1917
  650SOL      O 3043   1.399   3.822   2.077  0.2791  0.2802 -0.3955
  650SOL     H1 3044   1.357   3.736   2.077 -0.6019  0.7102 -1.6238
  650SOL     H2 3045   1.339   3.879   2.125  2.1729 -0.3875  2.9499
  650SOL    EPW 3046   1.388   3.819   2.082  0.3871  0.2549 -0.1697
  651SOL      O 3047   2.028   4.365   2.132 -0.2888  0.6306  0.0561
  651SOL     H1 3048   2.058   4.296   2.191 -1.3684  0.8181  0.8297
  651SOL     H2 3049   2.051   4.333   2.045 -0.5691 -0.6121  0.4205
  651SOL    EPW 3050   2.034   4.354   2.129 -0.4339  0.5180  0.1775
  652SOL      O 3051   4.217   5.763   2.422  0.0270 -0.0491  0.0312
  652SOL     H1 3052   4.166   5.836   2.386 -0.6136  0.2753  1.5793
  652SOL     H2 3053   4.159   5.722   2.485  0.4020 -1.8994 -0.7927
  652SOL    EPW 3054   4.206   5.766   2.425 -0.0013 -0.2119  0.1085
  653SOL      O 3055   5.269   2.672   2.730  0.5471 -0.4837 -0.1444
  653SOL     H1 3056   5.237   2.669   2.640  1.3119 -1.0192 -0.4061
  653SOL     H2 3057   5.347   2.727   2.726  0.1279  0.1406  0.3344
  653SOL    EPW 3058   5.274   2.677   2.720  0.5839 -0.4743 -0.1212
  654SOL      O 3059   2.360   2.128   1.171 -0.0716  0.2333  0.2377
  654SOL     H1 3060   2.321   2.154   1.088  0.6497  0.0868 -0.1482
  654SOL     H2 3061   2.312   2.179   1.237  0.8120  1.9672 -0.4414
  654SOL    EPW 3062   2.351   2.136   1.169  0.0996  0.4027  0.1241
  655SOL      O 3063   0.997   1.206   3.491  0.7586  0.0391 -0.1472
  655SOL     H1 3064   1.028   1.159   3.414  1.9363 -1.1248  1.0103
  655SOL     H2 3065   0.906   1.179   3.502  0.2238  1.0927 -1.7744
  655SOL    EPW 3066   0.991   1.198   3.484  0.8272  0.0273 -0.1973
  656SOL      O 3067   3.729   5.349   3.689  0.3916 -0.1694 -0.0298
  656SOL     H1 3068   3.764   5.311   3.609  0.3935 -0.8414  0.2854
  656SOL     H2 3069   3.781   5.429   3.702 -0.8231  0.9198 -1.6590
  656SOL    EPW 3070   3.739   5.354   3.682  0.2622 -0.1249 -0.1700
  657SOL      O 3071   2.186   3.357   2.686 -0.0332 -0.1235 -0.1825
  657SOL     H1 3072   2.120   3.322   2.626 -0.5310  0.9897 -0.3028
  657SOL     H2 3073   2.240   3.281   2.710 -1.0358 -0.9428 -0.4888
  657SOL    EPW 3074   2.185   3.345   2.682 -0.1933 -0.0921 -0.2280
  658SOL      O 3075   5.166   3.125   1.194 -0.5913 -0.0288 -0.6355
  658SOL     H1 3076   5.179   3.139   1.288  0.8503  2.4506 -1.1727
  658SOL     H2 3077   5.073   3.146   1.180 -0.1130  2.6009 -0.2240
  658SOL    EPW 3078   5.157   3.129   1.203 -0.3865  0.5162 -0.6489
  659SOL      O 3079   0.041   2.839   0.700  0.5178  0.4432 -0.1645
  659SOL     H1 3080   0.117   2.870   0.751 -0.3551 -2.0263  2.8137
  659SOL     H2 3081  -0.035   2.873   0.747 -0.2794 -0.2263 -0.9531
  659SOL    EPW 3082   0.041   2.846   0.711  0.3397  0.1083  0.0691
  660SOL      O 3083   1.588   3.507   1.470  1.1358 -0.0370  0.3617
  660SOL     H1 3084   1.598   3.488   1.564  0.2726 -0.8737  0.2953
  660SOL     H2 3085   1.676   3.526   1.440  1.5139 -0.4156  1.2122
  660SOL    EPW 3086   1.598   3.507   1.477  1.0840 -0.1667  0.4454
  661SOL      O 3087   0.625   0.759   3.787  0.0359 -0.6112  0.0429
  661SOL     H1 3088   0.604   0.694   3.855  0.6877 -0.1328  0.7180
  661SOL     H2 3089   0.701   0.806   3.822  1.2380 -1.2664 -1.6468
  661SOL    EPW 3090   0.630   0.757   3.798  0.2336 -0.6301 -0.0653
  662SOL      O 3091   1.465   3.631   1.097  0.5733 -0.0132  0.7275
  662SOL     H1 3092   1.425   3.700   1.150  0.0706  1.9625 -2.1144
  662SOL     H2 3093   1.552   3.665   1.075  0.6468 -0.6447  0.0122
  662SOL    EPW 3094   1.470   3.642   1.100  0.5275  0.1302  0.3481
  663SOL      O 3095   3.791   4.993   3.815 -0.1268  0.2241 -0.3485
  663SOL     H1 3096   3.864   5.046   3.783  0.3576  0.0283  0.4268
  663SOL     H2 3097   3.729   4.991   3.742  0.3092  1.0101 -0.7450
  663SOL    EPW 3098   3.792   4.999   3.804 -0.0286  0.2871 -0.3081
  664SOL      O 3099   1.339   3.041   2.132  0.0919 -0.0856 -0.2268
  664SOL     H1 3100   1.302   3.011   2.048 -2.4195 -0.3559  0.9394
  664SOL     H2 3101   1.263   3.054   2.188  1.7182  0.7111  1.8334
  664SOL    EPW 3102   1.327   3.039   2.129 -0.0025 -0.0295  0.1174
  665SOL      O 3103   1.926   0.046   1.003  0.2090  0.0159 -0.2693
  665SOL     H1 3104   1.870  -0.007   1.059  1.3878 -0.3205  0.6198
  665SOL     H2 3105   1.876   0.057   0.922 -2.4617  2.3114  1.5698
  665SOL    EPW 3106   1.915   0.042   1.000  0.0498  0.2249  0.0217
  666SOL      O 3107   1.022   2.418   2.846 -0.4993  0.2089  0.8534
  666SOL     H1 3108   1.010   2.448   2.756 -0.2581  0.1307  0.7926
  666SOL     H2 3109   0.934   2.399   2.878 -0.5807  0.1931  0.6166
  666SOL    EPW 3110   1.011   2.419   2.840 -0.4822  0.1988  0.8216
  667SOL      O 3111   0.324   3.936   2.016 -0.9526 -0.2034  0.3967
  667SOL     H1 3112   0.230   3.930   1.997 -0.3861 -1.6369 -2.1752
  667SOL     H2 3113   0.359   3.994   1.949 -0.1130  1.1073  1.9289
  667SOL    EPW 3114   0.318   3.941   2.007 -0.8026 -0.2165  0.2858
  668SOL      O 3115   3.055   2.240   0.867 -0.2243 -0.5006  0.2465
  668SOL     H1 3116   3.027   2.274   0.782 -0.4570 -0.7716  0.2143
  668SOL     H2 3117   3.148   2.262   0.872 -0.4030  0.2765  0.2931
  668SOL    EPW 3118   3.062   2.246   0.858 -0.2682 -0.4466  0.2481
  669SOL      O 3119   2.443   3.488   0.988  0.0188 -0.3388 -0.2903
  669SOL     H1 3120   2.458   3.484   1.082  1.2950 -0.1774 -0.4885
  669SOL     H2 3121   2.426   3.581   0.971 -0.9998 -0.4798 -0.1133
  669SOL    EPW 3122   2.443   3.498   0.996  0.0463 -0.3366 -0.2926
  670SOL      O 3123   3.006   2.171   0.329 -0.0430  0.4003 -0.0715
  670SOL     H1 3124   3.094   2.184   0.364 -0.9449 -0.3927  2.5934
  670SOL     H2 3125   3.004   2.080   0.300 -0.8721 -0.5160  2.6913
  670SOL    EPW 3126   3.015   2.163   0.329 -0.2277  0.2180  0.5075
  671SOL      O 3127   1.396   3.338   1.142 -0.7686 -0.4549 -0.3400
  671SOL     H1 3128   1.457   3.300   1.205  0.7518  1.1148 -0.8468
  671SOL     H2 3129   1.439   3.417   1.111 -2.0336 -0.5639 -2.4693
  671SOL    EPW 3130   1.407   3.342   1.146 -0.7414 -0.2991 -0.6212
  672SOL      O 3131   2.022   3.241   2.117 -0.0579 -0.2060 -0.5619
  672SOL     H1 3132   1.978   3.309   2.168  0.6447 -0.1658 -0.0069
  672SOL     H2 3133   2.115   3.251   2.138 -0.0230 -1.8461  0.1482
  672SOL    EPW 3134   2.027   3.249   2.124  0.0208 -0.3766 -0.4270
  673SOL      O 3135   2.600   3.097   2.010 -0.3533 -0.1705 -0.5703
  673SOL     H1 3136   2.515   3.056   1.997 -0.6283 -0.0846  0.9345
  673SOL     H2 3137   2.662   3.025   2.015 -0.6863 -0.3661  0.9255
  673SOL    EPW 3138   2.597   3.085   2.009 -0.4182 -0.1822 -0.2502
  674SOL      O 3139   2.932   1.097   1.753  0.0554  0.1374  0.3175
  674SOL     H1 3140   2.849   1.119   1.711  1.0325  0.8216 -1.2774
  674SOL     H2 3141   2.962   1.179   1.791  0.0433 -0.1045  0.8618
  674SOL    EPW 3142   2.926   1.108   1.753  0.1583  0.1846  0.2054
  675SOL      O 3143   1.375   1.269   0.162 -0.6577 -0.6214 -0.1978
  675SOL     H1 3144   1.342   1.252   0.074 -0.0630 -1.6166 -0.2398
  675SOL     H2 3145   1.297   1.271   0.217 -1.1199  0.9990 -0.8914
  675SOL    EPW 3146   1.364   1.267   0.159 -0.6436 -0.5547 -0.2763
  676SOL      O 3147   0.803   2.980   2.068  0.5320  0.3063  0.1252
  676SOL     H1 3148   0.829   2.939   1.986 -2.5113 -0.1213 -0.6804
  676SOL     H2 3149   0.707   2.987   2.063  0.3003  0.5901  3.4700
  676SOL    EPW 3150   0.795   2.977   2.059  0.1826  0.2909  0.3961
  677SOL      O 3151   3.046   1.441   2.868 -0.2822  0.0687  0.2118
  677SOL     H1 3152   3.108   1.380   2.829  0.0675  0.8434 -0.4612
  677SOL     H2 3153   2.981   1.386   2.911  0.2683 -0.7631 -0.0289
  677SOL    EPW 3154   3.045   1.429   2.868 -0.1862  0.0626  0.1144
  678SOL      O 3155   5.145   3.414   0.579 -0.0770  0.4542  0.1538
  678SOL     H1 3156   5.119   3.502   0.608 -1.9277  0.0871 -0.3042
  678SOL     H2 3157   5.228   3.397   0.623 -0.6946  1.6498  1.8129
  678SOL    EPW 3158   5.151   3.422   0.587 -0.3403  0.5426  0.2819
  679SOL      O 3159   0.669   3.361   1.236  0.5569 -0.3955 -0.3510
  679SOL     H1 3160   0.607   3.434   1.234  1.6028  0.4763 -1.3399
  679SOL     H2 3161   0.617   3.285   1.210 -0.2430  0.2105 -0.5436
  679SOL    EPW 3162   0.656   3.360   1.233  0.5831 -0.2379 -0.4770
  680SOL      O 3163   0.742   4.377   2.076 -0.2072 -0.0499 -0.2218
  680SOL     H1 3164   0.701   4.318   2.140 -0.3940  1.2021  0.8445
  680SOL     H2 3165   0.828   4.396   2.114  0.0596 -0.0600 -0.8247
  680SOL    EPW 3166   0.747   4.373   2.087 -0.1987  0.0826 -0.1724
  681SOL      O 3167   1.992   4.219   1.489  0.5234 -0.4535 -0.4932
  681SOL     H1 3168   2.083   4.206   1.461  0.3534  0.4313 -1.4710
  681SOL     H2 3169   1.941   4.161   1.432  0.2964  0.4609 -1.2339
  681SOL    EPW 3170   1.996   4.212   1.480  0.4810 -0.2616 -0.6765
  682SOL      O 3171   1.727   5.362   3.232  0.4810 -0.1980  0.1254
  682SOL     H1 3172   1.679   5.283   3.207 -3.1633  1.7908  0.5087
  682SOL     H2 3173   1.729   5.360   3.328  1.1681 -0.2184  0.1192
  682SOL    EPW 3174   1.722   5.353   3.240  0.1655  0.0120  0.1656
  683SOL      O 3175   1.952   3.377   1.889 -0.3173 -0.0770  0.4635
  683SOL     H1 3176   1.858   3.381   1.906 -0.4246  1.7699 -0.4434
  683SOL     H2 3177   1.986   3.322   1.959 -2.0439 -0.5961  0.9306
  683SOL    EPW 3178   1.945   3.372   1.898 -0.5129  0.0647  0.4166
  684SOL      O 3179   4.669   4.390   4.054  0.1118  0.3273  0.0495
  684SOL     H1 3180   4.592   4.363   4.003 -0.2131 -0.1075  0.7661
  684SOL     H2 3181   4.734   4.323   4.036 -0.0341  0.1244  0.2872
  684SOL    EPW 3182   4.668   4.380   4.047  0.0616  0.2592  0.1513
  685SOL      O 3183   5.447   4.072   0.233  0.0121 -0.1603  0.4921
  685SOL     H1 3184   5.429   4.040   0.145 -1.0355  0.4577  0.4780
  685SOL     H2 3185   5.496   4.000   0.275  0.3011 -0.5461 -0.5075
  685SOL    EPW 3186   5.451   4.061   0.228 -0.0688 -0.1355  0.3839
  686SOL      O 3187   0.757   3.779   1.834 -0.0725 -0.1077 -0.2393
  686SOL     H1 3188   0.837   3.727   1.826 -1.1058 -1.3828 -2.5469
  686SOL     H2 3189   0.717   3.748   1.916  1.5411  0.1929  0.6673
  686SOL    EPW 3190   0.761   3.770   1.842 -0.0106 -0.2117 -0.3887
  687SOL      O 3191   4.171   0.647   4.082 -0.1885 -0.0591 -0.3255
  687SOL     H1 3192   4.200   0.566   4.039 -0.2650 -0.7913  0.9607
  687SOL     H2 3193   4.085   0.625   4.118 -0.6146  0.8903 -0.7439
  687SOL    EPW 3194   4.165   0.636   4.081 -0.2421 -0.0359 -0.2329
  688SOL      O 3195   3.577   1.835   3.883 -0.2023 -0.5016 -0.0813
  688SOL     H1 3196   3.634   1.905   3.913  0.1915 -1.4585  1.4874
  688SOL     H2 3197   3.514   1.823   3.954 -0.7900 -1.1550 -0.7057
  688SOL    EPW 3198   3.576   1.841   3.894 -0.2230 -0.6734  0.0194
  689SOL      O 3199   0.967   3.043   0.573 -0.2616  0.0886 -0.1643
  689SOL     H1 3200   1.051   2.999   0.567 -0.1413  0.3878 -0.6887
  689SOL     H2 3201   0.921   3.017   0.493 -1.1111 -0.9895  0.6506
  689SOL    EPW 3202   0.971   3.035   0.564 -0.3394  0.0055 -0.1333
  690SOL      O 3203   5.538   2.929   1.239 -0.2088 -0.1272  0.1521
  690SOL     H1 3204   5.524   2.876   1.318  0.4694 -1.8257 -0.8462
  690SOL     H2 3205   5.455   2.924   1.192 -1.1000  2.0589  1.4000
  690SOL    EPW 3206   5.528   2.922   1.243 -0.2315 -0.0752  0.1788
  691SOL      O 3207   1.472   2.263   0.204 -0.7270 -0.0155 -0.1570
  691SOL     H1 3208   1.382   2.288   0.181 -0.9503 -0.8487 -0.2044
  691SOL     H2 3209   1.463   2.217   0.288 -0.3366 -0.0576 -0.1372
  691SOL    EPW 3210   1.461   2.261   0.211 -0.7092 -0.1089 -0.1599
  692SOL      O 3211   0.033   1.341   2.253 -0.3816  0.6791  0.5152
  692SOL     H1 3212   0.019   1.435   2.239  0.0784  0.4784 -1.5919
  692SOL     H2 3213   0.126   1.334   2.274  0.4065  0.4360 -2.7086
  692SOL    EPW 3214   0.041   1.350   2.253 -0.2484  0.6318 -0.0535
  693SOL      O 3215   5.870   4.221   1.871 -0.0747 -0.4796  0.2202
  693SOL     H1 3216   5.828   4.232   1.956 -0.9005  1.1301 -0.3824
  693SOL     H2 3217   5.807   4.171   1.819 -1.3347  2.0088 -0.7110
  693SOL    EPW 3218   5.859   4.217   1.874 -0.2972 -0.0424  0.0566
  694SOL      O 3219   0.583   2.603   2.032 -0.1674  0.2849  0.2799
  694SOL     H1 3220   0.499   2.632   2.069 -0.4735  0.8696 -0.8336
  694SOL     H2 3221   0.587   2.510   2.052 -1.0485  0.2665  0.4083
  694SOL    EPW 3222   0.574   2.596   2.038 -0.2940  0.3453  0.1748
  695SOL      O 3223   2.398   4.002   2.678 -0.5698  1.1107 -0.1489
  695SOL     H1 3224   2.376   3.911   2.695 -1.1110  1.0909 -0.9287
  695SOL     H2 3225   2.418   4.005   2.585  0.1938  1.6408  0.0270
  695SOL    EPW 3226   2.398   3.993   2.670 -0.5460  1.1652 -0.2133
  696SOL      O 3227   0.860   2.136   0.342 -0.0063  0.1559 -1.0628
  696SOL     H1 3228   0.765   2.145   0.353  0.1437 -0.3266  0.8281
  696SOL     H2 3229   0.873   2.042   0.328  0.2239  0.1799 -0.9985
  696SOL    EPW 3230   0.851   2.127   0.342  0.0343  0.1070 -0.8543
  697SOL      O 3231   0.249   3.906   0.586 -0.0751 -0.2899 -0.4895
  697SOL     H1 3232   0.194   3.922   0.509 -0.9313 -2.4012 -0.3506
  697SOL     H2 3233   0.194   3.932   0.660 -0.0995 -0.3807 -0.4751
  697SOL    EPW 3234   0.237   3.910   0.585 -0.1690 -0.5248 -0.4731
  698SOL      O 3235   5.325   5.712   4.045 -0.5386 -0.5092  0.5450
  698SOL     H1 3236   5.396   5.704   3.981 -1.7891  0.4748 -0.9855
  698SOL     H2 3237   5.309   5.622   4.073  2.1214 -0.6495  1.8482
  698SOL    EPW 3238   5.331   5.701   4.041 -0.3882 -0.4192  0.5208
  699SOL      O 3239   1.154   2.796   1.224  0.1228  0.4118 -0.1830
  699SOL     H1 3240   1.074   2.848   1.234  1.7592  2.9027  0.2969
  699SOL     H2 3241   1.130   2.709   1.257 -1.3709  2.0799  3.3958
  699SOL    EPW 3242   1.143   2.792   1.228  0.1380  0.8555  0.2500
  700SOL      O 3243   3.024   5.213   4.120 -0.1746 -0.4131 -0.1970
  700SOL     H1 3244   2.992   5.143   4.063 -0.1063 -0.8920  0.3522
  700SOL     H2 3245   3.073   5.168   4.188  1.3845  0.3031 -0.8405
  700SOL    EPW 3246   3.025   5.201   4.121 -0.0010 -0.3878 -0.2071
  701SOL      O 3247   0.479   2.786   1.199  0.0439  0.0141 -0.4533
  701SOL     H1 3248   0.384   2.772   1.197  0.1833 -0.9004 -1.1212
  701SOL     H2 3249   0.516   2.698   1.198  0.8905  0.3299  1.9973
  701SOL    EPW 3250   0.472   2.775   1.198  0.1491 -0.0497 -0.2631
  702SOL      O 3251   1.023   2.250   0.152 -0.1683 -0.0039  0.0439
  702SOL     H1 3252   0.967   2.225   0.225  1.4245  0.0457  1.2996
  702SOL     H2 3253   0.963   2.258   0.078 -1.7868 -0.1495  1.3096
  702SOL    EPW 3254   1.010   2.248   0.152 -0.1711 -0.0141  0.3129
  703SOL      O 3255   4.034   5.785   3.756 -0.6702 -0.1031 -0.1224
  703SOL     H1 3256   4.111   5.769   3.702 -0.5501  0.7891 -0.2201
  703SOL     H2 3257   3.974   5.714   3.733 -0.0185 -0.6026 -0.2980
  703SOL    EPW 3258   4.035   5.776   3.747 -0.5879 -0.0612 -0.1516
  704SOL      O 3259   2.061   2.118   1.998  0.0270 -0.3115  0.3887
  704SOL     H1 3260   2.059   2.211   2.020 -0.8952 -0.2434  0.0433
  704SOL     H2 3261   2.099   2.075   2.074  2.0857  0.5355 -0.1287
  704SOL    EPW 3262   2.065   2.123   2.008  0.1483 -0.2139  0.2967
  705SOL      O 3263   2.112   3.802   1.155  0.0352  0.5126 -0.2186
  705SOL     H1 3264   2.091   3.789   1.062  0.5711  0.1963 -0.2989
  705SOL     H2 3265   2.139   3.715   1.185 -1.0847  0.3922  0.4825
  705SOL    EPW 3266   2.113   3.791   1.148 -0.0271  0.4660 -0.1524
  706SOL      O 3267   0.393   4.806   2.096  0.1347  0.3414  0.3164
  706SOL     H1 3268   0.378   4.834   2.006  0.3465 -0.5547 -0.0017
  706SOL     H2 3269   0.484   4.777   2.098 -0.1492 -0.5644  0.5728
  706SOL    EPW 3270   0.401   4.806   2.087  0.1270  0.1492  0.3098
  707SOL      O 3271   2.292   2.201   0.348 -0.0555  0.5522 -0.4694
  707SOL     H1 3272   2.373   2.207   0.398 -0.6893 -0.8750  0.7630
  707SOL     H2 3273   2.259   2.291   0.345 -0.5143  0.5471  2.6042
  707SOL    EPW 3274   2.297   2.212   0.353 -0.1720  0.3994 -0.0101
  708SOL      O 3275   0.422   2.406   2.559 -0.3192  0.4665  0.1950
  708SOL     H1 3276   0.357   2.472   2.585 -0.2366  0.7913 -0.4033
  708SOL     H2 3277   0.425   2.345   2.632 -1.1923  0.5313  0.2950
  708SOL    EPW 3278   0.415   2.407   2.569 -0.4036  0.5081  0.1419
  709SOL      O 3279   0.301   2.072   1.863 -0.4197  0.0341  0.0802
  709SOL     H1 3280   0.345   1.990   1.844 -0.8404  0.4336 -2.8408
  709SOL     H2 3281   0.208   2.048   1.869 -0.4825  0.2011 -0.2124
  709SOL    EPW 3282   0.295   2.061   1.862 -0.4713  0.0946 -0.2626
  710SOL      O 3283   1.472   3.063   1.046 -0.1442 -0.5544  0.4014
  710SOL     H1 3284   1.420   3.018   0.980  2.0499 -0.7200 -1.2837
  710SOL     H2 3285   1.426   3.146   1.061 -0.9053 -0.7108 -1.0121
  710SOL    EPW 3286   1.462   3.067   1.041  0.0087 -0.5888  0.0708
  711SOL      O 3287   2.156   2.126   2.374  0.3572  0.4903  0.1992
  711SOL     H1 3288   2.157   2.032   2.357 -0.3266  0.5097  0.0348
  711SOL     H2 3289   2.234   2.159   2.330 -0.2060  0.2179 -1.0132
  711SOL    EPW 3290   2.164   2.120   2.368  0.2242  0.4633  0.0523
  712SOL      O 3291   5.698   1.534   0.481 -0.5585 -0.5858 -0.1550
  712SOL     H1 3292   5.782   1.560   0.443 -0.5485 -1.7195 -0.9426
  712SOL     H2 3293   5.642   1.611   0.470  0.7251  0.6128  1.5003
  712SOL    EPW 3294   5.701   1.545   0.476 -0.4205 -0.5789 -0.0625
  713SOL      O 3295   5.458   5.180   3.711 -0.0503  0.3671  0.0851
  713SOL     H1 3296   5.456   5.149   3.620 -0.0433 -0.2369  0.2863
  713SOL     H2 3297   5.547   5.213   3.722  0.0593  0.1120 -0.0223
  713SOL    EPW 3298   5.468   5.180   3.702 -0.0378  0.2755  0.0951
  714SOL      O 3299   0.995   3.519   0.649 -0.1126 -0.4940  0.2313
  714SOL     H1 3300   0.928   3.560   0.704  0.1727  0.0364  0.1844
  714SOL     H2 3301   1.049   3.468   0.710  0.6763  0.7176  0.5560
  714SOL    EPW 3302   0.993   3.518   0.661  0.0020 -0.3081  0.2610
  715SOL      O 3303   2.954   2.743   1.694 -0.0274  0.3990 -0.7587
  715SOL     H1 3304   2.937   2.735   1.600  0.8747  1.4193 -1.0234
  715SOL     H2 3305   3.045   2.714   1.704 -0.2458 -0.0760 -0.1366
  715SOL    EPW 3306   2.962   2.739   1.685  0.0455  0.4572 -0.7205
  716SOL      O 3307   5.781   2.011   0.693 -0.0353 -0.1902 -0.4995
  716SOL     H1 3308   5.721   1.939   0.711  0.7774 -0.4601  1.3439
  716SOL     H2 3309   5.782   2.062   0.774  2.5393 -0.4684 -0.2876
  716SOL    EPW 3310   5.775   2.008   0.704  0.3261 -0.2487 -0.2803
  717SOL      O 3311   5.313   2.914   1.110  0.4033  0.0226 -0.1987
  717SOL     H1 3312   5.277   3.002   1.127 -3.4730 -1.5463  0.2243
  717SOL     H2 3313   5.337   2.916   1.017  1.5053  1.8818  0.0913
  717SOL    EPW 3314   5.312   2.924   1.102  0.1074  0.0535 -0.1226
  718SOL      O 3315   2.179   5.301   4.141 -0.7432 -0.1647  0.0671
  718SOL     H1 3316   2.212   5.364   4.205  0.9150  0.2960 -1.1928
  718SOL     H2 3317   2.100   5.265   4.180 -0.4904  1.1000  1.7667
  718SOL    EPW 3318   2.174   5.304   4.152 -0.5394  0.0194  0.1140
  719SOL      O 3319   1.714   1.768   0.563  0.2301  0.0334 -0.0931
  719SOL     H1 3320   1.645   1.760   0.629  1.1259 -2.8974  0.5516
  719SOL     H2 3321   1.671   1.746   0.481  0.0622 -0.3488  0.0981
  719SOL    EPW 3322   1.702   1.765   0.562  0.3077 -0.3200 -0.0039
  720SOL      O 3323   3.293   0.461   4.136 -0.2639  0.3214 -0.6542
  720SOL     H1 3324   3.363   0.512   4.177  1.2982 -1.3057 -1.2617
  720SOL     H2 3325   3.215   0.515   4.147  1.0462  2.0883  0.1877
  720SOL    EPW 3326   3.292   0.472   4.141  0.0425  0.3363 -0.6292
  721SOL      O 3327   1.147   2.402   1.722 -0.3088 -0.1707  0.0000
  721SOL     H1 3328   1.099   2.319   1.714 -0.1225 -0.2141 -0.7393
  721SOL     H2 3329   1.078   2.469   1.724 -0.4021 -0.2103 -1.4250
  721SOL    EPW 3330   1.134   2.401   1.721 -0.2989 -0.1796 -0.2308
  722SOL      O 3331   0.314   2.607   3.256  0.2128 -0.0792  0.3828
  722SOL     H1 3332   0.357   2.653   3.185  0.4672 -1.5272 -0.4147
  722SOL     H2 3333   0.260   2.674   3.299  0.4542  0.9091 -0.8425
  722SOL    EPW 3334   0.312   2.619   3.253  0.2657 -0.1283  0.1670
  723SOL      O 3335   0.064   1.610   0.369 -0.0763  0.5559 -0.2966
  723SOL     H1 3336   0.061   1.537   0.306  0.1071  1.1718 -1.0228
  723SOL     H2 3337   0.107   1.681   0.321 -0.1661  1.1128  0.4454
  723SOL    EPW 3338   0.069   1.610   0.357 -0.0663  0.6810 -0.2950
  724SOL      O 3339   1.125   1.535   1.536 -0.2462 -0.7479 -0.2926
  724SOL     H1 3340   1.162   1.527   1.449  0.6918 -0.5140  0.0841
  724SOL     H2 3341   1.182   1.482   1.592  0.1620  0.4757  0.4687
  724SOL    EPW 3342   1.135   1.529   1.533 -0.1026 -0.5924 -0.1712
  725SOL      O 3343   3.875   5.520   4.135  0.2456  0.2503 -0.9368
  725SOL     H1 3344   3.876   5.431   4.100 -1.3123  0.2370 -0.9786
  725SOL     H2 3345   3.803   5.520   4.198  0.6109  1.3190 -0.5160
  725SOL    EPW 3346   3.867   5.510   4.138  0.1184  0.3629 -0.8964
  726SOL      O 3347   2.566   1.732   0.962  0.4262 -0.2247  0.2180
  726SOL     H1 3348   2.504   1.737   0.889 -0.4121  0.0777  0.9373
  726SOL     H2 3349   2.523   1.780   1.033  1.7047  0.4113  0.5800
  726SOL    EPW 3350   2.555   1.738   0.962  0.4732 -0.1246  0.3334
  727SOL      O 3351   1.706   2.400   0.199 -0.4192 -0.6638 -0.2185
  727SOL     H1 3352   1.687   2.462   0.270 -0.1636  0.5683 -1.2229
  727SOL     H2 3353   1.627   2.346   0.194 -1.4454  0.8234 -0.6098
  727SOL    EPW 3354   1.696   2.401   0.206 -0.5014 -0.3737 -0.3674
  728SOL      O 3355   0.359   3.613   1.889 -0.6413  0.0682  0.3227
  728SOL     H1 3356   0.291   3.653   1.943 -2.1846  0.1038 -1.5735
  728SOL     H2 3357   0.340   3.520   1.892 -0.0676 -0.0371  0.7232
  728SOL    EPW 3358   0.350   3.608   1.895 -0.7447  0.0608  0.1632
  729SOL      O 3359   1.363   4.653   1.237  0.6279 -0.3273  0.1764
  729SOL     H1 3360   1.368   4.658   1.333 -2.3005 -0.2103  0.3633
  729SOL     H2 3361   1.289   4.594   1.220  0.7067  0.1743 -2.0231
  729SOL    EPW 3362   1.356   4.647   1.245  0.3239 -0.2613 -0.0383
  730SOL      O 3363   1.329   3.387   0.505 -0.5869 -0.4008  0.4176
  730SOL     H1 3364   1.386   3.372   0.430  0.2426 -3.5144  1.5748
  730SOL     H2 3365   1.285   3.470   0.486  3.0620  1.2596 -1.2675
  730SOL    EPW 3366   1.330   3.394   0.495 -0.1092 -0.5558  0.3613
  731SOL      O 3367   1.030   2.868   0.156 -0.1230  0.1110 -0.1763
  731SOL     H1 3368   1.061   2.779   0.141 -0.7034  0.0342 -0.9465
  731SOL     H2 3369   0.993   2.895   0.072 -1.9986  0.2366  0.6596
  731SOL    EPW 3370   1.029   2.861   0.146 -0.3850  0.1162 -0.1693
  732SOL      O 3371   1.544   3.693   2.266 -0.0143  0.1528  0.1319
  732SOL     H1 3372   1.506   3.743   2.194  2.0374  0.9553 -0.4107
  732SOL     H2 3373   1.612   3.639   2.226  1.7062  1.2054  1.5337
  732SOL    EPW 3374   1.547   3.693   2.254  0.3881  0.3507  0.2235
  733SOL      O 3375   1.667   1.040   0.902 -0.1021 -0.2936  0.6754
  733SOL     H1 3376   1.689   1.041   0.995 -0.0944 -1.4124  0.6899
  733SOL     H2 3377   1.673   0.948   0.877 -0.2166 -0.0110 -0.4057
  733SOL    EPW 3378   1.670   1.030   0.909 -0.1135 -0.3828  0.5616
  734SOL      O 3379   0.220   2.551   1.050  0.6357  0.2805  0.6688
  734SOL     H1 3380   0.273   2.554   0.971  2.9047  1.6689  2.1864
  734SOL     H2 3381   0.145   2.608   1.031 -0.0171 -1.1804 -1.2533
  734SOL    EPW 3382   0.218   2.557   1.040  0.8081  0.2728  0.6257
  735SOL      O 3383   1.608   1.698   1.231 -0.3024  0.5470 -0.3058
  735SOL     H1 3384   1.535   1.744   1.191  0.5618  0.8431 -1.5829
  735SOL     H2 3385   1.591   1.606   1.213  0.6105  0.7363 -2.3469
  735SOL    EPW 3386   1.599   1.693   1.225 -0.1128  0.5988 -0.6597
  736SOL      O 3387   1.547   3.252   1.352  0.2683  0.2476 -0.5928
  736SOL     H1 3388   1.623   3.267   1.296  1.1661 -0.0541  0.5286
  736SOL     H2 3389   1.528   3.337   1.391  0.7576  0.0770  0.0257
  736SOL    EPW 3390   1.553   3.263   1.351  0.4162  0.1972 -0.4072
  737SOL      O 3391   5.637   4.301   0.810 -0.4432  0.1974 -0.3479
  737SOL     H1 3392   5.617   4.395   0.811  1.2537  0.5751 -0.5865
  737SOL     H2 3393   5.656   4.281   0.718 -0.3001 -0.2771 -0.2180
  737SOL    EPW 3394   5.637   4.309   0.800 -0.2469  0.1871 -0.3595
  738SOL      O 3395   2.458   1.172   0.750  0.5168  0.1396  0.2169
  738SOL     H1 3396   2.371   1.134   0.749 -0.1827  1.7215  0.4892
  738SOL     H2 3397   2.514   1.104   0.711 -0.7782 -0.9654  0.2557
  738SOL    EPW 3398   2.455   1.160   0.746  0.3040  0.1905  0.2501
  739SOL      O 3399   4.889   1.994   1.340  0.0501  0.7225 -0.5533
  739SOL     H1 3400   4.925   2.071   1.295  1.7832  1.4512  1.9470
  739SOL     H2 3401   4.840   2.031   1.413  0.5664 -0.5335  0.4421
  739SOL    EPW 3402   4.888   2.006   1.343  0.2900  0.6662 -0.1804
  740SOL      O 3403   2.021   2.075   0.339  0.6404  0.1069  0.6722
  740SOL     H1 3404   1.960   2.121   0.281  0.2659 -2.1821 -0.8255
  740SOL     H2 3405   1.967   2.045   0.412  0.7286  1.2260  1.2242
  740SOL    EPW 3406   2.009   2.077   0.341  0.6099 -0.0179  0.5713
  741SOL      O 3407   5.787   4.140   2.129 -0.0348 -0.6537  0.4862
  741SOL     H1 3408   5.769   4.111   2.218  1.8556 -1.0331  0.7692
  741SOL     H2 3409   5.849   4.075   2.095 -0.0175  0.0107 -0.7780
  741SOL    EPW 3410   5.792   4.130   2.135  0.1687 -0.6233  0.3815
  742SOL      O 3411   3.442   5.662   3.103 -0.1753  0.3035 -0.5572
  742SOL     H1 3412   3.451   5.661   3.008 -2.3133  0.5938 -0.7917
  742SOL     H2 3413   3.348   5.668   3.118  0.1400  0.3519  1.5860
  742SOL    EPW 3414   3.433   5.662   3.095 -0.3697  0.3396 -0.3536
  743SOL      O 3415   2.742   2.386   3.352  0.5415 -0.0309  0.0220
  743SOL     H1 3416   2.791   2.320   3.302  1.3492  0.4828  0.1237
  743SOL     H2 3417   2.803   2.413   3.421  0.4445  1.2664 -0.3906
  743SOL    EPW 3418   2.754   2.382   3.354  0.6173  0.1623 -0.0112
  744SOL      O 3419   5.415   0.884   0.536 -0.1381  0.0947  0.4624
  744SOL     H1 3420   5.476   0.857   0.467 -2.3381 -1.0128 -1.1333
  744SOL     H2 3421   5.403   0.806   0.589  0.2815  0.4856  1.1380
  744SOL    EPW 3422   5.420   0.873   0.534 -0.3280  0.0183  0.3643
  745SOL      O 3423   4.393   3.092   1.789 -0.4698  0.3834 -0.7766
  745SOL     H1 3424   4.436   3.113   1.872 -4.4039  1.3527  1.1382
  745SOL     H2 3425   4.401   2.997   1.781 -0.2071  0.2573  0.7978
  745SOL    EPW 3426   4.399   3.084   1.797 -0.8615  0.4733 -0.4044
  746SOL      O 3427   1.404   4.279   1.486 -0.2318  0.2815  0.3445
  746SOL     H1 3428   1.359   4.253   1.567 -1.9624  0.8631 -0.4103
  746SOL     H2 3429   1.355   4.236   1.416 -0.9221  2.5984 -0.6454
  746SOL    EPW 3430   1.394   4.272   1.487 -0.4900  0.5907  0.1583
  747SOL      O 3431   2.724   3.433   1.537 -0.2223 -0.8596 -0.0458
  747SOL     H1 3432   2.818   3.418   1.543 -0.1164 -0.7797 -1.4196
  747SOL     H2 3433   2.687   3.348   1.515 -0.4043 -0.7481 -0.1699
  747SOL    EPW 3434   2.730   3.423   1.535 -0.2304 -0.8392 -0.2056
  748SOL      O 3435   1.884   2.691   0.744 -0.6827  0.0108  0.5927
  748SOL     H1 3436   1.887   2.640   0.824 -0.8160  0.8264  1.1246
  748SOL     H2 3437   1.883   2.626   0.674 -1.2261 -0.7236  1.2691
  748SOL    EPW 3438   1.884   2.679   0.745 -0.7549  0.0195  0.7216
  749SOL      O 3439   1.572   2.771   1.434  0.0823  0.2586 -0.2492
  749SOL     H1 3440   1.637   2.782   1.365 -0.3101  0.5291 -0.5785
  749SOL     H2 3441   1.498   2.825   1.406 -0.4329 -0.3504 -0.0732
  749SOL    EPW 3442   1.571   2.778   1.423 -0.0145  0.2225 -0.2655
  750SOL      O 3443   4.600   2.219   0.639  0.4157  0.2186 -0.1563
  750SOL     H1 3444   4.640   2.141   0.678  1.6633  1.0809  0.3316
  750SOL     H2 3445   4.506   2.202   0.644  0.6119 -0.5667  1.4214
  750SOL    EPW 3446   4.594   2.209   0.644  0.5697  0.2268  0.0640
  751SOL      O 3447   4.830   5.024   0.561 -0.1072 -0.3322  0.2161
  751SOL     H1 3448   4.883   5.047   0.637  0.5138 -2.3837  0.4266
  751SOL     H2 3449   4.767   4.961   0.594  0.8797 -2.0947 -1.1730
  751SOL    EPW 3450   4.829   5.020   0.573  0.0643 -0.7391  0.0904
  752SOL      O 3451   1.747   2.328   1.106  0.3077 -0.3712 -0.1518
  752SOL     H1 3452   1.668   2.291   1.067 -0.0486  0.3746 -0.1437
  752SOL     H2 3453   1.726   2.342   1.198 -0.4246  2.1600 -0.6580
  752SOL    EPW 3454   1.737   2.326   1.111  0.1916 -0.0217 -0.2049
  753SOL      O 3455   1.182   3.550   2.705  0.9060  0.0834  0.0191
  753SOL     H1 3456   1.205   3.567   2.613  0.1036  3.1967  0.3514
  753SOL     H2 3457   1.250   3.594   2.756 -0.2608  0.8819  0.9186
  753SOL    EPW 3458   1.192   3.556   2.700  0.6959  0.5007  0.1505
  754SOL      O 3459   1.534   2.877   3.865  0.1059 -0.3249  0.5099
  754SOL     H1 3460   1.587   2.903   3.940  0.5431 -0.8847  0.3924
  754SOL     H2 3461   1.538   2.782   3.864  0.3437 -0.3113 -0.3973
  754SOL    EPW 3462   1.540   2.870   3.873  0.1779 -0.3832  0.4006
  755SOL      O 3463   1.467   2.606   3.597 -0.3400 -0.3721 -0.0897
  755SOL     H1 3464   1.526   2.658   3.544  0.7505  0.2261  1.6542
  755SOL     H2 3465   1.469   2.519   3.558  2.6409 -0.6734  0.6204
  755SOL    EPW 3466   1.474   2.602   3.588  0.0944 -0.3405  0.1721
  756SOL      O 3467   3.516   5.723   0.038 -0.0231 -0.1158 -0.4684
  756SOL     H1 3468   3.528   5.648  -0.021  1.0407 -0.0481 -0.3495
  756SOL     H2 3469   3.603   5.737   0.075 -0.4605  0.5198  0.3047
  756SOL    EPW 3470   3.527   5.716   0.035  0.0437 -0.0408 -0.3733
  757SOL      O 3471   0.488   1.941   4.084 -0.0565 -0.5714  0.0999
  757SOL     H1 3472   0.517   1.953   3.994  0.0870 -0.5545  0.1468
  757SOL     H2 3473   0.420   1.874   4.079  0.0057 -0.6259 -0.0115
  757SOL    EPW 3474   0.484   1.935   4.074 -0.0346 -0.5754  0.0930
  758SOL      O 3475   1.169   3.973   2.669  0.5394  0.0181  0.4926
  758SOL     H1 3476   1.228   3.925   2.611  0.8834 -0.7962  1.4839
  758SOL     H2 3477   1.225   4.034   2.716 -0.0353  2.0780 -1.4170
  758SOL    EPW 3478   1.181   3.974   2.668  0.5148  0.1510  0.3946
  759SOL      O 3479   5.505   3.791   3.333  0.1431 -0.2975  0.8213
  759SOL     H1 3480   5.591   3.749   3.339  0.3901  0.1739  0.6703
  759SOL     H2 3481   5.524   3.876   3.292 -0.6422 -0.9176 -0.8397
  759SOL    EPW 3482   5.516   3.796   3.330  0.0857 -0.3134  0.6280
  760SOL      O 3483   2.453   2.330   3.379  0.1765 -0.4236  0.3128
  760SOL     H1 3484   2.461   2.245   3.422  3.2596 -0.4766 -0.2634
  760SOL     H2 3485   2.530   2.379   3.410 -0.7985  1.6513 -0.4763
  760SOL    EPW 3486   2.462   2.327   3.387  0.4014 -0.2079  0.1672
  761SOL      O 3487   2.238   4.551   3.551  0.2675 -0.0536 -0.1608
  761SOL     H1 3488   2.262   4.635   3.588 -1.4010  1.2429 -1.9377
  761SOL     H2 3489   2.322   4.508   3.531  1.1211  1.5326 -0.0171
  761SOL    EPW 3490   2.249   4.555   3.552  0.1805  0.2539 -0.3350
  762SOL      O 3491   3.138   0.094   0.155 -0.1158  0.0358 -0.1103
  762SOL     H1 3492   3.090   0.040   0.218 -0.3958  0.8327  0.3700
  762SOL     H2 3493   3.070   0.137   0.103  0.1280 -1.5779 -1.7900
  762SOL    EPW 3494   3.126   0.093   0.156 -0.1196 -0.0513 -0.2382
  763SOL      O 3495   0.426   2.889   3.573 -0.4403  0.3399 -0.1693
  763SOL     H1 3496   0.402   2.925   3.659 -0.9440 -0.2598 -0.0610
  763SOL     H2 3497   0.508   2.934   3.551 -0.2555  0.4239  0.6703
  763SOL    EPW 3498   0.432   2.898   3.580 -0.4743  0.2849 -0.0682
  764SOL      O 3499   2.080   2.438   1.203  0.0234 -0.3481 -0.1538
  764SOL     H1 3500   2.164   2.471   1.170  1.8756 -3.3239  1.3152
  764SOL     H2 3501   2.074   2.473   1.292  0.2450 -1.0077  0.1228
  764SOL    EPW 3502   2.088   2.445   1.209  0.2446 -0.7359  0.0325
  765SOL      O 3503   5.127   3.445   4.072  0.3037  0.2537  0.0531
  765SOL     H1 3504   5.090   3.462   3.985  1.9084  0.4503 -0.6025
  765SOL     H2 3505   5.055   3.462   4.132 -0.4706  1.3252 -1.1606
  765SOL    EPW 3506   5.115   3.449   4.069  0.3923  0.3889 -0.1463
  766SOL      O 3507   0.871   1.602   3.229 -0.1070  0.1410  0.6309
  766SOL     H1 3508   0.966   1.591   3.219 -0.1293  0.1608  0.3929
  766SOL     H2 3509   0.861   1.688   3.269  0.0006 -0.0954  1.1771
  766SOL    EPW 3510   0.880   1.610   3.232 -0.0979  0.1179  0.6637
  767SOL      O 3511   4.284   1.214   0.916  0.4026 -0.2797 -0.3954
  767SOL     H1 3512   4.246   1.185   0.999 -2.5274 -0.9756 -1.9372
  767SOL     H2 3513   4.374   1.180   0.918 -0.1058 -1.6118  1.7910
  767SOL    EPW 3514   4.290   1.207   0.925  0.0358 -0.4960 -0.3266
  768SOL      O 3515   0.820   1.854   3.356  0.2449 -0.1228 -0.1714
  768SOL     H1 3516   0.848   1.917   3.289  0.1211  1.6822  1.4211
  768SOL     H2 3517   0.891   1.852   3.419 -1.2065  1.0408  1.5524
  768SOL    EPW 3518   0.831   1.861   3.355  0.0768  0.1939  0.1824
  769SOL      O 3519   3.116   1.279   4.024 -0.4698 -0.4186  0.3585
  769SOL     H1 3520   3.117   1.349   4.089  2.5217  0.1719 -0.2443
  769SOL     H2 3521   3.089   1.322   3.943  4.5127  0.8797 -0.7662
  769SOL    EPW 3522   3.113   1.291   4.022  0.3809 -0.2171  0.1742
  770SOL      O 3523   0.530   0.909   3.188 -0.2361  0.1092  0.1225
  770SOL     H1 3524   0.480   0.989   3.169  1.7770  1.8366  1.7524
  770SOL     H2 3525   0.482   0.868   3.261 -0.5963  0.4996  0.1065
  770SOL    EPW 3526   0.519   0.913   3.194 -0.0598  0.3351  0.2946
  771SOL      O 3527   5.797   2.905   2.519  0.1339  0.1906  0.3519
  771SOL     H1 3528   5.716   2.956   2.519  0.9598  1.5210 -0.7317
  771SOL     H2 3529   5.802   2.866   2.432 -0.2203 -1.3550  0.9948
  771SOL    EPW 3530   5.789   2.906   2.510  0.1842  0.1677  0.3049
  772SOL      O 3531   1.716   3.015   2.668 -0.4800  0.3668 -0.0690
  772SOL     H1 3532   1.675   2.966   2.739 -0.9458  0.4449 -0.2797
  772SOL     H2 3533   1.665   3.096   2.662 -0.5015  0.3218 -0.5462
  772SOL    EPW 3534   1.706   3.019   2.675 -0.5320  0.3703 -0.1424
  773SOL      O 3535   2.342   0.243   1.233  0.4639  0.8920  0.0611
  773SOL     H1 3536   2.346   0.178   1.303 -2.4778  0.2287 -0.3516
  773SOL     H2 3537   2.344   0.327   1.279 -0.4305  0.4679  0.8833
  773SOL    EPW 3538   2.343   0.245   1.245  0.0547  0.7760  0.1048
  774SOL      O 3539   1.302   4.169   2.806 -0.1371  0.2215 -0.0559
  774SOL     H1 3540   1.390   4.144   2.835 -0.3646 -1.8991 -1.1477
  774SOL     H2 3541   1.250   4.170   2.887  0.4972 -0.1803  0.3623
  774SOL    EPW 3542   1.306   4.167   2.818 -0.0937 -0.0476 -0.1277
  775SOL      O 3543   2.498   3.456   2.946 -0.2858 -0.0501 -0.9143
  775SOL     H1 3544   2.589   3.486   2.939 -0.4562  0.8895  0.6673
  775SOL     H2 3545   2.446   3.533   2.926 -0.7291 -0.0737  0.1162
  775SOL    EPW 3546   2.502   3.467   2.943 -0.3513  0.0476 -0.6357
  776SOL      O 3547   0.721   3.398   3.845  0.1275 -0.0060  0.0503
  776SOL     H1 3548   0.714   3.349   3.764 -2.5486  0.0603  0.1930
  776SOL     H2 3549   0.785   3.349   3.897  1.5581 -0.2728 -1.8856
  776SOL    EPW 3550   0.727   3.388   3.842 -0.0053 -0.0274 -0.1410
  777SOL      O 3551   1.654   3.648   3.606 -0.2808  0.0936  0.2145
  777SOL     H1 3552   1.698   3.628   3.689  0.4141 -1.2327 -0.4471
  777SOL     H2 3553   1.679   3.576   3.549 -2.5744 -0.1776 -0.4820
  777SOL    EPW 3554   1.662   3.638   3.609 -0.4513 -0.0769  0.0696
  778SOL      O 3555   5.358   1.200   3.561 -0.9229  0.0543  0.2684
  778SOL     H1 3556   5.340   1.287   3.525  0.0708  0.4952  0.7809
  778SOL     H2 3557   5.448   1.207   3.594 -0.9682 -1.0620  0.6470
  778SOL    EPW 3558   5.366   1.210   3.561 -0.8217 -0.0178  0.3634
  779SOL      O 3559   2.614   3.639   2.617 -0.4542  0.2218  0.0548
  779SOL     H1 3560   2.656   3.649   2.531 -1.1718  1.4204 -0.1668
  779SOL     H2 3561   2.638   3.550   2.645  1.0613  0.3847 -0.6846
  779SOL    EPW 3562   2.621   3.630   2.611 -0.3691  0.3671 -0.0477
  780SOL      O 3563   5.700   2.284   2.518 -0.1145  0.4388  0.0912
  780SOL     H1 3564   5.715   2.322   2.605  0.3233 -0.1803  0.2965
  780SOL     H2 3565   5.606   2.267   2.516  0.2044 -1.8761  1.4659
  780SOL    EPW 3566   5.691   2.286   2.527 -0.0338  0.1258  0.2597
  781SOL      O 3567   1.353   3.682   1.399  0.4197  0.0759 -0.0664
  781SOL     H1 3568   1.280   3.638   1.442 -0.6031  2.4013  0.5997
  781SOL     H2 3569   1.423   3.617   1.400 -0.3926 -0.8163  2.7896
  781SOL    EPW 3570   1.353   3.670   1.403  0.2239  0.2288  0.3093
  782SOL      O 3571   4.516   0.987   3.454  0.7111  0.2428 -1.0071
  782SOL     H1 3572   4.443   1.043   3.427 -0.7809 -0.9668  0.3990
  782SOL     H2 3573   4.547   1.026   3.536 -0.4748 -1.0441  0.0928
  782SOL    EPW 3574   4.511   0.997   3.460  0.4254 -0.0235 -0.7398
  783SOL      O 3575   5.654   4.896   0.991 -0.1754  0.3261  0.1012
  783SOL     H1 3576   5.729   4.837   0.990  0.4944  1.1741  0.1086
  783SOL     H2 3577   5.652   4.933   0.903  1.0187  2.3065  0.8782
  783SOL    EPW 3578   5.662   4.893   0.981  0.0234  0.6278  0.1849
  784SOL      O 3579   2.974   4.255   0.236  0.5079 -0.9658  0.2793
  784SOL     H1 3580   3.000   4.333   0.285  0.2797 -0.2466 -0.7256
  784SOL     H2 3581   3.056   4.223   0.197  0.3076 -0.1248 -0.8600
  784SOL    EPW 3582   2.986   4.260   0.237  0.4622 -0.7994  0.0506
  785SOL      O 3583   5.480   3.485   1.110 -0.0869  0.1679  0.3803
  785SOL     H1 3584   5.538   3.420   1.149  0.8494  0.1598 -0.9873
  785SOL     H2 3585   5.392   3.453   1.129  0.3563 -0.2494  1.7641
  785SOL    EPW 3586   5.476   3.475   1.116  0.0603  0.1226  0.3820
  786SOL      O 3587   1.626   1.939   2.374 -0.3441 -0.0175  0.1073
  786SOL     H1 3588   1.576   1.859   2.387 -0.8319  0.5868  2.1415
  786SOL     H2 3589   1.594   1.974   2.291 -0.8795 -1.3631 -0.2724
  786SOL    EPW 3590   1.617   1.934   2.367 -0.4533 -0.0966  0.2838
  787SOL      O 3591   2.341   2.652   2.587  0.6604 -0.3581  0.6608
  787SOL     H1 3592   2.394   2.689   2.517  1.0758  0.6925  1.5176
  787SOL     H2 3593   2.297   2.577   2.547  0.4664  0.5476 -0.8697
  787SOL    EPW 3594   2.342   2.648   2.576  0.6840 -0.1494  0.5889
  788SOL      O 3595   2.038   2.408   2.007 -0.1315  0.2671 -0.2859
  788SOL     H1 3596   2.063   2.457   2.085  0.0365  0.1782 -0.2823
  788SOL     H2 3597   1.978   2.466   1.960  1.4312  1.2108 -1.1765
  788SOL    EPW 3598   2.034   2.419   2.011  0.0531  0.3583 -0.3805
  789SOL      O 3599   1.679   0.898   3.021 -0.0207  0.4812 -0.5695
  789SOL     H1 3600   1.617   0.862   2.958 -0.3894 -0.3515  0.2482
  789SOL     H2 3601   1.752   0.930   2.968  0.5539 -1.9394 -1.2873
  789SOL    EPW 3602   1.680   0.898   3.009  0.0013  0.1342 -0.5588
  790SOL      O 3603   5.523   2.746   3.522  0.0260 -0.4832  0.2289
  790SOL     H1 3604   5.602   2.697   3.548 -1.2477 -3.0099 -0.5456
  790SOL     H2 3605   5.510   2.723   3.430 -1.0407  0.7707  0.0571
  790SOL    EPW 3606   5.530   2.739   3.515 -0.2236 -0.6190  0.1280
  791SOL      O 3607   4.548   3.824   0.306 -0.2031  0.0020  0.1417
  791SOL     H1 3608   4.526   3.818   0.399 -1.5820  1.1783 -0.0910
  791SOL     H2 3609   4.542   3.734   0.275 -0.2136 -0.3340  1.0927
  791SOL    EPW 3610   4.545   3.814   0.313 -0.3513  0.0916  0.2183
  792SOL      O 3611   0.541   2.652   3.615 -0.2510  0.0263  0.1831
  792SOL     H1 3612   0.467   2.636   3.673  0.8551  2.4131  2.3527
  792SOL     H2 3613   0.519   2.733   3.569 -0.1637 -0.7134 -1.2120
  792SOL    EPW 3614   0.531   2.659   3.616 -0.1237  0.2020  0.2657
  793SOL      O 3615   1.627   2.306   1.365  0.7123  0.1579  0.2274
  793SOL     H1 3616   1.565   2.375   1.342  2.2700  1.2970 -0.5978
  793SOL     H2 3617   1.677   2.342   1.438  0.1554 -0.9255  1.1685
  793SOL    EPW 3618   1.626   2.317   1.370  0.8191  0.1639  0.2398
  794SOL      O 3619   3.201   3.295   3.255 -0.1923 -0.7424  0.6740
  794SOL     H1 3620   3.135   3.363   3.268 -1.4254 -1.8215  0.1653
  794SOL     H2 3621   3.224   3.267   3.344 -0.5798 -0.5063  0.8518
  794SOL    EPW 3622   3.196   3.299   3.266 -0.3652 -0.8323  0.6387
  795SOL      O 3623   1.844   2.596   1.961 -1.0450 -0.0532  0.5399
  795SOL     H1 3624   1.818   2.595   2.053  0.5863  0.6796  1.0472
  795SOL     H2 3625   1.762   2.604   1.912 -1.8274  1.0624  1.9940
  795SOL    EPW 3626   1.833   2.597   1.966 -0.9545  0.1440  0.7491
  796SOL      O 3627   0.900   2.859   1.801 -0.4120 -0.1508 -0.1262
  796SOL     H1 3628   0.962   2.920   1.762  0.3237  0.3674  1.8206
  796SOL     H2 3629   0.814   2.899   1.786  0.0072  0.9743  0.4144
  796SOL    EPW 3630   0.898   2.870   1.795 -0.2888  0.0245  0.1391
  797SOL      O 3631   5.214   4.187   0.992 -0.4318  0.2460 -0.0907
  797SOL     H1 3632   5.216   4.107   1.046  0.3876 -0.2153 -0.7955
  797SOL     H2 3633   5.127   4.224   1.008 -0.1744  0.1532  1.6153
  797SOL    EPW 3634   5.205   4.182   1.000 -0.3169  0.1869  0.0161
  798SOL      O 3635   1.111   2.176   3.021 -0.6174 -0.5454  0.6707
  798SOL     H1 3636   1.126   2.268   3.042 -3.1004 -0.0631  0.3713
  798SOL     H2 3637   1.164   2.129   3.085  0.6904  1.0729  0.8124
  798SOL    EPW 3638   1.119   2.181   3.030 -0.7428 -0.3213  0.6539
  799SOL      O 3639   5.704   3.330   1.535  0.5811  0.1283  0.7086
  799SOL     H1 3640   5.794   3.309   1.511  0.4614  0.6831 -0.2592
  799SOL     H2 3641   5.696   3.423   1.515 -0.0006  0.2454  1.4638
  799SOL    EPW 3642   5.713   3.338   1.531  0.5063  0.2000  0.6859
  800SOL      O 3643   5.746   1.566   3.837 -0.1069  0.1930 -0.6705
  800SOL     H1 3644   5.726   1.638   3.897  0.9597 -0.1424  0.1055
  800SOL     H2 3645   5.674   1.504   3.849  0.1186  0.1094  0.3086
  800SOL    EPW 3646   5.736   1.567   3.845  0.0309  0.1483 -0.4833
  801SOL      O 3647   0.790   5.363   2.363  0.5003 -0.6544 -0.0608
  801SOL     H1 3648   0.835   5.363   2.448  0.1872  0.3396  0.1112
  801SOL     H2 3649   0.705   5.402   2.381  0.5597 -0.1261 -0.9047
  801SOL    EPW 3650   0.786   5.367   2.374  0.4732 -0.4920 -0.1325
  802SOL      O 3651   0.752   1.831   2.514  0.2296 -0.0606  0.4595
  802SOL     H1 3652   0.788   1.768   2.452 -1.1572  0.3494 -0.8088
  802SOL     H2 3653   0.682   1.783   2.558 -0.2713  0.3208  0.0893
  802SOL    EPW 3654   0.748   1.819   2.512  0.0282  0.0238  0.2847
  803SOL      O 3655   0.441   2.247   2.765  0.4112 -0.6533 -0.0401
  803SOL     H1 3656   0.368   2.234   2.826 -0.3078  1.5968 -0.3696
  803SOL     H2 3657   0.515   2.269   2.821 -0.4742  2.3613  0.0309
  803SOL    EPW 3658   0.441   2.248   2.777  0.2400 -0.0917 -0.0677
  804SOL      O 3659   2.129   3.119   2.971 -0.1496  0.5421 -0.0392
  804SOL     H1 3660   2.133   3.144   3.063 -0.3585  0.2753  0.0464
  804SOL     H2 3661   2.180   3.038   2.966 -3.4723 -1.6791  0.6448
  804SOL    EPW 3662   2.135   3.113   2.980 -0.5263  0.2767  0.0429
  805SOL      O 3663   2.793   0.935   2.888  0.0514  0.2149 -0.0910
  805SOL     H1 3664   2.774   0.841   2.897 -3.0822  0.7332 -0.5503
  805SOL     H2 3665   2.827   0.944   2.800 -1.2057 -0.3028 -0.6481
  805SOL    EPW 3666   2.794   0.926   2.880 -0.4170  0.2150 -0.1995
  806SOL      O 3667   1.589   2.928   2.458  0.6727  0.2665  0.6844
  806SOL     H1 3668   1.505   2.948   2.500  0.4871 -0.6785  0.7778
  806SOL     H2 3669   1.655   2.954   2.522  0.4746  1.6916  0.3211
  806SOL    EPW 3670   1.587   2.933   2.469  0.6317  0.3177  0.6556
  807SOL      O 3671   3.953   5.060   0.391 -0.0223 -0.1835 -0.8278
  807SOL     H1 3672   3.939   5.009   0.311 -1.9231  0.5709 -1.0035
  807SOL     H2 3673   3.902   5.014   0.457 -0.7070  0.7484 -0.6946
  807SOL    EPW 3674   3.946   5.049   0.389 -0.2981 -0.0036 -0.8323
  808SOL      O 3675   0.682   2.540   1.254  0.3121 -0.4091 -0.2337
  808SOL     H1 3676   0.747   2.573   1.316  1.5986 -3.6402  0.2599
  808SOL     H2 3677   0.729   2.533   1.171  0.1484 -1.2056 -0.2635
  808SOL    EPW 3678   0.694   2.543   1.252  0.4319 -0.8387 -0.1843
  809SOL      O 3679   1.309   1.545   3.801 -0.3549 -0.0248 -0.0746
  809SOL     H1 3680   1.228   1.517   3.845 -1.6980  2.1483 -1.0696
  809SOL     H2 3681   1.329   1.629   3.841  1.3865 -0.5047  0.0769
  809SOL    EPW 3682   1.302   1.551   3.810 -0.3124  0.1558 -0.1646
  810SOL      O 3683   0.328   1.729   4.082  0.5702 -0.2732 -0.0264
  810SOL     H1 3684   0.249   1.767   4.046  0.7218  1.3255  1.2627
  810SOL     H2 3685   0.309   1.716   4.175  1.6960 -0.1999  0.2322
  810SOL    EPW 3686   0.318   1.732   4.088  0.7065 -0.0949  0.1387
  811SOL      O 3687   1.650   4.848   3.323 -0.2442 -0.5626  0.0789
  811SOL     H1 3688   1.688   4.852   3.411 -1.3402 -2.0257  0.6482
  811SOL     H2 3689   1.725   4.855   3.264  0.2570  3.3540  1.0412
  811SOL    EPW 3690   1.662   4.849   3.326 -0.3076 -0.3009  0.2423
  812SOL      O 3691   1.455   1.542   2.949  0.7463 -0.6949  0.6835
  812SOL     H1 3692   1.466   1.447   2.953  1.3899 -0.5623  2.1803
  812SOL     H2 3693   1.484   1.574   3.034 -0.0553  0.7958  0.4199
  812SOL    EPW 3694   1.459   1.536   2.958  0.7295 -0.5217  0.8151
  813SOL      O 3695   0.381   1.657   3.493  0.1239  0.0378 -0.8374
  813SOL     H1 3696   0.374   1.668   3.588  0.1806 -0.4537 -0.7755
  813SOL     H2 3697   0.437   1.730   3.464 -0.6235  0.7091 -0.6115
  813SOL    EPW 3698   0.386   1.666   3.500  0.0502  0.0570 -0.8067
  814SOL      O 3699   5.530   3.019   3.536  0.4322  0.3286  0.7519
  814SOL     H1 3700   5.503   2.927   3.534  0.7609  0.1946  2.2512
  814SOL     H2 3701   5.450   3.068   3.518  0.3051 -0.2493 -0.3104
  814SOL    EPW 3702   5.519   3.014   3.534  0.4537  0.2526  0.7985
  815SOL      O 3703   1.265   1.804   2.863  0.1312 -0.0041 -0.5904
  815SOL     H1 3704   1.352   1.790   2.900  0.3670  1.0109 -0.7404
  815SOL     H2 3705   1.261   1.898   2.847 -0.9725 -0.0564 -0.6475
  815SOL    EPW 3706   1.274   1.812   2.865  0.0387  0.0986 -0.6125
  816SOL      O 3707   0.422   1.412   3.347 -0.3692 -0.0864 -0.2336
  816SOL     H1 3708   0.435   1.468   3.424 -1.2907 -0.3637  0.1274
  816SOL     H2 3709   0.355   1.349   3.374 -0.4490 -0.4005 -1.1507
  816SOL    EPW 3710   0.416   1.411   3.358 -0.4760 -0.1495 -0.2929
  817SOL      O 3711   0.564   0.017   1.668 -0.1961 -0.1742  0.5051
  817SOL     H1 3712   0.541   0.109   1.682  1.1763 -0.0877  2.4198
  817SOL     H2 3713   0.482  -0.025   1.644 -0.9518  1.4403  0.1693
  817SOL    EPW 3714   0.553   0.023   1.667 -0.1303  0.0072  0.6735
  818SOL      O 3715   1.263   1.928   4.084 -0.1466 -0.1773 -0.0435
  818SOL     H1 3716   1.279   1.941   4.178 -0.8220  0.2082  0.0202
  818SOL     H2 3717   1.168   1.934   4.075  0.0721  2.6561 -1.1437
  818SOL    EPW 3718   1.255   1.930   4.093 -0.1953  0.1661 -0.1541
  819SOL      O 3719   4.919   2.968   3.060  0.2140  0.4763 -0.0449
  819SOL     H1 3720   4.958   3.042   3.107 -0.3299  0.6656  0.1136
  819SOL     H2 3721   4.992   2.930   3.011  0.8541  0.0925  1.1900
  819SOL    EPW 3722   4.931   2.972   3.060  0.2242  0.4556  0.1037
  820SOL      O 3723   3.993   0.450   0.103 -0.5651  0.5521  0.0617
  820SOL     H1 3724   3.959   0.387   0.039 -0.4832  0.8731 -0.2988
  820SOL     H2 3725   4.053   0.505   0.053  0.3173  0.1305  0.6557
  820SOL    EPW 3726   3.996   0.449   0.091 -0.4622  0.5414  0.0866
  821SOL      O 3727   3.981   3.081   3.182 -0.1850 -0.3719 -0.1069
  821SOL     H1 3728   3.891   3.075   3.214  0.0424  0.7979  0.7755
  821SOL     H2 3729   4.010   3.169   3.206  1.3562 -0.8906  0.0397
  821SOL    EPW 3730   3.975   3.089   3.188  0.0037 -0.3024  0.0029
  822SOL      O 3731   0.541   3.010   2.131 -0.2971 -0.5707 -0.1787
  822SOL     H1 3732   0.532   3.104   2.121 -2.7335 -0.7454  0.1327
  822SOL     H2 3733   0.528   2.995   2.225 -1.1308 -1.3196 -0.4041
  822SOL    EPW 3734   0.539   3.018   2.140 -0.6460 -0.6692 -0.1695
  823SOL      O 3735   0.506   3.685   2.465  0.0690 -0.4425  0.1885
  823SOL     H1 3736   0.471   3.646   2.545 -0.3590  0.7661  0.5948
  823SOL     H2 3737   0.433   3.684   2.404  0.4991 -1.7193 -0.3429
  823SOL    EPW 3738   0.495   3.680   2.467  0.0692 -0.4498  0.1752
  824SOL      O 3739   0.744   0.006   3.347 -0.6645  0.4434 -0.0723
  824SOL     H1 3740   0.724   0.093   3.311  1.6897  0.8425 -0.5190
  824SOL     H2 3741   0.756  -0.049   3.270 -2.5647 -0.4197  0.2134
  824SOL    EPW 3742   0.743   0.009   3.335 -0.6160  0.3939 -0.0895
  825SOL      O 3743   0.868   0.298   3.145 -0.0604  0.0207 -0.4775
  825SOL     H1 3744   0.912   0.254   3.218  1.2502  0.7234 -0.8374
  825SOL     H2 3745   0.798   0.238   3.120  0.8805 -1.2560 -0.0904
  825SOL    EPW 3746   0.865   0.287   3.150  0.1798 -0.0405 -0.4746
  826SOL      O 3747   1.988   1.040   2.616  0.3181 -0.6887 -0.0089
  826SOL     H1 3748   1.980   0.968   2.553 -0.0053  0.3815 -1.2354
  826SOL     H2 3749   1.924   1.019   2.684  1.5008 -2.4648  0.6018
  826SOL    EPW 3750   1.980   1.030   2.616  0.4098 -0.7640 -0.0746
  827SOL      O 3751   5.696   2.940   3.303  0.7824 -0.7403 -0.4811
  827SOL     H1 3752   5.643   2.872   3.262 -1.3432  0.7365 -0.2760
  827SOL     H2 3753   5.647   2.963   3.383  1.3636  1.1216 -0.6396
  827SOL    EPW 3754   5.685   2.935   3.307  0.6176 -0.3842 -0.4761
  828SOL      O 3755   1.419   2.410   2.607  0.5819 -0.0530  0.4720
  828SOL     H1 3756   1.441   2.502   2.592 -1.4518  0.1387 -1.6808
  828SOL     H2 3757   1.370   2.410   2.689 -0.1687  0.9613  0.0452
  828SOL    EPW 3758   1.416   2.420   2.614  0.2849  0.0756  0.1968
  829SOL      O 3759   2.268   2.351   2.951  0.0650  0.0026  0.2419
  829SOL     H1 3760   2.226   2.265   2.945 -0.3636  0.1771  0.6805
  829SOL     H2 3761   2.196   2.411   2.970  0.1463  0.6776 -1.4716
  829SOL    EPW 3762   2.255   2.348   2.952  0.0280  0.0932  0.1059
  830SOL      O 3763   0.648   2.696   2.388 -0.0458 -0.2113  0.2184
  830SOL     H1 3764   0.620   2.604   2.387  0.1504 -0.2760  0.4773
  830SOL     H2 3765   0.740   2.693   2.361 -0.6562  0.1379 -1.9971
  830SOL    EPW 3766   0.655   2.686   2.385 -0.0900 -0.1810  0.0097
  831SOL      O 3767   5.678   1.151   2.256  0.2886 -0.2641  0.4687
  831SOL     H1 3768   5.631   1.113   2.331 -0.4447  0.9135  0.6207
  831SOL     H2 3769   5.770   1.149   2.282 -0.1462  2.2210  2.3927
  831SOL    EPW 3770   5.683   1.147   2.267  0.1640  0.1266  0.6902
  832SOL      O 3771   1.734   4.025   1.851 -0.3995  0.3431  0.2860
  832SOL     H1 3772   1.643   4.046   1.872  0.4260  1.7450  2.6984
  832SOL     H2 3773   1.756   3.953   1.912 -0.5324 -1.5138 -1.8031
  832SOL    EPW 3774   1.727   4.019   1.860 -0.3256  0.2946  0.3205
  833SOL      O 3775   0.329   3.522   3.603 -0.9517  0.1529  0.7433
  833SOL     H1 3776   0.415   3.519   3.645 -1.3998  1.0197  1.7418
  833SOL     H2 3777   0.300   3.431   3.601  0.3857 -0.2608 -0.4325
  833SOL    EPW 3778   0.335   3.512   3.607 -0.8568  0.2012  0.7244
  834SOL      O 3779   0.987   2.474   2.575 -0.3585  0.4085 -0.4344
  834SOL     H1 3780   0.982   2.539   2.505  2.9387  0.5682 -0.5923
  834SOL     H2 3781   0.993   2.390   2.529  1.8715  0.5185 -0.3892
  834SOL    EPW 3782   0.987   2.472   2.563  0.2311  0.4373 -0.4464
  835SOL      O 3783   1.476   1.262   2.363 -0.2811 -0.0196 -0.4040
  835SOL     H1 3784   1.383   1.285   2.362 -0.3218 -0.1767 -0.3197
  835SOL     H2 3785   1.483   1.195   2.431 -0.3354 -0.9948 -1.3465
  835SOL    EPW 3786   1.467   1.257   2.370 -0.2912 -0.1404 -0.4955
  836SOL      O 3787   1.301   2.892   2.533 -0.5717  0.0797  0.1077
  836SOL     H1 3788   1.269   2.803   2.550  1.0657 -0.1885  2.0465
  836SOL     H2 3789   1.227   2.937   2.492 -2.3305 -1.4138  1.5578
  836SOL    EPW 3790   1.290   2.887   2.531 -0.5846 -0.1082  0.4692
  837SOL      O 3791   0.613   3.617   3.685  0.5732 -0.1647  0.4649
  837SOL     H1 3792   0.599   3.649   3.775  0.0225 -0.3571  0.4439
  837SOL     H2 3793   0.678   3.548   3.695  0.9052  0.1695  0.6528
  837SOL    EPW 3794   0.619   3.613   3.696  0.5499 -0.1496  0.4827
  838SOL      O 3795   1.091   3.326   3.636 -0.1402  0.2593 -0.6748
  838SOL     H1 3796   1.122   3.240   3.666  0.0210  0.9374  1.1164
  838SOL     H2 3797   1.111   3.326   3.542  0.4727 -1.3979 -0.5739
  838SOL    EPW 3798   1.096   3.317   3.629 -0.0576  0.1549 -0.4730
  839SOL      O 3799   0.002   3.297   1.192  0.0863  0.3053 -0.1914
  839SOL     H1 3800   0.001   3.392   1.204  0.9546  0.2751  0.1965
  839SOL     H2 3801   0.020   3.263   1.280 -0.0436 -0.2063 -0.3660
  839SOL    EPW 3802   0.004   3.304   1.203  0.1651  0.2475 -0.1687
  840SOL      O 3803   2.319   1.392   2.186  0.1807  0.4098 -0.1503
  840SOL     H1 3804   2.244   1.450   2.177  1.0654  1.7050  0.5440
  840SOL     H2 3805   2.380   1.420   2.118  0.2504 -0.2789 -0.3733
  840SOL    EPW 3806   2.318   1.401   2.178  0.2825  0.4745 -0.1000
  841SOL      O 3807   0.870   1.057   2.462 -0.1570  0.0247 -0.0466
  841SOL     H1 3808   0.889   0.985   2.402  0.3630 -1.1885  1.5516
  841SOL     H2 3809   0.935   1.049   2.532 -1.1495  1.0373  1.0266
  841SOL    EPW 3810   0.879   1.049   2.463 -0.2074  0.0033  0.2384
  842SOL      O 3811   1.812   4.563   3.051  0.2409 -0.2958  0.1320
  842SOL     H1 3812   1.717   4.575   3.055  0.2590 -0.8015  2.1464
  842SOL     H2 3813   1.849   4.642   3.090  0.6042 -1.0169  1.2663
  842SOL    EPW 3814   1.806   4.573   3.055  0.2816 -0.4267  0.4679
  843SOL      O 3815   1.855   4.454   1.541  0.3175 -0.2229 -1.2246
  843SOL     H1 3816   1.862   4.483   1.632 -0.8952  0.7237 -1.4243
  843SOL     H2 3817   1.919   4.383   1.534 -0.7452 -1.4397  0.8230
  843SOL    EPW 3818   1.863   4.449   1.550  0.0748 -0.2517 -1.0275
  844SOL      O 3819   0.555   5.082   3.407 -0.0121 -0.2612  0.4111
  844SOL     H1 3820   0.545   5.159   3.351  0.6594 -1.0848 -0.8753
  844SOL     H2 3821   0.559   5.008   3.345 -1.0026 -1.3622  1.6298
  844SOL    EPW 3822   0.554   5.082   3.394 -0.0462 -0.4665  0.4039
  845SOL      O 3823   2.699   1.811   3.536  0.1482 -0.0678  0.1173
  845SOL     H1 3824   2.691   1.773   3.624 -0.5311  0.9581  0.5047
  845SOL     H2 3825   2.732   1.739   3.482 -1.4912 -1.3230  0.7503
  845SOL    EPW 3826   2.702   1.800   3.540 -0.0992 -0.0922  0.2262
  846SOL      O 3827   1.796   2.348   1.564 -0.2179  0.5412  0.5111
  846SOL     H1 3828   1.873   2.294   1.585 -1.8998 -1.7461  0.9326
  846SOL     H2 3829   1.742   2.344   1.642 -1.8826  0.1302 -0.6257
  846SOL    EPW 3830   1.799   2.342   1.574 -0.5749  0.2534  0.4348
  847SOL      O 3831   1.076   2.985   2.438  0.5982 -0.0643  0.3575
  847SOL     H1 3832   1.025   3.025   2.508  1.6471 -0.4097  1.3371
  847SOL     H2 3833   1.064   3.043   2.363  0.9664  1.3270  1.3652
  847SOL    EPW 3834   1.069   2.995   2.437  0.7494  0.0473  0.5695
  848SOL      O 3835   0.700   2.319   3.206  0.9135  0.0051  0.3103
  848SOL     H1 3836   0.666   2.406   3.225  1.0674 -0.2486  1.7941
  848SOL     H2 3837   0.792   2.322   3.232  1.0526 -0.4592 -0.1023
  848SOL    EPW 3838   0.706   2.328   3.211  0.9447 -0.0715  0.4246
  849SOL      O 3839   0.289   1.183   3.444  0.0842 -0.6726  0.1796
  849SOL     H1 3840   0.321   1.099   3.477  0.3793 -0.9381 -0.7679
  849SOL     H2 3841   0.198   1.165   3.418 -0.3014 -0.3438  1.2878
  849SOL    EPW 3842   0.283   1.172   3.445  0.0745 -0.6658  0.1967
  850SOL      O 3843   2.086   0.914   3.535 -0.2648 -0.1724 -0.8770
  850SOL     H1 3844   1.994   0.901   3.559  0.2237 -0.1470  1.1267
  850SOL     H2 3845   2.117   0.981   3.595  1.7062 -1.9366  0.1489
  850SOL    EPW 3846   2.080   0.920   3.544 -0.0024 -0.3579 -0.5538
  851SOL      O 3847   3.081   1.870   3.060  0.7063  0.2408  0.0019
  851SOL     H1 3848   3.050   1.884   3.149  2.4404  2.0130  0.3593
  851SOL     H2 3849   3.002   1.865   3.007 -0.3103 -0.2635  1.5486
  851SOL    EPW 3850   3.070   1.871   3.063  0.7828  0.3761  0.2051
  852SOL      O 3851   5.835   3.181   3.267 -0.0517 -0.2338 -0.0744
  852SOL     H1 3852   5.909   3.179   3.328  0.0589 -1.5601 -0.2210
  852SOL     H2 3853   5.789   3.099   3.285 -2.2039  1.1645  0.8830
  852SOL    EPW 3854   5.838   3.172   3.275 -0.2695 -0.2261  0.0121
  853SOL      O 3855   1.213   3.634   3.083  0.8824 -0.1277 -0.0311
  853SOL     H1 3856   1.120   3.627   3.108  1.3250  0.2873  1.7811
  853SOL     H2 3857   1.248   3.701   3.142  2.1902  0.1998 -1.1668
  853SOL    EPW 3858   1.207   3.641   3.092  1.0691 -0.0485  0.0410
  854SOL      O 3859   5.743   3.178   2.115  0.2094 -0.3916  0.3936
  854SOL     H1 3860   5.796   3.125   2.174 -0.5279 -0.3735  1.0730
  854SOL     H2 3861   5.729   3.122   2.038 -0.0836 -0.9671  0.8641
  854SOL    EPW 3862   5.747   3.166   2.113  0.0995 -0.4511  0.5163
  855SOL      O 3863   5.542   2.373   3.849 -0.3652  0.5360 -0.1086
  855SOL     H1 3864   5.524   2.464   3.872  2.0187  0.7748  1.0429
  855SOL     H2 3865   5.553   2.329   3.934 -2.4465 -1.0568 -0.6248
  855SOL    EPW 3866   5.541   2.378   3.861 -0.3329  0.3916 -0.0409
  856SOL      O 3867   0.202   3.537   2.521  0.0895 -0.4004 -0.2202
  856SOL     H1 3868   0.135   3.507   2.460  0.3397 -1.3744 -0.0246
  856SOL     H2 3869   0.154   3.588   2.586 -0.8109 -3.0741  1.2568
  856SOL    EPW 3870   0.190   3.539   2.521  0.0202 -0.7895 -0.0418
  857SOL      O 3871   2.445   3.124   2.960  0.7792 -0.2914  0.0751
  857SOL     H1 3872   2.439   3.142   3.053 -0.5103 -1.0477  0.1592
  857SOL     H2 3873   2.420   3.206   2.918  0.3545 -0.2399  0.4176
  857SOL    EPW 3874   2.441   3.135   2.965  0.5963 -0.3666  0.1206
  858SOL      O 3875   2.183   3.649   3.646  0.0657  0.1281  0.3608
  858SOL     H1 3876   2.257   3.597   3.614 -0.6559  0.2909 -1.6145
  858SOL     H2 3877   2.114   3.585   3.663 -0.0910  0.2187  0.0564
  858SOL    EPW 3878   2.184   3.637   3.645 -0.0280  0.1552  0.1176
  859SOL      O 3879   1.715   2.606   2.220  0.0439  0.1576  0.2894
  859SOL     H1 3880   1.654   2.533   2.211 -0.3368  0.8398 -3.7400
  859SOL     H2 3881   1.660   2.684   2.206  1.1526  1.0128  0.6397
  859SOL    EPW 3882   1.702   2.607   2.218  0.1216  0.3216 -0.1031
  860SOL      O 3883   4.471   1.243   2.958  0.7659  0.5131  0.2056
  860SOL     H1 3884   4.539   1.275   2.899  0.7997  0.1959  0.0714
  860SOL     H2 3885   4.480   1.298   3.036  1.1391  0.5104  0.1683
  860SOL    EPW 3886   4.480   1.253   2.960  0.8093  0.4790  0.1873
  861SOL      O 3887   0.263   2.124   2.280 -1.0202  0.3404 -0.6425
  861SOL     H1 3888   0.233   2.160   2.196 -0.3876  1.4099 -0.4188
  861SOL     H2 3889   0.218   2.176   2.346  1.3264  2.0268 -0.3029
  861SOL    EPW 3890   0.255   2.134   2.278 -0.7024  0.6344 -0.5824
  862SOL      O 3891   2.596   4.278   1.744  0.3398  0.7528  0.5905
  862SOL     H1 3892   2.640   4.204   1.703  2.9264  2.7010 -0.2958
  862SOL     H2 3893   2.503   4.261   1.730  0.8721 -2.2725  0.3832
  862SOL    EPW 3894   2.591   4.269   1.738  0.6725  0.6379  0.4738
  863SOL      O 3895   1.725   3.577   2.114  0.0058  0.2771 -0.4781
  863SOL     H1 3896   1.691   3.527   2.039 -0.1470  1.5748 -1.2832
  863SOL     H2 3897   1.796   3.522   2.148  0.1817 -0.2609 -1.6702
  863SOL    EPW 3898   1.729   3.566   2.110  0.0082  0.3581 -0.6912
  864SOL      O 3899   1.575   1.707   2.740  0.5924 -0.1027 -0.4986
  864SOL     H1 3900   1.530   1.643   2.796 -0.2408  0.5182 -0.4533
  864SOL     H2 3901   1.559   1.677   2.651  2.4785 -1.4684 -0.4117
  864SOL    EPW 3902   1.569   1.697   2.737  0.7047 -0.1822 -0.4845
  865SOL      O 3903   1.545   2.380   3.449  0.4983  0.2162 -0.1682
  865SOL     H1 3904   1.635   2.369   3.479  1.4068 -3.2126 -3.6580
  865SOL     H2 3905   1.553   2.409   3.359 -1.8583 -0.7392 -0.7304
  865SOL    EPW 3906   1.555   2.382   3.443  0.3438 -0.2515 -0.6004
  866SOL      O 3907   1.607   2.840   2.203  0.6319  0.0890 -0.0745
  866SOL     H1 3908   1.608   2.869   2.295 -1.1584 -1.0065  0.3129
  866SOL     H2 3909   1.517   2.856   2.174  0.5709 -1.6886 -0.9392
  866SOL    EPW 3910   1.598   2.845   2.210  0.4344 -0.2175 -0.1254
  867SOL      O 3911   2.356   4.216   2.838 -0.3284 -0.2703  0.4202
  867SOL     H1 3912   2.363   4.131   2.794 -0.9019  0.3502 -0.8880
  867SOL     H2 3913   2.363   4.195   2.931  0.3665 -1.6625  0.0680
  867SOL    EPW 3914   2.357   4.205   2.844 -0.3154 -0.3527  0.2431
  868SOL      O 3915   1.273   2.875   0.983 -0.4643  0.1669  0.5282
  868SOL     H1 3916   1.205   2.914   0.928 -1.7545 -0.1046  1.8919
  868SOL     H2 3917   1.225   2.840   1.059  0.9709 -1.7061  0.6057
  868SOL    EPW 3918   1.260   2.875   0.986 -0.4488 -0.0619  0.6819
  869SOL      O 3919   1.861   2.422   2.714 -0.6949 -0.1381  0.0716
  869SOL     H1 3920   1.893   2.511   2.724 -2.1560  0.1975  2.0598
  869SOL     H2 3921   1.853   2.410   2.619 -0.6521  1.8902 -0.2087
  869SOL    EPW 3922   1.863   2.430   2.705 -0.8462  0.1141  0.2538
  870SOL      O 3923   0.596   1.689   2.967  0.1140  0.6138 -0.3818
  870SOL     H1 3924   0.616   1.652   2.881 -1.1325 -0.6201 -0.1709
  870SOL     H2 3925   0.540   1.765   2.948  0.5886  0.8820 -0.7030
  870SOL    EPW 3926   0.592   1.693   2.956  0.0317  0.5108 -0.3936
  871SOL      O 3927   1.996   1.465   3.318 -0.3495 -0.0485  0.5405
  871SOL     H1 3928   1.929   1.525   3.286 -1.5319 -0.9018  1.3559
  871SOL     H2 3929   2.060   1.521   3.362  0.0439  0.8735 -1.1991
  871SOL    EPW 3930   1.996   1.477   3.320 -0.4337 -0.0412  0.4419
  872SOL      O 3931   1.012   2.231   2.444 -0.3435  0.2696  0.1050
  872SOL     H1 3932   0.942   2.179   2.405 -1.2885  1.0294  0.7757
  872SOL     H2 3933   1.091   2.178   2.430 -0.4711  0.9114 -3.6164
  872SOL    EPW 3934   1.013   2.220   2.438 -0.4579  0.4191 -0.2204
  873SOL      O 3935   3.110   4.432   3.610  0.1822 -0.2862  0.3862
  873SOL     H1 3936   3.147   4.492   3.544 -0.6725  0.1410  0.2881
  873SOL     H2 3937   3.187   4.394   3.653  0.7444  0.1638 -0.1994
  873SOL    EPW 3938   3.122   4.434   3.607  0.1510 -0.1926  0.3133
  874SOL      O 3939   0.730   3.167   3.041 -0.2537  0.1715  0.4697
  874SOL     H1 3940   0.711   3.149   3.133 -0.2591  0.7595  0.5863
  874SOL     H2 3941   0.701   3.257   3.027 -0.2251  0.0977 -0.1011
  874SOL    EPW 3942   0.725   3.175   3.049 -0.2512  0.2264  0.4212
  875SOL      O 3943   5.004   3.447   3.845 -0.0309  1.0052 -0.2522
  875SOL     H1 3944   4.924   3.396   3.836  0.9697 -0.3822 -1.6320
  875SOL     H2 3945   5.033   3.462   3.755  2.9388 -1.2685  0.2689
  875SOL    EPW 3946   4.999   3.443   3.835  0.3926  0.6147 -0.3438
  876SOL      O 3947   2.473   4.396   3.511  0.3833  0.7939 -0.4779
  876SOL     H1 3948   2.543   4.331   3.519  0.7272  1.3349  1.0372
  876SOL     H2 3949   2.484   4.432   3.423 -0.4987 -1.9570 -1.7858
  876SOL    EPW 3950   2.482   4.393   3.502  0.3259  0.5582 -0.4558
  877SOL      O 3951   1.670   2.966   3.590  0.8055  0.2120  0.2536
  877SOL     H1 3952   1.661   2.934   3.679 -0.1975  0.0372  0.0942
  877SOL     H2 3953   1.597   3.028   3.579  0.9536  0.2755 -0.4220
  877SOL    EPW 3954   1.661   2.969   3.598  0.7143  0.2001  0.1645
  878SOL      O 3955   3.812   0.308   0.602 -0.2976  0.2327 -0.1192
  878SOL     H1 3956   3.873   0.369   0.644 -0.1058 -1.4563  2.1425
  878SOL     H2 3957   3.786   0.248   0.672 -2.1316 -0.9893 -1.7950
  878SOL    EPW 3958   3.816   0.308   0.614 -0.4728 -0.0778 -0.0567
  879SOL      O 3959   1.638   2.014   3.087  0.7602 -0.3298  1.0855
  879SOL     H1 3960   1.671   1.961   3.014  0.4994  0.3526  0.4630
  879SOL     H2 3961   1.634   2.103   3.052 -3.3913 -0.6093  0.5626
  879SOL    EPW 3962   1.641   2.018   3.076  0.2895 -0.2868  0.9633
  880SOL      O 3963   3.406   2.536   1.940 -0.3919  0.1231  0.1109
  880SOL     H1 3964   3.416   2.614   1.994 -0.7612  0.2915 -0.0633
  880SOL     H2 3965   3.479   2.540   1.878 -3.0424  2.8439 -3.0182
  880SOL    EPW 3966   3.415   2.545   1.939 -0.7140  0.4313 -0.2415
  881SOL      O 3967   1.782   1.335   3.086 -0.6154  0.4695 -0.0334
  881SOL     H1 3968   1.798   1.422   3.121  2.4906 -0.2685  0.5329
  881SOL     H2 3969   1.778   1.278   3.163 -3.0910  0.1393 -0.3655
  881SOL    EPW 3970   1.783   1.338   3.098 -0.5481  0.3555 -0.0084
  882SOL      O 3971   3.009   3.945   0.232 -0.7646  0.2192  0.3305
  882SOL     H1 3972   2.933   3.979   0.279 -1.8054 -1.5028 -0.0542
  882SOL     H2 3973   2.972   3.884   0.168  0.8402  0.3973 -0.8032
  882SOL    EPW 3974   2.997   3.942   0.230 -0.7045  0.0545  0.1685
  883SOL      O 3975   1.541   4.916   2.743  0.3580  0.6062 -0.0068
  883SOL     H1 3976   1.512   4.955   2.825  0.0441 -0.7209  0.5319
  883SOL     H2 3977   1.460   4.904   2.693 -0.1974 -3.5112  1.6745
  883SOL    EPW 3978   1.529   4.919   2.746  0.2653  0.0254  0.2300
  884SOL      O 3979   0.729   0.791   3.329  0.0094 -0.1417 -0.2346
  884SOL     H1 3980   0.666   0.844   3.280 -0.7207 -2.3254 -1.7530
  884SOL     H2 3981   0.749   0.718   3.270 -0.3636 -2.5105  2.4475
  884SOL    EPW 3982   0.724   0.788   3.317 -0.1082 -0.6274 -0.1105
  885SOL      O 3983   1.806   4.599   1.774  0.1295 -0.7725 -0.0781
  885SOL     H1 3984   1.738   4.602   1.842  0.1642 -0.8319 -0.0404
  885SOL     H2 3985   1.886   4.627   1.818 -0.4677  2.3952 -0.8758
  885SOL    EPW 3986   1.807   4.602   1.786  0.0695 -0.4409 -0.1592
  886SOL      O 3987   1.963   2.534   1.444 -0.4994  0.3259 -0.6012
  886SOL     H1 3988   1.969   2.619   1.488  0.6276  0.7049 -1.4411
  886SOL     H2 3989   1.894   2.487   1.490  1.0582  0.4748  1.9838
  886SOL    EPW 3990   1.957   2.538   1.454 -0.2131  0.3822 -0.4151
  887SOL      O 3991   0.467   1.990   2.629  0.1041 -0.8274 -0.2018
  887SOL     H1 3992   0.511   1.986   2.714  0.6533 -1.0637 -0.4984
  887SOL     H2 3993   0.439   2.081   2.621  0.7006 -0.6346 -0.0971
  887SOL    EPW 3994   0.468   1.999   2.638  0.2263 -0.8320 -0.2223
  888SOL      O 3995   2.107   1.726   2.826  0.2288  0.2073  0.4500
  888SOL     H1 3996   2.186   1.672   2.826  0.7228  0.9195 -0.8824
  888SOL     H2 3997   2.135   1.811   2.858  0.1879  0.7170 -0.8537
  888SOL    EPW 3998   2.118   1.729   2.830  0.2771  0.3377  0.1688
  889SOL      O 3999   2.448   1.519   3.095 -0.1445 -0.2630  0.3282
  889SOL     H1 4000   2.463   1.428   3.122 -1.0146 -0.4057  0.3451
  889SOL     H2 4001   2.407   1.560   3.171 -0.8264 -0.1621 -0.0891
  889SOL    EPW 4002   2.446   1.514   3.106 -0.3101 -0.2675  0.2855
  890SOL      O 4003   2.113   5.542   1.950  0.2454  0.1261  0.4723
  890SOL     H1 4004   2.150   5.544   2.038 -0.3238 -0.6771  0.7416
  890SOL     H2 4005   2.189   5.529   1.893  0.4464 -1.0939  0.9886
  890SOL    EPW 4006   2.125   5.541   1.953  0.2061 -0.0898  0.5561
  891SOL      O 4007   2.343   3.016   1.959  0.1075 -0.2734  0.4105
  891SOL     H1 4008   2.251   3.043   1.952  0.0746  0.3632  2.8945
  891SOL     H2 4009   2.347   2.933   1.910 -1.3051  0.7458 -1.4678
  891SOL    EPW 4010   2.333   3.010   1.953 -0.0467 -0.0968  0.4751
  892SOL      O 4011   5.759   2.387   3.711  0.4646  0.6526  0.4643
  892SOL     H1 4012   5.679   2.414   3.755 -0.8295 -1.9224 -0.2522
  892SOL     H2 4013   5.795   2.317   3.765  1.0488  0.2778 -0.3948
  892SOL    EPW 4014   5.755   2.383   3.721  0.3888  0.3379  0.2962
  893SOL      O 4015   0.521   0.294   4.145 -0.4086  0.2509  0.2204
  893SOL     H1 4016   0.473   0.287   4.063 -0.8238  1.5450  0.3331
  893SOL     H2 4017   0.562   0.381   4.142 -0.9778  0.5932  1.6558
  893SOL    EPW 4018   0.520   0.303   4.136 -0.5136  0.4255  0.3856
  894SOL      O 4019   1.237   3.599   3.427  0.3544 -0.3795 -0.3605
  894SOL     H1 4020   1.275   3.561   3.507  1.3070 -0.4682 -0.8573
  894SOL     H2 4021   1.186   3.527   3.389  1.5855 -0.9690 -0.9255
  894SOL    EPW 4022   1.236   3.587   3.432  0.5874 -0.4518 -0.4738
  895SOL      O 4023   1.306   3.310   3.182 -0.2191 -0.4802 -0.0529
  895SOL     H1 4024   1.248   3.330   3.256 -0.6924 -2.1223  0.0334
  895SOL     H2 4025   1.259   3.344   3.105  0.3034  1.2912  0.3748
  895SOL    EPW 4026   1.295   3.316   3.182 -0.2139 -0.4664  0.0020
  896SOL      O 4027   5.795   2.877   2.933  0.3141 -0.2790  0.3747
  896SOL     H1 4028   5.843   2.798   2.958  0.5834  0.1150  1.1208
  896SOL     H2 4029   5.705   2.861   2.963 -0.4109 -1.6545 -2.3752
  896SOL    EPW 4030   5.790   2.867   2.939  0.2655 -0.3837  0.1609
  897SOL      O 4031   1.841   3.445   2.667 -0.4222 -0.1395 -0.6277
  897SOL     H1 4032   1.919   3.422   2.717 -0.6830 -1.0173 -0.6221
  897SOL     H2 4033   1.787   3.494   2.729 -0.4471 -0.6477 -0.2381
  897SOL    EPW 4034   1.843   3.448   2.679 -0.4527 -0.2874 -0.5856
  898SOL      O 4035   1.013   3.226   3.117 -0.9527 -0.1917 -0.1784
  898SOL     H1 4036   0.931   3.240   3.070 -0.8939  3.2038  0.5837
  898SOL     H2 4037   1.079   3.269   3.063 -0.2821  0.3275  1.0353
  898SOL    EPW 4038   1.011   3.232   3.106 -0.8749  0.2259  0.0324
  899SOL      O 4039   2.088   3.641   2.791  0.4424  1.1861  0.0737
  899SOL     H1 4040   2.145   3.679   2.724 -0.7621 -0.4561 -1.9854
  899SOL     H2 4041   2.105   3.547   2.785 -0.9520  0.8772  0.8601
  899SOL    EPW 4042   2.096   3.635   2.783  0.1652  0.9780 -0.0621
  900SOL      O 4043   2.319   2.262   2.659  0.4953 -0.7625 -0.2649
  900SOL     H1 4044   2.404   2.247   2.617  1.0973 -2.3619  1.4664
  900SOL     H2 4045   2.341   2.310   2.739 -0.5974  1.8462 -1.4749
  900SOL    EPW 4046   2.331   2.265   2.663  0.4430 -0.6548 -0.2093
  901SOL      O 4047   5.481   2.881   2.088  0.0007 -0.4997 -0.2546
  901SOL     H1 4048   5.514   2.809   2.034 -0.9154 -0.6236 -0.6610
  901SOL     H2 4049   5.428   2.838   2.155 -2.1495 -0.1058 -1.6518
  901SOL    EPW 4050   5.479   2.869   2.090 -0.3264 -0.4709 -0.4470
  902SOL      O 4051   4.962   1.669   1.624  0.2076 -0.2400 -0.0765
  902SOL     H1 4052   4.915   1.746   1.592  0.3357 -0.0020  0.3048
  902SOL     H2 4053   4.945   1.602   1.558  0.0289  0.0898 -0.3714
  902SOL    EPW 4054   4.955   1.670   1.613  0.2022 -0.1794 -0.0673
  903SOL      O 4055   0.200   2.927   2.674 -0.1793  0.0942 -0.6059
  903SOL     H1 4056   0.115   2.945   2.633 -0.7216  1.8382  1.2287
  903SOL     H2 4057   0.196   2.971   2.758  1.6742 -1.7957  0.5176
  903SOL    EPW 4058   0.190   2.934   2.678 -0.0394  0.0787 -0.2903
  904SOL      O 4059   3.377   4.546   0.242 -0.4311  0.2187 -0.1326
  904SOL     H1 4060   3.439   4.474   0.241 -0.5736  0.0793 -3.5829
  904SOL     H2 4061   3.294   4.507   0.270 -0.1088 -0.5771 -0.2916
  904SOL    EPW 4062   3.375   4.534   0.245 -0.4119  0.1189 -0.5176
  905SOL      O 4063   0.641   3.534   2.150  0.3481 -0.2094  0.9596
  905SOL     H1 4064   0.700   3.484   2.093 -1.7534 -1.9581  0.2418
  905SOL     H2 4065   0.670   3.514   2.239  0.2304 -1.8349  0.6414
  905SOL    EPW 4066   0.650   3.527   2.153  0.1114 -0.5694  0.8490
  906SOL      O 4067   1.704   4.751   3.763 -0.2614 -0.0124 -0.5304
  906SOL     H1 4068   1.627   4.773   3.815 -0.9519 -1.8964 -0.7494
  906SOL     H2 4069   1.777   4.756   3.826 -0.7416  0.2980  0.0118
  906SOL    EPW 4070   1.703   4.754   3.776 -0.3863 -0.1803 -0.4959
  907SOL      O 4071   2.184   3.616   3.208  0.0837 -0.1320  0.2729
  907SOL     H1 4072   2.099   3.578   3.189  0.0406 -1.0669  2.2011
  907SOL     H2 4073   2.165   3.685   3.272  0.7763 -0.4211  0.7986
  907SOL    EPW 4074   2.173   3.620   3.213  0.1530 -0.2626  0.5347
  908SOL      O 4075   3.046   4.790   0.279 -0.0443  0.4209 -0.1212
  908SOL     H1 4076   3.057   4.834   0.195  0.1674 -0.4094 -0.5319
  908SOL     H2 4077   3.082   4.852   0.343  1.8900  0.1037 -0.8736
  908SOL    EPW 4078   3.051   4.802   0.277  0.1846  0.2984 -0.2453
  909SOL      O 4079   1.196   2.685   2.673  0.5150 -0.2859 -0.1150
  909SOL     H1 4080   1.146   2.604   2.678 -1.0262  0.7140  1.1121
  909SOL     H2 4081   1.255   2.681   2.748  0.7808 -0.4997 -0.3367
  909SOL    EPW 4082   1.197   2.676   2.682  0.3789 -0.2021 -0.0078
  910SOL      O 4083   3.157   2.056   1.886 -0.1559 -0.0963  0.2659
  910SOL     H1 4084   3.067   2.058   1.918 -0.3913  0.0444 -0.3950
  910SOL     H2 4085   3.186   1.966   1.902 -0.7956 -0.4523 -0.5440
  910SOL    EPW 4086   3.151   2.047   1.891 -0.2493 -0.1193  0.1090
  911SOL      O 4087   0.684   3.427   3.002 -0.0457 -0.0211 -0.1074
  911SOL     H1 4088   0.755   3.491   3.011 -0.2102 -0.2090  3.1134
  911SOL     H2 4089   0.608   3.479   2.977 -0.2403  1.1635  2.7344
  911SOL    EPW 4090   0.683   3.439   3.001 -0.0840  0.0852  0.5394
  912SOL      O 4091   1.643   2.761   3.429  0.3241 -0.2763 -0.0642
  912SOL     H1 4092   1.700   2.692   3.460  1.9636  1.2947  0.4571
  912SOL     H2 4093   1.638   2.824   3.501  0.1716  0.9519 -1.1139
  912SOL    EPW 4094   1.648   2.761   3.440  0.4827  0.0223 -0.1206
  913SOL      O 4095   3.142   0.947   1.021  0.0449  0.2661  0.0674
  913SOL     H1 4096   3.047   0.943   1.011  0.2078 -2.8866 -0.6841
  913SOL     H2 4097   3.159   0.906   1.106  0.6847  2.0635  0.8443
  913SOL    EPW 4098   3.134   0.942   1.029  0.1305  0.1215  0.0701
  914SOL      O 4099   0.495   3.262   3.412 -0.0212 -0.1380 -0.3623
  914SOL     H1 4100   0.477   3.328   3.345  3.0519  0.8702 -0.2845
  914SOL     H2 4101   0.445   3.290   3.488 -0.5059  0.8395 -1.0362
  914SOL    EPW 4102   0.488   3.272   3.413  0.2549  0.0739 -0.4259
  915SOL      O 4103   5.457   2.872   2.755  0.4233 -0.0910  0.0640
  915SOL     H1 4104   5.488   2.895   2.843 -0.4979  1.0116  0.1124
  915SOL     H2 4105   5.489   2.943   2.700 -0.7099  0.2547 -0.1498
  915SOL    EPW 4106   5.464   2.882   2.758  0.2042  0.0635  0.0464
  916SOL      O 4107   5.321   1.978   2.157  0.0311 -0.0852  0.1018
  916SOL     H1 4108   5.396   2.026   2.120 -1.3404  1.6769 -0.4953
  916SOL     H2 4109   5.305   1.908   2.094  1.0768 -0.3781  0.1513
  916SOL    EPW 4110   5.327   1.976   2.146 -0.0037  0.0715  0.0434
  917SOL      O 4111   3.793   0.659   0.334 -0.4074  0.6424 -0.2717
  917SOL     H1 4112   3.755   0.589   0.387 -0.6335  0.3141 -0.8664
  917SOL     H2 4113   3.887   0.641   0.333 -0.5012  0.1490 -0.7032
  917SOL    EPW 4114   3.799   0.650   0.339 -0.4415  0.5548 -0.3811
  918SOL      O 4115   2.991   0.233   2.653 -0.3697  0.0476  0.0699
  918SOL     H1 4116   2.971   0.247   2.746 -0.0930  2.7811 -0.2421
  918SOL     H2 4117   3.005   0.138   2.646  1.2196 -0.0299  3.1516
  918SOL    EPW 4118   2.991   0.224   2.662 -0.1707  0.3309  0.3654
  919SOL      O 4119   1.987   1.873   3.228 -0.3143  0.3711  0.5422
  919SOL     H1 4120   1.913   1.925   3.259 -1.6359  0.1479 -2.1398
  919SOL     H2 4121   2.002   1.903   3.138  4.1013  1.7713  1.6100
  919SOL    EPW 4122   1.981   1.882   3.222  0.0158  0.4967  0.3700
  920SOL      O 4123   2.050   2.189   2.815  0.3683  0.4801 -0.4770
  920SOL     H1 4124   1.961   2.187   2.779  0.4827 -1.1672 -0.6846
  920SOL     H2 4125   2.089   2.268   2.777 -1.2026  1.5884  0.1289
  920SOL    EPW 4126   2.044   2.197   2.807  0.2129  0.4226 -0.4345
  921SOL      O 4127   1.527   1.296   3.007  0.1648 -0.2154 -1.0949
  921SOL     H1 4128   1.532   1.257   2.920  1.2353 -0.3713 -0.9651
  921SOL     H2 4129   1.618   1.303   3.036 -0.3323 -2.9913  1.2924
  921SOL    EPW 4130   1.537   1.293   3.001  0.2259 -0.5282 -0.8264
  922SOL      O 4131   0.123   2.777   3.833 -0.8083  0.2753 -0.0582
  922SOL     H1 4132   0.191   2.724   3.791  0.2690  0.9620  0.7852
  922SOL     H2 4133   0.071   2.811   3.761  0.7151  1.0225 -0.8348
  922SOL    EPW 4134   0.125   2.775   3.821 -0.5309  0.4283 -0.0511
  923SOL      O 4135   1.966   2.142   1.592 -0.1600  0.3335  0.0269
  923SOL     H1 4136   2.047   2.094   1.576 -0.6802 -1.4030  2.4781
  923SOL     H2 4137   1.907   2.115   1.521 -0.1429 -1.9411  0.8658
  923SOL    EPW 4138   1.968   2.134   1.582 -0.2137 -0.0944  0.3779
  924SOL      O 4139   4.977   4.056   3.911  0.6155  0.0584  0.2534
  924SOL     H1 4140   4.891   4.020   3.893  0.1951  2.0206 -1.9848
  924SOL     H2 4141   5.034   3.979   3.921 -0.7300 -1.2611 -1.7942
  924SOL    EPW 4142   4.974   4.044   3.910  0.4271  0.1270 -0.2038
  925SOL      O 4143   5.500   1.190   1.900 -0.2280  0.0842 -0.3347
  925SOL     H1 4144   5.507   1.169   1.807  0.9723 -0.1169 -0.2106
  925SOL     H2 4145   5.591   1.193   1.931 -0.6237 -0.1513  0.8970
  925SOL    EPW 4146   5.511   1.188   1.893 -0.1422  0.0376 -0.1901
  926SOL      O 4147   1.582   1.609   3.219 -0.3452 -0.5106  0.7327
  926SOL     H1 4148   1.571   1.563   3.302  0.0807 -2.7424 -0.3710
  926SOL     H2 4149   1.677   1.619   3.210 -0.3689 -0.5407  0.4149
  926SOL    EPW 4150   1.591   1.605   3.227 -0.3023 -0.7519  0.5811
  927SOL      O 4151   4.343   0.242   0.290  0.3065 -0.5446 -0.1487
  927SOL     H1 4152   4.298   0.205   0.366  1.0710 -0.6356  0.2657
  927SOL     H2 4153   4.277   0.241   0.220 -0.5669  0.0261  0.6530
  927SOL    EPW 4154   4.331   0.238   0.291  0.2949 -0.4934 -0.0190
  928SOL      O 4155   1.074   2.891   2.794  0.1055  0.1276  0.4881
  928SOL     H1 4156   1.155   2.936   2.771  0.9746 -1.6406  0.0895
  928SOL     H2 4157   1.075   2.810   2.743 -1.1662 -0.6531  1.6562
  928SOL    EPW 4158   1.083   2.887   2.786  0.0626 -0.1443  0.5702
  929SOL      O 4159   1.372   3.993   1.596  0.7695  0.5212  0.1272
  929SOL     H1 4160   1.383   3.984   1.691  0.7439 -0.4915  0.0338
  929SOL     H2 4161   1.457   4.026   1.566  1.8828 -2.2244  0.0984
  929SOL    EPW 4162   1.383   3.996   1.603  0.8855  0.1202  0.1142
  930SOL      O 4163   2.674   4.098   2.549  0.1945  0.5601 -0.2833
  930SOL     H1 4164   2.639   4.166   2.607 -0.5367  1.3139 -1.5958
  930SOL     H2 4165   2.654   4.129   2.461  1.3912 -0.5245 -0.9559
  930SOL    EPW 4166   2.668   4.109   2.546  0.2441  0.5248 -0.4951
  931SOL      O 4167   1.627   2.624   2.600 -0.9156 -0.1491  0.6344
  931SOL     H1 4168   1.615   2.706   2.553 -3.8975 -0.4163  0.8338
  931SOL     H2 4169   1.698   2.579   2.554 -0.7507  1.5592 -0.8082
  931SOL    EPW 4170   1.633   2.628   2.590 -1.2161  0.0046  0.5018
  932SOL      O 4171   5.256   1.468   3.744 -0.4784  0.0316  0.6683
  932SOL     H1 4172   5.286   1.477   3.834  2.1010  1.2418 -0.2563
  932SOL     H2 4173   5.331   1.495   3.691 -1.9973 -0.4974 -1.8433
  932SOL    EPW 4174   5.267   1.472   3.748 -0.3652  0.1043  0.3017
  933SOL      O 4175   0.512   1.726   2.345 -0.0936 -0.0017  0.2540
  933SOL     H1 4176   0.605   1.705   2.345  0.0102  0.3763 -0.9652
  933SOL     H2 4177   0.480   1.693   2.260 -1.3509 -1.3078  1.1963
  933SOL    EPW 4178   0.518   1.720   2.336 -0.2166 -0.1007  0.2245
  934SOL      O 4179   3.572   1.356   2.631  0.0749  0.1116  0.2989
  934SOL     H1 4180   3.608   1.354   2.720  0.3577 -0.6068  0.1727
  934SOL     H2 4181   3.550   1.265   2.611  1.2827  0.0497 -0.8636
  934SOL    EPW 4182   3.574   1.346   2.638  0.2339  0.0284  0.1614
  935SOL      O 4183   3.188   2.072   2.891 -0.0801  0.1496  0.0345
  935SOL     H1 4184   3.161   2.011   2.960 -0.5324 -0.1249 -0.3858
  935SOL     H2 4185   3.136   2.151   2.908  2.0600  1.2154  1.8791
  935SOL    EPW 4186   3.180   2.074   2.900  0.1000  0.2340  0.1864
  936SOL      O 4187   0.266   3.973   2.413 -0.0220  0.1453 -1.0212
  936SOL     H1 4188   0.185   3.938   2.452  0.4311  0.0261 -0.1628
  936SOL     H2 4189   0.334   3.951   2.477  0.3714  2.0386 -0.7573
  936SOL    EPW 4190   0.264   3.967   2.424  0.0683  0.3345 -0.9015
  937SOL      O 4191   2.409   3.847   3.117 -0.7636  0.0233  0.2541
  937SOL     H1 4192   2.454   3.791   3.180 -0.7381  0.7582  0.9034
  937SOL     H2 4193   2.478   3.878   3.059 -0.6996 -0.2301  0.1963
  937SOL    EPW 4194   2.421   3.845   3.118 -0.7540  0.0746  0.3172
  938SOL      O 4195   0.919   4.863   3.465 -0.4908 -0.4530 -0.1427
  938SOL     H1 4196   0.889   4.842   3.377  1.1714  0.4068 -0.9297
  938SOL     H2 4197   0.940   4.956   3.462  0.7207 -0.6721  0.8138
  938SOL    EPW 4198   0.918   4.870   3.456 -0.1843 -0.3847 -0.1246
  939SOL      O 4199   1.542   3.287   0.660 -0.3352  0.1651 -0.2174
  939SOL     H1 4200   1.543   3.322   0.749 -0.5236 -1.0091  0.2497
  939SOL     H2 4201   1.472   3.336   0.616  1.2709  2.3762 -0.4003
  939SOL    EPW 4202   1.534   3.296   0.665 -0.1840  0.2757 -0.1871
  940SOL      O 4203   0.090   2.857   3.244 -0.1005 -0.4543  0.3919
  940SOL     H1 4204   0.004   2.861   3.287  0.0579  0.1951  0.6509
  940SOL     H2 4205   0.135   2.936   3.272  0.6697 -0.8987  0.4239
  940SOL    EPW 4206   0.085   2.866   3.251 -0.0014 -0.4325  0.4230
  941SOL      O 4207   0.640   1.643   2.700  0.3331 -0.2008 -0.3679
  941SOL     H1 4208   0.711   1.579   2.692  0.1234 -0.3144 -1.4044
  941SOL     H2 4209   0.561   1.595   2.672 -0.4711 -0.5866  2.3447
  941SOL    EPW 4210   0.639   1.631   2.696  0.2250 -0.2541 -0.1891
  942SOL      O 4211   1.943   2.276   0.906  0.0697  0.8329  0.0522
  942SOL     H1 4212   1.911   2.194   0.869  0.2393  0.1159  1.4766
  942SOL     H2 4213   1.879   2.298   0.973  0.9253  0.9914  0.8218
  942SOL    EPW 4214   1.932   2.270   0.909  0.1790  0.7733  0.2862
  943SOL      O 4215   1.231   2.669   3.478  0.1536  0.1501  0.3070
  943SOL     H1 4216   1.182   2.603   3.528  0.8176  0.8762  1.9545
  943SOL     H2 4217   1.320   2.663   3.512  1.0412 -0.5454 -2.0464
  943SOL    EPW 4218   1.235   2.661   3.487  0.3191  0.1533  0.2317
  944SOL      O 4219   0.710   2.710   2.934 -0.2403  0.0046  0.7001
  944SOL     H1 4220   0.785   2.769   2.932 -0.3360  0.0865 -1.6294
  944SOL     H2 4221   0.748   2.623   2.928 -0.1635 -0.1419  2.9962
  944SOL    EPW 4222   0.722   2.707   2.933 -0.2423 -0.0023  0.6965
  945SOL      O 4223   1.773   2.035   3.322  0.1447  0.0823 -0.5075
  945SOL     H1 4224   1.706   2.030   3.390  0.2812  1.3894 -0.2701
  945SOL     H2 4225   1.725   2.029   3.240 -0.1714  0.0728 -0.3206
  945SOL    EPW 4226   1.761   2.034   3.321  0.1255  0.2207 -0.4623
  946SOL      O 4227   3.432   0.806   0.390 -0.6452  0.4942 -0.1275
  946SOL     H1 4228   3.456   0.734   0.332 -3.4100  0.0655 -0.8102
  946SOL     H2 4229   3.374   0.767   0.455  1.6686  1.1740  2.4335
  946SOL    EPW 4230   3.428   0.794   0.390 -0.6933  0.5210  0.0728
  947SOL      O 4231   3.697   5.300   0.488  0.7661 -0.0031 -0.7009
  947SOL     H1 4232   3.762   5.265   0.549  1.0825 -1.1170 -1.6565
  947SOL     H2 4233   3.641   5.225   0.468 -1.3450  1.1374  0.7514
  947SOL    EPW 4234   3.698   5.288   0.493  0.5746 -0.0002 -0.6479
  948SOL      O 4235   1.350   2.182   4.097 -0.4337 -0.2826  0.1305
  948SOL     H1 4236   1.313   2.206   4.182  1.1920 -2.8623  1.6366
  948SOL     H2 4237   1.308   2.099   4.075  0.9680 -0.8652 -0.4000
  948SOL    EPW 4238   1.342   2.176   4.104 -0.1108 -0.6200  0.2345
  949SOL      O 4239   2.849   1.284   3.011 -0.0647 -0.2390 -0.1122
  949SOL     H1 4240   2.797   1.349   2.963 -1.8723 -1.0181  0.7543
  949SOL     H2 4241   2.817   1.200   2.979  0.0399 -0.7342  1.0790
  949SOL    EPW 4242   2.840   1.282   3.002 -0.2464 -0.3750  0.1073
  950SOL      O 4243   1.754   3.146   2.308 -0.0882 -0.4037  0.4764
  950SOL     H1 4244   1.702   3.122   2.385 -0.4722 -1.4249 -0.0919
  950SOL     H2 4245   1.696   3.129   2.234  1.2914 -2.2187 -0.2050
  950SOL    EPW 4246   1.742   3.142   2.309  0.0180 -0.7062  0.3431
  951SOL      O 4247   5.793   2.420   3.315  0.4891 -0.1513  0.0061
  951SOL     H1 4248   5.870   2.418   3.372 -0.0161 -1.1371  0.6519
  951SOL     H2 4249   5.770   2.328   3.303 -0.7337  0.1578 -0.0144
  951SOL    EPW 4250   5.799   2.410   3.320  0.3048 -0.2235  0.0728
  952SOL      O 4251   1.641   1.453   3.457  0.3767 -0.6597  0.4397
  952SOL     H1 4252   1.703   1.473   3.527  1.4299 -0.7811 -0.4389
  952SOL     H2 4253   1.627   1.359   3.463 -0.4773 -0.4910  1.2389
  952SOL    EPW 4254   1.646   1.445   3.465  0.3980 -0.6547  0.4312
  953SOL      O 4255   5.853   3.276   2.779  0.2273 -0.1407 -0.6338
  953SOL     H1 4256   5.804   3.258   2.699 -0.6199 -0.4119 -0.0656
  953SOL     H2 4257   5.807   3.349   2.819  1.4700  0.9116 -1.0712
  953SOL    EPW 4258   5.843   3.282   2.775  0.2695 -0.0574 -0.6198
  954SOL      O 4259   2.338   3.119   2.635 -0.3782 -0.0717 -0.0001
  954SOL     H1 4260   2.406   3.094   2.697  1.3115 -1.0545 -2.1550
  954SOL     H2 4261   2.287   3.040   2.621 -0.9905  0.2464  0.4200
  954SOL    EPW 4262   2.340   3.108   2.640 -0.2633 -0.1426 -0.1852
  955SOL      O 4263   3.960   5.506   0.345 -0.4748 -0.0455 -0.6481
  955SOL     H1 4264   3.987   5.592   0.313  1.0081 -0.6130 -0.9165
  955SOL     H2 4265   3.871   5.521   0.377 -1.1599  1.0218 -2.9533
  955SOL    EPW 4266   3.953   5.517   0.345 -0.3897  0.0078 -0.9226
  956SOL      O 4267   1.402   2.114   1.759  0.2667 -0.3603  0.6125
  956SOL     H1 4268   1.398   2.158   1.674  0.2676  1.8472  1.7173
  956SOL     H2 4269   1.405   2.021   1.738  1.3718  0.1887 -1.8360
  956SOL    EPW 4270   1.402   2.109   1.748  0.3847 -0.0663  0.4691
  957SOL      O 4271   5.746   1.235   4.122 -0.2194 -0.4151  0.1987
  957SOL     H1 4272   5.675   1.187   4.164 -1.1087  1.3361  0.7754
  957SOL     H2 4273   5.706   1.273   4.044  0.2729 -0.0385  0.1286
  957SOL    EPW 4274   5.734   1.234   4.118 -0.2617 -0.1881  0.2527
  958SOL      O 4275   1.944   0.311   1.468 -0.0936  0.0679 -0.4975
  958SOL     H1 4276   1.854   0.325   1.498  0.4898  1.5036  0.6125
  958SOL     H2 4277   1.977   0.241   1.525 -0.4544 -0.3800 -0.8295
  958SOL    EPW 4278   1.938   0.305   1.477 -0.0698  0.1733 -0.4145
  959SOL      O 4279   2.065   0.352   3.034 -0.5128  0.5728 -0.0346
  959SOL     H1 4280   1.988   0.408   3.036 -0.5547  0.6030 -1.7541
  959SOL     H2 4281   2.040   0.279   2.977  0.1174 -0.3475  0.8340
  959SOL    EPW 4282   2.054   0.350   3.028 -0.4501  0.4778 -0.1254
  960SOL      O 4283   0.460   2.276   0.846  0.6366  0.4697  0.5156
  960SOL     H1 4284   0.537   2.225   0.821  0.2309  0.6550 -1.1920
  960SOL     H2 4285   0.395   2.210   0.871  1.1833  0.2955  1.4952
  960SOL    EPW 4286   0.461   2.263   0.846  0.6516  0.4709  0.4379
  961SOL      O 4287   5.496   3.272   2.039  0.0654  0.0049  0.5092
  961SOL     H1 4288   5.423   3.219   2.070 -0.4374  0.7729  0.6577
  961SOL     H2 4289   5.572   3.236   2.083 -0.2656 -0.6425  0.5535
  961SOL    EPW 4290   5.496   3.263   2.047 -0.0236  0.0178  0.5298
  962SOL      O 4291   2.289   4.582   3.090 -0.0084  0.0015  0.3159
  962SOL     H1 4292   2.338   4.618   3.015 -0.4722 -0.4969 -0.2318
  962SOL     H2 4293   2.233   4.514   3.051 -0.1623 -0.3426  1.1364
  962SOL    EPW 4294   2.288   4.578   3.078 -0.0743 -0.0884  0.3450
  963SOL      O 4295   5.567   4.120   3.938  0.1290  0.1844  0.1332
  963SOL     H1 4296   5.572   4.199   3.992  1.8441  1.5063 -1.8576
  963SOL     H2 4297   5.649   4.074   3.956 -1.2170 -1.5711  1.8817
  963SOL    EPW 4298   5.576   4.123   3.945  0.1684  0.1381  0.1073
  964SOL      O 4299   5.738   4.245   3.340  0.1188 -0.2642 -0.1723
  964SOL     H1 4300   5.719   4.188   3.415  1.6814 -0.0731  0.3921
  964SOL     H2 4301   5.738   4.333   3.377  3.6580 -0.3707  0.2127
  964SOL    EPW 4302   5.736   4.248   3.352  0.6630 -0.2552 -0.0710
  965SOL      O 4303   2.275   2.764   3.865 -0.4938 -0.2829  0.5414
  965SOL     H1 4304   2.290   2.759   3.771 -0.9273  0.7040  0.4164
  965SOL     H2 4305   2.362   2.775   3.903 -0.3252 -0.6157  0.2549
  965SOL    EPW 4306   2.286   2.765   3.859 -0.5220 -0.2131  0.4975
  966SOL      O 4307   3.209   3.386   0.104 -0.2843 -0.4035  0.3495
  966SOL     H1 4308   3.253   3.319   0.156  0.5737 -0.0600  0.0780
  966SOL     H2 4309   3.203   3.348   0.016 -2.5998 -1.3769  0.8884
  966SOL    EPW 4310   3.213   3.375   0.100 -0.4398 -0.4707  0.3781
  967SOL      O 4311   1.165   3.076   3.666  0.1678  0.0745 -0.0225
  967SOL     H1 4312   1.120   2.994   3.645  0.0369  0.6351 -2.0012
  967SOL     H2 4313   1.213   3.056   3.747  0.7811 -2.2062 -0.8954
  967SOL    EPW 4314   1.165   3.065   3.672  0.2193 -0.1090 -0.3267
  968SOL      O 4315   0.652   2.385   4.097 -0.5942 -0.3621  0.0864
  968SOL     H1 4316   0.733   2.335   4.088  0.9921  2.2844 -1.1256
  968SOL     H2 4317   0.583   2.320   4.091  1.4117 -2.5367 -0.2360
  968SOL    EPW 4318   0.653   2.373   4.095 -0.2110 -0.3117 -0.0773
  969SOL      O 4319   3.270   5.510   1.047  0.5615  0.3628 -0.1196
  969SOL     H1 4320   3.239   5.447   1.112  1.6923 -1.3136 -1.1484
  969SOL     H2 4321   3.192   5.557   1.019 -0.3058 -0.6314  0.6160
  969SOL    EPW 4322   3.259   5.508   1.051  0.5896  0.0779 -0.1509
  970SOL      O 4323   1.969   1.950   2.963 -0.3129 -0.0586  0.3731
  970SOL     H1 4324   1.898   1.909   2.914 -1.7773  1.6646  1.0053
  970SOL     H2 4325   1.986   2.032   2.916  1.7657 -0.7445 -0.1769
  970SOL    EPW 4326   1.964   1.955   2.952 -0.2473  0.0521  0.3819
  971SOL      O 4327   2.985   0.237   1.317 -0.2440  0.1837  0.2739
  971SOL     H1 4328   3.021   0.186   1.244  2.0992 -1.1587  2.3043
  971SOL     H2 4329   2.895   0.205   1.325 -0.5690  0.4013 -2.0274
  971SOL    EPW 4330   2.979   0.228   1.310 -0.0287  0.0637  0.2450
  972SOL      O 4331   0.966   1.807   3.823  0.0828  0.3321  0.5878
  972SOL     H1 4332   0.871   1.792   3.818  0.1070 -0.2989  1.9363
  972SOL     H2 4333   0.978   1.858   3.903  1.0153 -0.6113  1.0484
  972SOL    EPW 4334   0.957   1.811   3.831  0.1848  0.1641  0.7808
  973SOL      O 4335   0.954   3.978   3.856 -0.2338  0.2023  0.3150
  973SOL     H1 4336   1.029   3.919   3.845 -0.8765 -0.5620  0.0012
  973SOL     H2 4337   0.993   4.064   3.868  0.7466 -0.3712  1.3995
  973SOL    EPW 4338   0.966   3.981   3.856 -0.1978  0.0596  0.3972
  974SOL      O 4339   5.469   1.075   0.951  0.8157  0.1351  0.6519
  974SOL     H1 4340   5.541   1.052   1.010  2.9020  0.4268 -1.6618
  974SOL     H2 4341   5.510   1.133   0.886 -1.3043 -0.4498 -1.2718
  974SOL    EPW 4342   5.481   1.079   0.950  0.8121  0.1038  0.1998
  975SOL      O 4343   4.189   4.846   0.476 -0.1291  0.7332  0.0890
  975SOL     H1 4344   4.229   4.776   0.527 -0.4506 -0.2242 -0.9419
  975SOL     H2 4345   4.097   4.846   0.502 -0.3304  0.1259 -0.6128
  975SOL    EPW 4346   4.184   4.839   0.484 -0.1849  0.5663 -0.0958
  976SOL      O 4347   2.903   4.119   3.110  0.1689  0.1750  0.1282
  976SOL     H1 4348   2.917   4.201   3.158  1.7113 -0.4131  0.6853
  976SOL     H2 4349   2.973   4.116   3.046 -0.6072 -0.1236 -0.7233
  976SOL    EPW 4350   2.912   4.128   3.108  0.2506  0.0804  0.0968
  977SOL      O 4351   2.560   0.416   0.746 -0.1550 -0.6204 -0.5767
  977SOL     H1 4352   2.465   0.426   0.732 -0.0270 -0.0366 -1.0706
  977SOL     H2 4353   2.571   0.324   0.770 -1.0257 -0.3383  0.9666
  977SOL    EPW 4354   2.551   0.407   0.747 -0.2342 -0.5280 -0.4648
  978SOL      O 4355   1.305   3.045   3.885 -0.1114  0.1458 -0.1826
  978SOL     H1 4356   1.258   2.991   3.949  0.9443  0.6605  1.0461
  978SOL     H2 4357   1.384   2.994   3.866 -0.3664  0.0509 -1.0003
  978SOL    EPW 4358   1.308   3.034   3.890 -0.0260  0.1906 -0.1388
  979SOL      O 4359   2.733   5.807   0.010 -0.0102  0.3539 -0.1261
  979SOL     H1 4360   2.806   5.778  -0.045 -0.1568  1.1579 -0.7612
  979SOL     H2 4361   2.658   5.811  -0.050 -0.0324  1.8449 -0.0272
  979SOL    EPW 4362   2.733   5.804  -0.002 -0.0282  0.5988 -0.1833
  980SOL      O 4363   4.489   5.036   0.207 -0.2810 -0.3896 -0.1368
  980SOL     H1 4364   4.453   5.114   0.250 -1.8262 -1.8139  1.2223
  980SOL     H2 4365   4.413   4.980   0.192  0.7943 -1.5690 -1.2806
  980SOL    EPW 4366   4.477   5.038   0.210 -0.3311 -0.6674 -0.1138
  981SOL      O 4367   2.791   0.161   0.523  0.0719 -0.3317 -0.2863
  981SOL     H1 4368   2.789   0.086   0.582  0.9479 -0.2753 -0.1776
  981SOL     H2 4369   2.699   0.180   0.505 -0.2231  0.0023  1.5153
  981SOL    EPW 4370   2.781   0.155   0.527  0.1339 -0.2901 -0.0825
  982SOL      O 4371   1.941   2.985   3.630  0.3188 -0.3654 -0.2914
  982SOL     H1 4372   1.855   2.990   3.589  0.6755 -0.1803 -1.0220
  982SOL     H2 4373   1.977   2.902   3.602  0.4685 -0.3474 -0.1551
  982SOL    EPW 4374   1.936   2.977   3.623  0.3728 -0.3438 -0.3548
  983SOL      O 4375   3.597   4.389   0.121 -0.2589 -0.7596 -0.4253
  983SOL     H1 4376   3.608   4.296   0.140 -2.1471 -0.9202 -0.0440
  983SOL     H2 4377   3.687   4.423   0.115  0.4437 -2.6348 -0.7920
  983SOL    EPW 4378   3.608   4.383   0.123 -0.3854 -0.9768 -0.4237
  984SOL      O 4379   0.550   3.177   4.082  0.1719  0.1080 -0.0530
  984SOL     H1 4380   0.482   3.208   4.023  0.6684 -0.7268 -1.0829
  984SOL     H2 4381   0.596   3.109   4.033  1.0921 -0.0628  1.0042
  984SOL    EPW 4382   0.548   3.173   4.071  0.3230  0.0007 -0.0501
  985SOL      O 4383   1.217   2.937   3.310 -0.4838  0.5149  0.5858
  985SOL     H1 4384   1.241   2.931   3.217  1.7856  0.2610  1.1547
  985SOL     H2 4385   1.208   2.846   3.338 -2.1385  0.6043  0.4005
  985SOL    EPW 4386   1.219   2.926   3.303 -0.4183  0.4973  0.6267
  986SOL      O 4387   0.712   2.062   3.904 -0.2728  1.0699  0.0762
  986SOL     H1 4388   0.785   2.053   3.966 -0.9862 -1.7495  0.5798
  986SOL     H2 4389   0.713   1.981   3.854 -2.9133  1.0933 -0.0924
  986SOL    EPW 4390   0.720   2.053   3.905 -0.6306  0.7716  0.1119
  987SOL      O 4391   1.593   3.365   2.919 -0.3898  0.1307 -0.7024
  987SOL     H1 4392   1.518   3.396   2.870 -0.3310  0.0113 -0.8674
  987SOL     H2 4393   1.573   3.273   2.940 -0.5628  0.2774 -0.2171
  987SOL    EPW 4394   1.583   3.358   2.916 -0.4020  0.1336 -0.6682
  988SOL      O 4395   0.072   4.245   4.072 -0.2499 -0.5439 -0.1209
  988SOL     H1 4396   0.062   4.193   3.992 -1.8186  0.0120 -0.3026
  988SOL     H2 4397   0.157   4.287   4.062  0.1179 -1.4463 -0.9248
  988SOL    EPW 4398   0.080   4.244   4.062 -0.3780 -0.5809 -0.2260
  989SOL      O 4399   4.677   3.048   4.081 -0.1212  0.0252  0.5454
  989SOL     H1 4400   4.602   3.088   4.038  0.6378 -0.2760 -1.0813
  989SOL     H2 4401   4.649   2.957   4.097 -1.3641  0.8051  3.0815
  989SOL    EPW 4402   4.666   3.042   4.078 -0.1728  0.0763  0.6424
  990SOL      O 4403   0.576   2.527   3.325  0.1818 -0.0197  0.7617
  990SOL     H1 4404   0.588   2.542   3.419 -0.9730  1.1450  0.7432
  990SOL     H2 4405   0.481   2.536   3.312  0.3584 -0.0151 -0.5412
  990SOL    EPW 4406   0.567   2.530   3.334  0.0774  0.1050  0.6207
  991SOL      O 4407   5.036   5.253   0.757 -0.3993 -0.7084 -0.8259
  991SOL     H1 4408   5.100   5.267   0.687 -1.8872 -0.6302 -2.2270
  991SOL     H2 4409   5.073   5.296   0.833  0.9895 -0.2523 -1.7425
  991SOL    EPW 4410   5.046   5.259   0.757 -0.4099 -0.6514 -1.0732
  992SOL      O 4411   0.365   1.919   3.336  0.3427  0.3295  0.0791
  992SOL     H1 4412   0.396   1.844   3.286 -2.6610 -0.4823 -0.6706
  992SOL     H2 4413   0.437   1.982   3.333  2.0975 -1.6862 -1.0352
  992SOL    EPW 4414   0.376   1.918   3.331  0.2094  0.0278 -0.1198
  993SOL      O 4415   2.631   5.555   0.407  0.1816  0.1833 -0.3567
  993SOL     H1 4416   2.637   5.543   0.312  0.4296  0.1896 -0.3400
  993SOL     H2 4417   2.720   5.541   0.439  0.3203  1.3014 -0.2524
  993SOL    EPW 4418   2.641   5.552   0.400  0.2229  0.3033 -0.3438
  994SOL      O 4419   4.041   0.470   1.053  0.0131  0.3150 -0.3836
  994SOL     H1 4420   4.007   0.551   1.090  1.0843 -0.4822  2.4616
  994SOL     H2 4421   4.133   0.490   1.034  0.2076 -0.1732  0.0662
  994SOL    EPW 4422   4.047   0.481   1.055  0.1481  0.1778 -0.0321
  995SOL      O 4423   5.396   3.906   3.993  0.4592  0.3353  0.3366
  995SOL     H1 4424   5.445   3.987   3.983  1.1439 -0.3864 -2.8334
  995SOL     H2 4425   5.446   3.856   4.058  0.0493  2.3845  2.2686
  995SOL    EPW 4426   5.407   3.909   3.999  0.4885  0.4769  0.2045
  996SOL      O 4427   1.171   3.925   3.475  0.5092  0.3849 -0.0826
  996SOL     H1 4428   1.082   3.897   3.451  0.7125 -1.1249  0.8452
  996SOL     H2 4429   1.226   3.894   3.403  0.5438 -0.3874  0.2754
  996SOL    EPW 4430   1.167   3.919   3.464  0.5345  0.1414  0.0545
  997SOL      O 4431   3.905   4.879   0.189 -0.1004 -0.3757  0.2387
  997SOL     H1 4432   3.935   4.791   0.213 -0.8541 -0.7657 -0.2486
  997SOL     H2 4433   3.810   4.872   0.182 -0.2679  0.7169  1.1644
  997SOL    EPW 4434   3.898   4.869   0.191 -0.1987 -0.3008  0.2855
  998SOL      O 4435   1.551   3.754   3.176 -0.2810 -0.1245 -0.3127
  998SOL     H1 4436   1.529   3.784   3.088  0.7829 -1.8544 -1.2045
  998SOL     H2 4437   1.518   3.664   3.179  0.1592 -0.2504  0.8828
  998SOL    EPW 4438   1.545   3.748   3.167 -0.1206 -0.3225 -0.2803
  999SOL      O 4439   1.038   3.859   2.923 -0.3361  0.0537  0.0776
  999SOL     H1 4440   1.107   3.861   2.857  0.0889  2.3517  0.5810
  999SOL     H2 4441   0.966   3.909   2.884 -0.6718  0.0697  0.7169
  999SOL    EPW 4442   1.038   3.864   2.912 -0.3266  0.3005  0.1995
 1000SOL      O 4443   5.749   4.244   0.560 -0.1339 -0.1174  0.2452
 1000SOL     H1 4444   5.838   4.252   0.592  0.1287 -0.2984 -0.4333
 1000SOL     H2 4445   5.746   4.158   0.517 -0.5013  0.0798 -0.1346
 1000SOL    EPW 4446   5.758   4.235   0.559 -0.1451 -0.1157  0.1323
 1001SOL      O 4447   2.355   3.969   3.669 -0.2472  0.2780 -0.1700
 1001SOL     H1 4448   2.311   4.011   3.595 -1.2829  0.3017  0.4548
 1001SOL     H2 4449   2.307   4.000   3.746  0.3793 -0.3052  0.4511
 1001SOL    EPW 4450   2.345   3.976   3.669 -0.2909  0.2183 -0.0371
 1002SOL      O 4451   5.202   3.202   3.984 -0.1486  0.1594  0.4402
 1002SOL     H1 4452   5.159   3.127   4.025 -0.8443 -0.4166 -1.2868
 1002SOL     H2 4453   5.134   3.269   3.979 -0.1908  0.0832 -0.1041
 1002SOL    EPW 4454   5.190   3.201   3.988 -0.2273  0.0898  0.1979
 1003SOL      O 4455   1.949   3.461   3.148 -0.2070 -0.0264 -0.1013
 1003SOL     H1 4456   1.938   3.429   3.058 -0.7337  0.7870 -0.3322
 1003SOL     H2 4457   1.900   3.543   3.150 -0.2452 -0.0740  0.9519
 1003SOL    EPW 4458   1.943   3.466   3.139 -0.2672  0.0553 -0.0136
 1004SOL      O 4459   0.433   0.846   4.147  0.7034 -0.3078 -0.3691
 1004SOL     H1 4460   0.346   0.807   4.149  0.6918 -0.2981 -0.6053
 1004SOL     H2 4461   0.456   0.859   4.239  0.4026 -0.1866 -0.3120
 1004SOL    EPW 4462   0.426   0.843   4.157  0.6701 -0.2938 -0.3882
 1005SOL      O 4463   2.809   0.034   0.802 -0.2374 -0.0233  0.4960
 1005SOL     H1 4464   2.785  -0.057   0.788  1.6798 -0.5707  0.6842
 1005SOL     H2 4465   2.731   0.084   0.776  0.0550 -1.4688 -3.3977
 1005SOL    EPW 4466   2.798   0.030   0.798 -0.0017 -0.2359  0.1007
 1006SOL      O 4467   1.020   2.439   3.954  0.3144  0.2086 -0.1852
 1006SOL     H1 4468   1.104   2.475   3.927  0.0557  0.0450 -1.2358
 1006SOL     H2 4469   0.966   2.516   3.974 -0.5084  0.5171 -3.2292
 1006SOL    EPW 4470   1.023   2.451   3.953  0.1991  0.2241 -0.6220
 1007SOL      O 4471   0.325   4.390   4.118  0.4826  0.2046  0.3309
 1007SOL     H1 4472   0.382   4.399   4.041  1.4480 -0.1500  0.9992
 1007SOL     H2 4473   0.272   4.470   4.118  1.5340  0.9042  0.1511
 1007SOL    EPW 4474   0.325   4.399   4.110  0.6978  0.2414  0.3830
 1008SOL      O 4475   0.905   2.000   3.136  0.5243 -0.3435 -1.0471
 1008SOL     H1 4476   0.966   1.931   3.109  0.2118  0.2935 -3.4869
 1008SOL     H2 4477   0.954   2.081   3.123  0.2955  0.0135  0.2042
 1008SOL    EPW 4478   0.917   2.002   3.132  0.4665 -0.2375 -1.1739
 1009SOL      O 4479   1.817   0.108   0.748  0.3773 -0.1199  0.1270
 1009SOL     H1 4480   1.894   0.104   0.690  0.1787 -1.5017 -0.0521
 1009SOL     H2 4481   1.783   0.197   0.736  3.5954  1.4887  2.3721
 1009SOL    EPW 4482   1.822   0.117   0.740  0.6994 -0.0957  0.3474
 1010SOL      O 4483   5.871   2.125   3.684  0.5390  0.1657  0.1058
 1010SOL     H1 4484   5.784   2.107   3.649  0.7262 -1.0109  0.2033
 1010SOL     H2 4485   5.931   2.104   3.612  0.8246 -0.6034  0.5558
 1010SOL    EPW 4486   5.868   2.121   3.673  0.5894 -0.0418  0.1642
 1011SOL      O 4487   1.383   3.047   3.498  0.1999  0.2391 -0.7125
 1011SOL     H1 4488   1.313   3.056   3.564  0.0143 -2.1366 -0.5676
 1011SOL     H2 4489   1.337   3.017   3.420  0.4975  2.5843 -1.8430
 1011SOL    EPW 4490   1.370   3.045   3.497  0.2119  0.2359 -0.8176
 1012SOL      O 4491   0.065   3.121   3.587 -0.3978 -0.5355 -0.2452
 1012SOL     H1 4492   0.074   3.027   3.569 -0.4277 -0.4918 -0.5006
 1012SOL     H2 4493  -0.018   3.128   3.635  0.0945 -0.7477  0.6457
 1012SOL    EPW 4494   0.057   3.112   3.590 -0.3484 -0.5535 -0.1774
 1013SOL      O 4495   0.876   2.983   3.882 -0.3785 -0.2343  0.2676
 1013SOL     H1 4496   0.902   2.930   3.807  2.3420 -1.6741  2.1582
 1013SOL     H2 4497   0.786   2.955   3.900 -0.1858 -1.7100 -0.8994
 1013SOL    EPW 4498   0.869   2.974   3.876 -0.0677 -0.5453  0.3448
 1014SOL      O 4499   0.276   2.117   3.888  0.0476  0.3084 -0.2310
 1014SOL     H1 4500   0.325   2.051   3.838  1.0689 -1.7586  3.3483
 1014SOL     H2 4501   0.191   2.076   3.904  0.4357  0.1196  1.4050
 1014SOL    EPW 4502   0.272   2.106   3.884  0.1979  0.0678  0.3254
 1015SOL      O 4503   4.003   5.703   0.948 -0.4671 -0.8002 -0.1153
 1015SOL     H1 4504   4.027   5.764   0.879  1.4864  0.2004  1.3786
 1015SOL     H2 4505   3.912   5.680   0.930 -1.4587  3.0570 -0.3676
 1015SOL    EPW 4506   3.996   5.707   0.939 -0.3645 -0.2820  0.0171
 1016SOL      O 4507   3.590   5.037   0.810  0.0522 -0.2583  0.0679
 1016SOL     H1 4508   3.557   4.976   0.875  0.8336 -1.4908 -0.6867
 1016SOL     H2 4509   3.651   5.093   0.858 -0.5483 -0.1564  0.7206
 1016SOL    EPW 4510   3.593   5.037   0.822  0.0715 -0.3789  0.0570
 1017SOL      O 4511   0.984   3.358   2.747 -0.9941 -0.2013 -0.2611
 1017SOL     H1 4512   1.043   3.420   2.705 -1.7447  0.8962  0.2761
 1017SOL     H2 4513   0.968   3.292   2.680  0.9919 -0.6265 -0.3384
 1017SOL    EPW 4514   0.988   3.358   2.735 -0.8623 -0.1296 -0.2120
 1018SOL      O 4515   3.688   4.387   0.681  0.1739  0.4362 -0.0171
 1018SOL     H1 4516   3.761   4.444   0.657  0.8119 -0.2981  0.1954
 1018SOL     H2 4517   3.727   4.319   0.736 -0.7583  0.3528  0.5475
 1018SOL    EPW 4518   3.700   4.386   0.684  0.1425  0.3489  0.0658
 1019SOL      O 4519   4.532   1.090   0.105  0.6661 -0.2822  0.4802
 1019SOL     H1 4520   4.565   1.004   0.128 -1.2699 -1.3216 -0.4561
 1019SOL     H2 4521   4.521   1.086   0.009 -1.7700  0.0964  0.6984
 1019SOL    EPW 4522   4.534   1.080   0.097  0.1997 -0.3527  0.4036
 1020SOL      O 4523   0.832   1.007   3.765  0.2471 -0.2596  0.3213
 1020SOL     H1 4524   0.762   1.040   3.708  0.9730 -0.1927 -0.5482
 1020SOL     H2 4525   0.802   1.027   3.854 -1.1425 -0.8352 -0.0038
 1020SOL    EPW 4526   0.821   1.013   3.768  0.1763 -0.3139  0.1938
 1021SOL      O 4527   5.391   5.670   0.102  0.0871 -0.3433 -0.0116
 1021SOL     H1 4528   5.445   5.606   0.056  0.2077  1.4752 -2.4412
 1021SOL     H2 4529   5.304   5.661   0.063 -0.2077  0.1325  0.5256
 1021SOL    EPW 4530   5.387   5.662   0.093  0.0685 -0.0986 -0.2135
 1022SOL      O 4531   1.375   2.225   3.802  0.0740 -0.9494 -0.5966
 1022SOL     H1 4532   1.365   2.298   3.863 -0.6022 -2.4854  1.1702
 1022SOL     H2 4533   1.431   2.162   3.847 -0.7881 -2.3132 -1.3614
 1022SOL    EPW 4534   1.380   2.226   3.813 -0.0901 -1.2587 -0.4897
 1023SOL      O 4535   0.588   4.070   3.241  0.1228 -0.4238  0.1744
 1023SOL     H1 4536   0.542   4.106   3.317  0.0737  0.3895 -0.2303
 1023SOL     H2 4537   0.519   4.042   3.182  0.1603 -0.4715  0.1526
 1023SOL    EPW 4538   0.576   4.071   3.243  0.1216 -0.3421  0.1289
 1024SOL      O 4539   1.741   4.741   2.840  0.4195  0.5043 -0.4779
 1024SOL     H1 4540   1.710   4.651   2.827  1.3165  0.2002 -0.4844
 1024SOL     H2 4541   1.671   4.796   2.803 -1.3144 -0.0929  1.7799
 1024SOL    EPW 4542   1.730   4.738   2.835  0.3302  0.4082 -0.2378
 1025SOL      O 4543   0.793   4.024   2.353 -0.2334  0.2591 -0.4480
 1025SOL     H1 4544   0.872   4.035   2.406  0.1978  1.9124 -1.3868
 1025SOL     H2 4545   0.809   3.944   2.303  0.9266  0.6499 -0.7246
 1025SOL    EPW 4546   0.803   4.016   2.353 -0.0636  0.4772 -0.5776
 1026SOL      O 4547   3.593   4.121   0.206  0.0568 -0.2688 -0.3114
 1026SOL     H1 4548   3.522   4.058   0.216 -0.4634  0.4612  0.7544
 1026SOL     H2 4549   3.654   4.080   0.145 -0.8636 -1.2726 -0.5654
 1026SOL    EPW 4550   3.592   4.110   0.201 -0.0969 -0.2980 -0.2248
 1027SOL      O 4551   2.880   4.554   0.770 -0.5071 -0.1737  0.1998
 1027SOL     H1 4552   2.896   4.628   0.713  0.1422  1.1258  2.0175
 1027SOL     H2 4553   2.933   4.483   0.733  2.3174  1.5093  0.8909
 1027SOL    EPW 4554   2.888   4.554   0.760 -0.1365  0.1445  0.4675
 1028SOL      O 4555   3.619   0.098   0.353  0.0118  0.2601 -0.0394
 1028SOL     H1 4556   3.620   0.007   0.324 -0.2387 -0.4712  2.1625
 1028SOL     H2 4557   3.711   0.125   0.349 -0.0327  0.2049 -1.5644
 1028SOL    EPW 4558   3.629   0.091   0.350 -0.0196  0.1762  0.0328
 1029SOL      O 4559   5.205   1.192   3.769  0.6454  0.0902  0.0587
 1029SOL     H1 4560   5.183   1.285   3.769 -0.0824 -0.0749  0.1041
 1029SOL     H2 4561   5.264   1.181   3.695  1.8892  0.8423  0.9083
 1029SOL    EPW 4562   5.209   1.200   3.761  0.7004  0.1528  0.1542
 1030SOL      O 4563   2.739   3.977   0.338  0.6102 -0.6017  0.4083
 1030SOL     H1 4564   2.724   3.882   0.339  2.3810 -0.8970 -0.1423
 1030SOL     H2 4565   2.741   4.002   0.430 -0.1065 -1.0378  0.5511
 1030SOL    EPW 4566   2.737   3.969   0.348  0.7226 -0.6797  0.3648
 1031SOL      O 4567   5.561   5.760   1.570 -0.0041 -0.0287  0.1720
 1031SOL     H1 4568   5.582   5.716   1.653  1.2074  0.8588  0.3558
 1031SOL     H2 4569   5.517   5.693   1.518  1.2291 -1.2742  0.6896
 1031SOL    EPW 4570   5.559   5.748   1.574  0.2567 -0.0669  0.2469
 1032SOL      O 4571   1.510   0.740   1.127 -0.1514 -0.5096  0.0269
 1032SOL     H1 4572   1.490   0.707   1.215  0.8264  1.0548  0.8457
 1032SOL     H2 4573   1.582   0.685   1.097 -0.3406 -0.9009  0.2829
 1032SOL    EPW 4574   1.515   0.730   1.133 -0.0673 -0.3844  0.1416
 1033SOL      O 4575   0.952   2.702   4.035  0.1063  0.2243  0.3321
 1033SOL     H1 4576   0.930   2.734   4.122 -0.1854  0.7767  0.0559
 1033SOL     H2 4577   0.885   2.738   3.978  0.9378  0.8100 -0.2989
 1033SOL    EPW 4578   0.943   2.709   4.038  0.1639  0.3457  0.2353
 1034SOL      O 4579   0.901   3.656   3.075  0.3646  0.3851  0.0038
 1034SOL     H1 4580   0.943   3.713   3.010 -1.1280  0.0494 -1.2820
 1034SOL     H2 4581   0.827   3.708   3.108  1.5349  0.8377  1.9905
 1034SOL    EPW 4582   0.897   3.668   3.072  0.3302  0.3976  0.0786
 1035SOL      O 4583   1.733   0.023   0.314 -0.0789  0.7226  0.6211
 1035SOL     H1 4584   1.790   0.070   0.253  0.2036  0.8054  0.9444
 1035SOL     H2 4585   1.682   0.091   0.357  2.9529  1.1386  3.7926
 1035SOL    EPW 4586   1.734   0.035   0.312  0.2746  0.7758  0.9939
 1036SOL      O 4587   0.953   2.468   3.693  0.3157  0.3025 -0.5864
 1036SOL     H1 4588   0.891   2.402   3.663 -3.7014  2.7939  1.7227
 1036SOL     H2 4589   0.978   2.439   3.781  0.0415  0.8419 -0.3273
 1036SOL    EPW 4590   0.949   2.458   3.699 -0.1421  0.6258 -0.3124
 1037SOL      O 4591   4.618   0.138   0.303 -0.0193 -0.9162 -0.3255
 1037SOL     H1 4592   4.659   0.150   0.218 -1.0986  0.4372 -0.6812
 1037SOL     H2 4593   4.525   0.123   0.283 -0.0922 -1.7223  0.5623
 1037SOL    EPW 4594   4.612   0.138   0.292 -0.1422 -0.8578 -0.2687
 1038SOL      O 4595   1.342   3.226   4.068  0.5161 -0.0748 -0.2159
 1038SOL     H1 4596   1.332   3.178   3.986 -0.4485  0.1823 -0.2520
 1038SOL     H2 4597   1.432   3.208   4.095  1.1581  0.5880 -1.8177
 1038SOL    EPW 4598   1.351   3.219   4.062  0.4817  0.0233 -0.3907
 1039SOL      O 4599   2.680   0.991   0.105  0.3031  0.0598  0.7163
 1039SOL     H1 4600   2.676   1.003   0.010  0.9215  2.0989  0.9284
 1039SOL     H2 4601   2.729   0.909   0.117 -0.3904 -0.5894 -0.7176
 1039SOL    EPW 4602   2.685   0.983   0.096  0.2951  0.2080  0.5860
 1040SOL      O 4603   3.955   5.473   1.162  0.2856  0.1783 -0.1021
 1040SOL     H1 4604   3.921   5.404   1.217  1.2012 -1.1267 -1.1336
 1040SOL     H2 4605   3.995   5.427   1.088 -0.5863  1.8651 -1.6604
 1040SOL    EPW 4606   3.956   5.461   1.160  0.2903  0.2190 -0.3784
 1041SOL      O 4607   5.219   4.255   3.850 -0.7314  0.4956  0.2858
 1041SOL     H1 4608   5.187   4.178   3.803 -1.5684  3.4078 -4.1550
 1041SOL     H2 4609   5.155   4.268   3.921 -2.6349 -0.7420 -1.1715
 1041SOL    EPW 4610   5.209   4.248   3.853 -1.0237  0.6742 -0.3434
 1042SOL      O 4611   2.751   5.636   0.737  0.1579 -0.0132 -0.4121
 1042SOL     H1 4612   2.824   5.600   0.687  0.2335 -0.0135 -0.3030
 1042SOL     H2 4613   2.692   5.562   0.751  0.6057 -0.2380  0.3355
 1042SOL    EPW 4614   2.752   5.625   0.733  0.2138 -0.0372 -0.3207
 1043SOL      O 4615   1.683   5.184   0.143 -0.0232 -0.6158  0.3771
 1043SOL     H1 4616   1.763   5.137   0.123 -0.2670 -0.2935 -1.5219
 1043SOL     H2 4617   1.712   5.273   0.164  0.2253 -0.8944  1.2224
 1043SOL    EPW 4618   1.694   5.189   0.143 -0.0227 -0.6111  0.2647
 1044SOL      O 4619   0.207   3.948   4.071  0.0468  0.2009 -0.4573
 1044SOL     H1 4620   0.288   3.960   4.121 -0.0602 -0.0674 -0.2150
 1044SOL     H2 4621   0.216   4.006   3.996  1.1175 -0.9103 -1.2110
 1044SOL    EPW 4622   0.217   3.955   4.069  0.1496  0.0538 -0.5119
 1045SOL      O 4623   0.657   4.736   2.087 -0.0495  0.5489  0.0252
 1045SOL     H1 4624   0.701   4.679   2.150 -0.9921  0.9308  1.0661
 1045SOL     H2 4625   0.727   4.783   2.043  0.6957 -0.7990 -0.2517
 1045SOL    EPW 4626   0.669   4.735   2.089 -0.0705  0.4458  0.1067
 1046SOL      O 4627   2.901   3.873   1.079 -0.3747  0.4208 -0.3777
 1046SOL     H1 4628   2.996   3.888   1.081 -0.2161 -0.5541 -0.0862
 1046SOL     H2 4629   2.893   3.779   1.064 -1.2917  0.3703  0.4251
 1046SOL    EPW 4630   2.910   3.864   1.078 -0.4556  0.3114 -0.2610
 1047SOL      O 4631   5.748   3.998   0.883 -0.0454  0.1917  0.0649
 1047SOL     H1 4632   5.723   4.088   0.859 -0.5262  0.3917  1.2985
 1047SOL     H2 4633   5.717   3.987   0.972  3.1029 -0.0318  1.1905
 1047SOL    EPW 4634   5.742   4.006   0.890  0.2392  0.1892  0.3166
 1048SOL      O 4635   0.636   4.446   0.367  0.0132 -0.0133  0.3725
 1048SOL     H1 4636   0.629   4.499   0.288  1.7104  0.1299  0.2888
 1048SOL     H2 4637   0.563   4.384   0.361 -0.0148  0.1425 -1.1837
 1048SOL    EPW 4638   0.628   4.445   0.358  0.1913  0.0186  0.1976
 1049SOL      O 4639   5.352   2.595   3.690 -0.1003  0.1341 -0.1953
 1049SOL     H1 4640   5.354   2.506   3.655  0.4081 -0.2960  0.8939
 1049SOL     H2 4641   5.358   2.651   3.613 -1.5005 -0.7548 -0.9810
 1049SOL    EPW 4642   5.353   2.591   3.678 -0.1954 -0.0066 -0.1629
 1050SOL      O 4643   0.385   4.656   1.148 -0.3186 -0.4757  0.3077
 1050SOL     H1 4644   0.389   4.572   1.101 -1.5714 -0.2022 -0.3185
 1050SOL     H2 4645   0.296   4.687   1.133  0.6322  1.8131 -0.9009
 1050SOL    EPW 4646   0.376   4.650   1.141 -0.3508 -0.2024  0.1120
 1051SOL      O 4647   5.563   2.635   3.868  0.1705  0.1547 -0.3990
 1051SOL     H1 4648   5.487   2.632   3.811 -0.8919  1.8594  0.8796
 1051SOL     H2 4649   5.531   2.674   3.950  2.6142  1.9400 -0.2030
 1051SOL    EPW 4650   5.552   2.639   3.871  0.3179  0.5270 -0.2417
 1052SOL      O 4651   0.296   4.131   0.090 -0.1473 -0.4785 -0.0825
 1052SOL     H1 4652   0.238   4.165   0.022 -0.3685 -0.0142  0.3333
 1052SOL     H2 4653   0.239   4.082   0.149 -0.0853 -0.2172  0.1983
 1052SOL    EPW 4654   0.284   4.130   0.089 -0.1643 -0.4011 -0.0082
 1053SOL      O 4655   0.236   3.810   0.103  0.1944  0.2793  0.7825
 1053SOL     H1 4656   0.202   3.875   0.164  0.6067 -0.1126  1.4350
 1053SOL     H2 4657   0.331   3.812   0.115  0.1549 -1.0955  1.4912
 1053SOL    EPW 4658   0.242   3.817   0.111  0.2342  0.0908  0.9277
 1054SOL      O 4659   5.574   4.462   2.264  0.3083  0.4752  0.2565
 1054SOL     H1 4660   5.607   4.412   2.338 -0.5906  0.6752  0.7915
 1054SOL     H2 4661   5.591   4.406   2.188  0.6687  0.0131  0.6762
 1054SOL    EPW 4662   5.580   4.451   2.264  0.2508  0.4473  0.3584
 1055SOL      O 4663   2.923   1.302   3.767 -0.4044 -0.5485  0.0650
 1055SOL     H1 4664   2.850   1.283   3.708 -0.9542 -0.1316  0.6018
 1055SOL     H2 4665   2.893   1.270   3.853  0.6841 -1.8227 -0.0206
 1055SOL    EPW 4666   2.912   1.296   3.770 -0.3469 -0.6400  0.1131
 1056SOL      O 4667   5.807   0.277   1.073 -0.1155  0.5426  0.2607
 1056SOL     H1 4668   5.805   0.181   1.066 -1.0732  0.5800 -0.0526
 1056SOL     H2 4669   5.723   0.300   1.113 -1.5409  1.4936 -3.0919
 1056SOL    EPW 4670   5.798   0.269   1.076 -0.3697  0.6480 -0.1304
 1057SOL      O 4671   0.044   0.228   0.537 -0.3357 -0.3583  0.0454
 1057SOL     H1 4672   0.070   0.195   0.451 -1.9973 -0.4251 -0.4330
 1057SOL     H2 4673  -0.012   0.303   0.519 -0.9386 -0.5465  1.0591
 1057SOL    EPW 4674   0.041   0.233   0.526 -0.5773 -0.3855  0.1025
 1058SOL      O 4675   5.867   5.522   0.366 -0.4016  0.3901 -0.1347
 1058SOL     H1 4676   5.814   5.559   0.295 -1.1659 -0.2254  0.1130
 1058SOL     H2 4677   5.813   5.451   0.402  0.6769 -0.3740 -0.0113
 1058SOL    EPW 4678   5.855   5.519   0.362 -0.3680  0.2430 -0.0952
 1059SOL      O 4679   0.225   0.379   1.263 -0.2745  1.0522 -0.6728
 1059SOL     H1 4680   0.165   0.431   1.317  0.4241  1.1746 -0.0041
 1059SOL     H2 4681   0.174   0.302   1.238 -0.3570  0.6018  0.8323
 1059SOL    EPW 4682   0.213   0.376   1.266 -0.2088  1.0172 -0.4409
 1060SOL      O 4683   0.627   5.418   0.805  0.1244 -0.2124 -0.4412
 1060SOL     H1 4684   0.664   5.502   0.834 -0.9789  0.2919 -0.4737
 1060SOL     H2 4685   0.545   5.441   0.762  0.3647 -1.2177 -1.4551
 1060SOL    EPW 4686   0.622   5.429   0.804  0.0324 -0.2659 -0.5528
 1061SOL      O 4687   5.226   3.408   1.177 -0.1865  0.7795 -0.0538
 1061SOL     H1 4688   5.221   3.313   1.168  0.7074  0.9477 -3.0427
 1061SOL     H2 4689   5.173   3.429   1.254  0.2712 -2.1929  1.1183
 1061SOL    EPW 4690   5.220   3.400   1.184 -0.0423  0.4803 -0.2476
 1062SOL      O 4691   5.603   4.887   0.360  0.2901  0.5635  0.1495
 1062SOL     H1 4692   5.553   4.858   0.437 -1.4885  0.5694 -0.9643
 1062SOL     H2 4693   5.692   4.857   0.376  0.3233  2.0179  2.9892
 1062SOL    EPW 4694   5.607   4.881   0.370  0.1039  0.7193  0.3336
 1063SOL      O 4695   2.354   3.205   0.320 -0.1086  0.0533  0.1946
 1063SOL     H1 4696   2.384   3.205   0.229  0.0900  0.5628  0.2567
 1063SOL     H2 4697   2.266   3.169   0.317 -0.6345  1.3568 -0.3832
 1063SOL    EPW 4698   2.348   3.202   0.310 -0.1435  0.2467  0.1396
 1064SOL      O 4699   0.445   4.034   1.398  0.2583 -0.5532  0.3407
 1064SOL     H1 4700   0.521   4.070   1.444 -1.6012  1.8557  1.6052
 1064SOL     H2 4701   0.383   4.106   1.393 -1.1951 -1.9063 -2.4848
 1064SOL    EPW 4702   0.447   4.045   1.402 -0.0951 -0.4406  0.1742
 1065SOL      O 4703   2.223   2.063   4.104 -0.1245 -0.0905 -0.6383
 1065SOL     H1 4704   2.259   1.983   4.066  0.0374  0.3635 -1.4620
 1065SOL     H2 4705   2.289   2.093   4.166  0.2289 -0.0855 -1.0198
 1065SOL    EPW 4706   2.234   2.058   4.107 -0.0696 -0.0415 -0.7669
 1066SOL      O 4707   5.027   3.978   1.675 -0.1970 -0.4898  0.0108
 1066SOL     H1 4708   4.996   4.008   1.760 -0.3539 -1.8705  0.4592
 1066SOL     H2 4709   4.966   4.016   1.612 -2.1510 -2.2249  0.7890
 1066SOL    EPW 4710   5.017   3.985   1.677 -0.4221 -0.8222  0.1416
 1067SOL      O 4711   3.820   1.548   3.436 -0.3465  0.1090 -0.0549
 1067SOL     H1 4712   3.914   1.559   3.423 -0.1951 -1.3557 -0.3132
 1067SOL     H2 4713   3.794   1.624   3.488  0.6935  1.3276 -1.2649
 1067SOL    EPW 4714   3.827   1.557   3.440 -0.2194  0.0827 -0.2115
 1068SOL      O 4715   5.269   4.109   1.722  0.8970 -0.0781 -0.2800
 1068SOL     H1 4716   5.197   4.057   1.686  0.6513  0.7507 -1.0180
 1068SOL     H2 4717   5.327   4.125   1.648  0.9193  0.7765 -0.0833
 1068SOL    EPW 4718   5.268   4.105   1.711  0.8732  0.1015 -0.3377
 1069SOL      O 4719   3.900   5.698   3.377 -0.5127 -0.5988  0.3599
 1069SOL     H1 4720   3.843   5.767   3.409 -1.2195 -1.1165  0.2472
 1069SOL     H2 4721   3.872   5.685   3.286 -0.2615 -0.8987  0.3254
 1069SOL    EPW 4722   3.891   5.704   3.370 -0.5613 -0.6860  0.3442
 1070SOL      O 4723   3.766   2.191   3.210  0.2842  0.0324  0.1296
 1070SOL     H1 4724   3.765   2.247   3.288  0.2958 -0.0470  0.1878
 1070SOL     H2 4725   3.704   2.231   3.150  0.0900 -0.0441  0.2791
 1070SOL    EPW 4726   3.759   2.201   3.212  0.2647  0.0157  0.1517
 1071SOL      O 4727   3.911   2.219   4.085 -0.4285 -0.4352 -0.5274
 1071SOL     H1 4728   3.963   2.204   4.006 -0.0054  0.6367 -0.4465
 1071SOL     H2 4729   3.950   2.296   4.126 -0.0697 -1.5225  1.2169
 1071SOL    EPW 4730   3.921   2.225   4.081 -0.3451 -0.4368 -0.3327
 1072SOL      O 4731   5.283   0.451   3.664 -0.6978  0.6118 -0.2009
 1072SOL     H1 4732   5.283   0.526   3.723  3.5506 -1.0256  2.0516
 1072SOL     H2 4733   5.326   0.482   3.584  0.2894  0.8121  0.4076
 1072SOL    EPW 4734   5.287   0.462   3.662 -0.1393  0.4585  0.1043
 1073SOL      O 4735   1.405   5.582   0.137  0.1659  0.7429  0.2092
 1073SOL     H1 4736   1.399   5.563   0.043 -1.6911  0.2272  0.4180
 1073SOL     H2 4737   1.369   5.504   0.179  1.2792  0.8503  1.3671
 1073SOL    EPW 4738   1.401   5.571   0.131  0.0866  0.6993  0.3550
 1074SOL      O 4739   4.419   1.344   3.799  0.1140  0.4266 -0.6369
 1074SOL     H1 4740   4.443   1.432   3.773 -1.6350  0.8070 -1.0052
 1074SOL     H2 4741   4.440   1.340   3.892  1.8411  0.6434 -1.0056
 1074SOL    EPW 4742   4.424   1.353   3.806  0.1117  0.4903 -0.7155
 1075SOL      O 4743   3.541   3.099   4.124 -0.1701  0.8321  0.5153
 1075SOL     H1 4744   3.617   3.157   4.122  0.8773 -0.4478  1.6262
 1075SOL     H2 4745   3.499   3.110   4.038  1.2130  1.6268 -0.0703
 1075SOL    EPW 4746   3.545   3.106   4.115  0.0892  0.7803  0.5713
 1076SOL      O 4747   2.147   4.783   1.140  0.3495  0.0219  0.0782
 1076SOL     H1 4748   2.126   4.702   1.094  1.6019 -0.3165  0.1040
 1076SOL     H2 4749   2.063   4.811   1.177 -0.2513 -0.8196 -0.6223
 1076SOL    EPW 4750   2.136   4.777   1.139  0.4190 -0.1040  0.0062
 1077SOL      O 4751   0.425   1.685   2.071  0.1631 -0.9860  0.2078
 1077SOL     H1 4752   0.487   1.728   2.012 -0.7337 -0.9580 -0.7500
 1077SOL     H2 4753   0.383   1.618   2.016 -0.6790 -0.9700  0.8265
 1077SOL    EPW 4754   0.427   1.682   2.059 -0.0224 -0.9813  0.1716
 1078SOL      O 4755   3.114   1.789   3.607  0.1133 -0.3095 -0.1941
 1078SOL     H1 4756   3.193   1.835   3.581 -0.5870 -0.3156 -2.5185
 1078SOL     H2 4757   3.073   1.845   3.672 -0.3880  2.1054 -2.4953
 1078SOL    EPW 4758   3.118   1.800   3.611 -0.0149 -0.0526 -0.6875
 1079SOL      O 4759   2.537   2.471   3.645 -0.3243 -0.2324 -0.2471
 1079SOL     H1 4760   2.534   2.554   3.598 -2.5982 -0.9823 -1.4884
 1079SOL     H2 4761   2.460   2.472   3.701 -0.9943 -1.9412 -1.0903
 1079SOL    EPW 4762   2.529   2.480   3.646 -0.6383 -0.4947 -0.4695
 1080SOL      O 4763   1.988   5.175   1.890 -0.6027  0.1171  0.1246
 1080SOL     H1 4764   1.977   5.184   1.985 -0.9295 -0.5869  0.1549
 1080SOL     H2 4765   2.057   5.238   1.868 -1.4102  1.1927  0.6409
 1080SOL    EPW 4766   1.994   5.183   1.898 -0.7237  0.1568  0.1829
 1081SOL      O 4767   5.230   4.588   1.752  0.0334  0.4334  0.1789
 1081SOL     H1 4768   5.142   4.618   1.777  1.4545  3.8251  1.3508
 1081SOL     H2 4769   5.244   4.509   1.805 -1.8554  0.4890  0.8143
 1081SOL    EPW 4770   5.222   4.583   1.761 -0.0165  0.8012  0.3717
 1082SOL      O 4771   0.544   4.759   0.956 -0.3069 -0.9144  0.2876
 1082SOL     H1 4772   0.625   4.753   1.005  0.0938 -2.5841 -0.5421
 1082SOL     H2 4773   0.475   4.752   1.022  0.2286 -0.4439  0.8935
 1082SOL    EPW 4774   0.545   4.758   0.968 -0.2070 -1.0423  0.2637
 1083SOL      O 4775   2.976   3.468   1.928 -0.1877 -0.0020 -0.2588
 1083SOL     H1 4776   2.983   3.563   1.937 -0.8593 -0.0741  1.0750
 1083SOL     H2 4777   3.006   3.433   2.012  1.1122 -1.0295 -1.1273
 1083SOL    EPW 4778   2.980   3.475   1.938 -0.1207 -0.1193 -0.2092
 1084SOL      O 4779   0.167   5.078   0.436  0.1772 -0.0708 -0.6398
 1084SOL     H1 4780   0.191   5.170   0.446 -2.9404  0.6841  0.5644
 1084SOL     H2 4781   0.251   5.032   0.431  1.8202  2.5766  1.0159
 1084SOL    EPW 4782   0.179   5.083   0.437  0.0199  0.2921 -0.3347
 1085SOL      O 4783   1.247   4.544   0.420  0.0492  0.3182  0.1178
 1085SOL     H1 4784   1.203   4.627   0.401 -0.5765  0.0034  0.1595
 1085SOL     H2 4785   1.190   4.501   0.485  0.6758  0.1211  0.5417
 1085SOL    EPW 4786   1.236   4.548   0.425  0.0493  0.2636  0.1675
 1086SOL      O 4787   2.409   5.359   1.523 -0.0438 -0.2561 -0.3115
 1086SOL     H1 4788   2.490   5.393   1.562 -0.0610 -1.7774  1.1346
 1086SOL     H2 4789   2.431   5.339   1.433  0.4859  1.7304 -0.6397
 1086SOL    EPW 4790   2.420   5.360   1.518  0.0109 -0.2065 -0.1922
 1087SOL      O 4791   5.077   3.633   0.061 -0.4718 -0.3643  0.1839
 1087SOL     H1 4792   5.072   3.668  -0.029  1.3358 -1.1715 -0.2463
 1087SOL     H2 4793   5.035   3.701   0.115 -0.8093  0.5211 -1.1580
 1087SOL    EPW 4794   5.072   3.644   0.057 -0.3150 -0.3560 -0.0051
 1088SOL      O 4795   1.864   3.991   1.370  0.1239 -0.2151  0.1154
 1088SOL     H1 4796   1.909   3.914   1.405 -0.3867 -0.5787 -0.0316
 1088SOL     H2 4797   1.771   3.970   1.375  0.0055  0.1005 -0.5938
 1088SOL    EPW 4798   1.859   3.981   1.374  0.0568 -0.2202  0.0240
 1089SOL      O 4799   1.522   5.221   1.732 -0.3971 -0.3077  0.2946
 1089SOL     H1 4800   1.601   5.265   1.763  1.0083 -0.7478 -2.4255
 1089SOL     H2 4801   1.493   5.167   1.806  1.2070  0.7179  1.7025
 1089SOL    EPW 4802   1.528   5.220   1.743 -0.0761 -0.2453  0.1546
 1090SOL      O 4803   0.759   4.051   3.693  1.1276 -0.0080  0.2114
 1090SOL     H1 4804   0.701   3.989   3.648 -1.7031  1.3741  1.7630
 1090SOL     H2 4805   0.807   3.998   3.756  0.3325 -0.9645  0.0258
 1090SOL    EPW 4806   0.758   4.039   3.695  0.7408  0.0374  0.3571
 1091SOL      O 4807   1.512   4.413   0.488 -0.0053 -0.0557 -0.4221
 1091SOL     H1 4808   1.429   4.459   0.500 -1.0817 -1.7537 -1.0682
 1091SOL     H2 4809   1.568   4.475   0.441 -0.7956  1.2172  0.3054
 1091SOL    EPW 4810   1.509   4.425   0.484 -0.2045 -0.1010 -0.4134
 1092SOL      O 4811   2.523   5.433   0.755 -0.3681  0.1515  0.3097
 1092SOL     H1 4812   2.488   5.447   0.843  1.4273 -1.0376  1.2566
 1092SOL     H2 4813   2.538   5.339   0.750  2.6640  0.6116 -0.0412
 1092SOL    EPW 4814   2.521   5.425   0.764  0.1469  0.0737  0.3733
 1093SOL      O 4815   1.372   4.589   0.744  0.9712 -0.0099  0.2104
 1093SOL     H1 4816   1.326   4.514   0.781  0.4332  0.7820  1.1727
 1093SOL     H2 4817   1.323   4.611   0.665 -0.9917  1.5166  1.8089
 1093SOL    EPW 4818   1.362   4.583   0.739  0.7044  0.2374  0.4836
 1094SOL      O 4819   0.042   3.948   1.972  0.2069 -0.2064  0.2065
 1094SOL     H1 4820   0.040   3.979   1.882  1.6024  1.5106  0.7370
 1094SOL     H2 4821   0.065   3.855   1.966  1.6415  0.2169 -1.1403
 1094SOL    EPW 4822   0.044   3.941   1.962  0.5088  0.0219  0.1194
 1095SOL      O 4823   1.300   5.211   2.622  0.2283  0.4474  0.9524
 1095SOL     H1 4824   1.387   5.239   2.651  0.1485  1.6126  0.0684
 1095SOL     H2 4825   1.241   5.242   2.690  0.1691  2.2399  0.1109
 1095SOL    EPW 4826   1.303   5.217   2.632  0.2135  0.7629  0.7684
 1096SOL      O 4827   1.655   5.586   0.522 -0.7703 -0.0888 -0.2688
 1096SOL     H1 4828   1.606   5.511   0.555 -1.1339  0.3619  0.2327
 1096SOL     H2 4829   1.716   5.549   0.458 -1.1799 -0.7632 -0.2740
 1096SOL    EPW 4830   1.656   5.574   0.519 -0.8528 -0.1127 -0.2159
 1097SOL      O 4831   0.174   2.949   0.488  0.5149  0.2819 -0.2712
 1097SOL     H1 4832   0.100   2.913   0.537  1.6542  0.1771  1.4215
 1097SOL     H2 4833   0.246   2.947   0.550  2.4283 -1.3643 -2.4736
 1097SOL    EPW 4834   0.173   2.945   0.500  0.8406  0.0951 -0.3255
 1098SOL      O 4835   2.711   1.962   3.150 -0.1501  0.4253 -0.0353
 1098SOL     H1 4836   2.632   1.976   3.097 -1.0558 -0.8795  0.9183
 1098SOL     H2 4837   2.693   2.007   3.232 -0.6923 -1.3991  0.8755
 1098SOL    EPW 4838   2.701   1.968   3.153 -0.3046  0.0915  0.1636
 1099SOL      O 4839   3.686   0.785   3.764 -0.2783 -0.0773 -0.4351
 1099SOL     H1 4840   3.658   0.710   3.711  0.9913 -1.5798  0.9919
 1099SOL     H2 4841   3.764   0.817   3.719 -0.5234  0.0923 -0.7493
 1099SOL    EPW 4842   3.691   0.780   3.753 -0.1690 -0.2195 -0.3164
 1100SOL      O 4843   5.165   5.262   0.497  0.5111  0.3980  0.4940
 1100SOL     H1 4844   5.200   5.303   0.418  0.1854  1.1235  0.7334
 1100SOL     H2 4845   5.154   5.170   0.473  0.6914  0.5613 -0.2102
 1100SOL    EPW 4846   5.168   5.256   0.486  0.4956  0.4928  0.4444
 1101SOL      O 4847   1.163   5.646   0.956  0.1205 -0.6932  0.1418
 1101SOL     H1 4848   1.191   5.603   1.036  0.1724  0.5024  0.7748
 1101SOL     H2 4849   1.107   5.718   0.986  2.1006  1.2460 -0.7678
 1101SOL    EPW 4850   1.160   5.649   0.968  0.3372 -0.3588  0.1123
 1102SOL      O 4851   0.672   4.402   1.638  0.7683 -0.1824  0.1600
 1102SOL     H1 4852   0.759   4.361   1.635  0.3743 -0.9849 -0.3794
 1102SOL     H2 4853   0.658   4.435   1.549 -0.2367 -1.6485 -0.2362
 1102SOL    EPW 4854   0.680   4.401   1.628  0.6191 -0.4244  0.0602
 1103SOL      O 4855   3.025   4.470   1.031  0.2418 -0.3018  0.2425
 1103SOL     H1 4856   3.033   4.474   0.936  0.2570 -0.7117  0.2238
 1103SOL     H2 4857   3.075   4.392   1.055 -0.0858 -0.4150  0.5514
 1103SOL    EPW 4858   3.031   4.462   1.023  0.2085 -0.3576  0.2735
 1104SOL      O 4859   4.885   4.651   0.973 -0.0312  0.3748  0.1480
 1104SOL     H1 4860   4.912   4.665   1.064  0.4545 -1.2036  0.2719
 1104SOL     H2 4861   4.868   4.557   0.968  0.1086  0.4224 -1.4282
 1104SOL    EPW 4862   4.886   4.642   0.982  0.0356  0.2115 -0.0069
 1105SOL      O 4863   2.768   3.609   3.356 -0.4355  0.2984  0.3739
 1105SOL     H1 4864   2.692   3.603   3.299  0.0644  0.0889 -0.2792
 1105SOL     H2 4865   2.772   3.701   3.383 -0.2378  0.5592 -0.5359
 1105SOL    EPW 4866   2.761   3.618   3.353 -0.3611  0.3039  0.2072
 1106SOL      O 4867   1.172   4.051   0.328  0.2403  0.4492 -0.1693
 1106SOL     H1 4868   1.092   4.095   0.358 -0.2717 -0.7284  0.2031
 1106SOL     H2 4869   1.227   4.045   0.406  0.7124  1.2866 -0.4324
 1106SOL    EPW 4870   1.170   4.055   0.339  0.2361  0.4129 -0.1577
 1107SOL      O 4871   3.403   1.803   4.092  0.1176  0.5034  0.3625
 1107SOL     H1 4872   3.462   1.870   4.125 -0.2529  1.3584 -0.6859
 1107SOL     H2 4873   3.321   1.850   4.073  0.5304  0.2172 -2.4139
 1107SOL    EPW 4874   3.401   1.815   4.093  0.1221  0.5641 -0.0455
 1108SOL      O 4875   3.511   0.698   3.357 -0.6596  0.2654 -0.5940
 1108SOL     H1 4876   3.507   0.706   3.262  1.5372  0.8174 -0.6543
 1108SOL     H2 4877   3.544   0.610   3.373  0.1214  0.5996 -0.3608
 1108SOL    EPW 4878   3.514   0.690   3.349 -0.3420  0.3600 -0.5755
 1109SOL      O 4879   5.050   0.330   1.030  0.3552  0.6772  1.1256
 1109SOL     H1 4880   5.115   0.359   0.966  0.5298  1.6953  1.7589
 1109SOL     H2 4881   5.065   0.385   1.107  0.1612 -0.5677  2.0541
 1109SOL    EPW 4882   5.058   0.339   1.031  0.3531  0.6530  1.2922
 1110SOL      O 4883   5.457   5.103   0.560 -0.0406  0.3519  0.1639
 1110SOL     H1 4884   5.369   5.073   0.539  0.0793 -0.5317  0.9108
 1110SOL     H2 4885   5.496   5.124   0.475 -0.6314 -0.1824 -0.2475
 1110SOL    EPW 4886   5.452   5.102   0.549 -0.0908  0.2006  0.1997
 1111SOL      O 4887   2.515   0.538   4.112  0.2444 -0.4966  0.2996
 1111SOL     H1 4888   2.606   0.515   4.093 -0.2317 -1.1720 -1.2133
 1111SOL     H2 4889   2.480   0.462   4.159  0.0411 -0.8451 -0.4192
 1111SOL    EPW 4890   2.521   0.528   4.115  0.1719 -0.6058  0.0615
 1112SOL      O 4891   1.801   1.529   3.663 -0.1008 -0.7077  0.3600
 1112SOL     H1 4892   1.770   1.553   3.750  0.2528  1.4010 -0.0614
 1112SOL     H2 4893   1.876   1.588   3.647 -2.9729  2.2776 -3.2039
 1112SOL    EPW 4894   1.806   1.538   3.670 -0.3695 -0.1643 -0.0652
 1113SOL      O 4895   0.414   0.209   2.564 -0.6538  0.2371  1.1978
 1113SOL     H1 4896   0.488   0.168   2.608  0.2881  1.6012  0.9253
 1113SOL     H2 4897   0.362   0.136   2.531  0.4992 -0.7444  1.5260
 1113SOL    EPW 4898   0.417   0.197   2.565 -0.4303  0.2779  1.2037
 1114SOL      O 4899   0.068   3.642   2.935  0.0161 -0.0304  0.2288
 1114SOL     H1 4900  -0.020   3.605   2.937 -0.0207  0.0329 -0.1568
 1114SOL     H2 4901   0.123   3.571   2.902 -0.3586  0.8377 -2.4373
 1114SOL    EPW 4902   0.065   3.631   2.932 -0.0278  0.0689 -0.0968
 1115SOL      O 4903   0.906   4.345   1.372  0.0459  0.1170  0.1211
 1115SOL     H1 4904   0.938   4.303   1.452 -0.4332  1.0957  0.8440
 1115SOL     H2 4905   0.935   4.436   1.380 -3.3616  1.1905  1.0957
 1115SOL    EPW 4906   0.913   4.351   1.381 -0.3687  0.3360  0.3021
 1116SOL      O 4907   1.894   5.239   2.155 -0.4970 -0.1204  0.2796
 1116SOL     H1 4908   1.917   5.197   2.238  0.3375  1.1407  0.7069
 1116SOL     H2 4909   1.810   5.200   2.131  0.5493 -2.4975  0.3139
 1116SOL    EPW 4910   1.887   5.230   2.161 -0.2964 -0.2394  0.3289
 1117SOL      O 4911   0.741   4.811   2.847 -0.0993 -0.3988 -0.7541
 1117SOL     H1 4912   0.735   4.869   2.923  0.3652 -0.2531 -0.8236
 1117SOL     H2 4913   0.824   4.836   2.805 -0.8595  0.2399 -1.8916
 1117SOL    EPW 4914   0.749   4.820   2.850 -0.1308 -0.3152 -0.8829
 1118SOL      O 4915   3.600   2.330   3.826 -0.0376 -0.4297  0.0969
 1118SOL     H1 4916   3.589   2.300   3.736 -0.3301  0.6946 -0.2591
 1118SOL     H2 4917   3.529   2.393   3.839  0.5888  0.1601  0.7786
 1118SOL    EPW 4918   3.591   2.334   3.818 -0.0020 -0.2469  0.1316
 1119SOL      O 4919   1.428   2.675   0.870  0.2090  0.1534 -0.2047
 1119SOL     H1 4920   1.473   2.713   0.794  1.0067  0.3229  0.3465
 1119SOL     H2 4921   1.393   2.750   0.917  0.5443  0.1175  0.1080
 1119SOL    EPW 4922   1.429   2.687   0.867  0.3299  0.1676 -0.1126
 1120SOL      O 4923   2.305   5.038   1.324  0.3350 -0.2185  0.2261
 1120SOL     H1 4924   2.312   5.020   1.230  1.7698  0.5453  0.1648
 1120SOL     H2 4925   2.335   4.958   1.366  0.7166 -0.1873  0.0161
 1120SOL    EPW 4926   2.309   5.028   1.319  0.5288 -0.1337  0.1972
 1121SOL      O 4927   0.646   4.540   2.720  0.0422  0.1948 -0.0731
 1121SOL     H1 4928   0.653   4.633   2.699 -0.4749  0.4247  0.7213
 1121SOL     H2 4929   0.662   4.495   2.637  0.4045  0.9899 -0.4382
 1121SOL    EPW 4930   0.648   4.545   2.709  0.0257  0.3042 -0.0273
 1122SOL      O 4931   3.734   2.535   3.243  0.4133  0.3265 -0.2126
 1122SOL     H1 4932   3.783   2.479   3.304  0.8927  0.6619 -0.2939
 1122SOL     H2 4933   3.706   2.609   3.297  1.0247  0.7320 -0.4564
 1122SOL    EPW 4934   3.736   2.537   3.256  0.5296  0.4055 -0.2473
 1123SOL      O 4935   4.477   5.720   3.420 -0.1064  0.3107 -0.4075
 1123SOL     H1 4936   4.421   5.789   3.385 -0.0713 -0.1043 -1.2963
 1123SOL     H2 4937   4.527   5.688   3.344 -0.0136 -0.5862  0.0191
 1123SOL    EPW 4938   4.477   5.724   3.408 -0.0928  0.1708 -0.4568
 1124SOL      O 4939   5.272   4.578   1.204  0.3321 -0.8301  0.1585
 1124SOL     H1 4940   5.204   4.581   1.271  0.2119  0.7521 -0.0112
 1124SOL     H2 4941   5.223   4.566   1.122  0.3244 -0.5945  0.1290
 1124SOL    EPW 4942   5.259   4.577   1.202  0.3185 -0.6362  0.1373
 1125SOL      O 4943   1.344   5.226   0.776 -0.2404 -0.0511 -0.2293
 1125SOL     H1 4944   1.412   5.274   0.728 -1.1783  1.2827 -0.2512
 1125SOL     H2 4945   1.390   5.153   0.816  1.4794  1.5871  0.8459
 1125SOL    EPW 4946   1.356   5.223   0.775 -0.1570  0.2659 -0.1169
 1126SOL      O 4947   5.004   4.194   0.401  0.0281 -0.0021  0.1667
 1126SOL     H1 4948   5.047   4.260   0.455 -1.3849  0.4476  0.7728
 1126SOL     H2 4949   5.038   4.209   0.313 -1.6923  2.8303 -0.0775
 1126SOL    EPW 4950   5.012   4.202   0.397 -0.3062  0.3480  0.2053
 1127SOL      O 4951   1.383   4.655   1.833  0.9787 -0.7067 -0.5606
 1127SOL     H1 4952   1.411   4.713   1.762  1.5141  0.9114  0.9399
 1127SOL     H2 4953   1.464   4.636   1.881  0.0647  1.4765  1.9692
 1127SOL    EPW 4954   1.395   4.659   1.830  0.9383 -0.3012 -0.1307
 1128SOL      O 4955   0.168   4.584   0.417 -0.4095 -0.3606  0.1969
 1128SOL     H1 4956   0.086   4.540   0.437  0.0777 -1.9602 -1.2385
 1128SOL     H2 4957   0.232   4.513   0.408  1.0918  0.8479  1.1032
 1128SOL    EPW 4958   0.166   4.572   0.418 -0.1974 -0.4023  0.1405
 1129SOL      O 4959   0.853   0.082   0.124  0.2080  0.2435  0.4164
 1129SOL     H1 4960   0.885  -0.008   0.116 -0.5699 -0.0580  0.6070
 1129SOL     H2 4961   0.905   0.132   0.061 -0.3162 -0.6036 -0.7081
 1129SOL    EPW 4962   0.862   0.078   0.117  0.0691  0.1210  0.3168
 1130SOL      O 4963   2.157   1.135   3.715  0.1800 -0.0234 -0.0574
 1130SOL     H1 4964   2.236   1.187   3.729  1.2764 -1.8348  0.7151
 1130SOL     H2 4965   2.120   1.125   3.802 -0.9344  0.8397 -0.4230
 1130SOL    EPW 4966   2.162   1.139   3.726  0.1781 -0.1246 -0.0140
 1131SOL      O 4967   0.956   3.609   0.019 -0.7369  0.0483  0.1794
 1131SOL     H1 4968   0.967   3.610   0.114 -0.4031  0.3643  0.1390
 1131SOL     H2 4969   0.971   3.700  -0.008 -1.2329  0.0373 -0.1277
 1131SOL    EPW 4970   0.959   3.619   0.026 -0.7542  0.0808  0.1424
 1132SOL      O 4971   2.126   0.820   0.273  0.0958  0.5905 -0.4434
 1132SOL     H1 4972   2.109   0.862   0.357  0.2491  1.8900 -1.0426
 1132SOL     H2 4973   2.221   0.825   0.263  0.2375 -1.0270  0.0460
 1132SOL    EPW 4974   2.134   0.825   0.281  0.1273  0.5566 -0.4551
 1133SOL      O 4975   1.768   4.774   0.143 -0.2935  0.2353  0.9320
 1133SOL     H1 4976   1.797   4.864   0.130  1.1981 -0.4335 -0.4718
 1133SOL     H2 4977   1.716   4.753   0.066 -1.9231  0.3604  1.9567
 1133SOL    EPW 4978   1.765   4.781   0.134 -0.3082  0.1773  0.8916
 1134SOL      O 4979   1.677   4.351   1.348 -0.0194  0.1034  0.0877
 1134SOL     H1 4980   1.731   4.399   1.411  0.0853  0.3657 -0.2032
 1134SOL     H2 4981   1.592   4.342   1.391  0.4574 -0.9236  0.8415
 1134SOL    EPW 4982   1.674   4.355   1.359  0.0426  0.0218  0.1371
 1135SOL      O 4983   2.861   1.609   4.123 -0.5815 -0.0743 -0.2438
 1135SOL     H1 4984   2.883   1.527   4.168 -2.1133 -0.2652  0.1884
 1135SOL     H2 4985   2.887   1.595   4.032  2.5633  0.3089  0.5256
 1135SOL    EPW 4986   2.867   1.599   4.118 -0.4095 -0.0538 -0.1157
 1136SOL      O 4987   5.682   5.244   1.873 -0.0766 -0.5206  0.0956
 1136SOL     H1 4988   5.656   5.221   1.963 -1.0779 -0.0235 -0.0558
 1136SOL     H2 4989   5.603   5.282   1.835  0.6044  0.1039 -0.7101
 1136SOL    EPW 4990   5.671   5.246   1.879 -0.1108 -0.4009 -0.0065
 1137SOL      O 4991   0.119   0.999   2.880  0.2209 -0.1147 -0.2527
 1137SOL     H1 4992   0.123   0.984   2.975  0.6874 -1.1365 -0.4309
 1137SOL     H2 4993   0.033   0.967   2.855  0.8234 -1.6030 -0.4686
 1137SOL    EPW 4994   0.110   0.994   2.888  0.3349 -0.3825 -0.2947
 1138SOL      O 4995   0.520   4.532   0.621  0.3689  0.0725  0.0131
 1138SOL     H1 4996   0.551   4.539   0.530 -1.1733  0.7617 -0.4643
 1138SOL     H2 4997   0.588   4.575   0.673  0.8696  0.3826 -0.8887
 1138SOL    EPW 4998   0.531   4.537   0.617  0.2578  0.1791 -0.1341
 1139SOL      O 4999   3.379   1.396   3.420 -0.1167  0.6950  0.2024
 1139SOL     H1 5000   3.361   1.468   3.360  1.3055  0.7018 -0.2375
 1139SOL     H2 5001   3.300   1.342   3.417 -0.1030  0.7594 -1.5846
 1139SOL    EPW 5002   3.369   1.398   3.413  0.0365  0.7026 -0.0352
 1140SOL      O 5003   3.998   1.545   2.720  0.2143  0.1880  0.6632
 1140SOL     H1 5004   3.992   1.591   2.804 -0.3039  1.0603  0.1544
 1140SOL     H2 5005   4.014   1.614   2.656 -0.7691 -0.3124 -0.1378
 1140SOL    EPW 5006   3.999   1.557   2.722  0.0541  0.2277  0.5235
 1141SOL      O 5007   1.154   4.438   1.224 -0.2097 -0.0245  0.5292
 1141SOL     H1 5008   1.114   4.498   1.286 -0.3513 -0.7125  1.1148
 1141SOL     H2 5009   1.178   4.362   1.277 -1.0529 -0.9566 -0.3984
 1141SOL    EPW 5010   1.152   4.436   1.236 -0.3148 -0.1974  0.4927
 1142SOL      O 5011   3.335   1.123   3.689 -0.1039 -0.1143  0.1917
 1142SOL     H1 5012   3.365   1.071   3.763 -0.7980  0.4048  0.8448
 1142SOL     H2 5013   3.262   1.073   3.651 -0.9640  0.5086  0.9988
 1142SOL    EPW 5014   3.330   1.112   3.693 -0.2697  0.0075  0.3474
 1143SOL      O 5015   1.229   5.122   0.527 -0.0119 -0.1781  0.0179
 1143SOL     H1 5016   1.149   5.164   0.495  0.9426  0.8554 -1.0552
 1143SOL     H2 5017   1.257   5.176   0.601  1.0056  0.8840 -1.1227
 1143SOL    EPW 5018   1.224   5.132   0.532  0.1984  0.0454 -0.2182
 1144SOL      O 5019   2.423   0.180   1.713 -0.3284  0.6128  0.0004
 1144SOL     H1 5020   2.386   0.130   1.640 -1.5888  0.3635  0.7963
 1144SOL     H2 5021   2.504   0.134   1.735 -0.5563 -0.0188 -0.4684
 1144SOL    EPW 5022   2.427   0.170   1.708 -0.4871  0.5188  0.0353
 1145SOL      O 5023   1.131   3.702   1.597  0.4321 -0.7101  0.0818
 1145SOL     H1 5024   1.099   3.712   1.686  0.6605 -2.0942  0.3221
 1145SOL     H2 5025   1.123   3.790   1.559  0.4787 -0.0854  1.4969
 1145SOL    EPW 5026   1.127   3.712   1.602  0.4614 -0.7911  0.2584
 1146SOL      O 5027   2.306   1.543   2.863  0.4635  0.1243 -0.6139
 1146SOL     H1 5028   2.299   1.457   2.821  0.2141 -0.0353 -0.2468
 1146SOL     H2 5029   2.359   1.527   2.941  1.8091  0.6177 -1.4107
 1146SOL    EPW 5030   2.311   1.532   2.867  0.5804  0.1599 -0.6597
 1147SOL      O 5031   1.529   5.321   0.607 -0.4143 -0.2066 -0.0523
 1147SOL     H1 5032   1.529   5.278   0.521 -0.4723  2.2968 -1.3540
 1147SOL     H2 5033   1.615   5.301   0.644 -0.5893 -1.7471 -0.4479
 1147SOL    EPW 5034   1.538   5.314   0.602 -0.4391 -0.1039 -0.2334
 1148SOL      O 5035   0.023   4.872   1.813 -0.2267  1.1415 -1.0427
 1148SOL     H1 5036  -0.057   4.917   1.784 -0.7302  1.4678  0.8193
 1148SOL     H2 5037   0.064   4.933   1.873 -0.8328 -0.7810  1.3940
 1148SOL    EPW 5038   0.019   4.883   1.816 -0.3450  0.9712 -0.5841
 1149SOL      O 5039   2.303   3.265   0.896 -0.2278  0.8676 -0.3829
 1149SOL     H1 5040   2.366   3.337   0.906  0.2009  0.0377  3.4589
 1149SOL     H2 5041   2.222   3.299   0.935 -0.6553  0.0426 -0.5521
 1149SOL    EPW 5042   2.301   3.276   0.901 -0.2277  0.6910  0.0089
 1150SOL      O 5043   0.321   2.875   2.042  0.6689 -0.3196 -0.1965
 1150SOL     H1 5044   0.282   2.925   1.971  0.8082  1.6056  1.0614
 1150SOL     H2 5045   0.408   2.912   2.053  1.0003 -1.2391  0.3522
 1150SOL    EPW 5046   0.326   2.884   2.036  0.7191 -0.2123 -0.0038
 1151SOL      O 5047   5.550   5.132   1.227  0.2634 -0.1503 -0.1389
 1151SOL     H1 5048   5.567   5.135   1.133  0.2250  0.7230 -0.1218
 1151SOL     H2 5049   5.586   5.214   1.261 -0.7638  0.0735  0.4304
 1151SOL    EPW 5050   5.556   5.141   1.221  0.1497 -0.0333 -0.0763
 1152SOL      O 5051   0.039   3.974   1.692 -0.0794 -0.0725 -0.0899
 1152SOL     H1 5052   0.107   3.906   1.685 -0.1891 -0.0482 -1.4597
 1152SOL     H2 5053  -0.035   3.939   1.642 -0.4267  0.6965 -0.1170
 1152SOL    EPW 5054   0.038   3.963   1.686 -0.1282  0.0122 -0.2389
 1153SOL      O 5055   2.498   2.854   3.988 -0.5020  0.1148  0.4429
 1153SOL     H1 5056   2.571   2.906   3.954 -0.0403 -1.2273 -0.7164
 1153SOL     H2 5057   2.516   2.844   4.081  0.8685 -0.3038  0.1384
 1153SOL    EPW 5058   2.507   2.858   3.994 -0.3065 -0.0730  0.2867
 1154SOL      O 5059   2.300   1.110   1.449 -0.1315 -0.4036 -0.1557
 1154SOL     H1 5060   2.233   1.059   1.496 -0.5487 -0.5095 -0.8631
 1154SOL     H2 5061   2.251   1.156   1.381  0.4013  0.1374 -0.1705
 1154SOL    EPW 5062   2.287   1.109   1.447 -0.1191 -0.3572 -0.2327
 1155SOL      O 5063   1.429   0.613   0.126 -0.0622  0.0280  0.0865
 1155SOL     H1 5064   1.442   0.520   0.112  2.6959  0.4888 -0.7274
 1155SOL     H2 5065   1.338   0.629   0.102 -0.7811 -2.5701  0.9929
 1155SOL    EPW 5066   1.421   0.605   0.122  0.1554 -0.2000  0.0964
 1156SOL      O 5067   0.946   3.819   1.138  0.1894  0.0790  0.4485
 1156SOL     H1 5068   0.933   3.750   1.202 -0.6422 -1.1595 -1.0133
 1156SOL     H2 5069   0.870   3.813   1.080  2.1222 -0.5474 -2.1728
 1156SOL    EPW 5070   0.937   3.811   1.138  0.3068 -0.1199  0.0129
 1157SOL      O 5071   1.647   4.676   0.683  0.4586 -0.2449  0.7425
 1157SOL     H1 5072   1.565   4.631   0.702  1.7648 -1.9195  2.6997
 1157SOL     H2 5073   1.685   4.627   0.610 -0.4210  0.7709 -0.4276
 1157SOL    EPW 5074   1.643   4.666   0.677  0.5041 -0.3151  0.8265
 1158SOL      O 5075   1.734   5.171   1.537  0.0520 -0.0116  0.0676
 1158SOL     H1 5076   1.722   5.120   1.457  0.3889  0.7225 -0.4533
 1158SOL     H2 5077   1.646   5.188   1.568 -0.0693 -0.9729  0.2890
 1158SOL    EPW 5078   1.724   5.167   1.532  0.0750 -0.0358  0.0356
 1159SOL      O 5079   0.016   3.914   2.833  0.5849 -0.5467  0.6499
 1159SOL     H1 5080  -0.073   3.948   2.838 -0.0940 -2.1463 -0.0295
 1159SOL     H2 5081   0.024   3.856   2.910  1.5573  0.7393  1.5358
 1159SOL    EPW 5082   0.007   3.911   2.842  0.6162 -0.5802  0.6719
 1160SOL      O 5083   0.330   3.565   0.355  0.4116  0.0189 -0.4536
 1160SOL     H1 5084   0.320   3.471   0.370 -0.9777  0.5987  2.6271
 1160SOL     H2 5085   0.252   3.590   0.306  0.6403 -0.3607 -1.0227
 1160SOL    EPW 5086   0.321   3.558   0.351  0.2878  0.0402 -0.1857
 1161SOL      O 5087   2.147   5.613   1.143 -0.2180  0.6656  0.1807
 1161SOL     H1 5088   2.141   5.550   1.071 -2.2690  1.4571 -0.3714
 1161SOL     H2 5089   2.183   5.563   1.216 -0.4665 -0.7873 -0.6742
 1161SOL    EPW 5090   2.150   5.601   1.143 -0.4633  0.5950  0.0306
 1162SOL      O 5091   1.179   0.389   1.565  0.5008 -0.0662 -0.2910
 1162SOL     H1 5092   1.181   0.482   1.587 -0.8957  0.0699 -0.6704
 1162SOL     H2 5093   1.088   0.363   1.578  0.7916 -1.2855 -0.5843
 1162SOL    EPW 5094   1.170   0.396   1.569  0.3829 -0.1818 -0.3628
 1163SOL      O 5095   3.168   1.540   4.135 -0.1415  0.1373 -0.0272
 1163SOL     H1 5096   3.117   1.614   4.167 -1.1423 -0.4353 -0.2625
 1163SOL     H2 5097   3.245   1.579   4.094 -0.3127  1.0069  0.4734
 1163SOL    EPW 5098   3.171   1.552   4.134 -0.2665  0.1690  0.0011
 1164SOL      O 5099   0.110   4.549   2.107 -0.1131  0.4550  0.3767
 1164SOL     H1 5100   0.195   4.585   2.082  0.4105 -0.5326  0.6816
 1164SOL     H2 5101   0.058   4.552   2.027  1.3602 -2.1665 -0.7730
 1164SOL    EPW 5102   0.114   4.553   2.096  0.0999  0.0700  0.2865
 1165SOL      O 5103   1.264   4.395   0.884  0.3864 -0.4153  0.2452
 1165SOL     H1 5104   1.231   4.353   0.804  1.2920  0.4955 -0.6268
 1165SOL     H2 5105   1.203   4.368   0.952  1.2834 -3.6797 -0.1555
 1165SOL    EPW 5106   1.254   4.388   0.883  0.5787 -0.6664  0.1094
 1166SOL      O 5107   3.837   0.012   4.080  1.1470 -0.6123 -0.4616
 1166SOL     H1 5108   3.763  -0.036   4.044  0.7239 -0.3685  0.0744
 1166SOL     H2 5109   3.843   0.091   4.026 -1.6347  1.4534  2.0845
 1166SOL    EPW 5110   3.830   0.015   4.071  0.8051 -0.3659 -0.1328
 1167SOL      O 5111   4.631   4.257   0.133  0.1005  0.1455  0.7043
 1167SOL     H1 5112   4.669   4.344   0.146  1.6852 -0.1935 -1.3630
 1167SOL     H2 5113   4.706   4.200   0.118 -1.0781 -0.9557 -1.2207
 1167SOL    EPW 5114   4.643   4.260   0.133  0.1438 -0.0082  0.2784
 1168SOL      O 5115   1.760   3.737   0.524  0.2406 -0.0289  0.3772
 1168SOL     H1 5116   1.799   3.823   0.506  0.2360 -0.7692 -3.5213
 1168SOL     H2 5117   1.831   3.675   0.507  0.1866 -0.8924  3.0014
 1168SOL    EPW 5118   1.772   3.740   0.521  0.2343 -0.2000  0.2413
 1169SOL      O 5119   0.466   2.846   0.430 -0.1821 -0.2555 -0.2679
 1169SOL     H1 5120   0.497   2.872   0.516  0.9655  0.5655 -0.9124
 1169SOL     H2 5121   0.418   2.765   0.445 -0.0071 -0.1081  1.1392
 1169SOL    EPW 5122   0.464   2.840   0.441 -0.0410 -0.1522 -0.1866
 1170SOL      O 5123   0.816   4.867   0.659 -0.1426  0.5573 -0.1029
 1170SOL     H1 5124   0.851   4.850   0.572 -0.1938 -0.5001  0.0754
 1170SOL     H2 5125   0.743   4.927   0.644  0.6481  1.4045 -0.6464
 1170SOL    EPW 5126   0.812   4.871   0.648 -0.0637  0.5349 -0.1419
 1171SOL      O 5127   2.851   3.749   1.553  0.0229 -0.1111 -0.5253
 1171SOL     H1 5128   2.813   3.759   1.466 -2.3075 -0.2789  0.4357
 1171SOL     H2 5129   2.843   3.656   1.573 -0.9438  0.1769  0.4985
 1171SOL    EPW 5130   2.846   3.740   1.546 -0.3289 -0.0983 -0.3136
 1172SOL      O 5131   5.606   3.199   0.939 -0.1214 -0.0243  0.5080
 1172SOL     H1 5132   5.514   3.215   0.919  0.5179  1.5616 -1.1948
 1172SOL     H2 5133   5.613   3.212   1.034 -1.6684 -0.2762  0.6564
 1172SOL    EPW 5134   5.597   3.202   0.947 -0.2183  0.1180  0.3422
 1173SOL      O 5135   4.027   0.637   3.655  0.1268 -0.1069  0.0683
 1173SOL     H1 5136   3.969   0.600   3.721 -0.5571  0.0426 -0.4440
 1173SOL     H2 5137   3.981   0.624   3.572 -1.0147  3.5051  0.0346
 1173SOL    EPW 5138   4.016   0.632   3.653 -0.0679  0.2944  0.0101
 1174SOL      O 5139   1.757   5.356   1.879  0.1802  0.5360  0.4270
 1174SOL     H1 5140   1.838   5.306   1.874  1.0836  1.8009  1.6974
 1174SOL     H2 5141   1.784   5.446   1.860 -1.2197  0.7219 -0.7627
 1174SOL    EPW 5142   1.769   5.361   1.877  0.1272  0.6908  0.4356
 1175SOL      O 5143   0.219   4.300   0.371  0.3477  0.1871  0.1791
 1175SOL     H1 5144   0.291   4.307   0.307  0.1272  1.2177  0.0304
 1175SOL     H2 5145   0.174   4.219   0.347  0.4409  0.4129 -0.8092
 1175SOL    EPW 5146   0.222   4.292   0.361  0.3341  0.3211  0.0578
 1176SOL      O 5147   0.831   3.340   2.042  0.4349 -0.1548  0.0839
 1176SOL     H1 5148   0.865   3.255   2.070  2.3081  0.5430 -0.0346
 1176SOL     H2 5149   0.769   3.319   1.972 -1.5576 -1.6413  2.2001
 1176SOL    EPW 5150   0.828   3.328   2.037  0.4221 -0.2389  0.2970
 1177SOL      O 5151   0.506   5.017   0.867  0.2983 -0.0724 -0.4257
 1177SOL     H1 5152   0.524   4.926   0.892  0.6323 -0.0675 -0.6406
 1177SOL     H2 5153   0.410   5.024   0.867  0.2284 -0.8360 -1.8543
 1177SOL    EPW 5154   0.498   5.008   0.870  0.3265 -0.1533 -0.6010
 1178SOL      O 5155   1.363   3.412   2.253 -0.6304 -0.0543  0.1702
 1178SOL     H1 5156   1.357   3.460   2.170 -1.6546  0.0410  0.2985
 1178SOL     H2 5157   1.391   3.324   2.227  0.9706  0.5043 -0.0928
 1178SOL    EPW 5158   1.366   3.408   2.241 -0.5689  0.0155  0.1558
 1179SOL      O 5159   0.571   2.705   2.697 -0.3930  0.0735 -0.1420
 1179SOL     H1 5160   0.628   2.651   2.642 -0.9660  1.2605 -1.9373
 1179SOL     H2 5161   0.627   2.734   2.768  0.2757 -1.7677  0.1161
 1179SOL    EPW 5162   0.583   2.702   2.699 -0.3828  0.0038 -0.3060
 1180SOL      O 5163   5.561   4.357   1.673 -0.2473  0.1021  0.1614
 1180SOL     H1 5164   5.616   4.399   1.607 -2.8707  1.4120 -1.2705
 1180SOL     H2 5165   5.551   4.424   1.741 -1.4043  0.4708 -0.3663
 1180SOL    EPW 5166   5.566   4.369   1.673 -0.6506  0.2812 -0.0476
 1181SOL      O 5167   0.663   5.662   0.334 -0.3231  0.7296 -0.0305
 1181SOL     H1 5168   0.617   5.733   0.289 -1.0196  1.4315  1.7533
 1181SOL     H2 5169   0.621   5.583   0.302 -0.5050  1.1944 -0.9556
 1181SOL    EPW 5170   0.654   5.661   0.326 -0.4168  0.8541  0.0611
 1182SOL      O 5171   1.063   4.362   2.481  0.3720  0.2645  0.2616
 1182SOL     H1 5172   1.022   4.408   2.554 -0.4796 -1.1521  0.6899
 1182SOL     H2 5173   1.145   4.329   2.517 -0.4681 -1.2105  0.8565
 1182SOL    EPW 5174   1.068   4.364   2.492  0.1916 -0.0440  0.3708
 1183SOL      O 5175   0.850   3.828   0.453 -0.2226  0.0938  0.1091
 1183SOL     H1 5176   0.786   3.870   0.510 -1.7323 -2.0568  0.0779
 1183SOL     H2 5177   0.823   3.852   0.365 -0.7073 -0.3855  0.1205
 1183SOL    EPW 5178   0.840   3.835   0.450 -0.4353 -0.1867  0.1070
 1184SOL      O 5179   1.883   3.824   2.866  0.1273  0.5526 -0.1066
 1184SOL     H1 5180   1.954   3.767   2.838 -2.6844 -1.6080 -3.2880
 1184SOL     H2 5181   1.854   3.787   2.950  0.1879 -0.9787 -0.7439
 1184SOL    EPW 5182   1.887   3.814   2.872 -0.1662  0.1588 -0.5139
 1185SOL      O 5183   2.922   3.158   0.427  0.1544 -0.0681 -0.3001
 1185SOL     H1 5184   2.956   3.179   0.340  2.1376  0.4482  0.5759
 1185SOL     H2 5185   2.929   3.240   0.476  0.8035 -0.8085  0.8736
 1185SOL    EPW 5186   2.927   3.169   0.423  0.4352 -0.0920 -0.0814
 1186SOL      O 5187   1.268   4.328   2.151  0.3638  0.4217  0.2686
 1186SOL     H1 5188   1.281   4.274   2.229  0.2226  0.9253  0.6388
 1186SOL     H2 5189   1.337   4.300   2.091  0.1364 -0.3579  0.3587
 1186SOL    EPW 5190   1.277   4.319   2.153  0.3245  0.3923  0.3177
 1187SOL      O 5191   1.012   3.163   1.061  0.6764  0.0073 -0.2797
 1187SOL     H1 5192   1.042   3.147   0.972  1.5306 -2.5402  0.4110
 1187SOL     H2 5193   1.044   3.087   1.111 -1.4187  0.4317  1.7945
 1187SOL    EPW 5194   1.019   3.153   1.057  0.5440 -0.2192  0.0152
 1188SOL      O 5195   4.954   0.639   3.461  0.5715 -0.2545  0.6327
 1188SOL     H1 5196   4.947   0.547   3.435 -2.6882  0.0384  0.2864
 1188SOL     H2 5197   4.945   0.688   3.380  1.7419  0.4218  0.8934
 1188SOL    EPW 5198   4.953   0.634   3.450  0.3486 -0.1511  0.6236
 1189SOL      O 5199   0.768   3.848   0.817  0.3982 -0.4183  0.1126
 1189SOL     H1 5200   0.700   3.897   0.864 -1.7996 -0.9920 -2.2865
 1189SOL     H2 5201   0.749   3.756   0.837  1.4253 -0.5290  0.6168
 1189SOL    EPW 5202   0.758   3.843   0.824  0.2733 -0.4913 -0.0895
 1190SOL      O 5203   0.416   4.140   1.841  0.3035  0.1582  0.1204
 1190SOL     H1 5204   0.351   4.189   1.791 -1.8850 -1.4104  1.2986
 1190SOL     H2 5205   0.485   4.203   1.861 -1.1336  2.0193 -0.7097
 1190SOL    EPW 5206   0.416   4.152   1.838 -0.0833  0.1894  0.1575
 1191SOL      O 5207   1.882   5.637   1.102 -0.3100 -0.0123  0.1668
 1191SOL     H1 5208   1.874   5.588   1.020 -0.3492 -1.2682  0.9190
 1191SOL     H2 5209   1.976   5.644   1.116 -0.2970  0.4895 -0.1461
 1191SOL    EPW 5210   1.891   5.633   1.095 -0.3128 -0.0927  0.2137
 1192SOL      O 5211   1.422   3.991   1.864 -0.0209 -0.0568  0.2083
 1192SOL     H1 5212   1.400   4.077   1.900 -2.3180 -0.9235  0.9223
 1192SOL     H2 5213   1.412   3.931   1.937  1.4780 -0.9646 -0.3136
 1192SOL    EPW 5214   1.419   3.994   1.875 -0.1060 -0.2461  0.2288
 1193SOL      O 5215   5.353   4.311   1.200 -0.2559  0.1056  0.4750
 1193SOL     H1 5216   5.294   4.284   1.130 -0.3091  0.4517  0.3866
 1193SOL     H2 5217   5.360   4.406   1.190  0.3243  0.0647  0.4730
 1193SOL    EPW 5218   5.348   4.318   1.191 -0.1997  0.1382  0.4654
 1194SOL      O 5219   0.860   3.229   1.401  0.1487  0.7618 -0.2870
 1194SOL     H1 5220   0.790   3.240   1.337  0.8703  0.5475 -1.1341
 1194SOL     H2 5221   0.895   3.317   1.414  0.7555  0.6556 -1.0860
 1194SOL    EPW 5222   0.857   3.239   1.395  0.2904  0.7276 -0.4626
 1195SOL      O 5223   2.755   1.076   3.231  0.7095  0.0349  0.4590
 1195SOL     H1 5224   2.695   1.150   3.233  0.9424  0.2419 -0.0813
 1195SOL     H2 5225   2.840   1.115   3.209  0.9770 -0.2955  0.8958
 1195SOL    EPW 5226   2.758   1.088   3.229  0.7629  0.0217  0.4480
 1196SOL      O 5227   2.200   4.546   2.250  0.0521  0.2981  0.1040
 1196SOL     H1 5228   2.287   4.511   2.233 -0.5874 -1.2420 -0.1013
 1196SOL     H2 5229   2.142   4.495   2.193 -1.1263  0.4524  1.1365
 1196SOL    EPW 5230   2.203   4.537   2.242 -0.1418  0.1503  0.1923
 1197SOL      O 5231   0.508   4.840   2.730 -0.1250 -0.1360  0.1069
 1197SOL     H1 5232   0.561   4.916   2.705  1.3388 -1.4346 -0.8097
 1197SOL     H2 5233   0.560   4.796   2.798 -1.3064  0.0797  1.1592
 1197SOL    EPW 5234   0.519   4.843   2.735 -0.0949 -0.2515  0.1214
 1198SOL      O 5235   2.613   2.741   3.595  0.1608  0.1829  0.4071
 1198SOL     H1 5236   2.678   2.783   3.651 -0.8692  0.6733  1.2624
 1198SOL     H2 5237   2.615   2.791   3.514  1.9685 -0.7936 -0.1914
 1198SOL    EPW 5238   2.620   2.751   3.593  0.2438  0.1311  0.4345
 1199SOL      O 5239   3.737   3.726   3.798 -0.0995  0.4396 -0.1103
 1199SOL     H1 5240   3.751   3.820   3.799 -3.8105  1.0960 -1.6114
 1199SOL     H2 5241   3.807   3.692   3.741  0.8142  2.3473 -0.1559
 1199SOL    EPW 5242   3.746   3.732   3.792 -0.3979  0.7132 -0.2753
 1200SOL      O 5243   0.306   0.340   0.437 -0.0590 -0.1212  0.1690
 1200SOL     H1 5244   0.255   0.298   0.507  0.4077 -0.2283  0.4451
 1200SOL     H2 5245   0.373   0.390   0.484  0.4633 -0.4640 -0.2189
 1200SOL    EPW 5246   0.307   0.341   0.450  0.0465 -0.1692  0.1571
 1201SOL      O 5247   5.874   3.064   3.933  0.3000  0.0275  0.6297
 1201SOL     H1 5248   5.870   2.973   3.902  1.4599 -0.0380  0.6416
 1201SOL     H2 5249   5.813   3.111   3.876 -2.6745 -1.2952  2.6080
 1201SOL    EPW 5250   5.867   3.059   3.923  0.1064 -0.1206  0.8420
 1202SOL      O 5251   0.872   5.332   1.521  0.3483  0.4268 -0.0482
 1202SOL     H1 5252   0.897   5.356   1.432 -0.5720  1.5240 -0.0205
 1202SOL     H2 5253   0.955   5.322   1.568  0.8469 -0.6663 -1.1527
 1202SOL    EPW 5254   0.884   5.334   1.517  0.3033  0.4272 -0.1631
 1203SOL      O 5255   4.970   4.674   1.225  0.2233  0.1783 -0.4622
 1203SOL     H1 5256   4.882   4.696   1.256  0.2713  0.9721 -0.8789
 1203SOL     H2 5257   5.014   4.640   1.303 -0.1614  0.6584 -0.0335
 1203SOL    EPW 5258   4.965   4.673   1.237  0.1874  0.3142 -0.4609
 1204SOL      O 5259   0.748   4.243   1.163 -0.1392 -0.5101  0.6372
 1204SOL     H1 5260   0.807   4.201   1.100 -0.8824  0.3560 -0.6688
 1204SOL     H2 5261   0.800   4.250   1.244  0.5281 -2.4595  0.4069
 1204SOL    EPW 5262   0.760   4.239   1.165 -0.1473 -0.6257  0.4733
 1205SOL      O 5263   0.685   4.479   2.462  0.4412  0.3332  0.0230
 1205SOL     H1 5264   0.726   4.546   2.407 -1.5815  1.4395 -0.1779
 1205SOL     H2 5265   0.719   4.396   2.428  0.8401  1.1228 -1.5371
 1205SOL    EPW 5266   0.693   4.477   2.453  0.2679  0.5355 -0.1648
 1206SOL      O 5267   5.554   5.248   0.935 -0.5310  0.6626  0.0680
 1206SOL     H1 5268   5.636   5.246   0.886 -1.1106  1.4763 -0.9544
 1206SOL     H2 5269   5.487   5.224   0.871 -0.9291 -1.6428  1.2844
 1206SOL    EPW 5270   5.555   5.245   0.923 -0.6353  0.5035  0.0887
 1207SOL      O 5271   0.294   4.008   2.761  0.6704  0.2010 -0.1174
 1207SOL     H1 5272   0.273   4.079   2.822  0.4459  0.5807 -0.6300
 1207SOL     H2 5273   0.215   3.955   2.759  0.6127  0.2917 -0.2209
 1207SOL    EPW 5274   0.283   4.010   2.768  0.6403  0.2512 -0.1831
 1208SOL      O 5275   0.786   4.987   2.379  0.0036 -0.0459  0.1539
 1208SOL     H1 5276   0.849   4.987   2.308  1.3109  0.2757  1.2868
 1208SOL     H2 5277   0.703   5.014   2.339  0.8359  0.6099 -1.1254
 1208SOL    EPW 5278   0.784   4.990   2.367  0.2319  0.0583  0.1383
 1209SOL      O 5279   1.029   5.366   0.389  0.2834  0.2145  0.1197
 1209SOL     H1 5280   1.001   5.380   0.480  1.0327 -2.0203  0.7148
 1209SOL     H2 5281   0.994   5.442   0.342 -0.2055  1.3515  2.2426
 1209SOL    EPW 5282   1.022   5.376   0.393  0.3112  0.0974  0.4096
 1210SOL      O 5283   0.240   0.757   2.248  0.2286  0.1247 -0.2825
 1210SOL     H1 5284   0.262   0.840   2.205  0.2949 -0.2678 -1.0211
 1210SOL     H2 5285   0.152   0.736   2.216  0.6064 -0.5815 -0.8641
 1210SOL    EPW 5286   0.233   0.764   2.240  0.2760  0.0075 -0.4233
 1211SOL      O 5287   1.947   4.996   1.112  0.1412 -0.0346  0.2213
 1211SOL     H1 5288   2.037   4.990   1.082  0.3131 -1.2034  0.8993
 1211SOL     H2 5289   1.898   5.027   1.036  0.8154 -1.3310 -0.7779
 1211SOL    EPW 5290   1.951   4.998   1.101  0.2314 -0.2976  0.1871
 1212SOL      O 5291   1.035   5.025   0.191  0.0326 -0.7473 -0.1581
 1212SOL     H1 5292   0.985   5.078   0.253  0.0560  0.5209 -1.2068
 1212SOL     H2 5293   1.022   5.068   0.106  2.1352 -0.9414 -0.6103
 1212SOL    EPW 5294   1.028   5.035   0.189  0.2594 -0.6327 -0.3182
 1213SOL      O 5295   0.919   5.416   0.660  0.3431 -0.5630  0.4396
 1213SOL     H1 5296   0.987   5.386   0.720  1.8458  0.2456 -0.7815
 1213SOL     H2 5297   0.854   5.458   0.716  2.6050  1.8450  1.4024
 1213SOL    EPW 5298   0.920   5.417   0.672  0.7447 -0.2198  0.4120
 1214SOL      O 5299   5.542   4.591   1.327  0.5601 -0.2222  0.0351
 1214SOL     H1 5300   5.610   4.562   1.387 -0.9162 -0.3938  1.6739
 1214SOL     H2 5301   5.460   4.577   1.375 -0.6920 -0.8711 -2.2345
 1214SOL    EPW 5302   5.541   4.587   1.339  0.2690 -0.3097 -0.0322
 1215SOL      O 5303   4.982   1.969   4.012 -0.4066  0.1023  0.1963
 1215SOL     H1 5304   4.944   2.051   3.980  0.0780  0.1161 -0.3505
 1215SOL     H2 5305   5.013   1.925   3.933 -1.0232 -0.7892  0.4572
 1215SOL    EPW 5306   4.981   1.973   4.000 -0.4207  0.0087  0.1658
 1216SOL      O 5307   0.925   4.516   0.400 -0.3508 -0.0916  0.0539
 1216SOL     H1 5308   0.939   4.473   0.315  0.6854  0.8146 -0.2411
 1216SOL     H2 5309   0.830   4.522   0.408 -0.4649 -0.6464 -0.8078
 1216SOL    EPW 5310   0.916   4.512   0.392 -0.2524 -0.0541 -0.0695
 1217SOL      O 5311   4.343   0.090   3.421 -0.1587 -0.4491  0.0151
 1217SOL     H1 5312   4.267   0.144   3.443 -0.4631 -0.2131 -1.5452
 1217SOL     H2 5313   4.416   0.152   3.424 -0.2462 -0.3447  0.0263
 1217SOL    EPW 5314   4.343   0.103   3.423 -0.2005 -0.4128 -0.1502
 1218SOL      O 5315   0.544   3.610   1.200 -0.3115  0.3615 -0.4058
 1218SOL     H1 5316   0.455   3.632   1.229  0.0368  1.1799  0.0431
 1218SOL     H2 5317   0.594   3.691   1.211  0.2307  0.2140 -1.6887
 1218SOL    EPW 5318   0.540   3.621   1.204 -0.2165  0.4331 -0.4948
 1219SOL      O 5319   1.229   5.692   0.429 -0.0114  0.1133  0.0031
 1219SOL     H1 5320   1.141   5.675   0.463  0.5006 -2.0605  0.2795
 1219SOL     H2 5321   1.214   5.736   0.345 -1.3793 -1.0785 -0.3841
 1219SOL    EPW 5322   1.218   5.695   0.423 -0.1027 -0.2457 -0.0087
 1220SOL      O 5323   2.117   5.781   1.460  0.2054  0.2100  0.2183
 1220SOL     H1 5324   2.139   5.696   1.421 -1.1001 -0.7450  1.4653
 1220SOL     H2 5325   2.029   5.799   1.429 -1.4164 -1.2350  3.6513
 1220SOL    EPW 5326   2.110   5.774   1.453 -0.1068 -0.0460  0.7175
 1221SOL      O 5327   4.856   1.797   3.673  0.4310 -0.5950 -0.0499
 1221SOL     H1 5328   4.782   1.748   3.637  0.8136 -3.3566  2.7116
 1221SOL     H2 5329   4.928   1.734   3.672  1.4863  0.5525  1.7064
 1221SOL    EPW 5330   4.856   1.785   3.669  0.5844 -0.7672  0.4321
 1222SOL      O 5331   5.874   3.685   2.638 -1.3764  0.8347  0.5411
 1222SOL     H1 5332   5.875   3.761   2.695 -0.1557  3.5054 -2.8886
 1222SOL     H2 5333   5.785   3.652   2.643 -2.1554  2.9992  1.3785
 1222SOL    EPW 5334   5.865   3.689   2.645 -1.3293  1.3505  0.2646
 1223SOL      O 5335   0.327   3.826   0.967  0.0771 -0.5469 -0.0928
 1223SOL     H1 5336   0.356   3.738   0.943 -0.4695 -0.1612 -2.2041
 1223SOL     H2 5337   0.268   3.852   0.897  0.8358  1.8257  0.1062
 1223SOL    EPW 5338   0.324   3.820   0.957  0.0997 -0.2527 -0.2968
 1224SOL      O 5339   0.507   4.162   2.722  0.3957  0.2134 -0.4350
 1224SOL     H1 5340   0.433   4.103   2.736  0.0138 -0.1155 -3.4604
 1224SOL     H2 5341   0.525   4.156   2.628  2.6585  2.2098 -0.1842
 1224SOL    EPW 5342   0.501   4.155   2.713  0.5964  0.3913 -0.7310
 1225SOL      O 5343   1.637   3.684   0.792 -0.0679 -0.0828  0.2038
 1225SOL     H1 5344   1.554   3.636   0.785 -0.8568  1.1170  1.2221
 1225SOL     H2 5345   1.667   3.692   0.702 -0.0509 -2.2696 -0.0182
 1225SOL    EPW 5346   1.631   3.679   0.782 -0.1502 -0.1881  0.2887
 1226SOL      O 5347   1.268   5.352   0.270  0.4266  0.3755  0.4109
 1226SOL     H1 5348   1.203   5.362   0.339 -0.1914 -0.1211 -0.0864
 1226SOL     H2 5349   1.277   5.257   0.260 -2.3161  0.3634 -2.7764
 1226SOL    EPW 5350   1.262   5.343   0.276  0.0681  0.3212  0.0178
 1227SOL      O 5351   0.317   2.711   1.758  0.0654  0.1846  0.2616
 1227SOL     H1 5352   0.309   2.712   1.853 -1.8260  0.4113  0.1221
 1227SOL     H2 5353   0.360   2.794   1.737 -1.8308  1.3322  0.7674
 1227SOL    EPW 5354   0.321   2.720   1.766 -0.3386  0.3312  0.3007
 1228SOL      O 5355   2.963   4.933   1.551 -0.5801  0.0769 -0.2053
 1228SOL     H1 5356   3.038   4.988   1.573 -0.4920  0.4002 -1.3137
 1228SOL     H2 5357   2.998   4.866   1.492 -1.0373 -0.1548 -0.2226
 1228SOL    EPW 5358   2.975   4.932   1.547 -0.6194  0.0866 -0.3254
 1229SOL      O 5359   1.583   2.990   1.812  0.2636 -0.0976 -0.4117
 1229SOL     H1 5360   1.650   2.922   1.810 -0.0118 -0.3898  0.1238
 1229SOL     H2 5361   1.563   3.007   1.720 -1.5940 -2.6836 -0.5368
 1229SOL    EPW 5362   1.588   2.985   1.802  0.0361 -0.4046 -0.3679
 1230SOL      O 5363   0.533   4.227   0.927  0.6961 -0.0543 -0.2638
 1230SOL     H1 5364   0.590   4.249   1.001 -1.4188  0.2094  1.3565
 1230SOL     H2 5365   0.524   4.132   0.931 -0.3689  0.0634  0.6000
 1230SOL    EPW 5366   0.538   4.219   0.935  0.3569 -0.0136  0.0012
 1231SOL      O 5367   0.632   5.423   1.651 -0.0911  0.3989 -0.0419
 1231SOL     H1 5368   0.641   5.517   1.635  0.4519 -0.0886 -2.8805
 1231SOL     H2 5369   0.708   5.384   1.607 -0.5091 -1.4015  0.7973
 1231SOL    EPW 5370   0.641   5.429   1.645 -0.0777  0.1549 -0.2552
 1232SOL      O 5371   2.381   3.609   0.618 -0.1656 -0.5494  0.2993
 1232SOL     H1 5372   2.301   3.660   0.629  0.1577  0.4692 -1.9228
 1232SOL     H2 5373   2.442   3.646   0.682 -0.7914  0.0616  0.5466
 1232SOL    EPW 5374   2.379   3.618   0.626 -0.1979 -0.3756  0.0886
 1233SOL      O 5375   3.205   3.290   3.549  0.4409  0.7783 -0.1902
 1233SOL     H1 5376   3.299   3.272   3.543  0.8338  1.5791  2.4239
 1233SOL     H2 5377   3.200   3.385   3.561 -0.5595  0.5361  1.5379
 1233SOL    EPW 5378   3.214   3.298   3.550  0.3761  0.8379  0.2730
 1234SOL      O 5379   1.006   4.408   2.206  0.3868 -0.2050 -0.6252
 1234SOL     H1 5380   0.990   4.356   2.285  0.4460  0.0166 -0.4643
 1234SOL     H2 5381   1.101   4.420   2.205  0.3511  0.1001 -0.5293
 1234SOL    EPW 5382   1.015   4.404   2.214  0.3893 -0.1488 -0.5978
 1235SOL      O 5383   5.575   4.848   1.252 -0.4779  0.5448  0.0651
 1235SOL     H1 5384   5.602   4.839   1.161 -0.5486  0.0416  0.0928
 1235SOL     H2 5385   5.572   4.758   1.286  0.4056  0.7879  0.8113
 1235SOL    EPW 5386   5.577   4.837   1.246 -0.3912  0.5171  0.1476
 1236SOL      O 5387   2.600   1.710   4.105 -0.1300 -0.4585  0.1611
 1236SOL     H1 5388   2.588   1.761   4.184 -1.4317 -0.0787 -0.2708
 1236SOL     H2 5389   2.684   1.666   4.117  0.7827  1.4151  0.7377
 1236SOL    EPW 5390   2.608   1.710   4.114 -0.1715 -0.2181  0.1765
 1237SOL      O 5391   5.384   4.209   0.773  0.4513 -0.4967 -0.6560
 1237SOL     H1 5392   5.463   4.247   0.813  0.7946 -1.9188  0.0322
 1237SOL     H2 5393   5.329   4.184   0.848 -0.0432 -0.7862 -1.1162
 1237SOL    EPW 5394   5.387   4.211   0.785  0.4352 -0.6793 -0.6316
 1238SOL      O 5395   5.374   4.943   1.728 -0.3299  1.0227 -0.7363
 1238SOL     H1 5396   5.355   5.036   1.741 -2.4054  0.4674  0.4928
 1238SOL     H2 5397   5.351   4.903   1.812  1.9414 -0.4086 -0.7789
 1238SOL    EPW 5398   5.369   4.949   1.738 -0.3090  0.8108 -0.6097
 1239SOL      O 5399   1.074   4.729   2.193 -0.8803 -0.0462  0.1718
 1239SOL     H1 5400   1.140   4.674   2.236 -2.0081 -0.7475  1.0351
 1239SOL     H2 5401   1.120   4.768   2.120  0.1420 -1.6012 -0.0471
 1239SOL    EPW 5402   1.086   4.727   2.190 -0.8915 -0.2869  0.2406
 1240SOL      O 5403   0.976   5.588   2.139 -0.2315 -0.2390  0.0649
 1240SOL     H1 5404   1.064   5.585   2.175  0.3346 -0.2766 -1.2712
 1240SOL     H2 5405   0.950   5.496   2.130 -0.5728 -0.2197  0.8526
 1240SOL    EPW 5406   0.983   5.578   2.142 -0.2075 -0.2409  0.0064
 1241SOL      O 5407   4.467   1.421   3.160 -0.3877  0.0267 -0.0463
 1241SOL     H1 5408   4.375   1.438   3.181 -1.3943 -1.3774 -2.9275
 1241SOL     H2 5409   4.496   1.499   3.113 -1.3742 -1.0850 -2.6309
 1241SOL    EPW 5410   4.460   1.431   3.157 -0.6003 -0.2417 -0.6293
 1242SOL      O 5411   4.414   2.764   3.993 -0.3766 -0.4544  0.0207
 1242SOL     H1 5412   4.385   2.846   4.034  0.0113  0.1580 -0.9182
 1242SOL     H2 5413   4.472   2.724   4.058 -0.8986 -0.1869  0.6534
 1242SOL    EPW 5414   4.417   2.769   4.004 -0.3909 -0.3606 -0.0120
 1243SOL      O 5415   1.331   5.239   1.537  0.9873 -0.5213  0.0211
 1243SOL     H1 5416   1.345   5.277   1.450  0.2216  1.5820  0.8099
 1243SOL     H2 5417   1.411   5.260   1.585  0.0088  1.3394  0.8832
 1243SOL    EPW 5418   1.341   5.245   1.533  0.8013 -0.0984  0.1972
 1244SOL      O 5419   0.081   4.748   0.060 -0.1030 -0.0187 -0.0479
 1244SOL     H1 5420   0.075   4.771   0.153  2.7034  0.8064 -0.0360
 1244SOL     H2 5421   0.023   4.673   0.050 -0.8576  0.2266  2.2615
 1244SOL    EPW 5422   0.074   4.742   0.069  0.1159  0.0955  0.1997
 1245SOL      O 5423   1.118   4.581   1.675 -0.0922 -0.5773  0.1640
 1245SOL     H1 5424   1.089   4.600   1.764 -1.1788  0.9433 -0.4853
 1245SOL     H2 5425   1.197   4.634   1.665  2.4040 -3.8599  1.5531
 1245SOL    EPW 5426   1.123   4.589   1.684  0.0582 -0.7652  0.2430
 1246SOL      O 5427   3.062   3.213   0.783  0.0477  0.3248  0.3430
 1246SOL     H1 5428   2.980   3.199   0.832 -0.3836 -1.8362 -0.9620
 1246SOL     H2 5429   3.033   3.228   0.693  1.0975 -0.3192 -0.0984
 1246SOL    EPW 5430   3.050   3.213   0.779  0.1136  0.0256  0.1567
 1247SOL      O 5431   0.121   3.661   0.671  0.1394 -0.3750  0.2937
 1247SOL     H1 5432   0.166   3.738   0.636 -2.1164  1.1296  0.6269
 1247SOL     H2 5433   0.068   3.628   0.598  0.3532 -1.0555  0.4369
 1247SOL    EPW 5434   0.120   3.665   0.659 -0.0784 -0.2871  0.3445
 1248SOL      O 5435   5.167   4.854   1.600  0.0323 -0.1832 -0.0879
 1248SOL     H1 5436   5.240   4.874   1.659  0.8687  0.8918 -1.4572
 1248SOL     H2 5437   5.103   4.923   1.618  0.0212 -0.2173  0.0057
 1248SOL    EPW 5438   5.168   4.863   1.608  0.1203 -0.0722 -0.2240
 1249SOL      O 5439   4.610   2.208   3.479 -0.5246  0.1528  0.1766
 1249SOL     H1 5440   4.657   2.291   3.486  0.4236 -0.2608 -1.0594
 1249SOL     H2 5441   4.620   2.167   3.565 -2.3995  2.0293  1.3383
 1249SOL    EPW 5442   4.616   2.212   3.489 -0.6234  0.3088  0.1687
 1250SOL      O 5443   3.182   3.755   2.682  0.2712 -0.0150  0.4859
 1250SOL     H1 5444   3.147   3.680   2.632  0.0536 -0.6272  1.5410
 1250SOL     H2 5445   3.256   3.719   2.729  1.0782  0.8038 -0.1502
 1250SOL    EPW 5446   3.186   3.743   2.681  0.3341  0.0070  0.5306
 1251SOL      O 5447   1.774   3.175   0.146  0.4335 -0.2386 -0.0979
 1251SOL     H1 5448   1.868   3.158   0.135  0.3913  0.4801 -1.7108
 1251SOL     H2 5449   1.769   3.232   0.223  1.2947 -0.4777  0.1423
 1251SOL    EPW 5450   1.784   3.179   0.153  0.5208 -0.1875 -0.2443
 1252SOL      O 5451   0.054   4.991   0.686 -0.7704  0.4729 -0.0011
 1252SOL     H1 5452   0.078   5.028   0.601 -0.6601 -0.7758 -0.5161
 1252SOL     H2 5453   0.073   4.898   0.679 -1.1878  0.2745  1.2437
 1252SOL    EPW 5454   0.059   4.985   0.676 -0.8031  0.3185  0.0768
 1253SOL      O 5455   0.973   4.005   0.732  0.4893  0.3334  0.4353
 1253SOL     H1 5456   0.943   4.070   0.795  1.6859  0.2116  1.1561
 1253SOL     H2 5457   0.920   3.927   0.750  0.0855  0.6412  0.5678
 1253SOL    EPW 5458   0.964   4.004   0.741  0.5739  0.3533  0.5263
 1254SOL      O 5459   0.169   1.197   1.281 -0.0702 -0.3246 -0.6866
 1254SOL     H1 5460   0.228   1.258   1.235 -1.6270  1.3515 -0.5014
 1254SOL     H2 5461   0.199   1.110   1.254  0.1820  0.5828 -3.4796
 1254SOL    EPW 5462   0.179   1.194   1.273 -0.2094 -0.0490 -0.9648
 1255SOL      O 5463   2.913   5.345   3.506 -0.2065  0.2364 -0.2722
 1255SOL     H1 5464   2.912   5.302   3.592 -1.0368  0.5650 -0.1158
 1255SOL     H2 5465   2.914   5.273   3.443  1.5467 -0.0198  0.0089
 1255SOL    EPW 5466   2.913   5.332   3.509 -0.1080  0.2441 -0.2255
 1256SOL      O 5467   2.125   2.964   1.622 -0.0723  0.4629  0.6215
 1256SOL     H1 5468   2.207   3.012   1.636  1.1191 -1.1116 -0.7332
 1256SOL     H2 5469   2.139   2.880   1.667  0.0134 -0.7617 -1.6189
 1256SOL    EPW 5470   2.135   2.960   1.628  0.0639  0.1643  0.2380
 1257SOL      O 5471   2.919   0.174   3.425 -0.0744  0.4304 -0.2461
 1257SOL     H1 5472   2.874   0.103   3.471  0.6542 -0.7191 -1.2595
 1257SOL     H2 5473   2.898   0.252   3.475 -0.1813 -0.6309  1.4020
 1257SOL    EPW 5474   2.912   0.174   3.435 -0.0080  0.1945 -0.1784
 1258SOL      O 5475   0.989   4.144   0.492 -0.4581 -1.0507  0.2732
 1258SOL     H1 5476   0.992   4.222   0.548  0.1178 -1.5313  0.9288
 1258SOL     H2 5477   0.967   4.073   0.552  0.7172 -1.6663  0.0055
 1258SOL    EPW 5478   0.987   4.145   0.504 -0.2713 -1.1677  0.3145
 1259SOL      O 5479   1.580   4.113   0.774 -0.6474 -0.1758  0.1642
 1259SOL     H1 5480   1.519   4.054   0.817 -0.6342  0.6596  1.3685
 1259SOL     H2 5481   1.555   4.200   0.805 -0.2785  0.3968 -1.0914
 1259SOL    EPW 5482   1.571   4.116   0.782 -0.6066 -0.0256  0.1587
 1260SOL      O 5483   0.227   4.191   1.361  1.0495  0.0726 -0.8278
 1260SOL     H1 5484   0.266   4.279   1.359  2.2762 -0.4157  0.1742
 1260SOL     H2 5485   0.195   4.182   1.451  0.7523 -0.4246 -0.9863
 1260SOL    EPW 5486   0.228   4.200   1.370  1.1487 -0.0326 -0.7379
 1261SOL      O 5487   2.155   4.383   2.892 -0.0585 -0.1936 -0.3183
 1261SOL     H1 5488   2.223   4.321   2.864 -2.3603 -1.9381 -2.2687
 1261SOL     H2 5489   2.149   4.446   2.820  0.5538  0.8924  0.5616
 1261SOL    EPW 5490   2.162   4.383   2.881 -0.2387 -0.2638 -0.4325
 1262SOL      O 5491   0.244   5.020   1.337 -0.4268 -0.5083  0.3767
 1262SOL     H1 5492   0.183   4.962   1.382 -1.3953  0.3004  0.1452
 1262SOL     H2 5493   0.188   5.086   1.297  0.2554 -2.2427 -3.5977
 1262SOL    EPW 5494   0.232   5.021   1.338 -0.4574 -0.6071 -0.0720
 1263SOL      O 5495   1.884   5.708   2.113  0.6475  0.1862 -0.0344
 1263SOL     H1 5496   1.910   5.799   2.109  0.4969  0.1921 -1.0041
 1263SOL     H2 5497   1.793   5.710   2.144 -0.0172  0.4902 -1.9470
 1263SOL    EPW 5498   1.877   5.718   2.116  0.5605  0.2193 -0.3419
 1264SOL      O 5499   0.793   5.713   2.644  0.4769 -0.4619 -0.0937
 1264SOL     H1 5500   0.884   5.733   2.621 -0.0624  1.4049 -0.6950
 1264SOL     H2 5501   0.768   5.643   2.585  1.5029 -0.9304  0.0231
 1264SOL    EPW 5502   0.800   5.708   2.636  0.5288 -0.3127 -0.1454
 1265SOL      O 5503   0.559   4.317   3.958 -0.3471 -0.1617 -0.3517
 1265SOL     H1 5504   0.523   4.285   3.875  1.0785 -1.6740 -0.4099
 1265SOL     H2 5505   0.574   4.238   4.010  0.0283  0.6742  0.8355
 1265SOL    EPW 5506   0.557   4.306   3.955 -0.1550 -0.2338 -0.2312
 1266SOL      O 5507   0.280   4.579   1.849 -0.8335  0.6694  0.3268
 1266SOL     H1 5508   0.307   4.670   1.836  0.5336 -0.0827 -2.4157
 1266SOL     H2 5509   0.359   4.534   1.878 -0.8316 -0.1950 -1.0259
 1266SOL    EPW 5510   0.291   4.584   1.851 -0.6875  0.4970 -0.1101
 1267SOL      O 5511   2.063   5.827   3.681  0.5805  0.0686 -0.7071
 1267SOL     H1 5512   2.133   5.847   3.619 -0.6277  0.5763 -1.9091
 1267SOL     H2 5513   1.990   5.884   3.656 -0.4758 -0.8635  0.1749
 1267SOL    EPW 5514   2.063   5.835   3.672  0.3389  0.0233 -0.7412
 1268SOL      O 5515   5.432   0.432   3.444  0.6728 -0.4026  0.5181
 1268SOL     H1 5516   5.442   0.515   3.397 -0.3997 -0.4585  0.1941
 1268SOL     H2 5517   5.519   0.415   3.479  1.5743 -0.4792 -1.6529
 1268SOL    EPW 5518   5.443   0.439   3.443  0.6546 -0.4167  0.2519
 1269SOL      O 5519   1.155   4.117   3.037 -0.6993 -0.1311 -0.4690
 1269SOL     H1 5520   1.087   4.170   2.995 -0.2168  0.6303 -0.3020
 1269SOL     H2 5521   1.136   4.027   3.009 -0.0300  0.4185 -2.8200
 1269SOL    EPW 5522   1.145   4.113   3.030 -0.5764  0.0087 -0.7020
 1270SOL      O 5523   0.178   4.831   3.228 -0.2524 -0.0890 -0.5886
 1270SOL     H1 5524   0.152   4.923   3.233  0.2587  0.0654 -0.7480
 1270SOL     H2 5525   0.221   4.823   3.143  1.6569  0.0384  0.3318
 1270SOL    EPW 5526   0.180   4.840   3.220  0.0058 -0.0589 -0.5074
 1271SOL      O 5527   0.122   4.844   2.741 -0.4535  0.5568  0.3664
 1271SOL     H1 5528   0.027   4.859   2.739 -0.3157  1.5263  0.6921
 1271SOL     H2 5529   0.160   4.932   2.731  0.4166  0.0480 -0.8867
 1271SOL    EPW 5530   0.116   4.855   2.740 -0.3460  0.6060  0.2675
 1272SOL      O 5531   0.027   4.153   2.677  0.6456  0.2202  0.1594
 1272SOL     H1 5532  -0.049   4.142   2.735 -0.2797  2.7758 -0.4984
 1272SOL     H2 5533   0.097   4.104   2.720 -1.4156 -2.3904  0.6571
 1272SOL    EPW 5534   0.026   4.147   2.688  0.3270  0.2143  0.1424
 1273SOL      O 5535   4.930   0.392   3.378 -0.2858 -0.3184  0.0049
 1273SOL     H1 5536   4.844   0.353   3.396 -0.3779 -1.2983 -2.4251
 1273SOL     H2 5537   4.992   0.320   3.392  0.2239  0.4936  2.1558
 1273SOL    EPW 5538   4.927   0.380   3.381 -0.2413 -0.3363 -0.0249
 1274SOL      O 5539   0.469   2.969   2.676 -0.2702  0.0016  0.5553
 1274SOL     H1 5540   0.501   2.879   2.679 -0.3576 -0.1461 -1.8083
 1274SOL     H2 5541   0.373   2.960   2.671 -0.2067  0.1554 -1.1947
 1274SOL    EPW 5542   0.462   2.958   2.676 -0.2727  0.0022  0.1165
 1275SOL      O 5543   5.729   3.755   2.216 -0.1876 -0.3214  0.5602
 1275SOL     H1 5544   5.679   3.788   2.141 -0.1257  0.6409  0.9375
 1275SOL     H2 5545   5.769   3.674   2.184 -0.3205 -0.0179 -0.3902
 1275SOL    EPW 5546   5.728   3.749   2.204 -0.1951 -0.1863  0.4990
 1276SOL      O 5547   1.360   5.622   3.400  0.4147 -0.5629  0.2126
 1276SOL     H1 5548   1.269   5.648   3.413 -0.2469 -1.7980 -1.7296
 1276SOL     H2 5549   1.406   5.655   3.477 -1.3390  1.6996  0.3358
 1276SOL    EPW 5550   1.355   5.629   3.410  0.1571 -0.4533  0.0186
 1277SOL      O 5551   1.025   0.366   1.274  0.0267 -0.1578  0.1700
 1277SOL     H1 5552   0.938   0.353   1.235 -0.5697 -2.6387  2.2131
 1277SOL     H2 5553   1.083   0.379   1.198 -1.7967 -0.3762 -1.3076
 1277SOL    EPW 5554   1.022   0.366   1.261 -0.2314 -0.4458  0.2303
 1278SOL      O 5555   5.629   5.156   3.188  0.5232  0.1394  0.0937
 1278SOL     H1 5556   5.604   5.248   3.173  1.1334  0.2573 -0.2572
 1278SOL     H2 5557   5.562   5.106   3.142  0.7551  0.4425 -0.5995
 1278SOL    EPW 5558   5.619   5.161   3.181  0.6130  0.1843 -0.0177
 1279SOL      O 5559   0.391   4.833   1.800 -0.1544 -0.3906 -0.4218
 1279SOL     H1 5560   0.424   4.921   1.817 -1.3678  0.2267 -1.1637
 1279SOL     H2 5561   0.447   4.799   1.730 -0.3037  0.1652 -0.8131
 1279SOL    EPW 5562   0.400   4.839   1.794 -0.2998 -0.2654 -0.5427
 1280SOL      O 5563   0.244   5.662   3.551 -0.3912  0.0617  0.3993
 1280SOL     H1 5564   0.330   5.650   3.511 -0.3303  0.3868  0.4360
 1280SOL     H2 5565   0.220   5.574   3.582  0.1570  0.0691  0.8576
 1280SOL    EPW 5566   0.251   5.651   3.550 -0.3262  0.0971  0.4521
 1281SOL      O 5567   2.116   4.401   2.487  0.4356  0.4972 -0.2039
 1281SOL     H1 5568   2.103   4.451   2.567 -0.1019 -0.6267  0.4224
 1281SOL     H2 5569   2.167   4.459   2.430  0.4031  1.4815  0.7625
 1281SOL    EPW 5570   2.120   4.413   2.490  0.3748  0.4823 -0.0340
 1282SOL      O 5571   5.218   2.695   0.138 -0.5300  0.2782 -0.1520
 1282SOL     H1 5572   5.240   2.724   0.050 -0.5046  0.1134 -0.1990
 1282SOL     H2 5573   5.164   2.766   0.174 -2.4678 -0.6779 -1.1141
 1282SOL    EPW 5574   5.214   2.706   0.133 -0.7340  0.1586 -0.2596
 1283SOL      O 5575   0.630   3.940   1.206 -0.4786 -0.1928 -0.0567
 1283SOL     H1 5576   0.557   3.970   1.260  0.5492  1.0075  0.6974
 1283SOL     H2 5577   0.696   4.008   1.215  0.3350 -0.7504 -1.5761
 1283SOL    EPW 5578   0.629   3.950   1.212 -0.2822 -0.1243 -0.1383
 1284SOL      O 5579   5.214   1.672   2.216  0.1941  0.5759  0.4948
 1284SOL     H1 5580   5.267   1.725   2.275  1.1079  0.0819  0.1177
 1284SOL     H2 5581   5.155   1.735   2.174  0.9262  1.2197  0.4278
 1284SOL    EPW 5582   5.213   1.684   2.218  0.3697  0.5919  0.4474
 1285SOL      O 5583   5.775   0.031   0.933 -0.0380 -0.0341  0.4496
 1285SOL     H1 5584   5.797   0.025   0.840  0.1282  0.9954  0.4163
 1285SOL     H2 5585   5.681   0.014   0.935 -0.3698  1.6061 -0.1187
 1285SOL    EPW 5586   5.767   0.029   0.923 -0.0557  0.2507  0.3855
 1286SOL      O 5587   1.521   4.417   2.466  0.5200  0.1360  0.0488
 1286SOL     H1 5588   1.524   4.502   2.510  2.2120  0.1840 -0.1201
 1286SOL     H2 5589   1.602   4.373   2.493  1.4516  0.0324 -2.7154
 1286SOL    EPW 5590   1.530   4.421   2.473  0.7998  0.1301 -0.2641
 1287SOL      O 5591   0.408   4.003   3.041  0.3201 -0.1337  0.2946
 1287SOL     H1 5592   0.357   3.932   3.081 -0.8560  0.1275 -0.6837
 1287SOL     H2 5593   0.343   4.054   2.992  1.6555 -0.2887 -1.7061
 1287SOL    EPW 5594   0.395   4.001   3.040  0.3371 -0.1224 -0.0232
 1288SOL      O 5595   1.293   4.592   2.279 -0.5356 -0.1899  0.2118
 1288SOL     H1 5596   1.367   4.634   2.323 -0.0262 -1.6237  0.7485
 1288SOL     H2 5597   1.325   4.504   2.258 -2.1871 -0.9075  0.6775
 1288SOL    EPW 5598   1.304   4.587   2.281 -0.6574 -0.4194  0.3187
 1289SOL      O 5599   5.691   0.461   3.033  0.2139 -0.4995  0.1236
 1289SOL     H1 5600   5.660   0.529   3.093 -0.8677 -1.4774  0.7092
 1289SOL     H2 5601   5.632   0.466   2.958  1.0415  0.1661 -0.4854
 1289SOL    EPW 5602   5.681   0.469   3.032  0.1868 -0.5328  0.1211
 1290SOL      O 5603   1.566   5.196   3.987  0.3397  0.0677 -0.1107
 1290SOL     H1 5604   1.553   5.189   3.893  0.8139 -0.8811 -0.1165
 1290SOL     H2 5605   1.548   5.287   4.008  0.2241  0.2742 -1.1196
 1290SOL    EPW 5606   1.563   5.205   3.979  0.3780 -0.0115 -0.2190
 1291SOL      O 5607   4.410   1.485   0.647 -0.3824  0.2537 -0.2793
 1291SOL     H1 5608   4.391   1.452   0.560  0.8067  2.3404 -1.3822
 1291SOL     H2 5609   4.423   1.579   0.635 -0.4524  0.6304  2.1913
 1291SOL    EPW 5610   4.409   1.492   0.637 -0.2630  0.5165 -0.1334
 1292SOL      O 5611   0.525   5.790   0.879 -0.0654  0.5116 -0.5976
 1292SOL     H1 5612   0.548   5.789   0.786  1.0253 -0.4061 -0.3296
 1292SOL     H2 5613   0.440   5.834   0.882  0.0222  0.8063 -1.9957
 1292SOL    EPW 5614   0.518   5.794   0.870  0.0603  0.4451 -0.7181
 1293SOL      O 5615   0.176   4.139   2.961  0.2834 -0.0900 -0.0893
 1293SOL     H1 5616   0.168   4.233   2.948  1.3402  0.2323  1.4275
 1293SOL     H2 5617   0.124   4.121   3.040  1.4301 -0.4888  0.5924
 1293SOL    EPW 5618   0.169   4.147   2.968  0.5185 -0.0982  0.1452
 1294SOL      O 5619   2.662   5.488   1.531  0.2062 -0.6258 -0.1310
 1294SOL     H1 5620   2.688   5.580   1.527  2.3227 -1.1602  0.7268
 1294SOL     H2 5621   2.723   5.443   1.472  0.1672 -1.6736  0.6159
 1294SOL    EPW 5622   2.671   5.493   1.525  0.4279 -0.7946  0.0402
 1295SOL      O 5623   3.245   5.724   0.057  0.0851  0.9201 -0.4141
 1295SOL     H1 5624   3.340   5.719   0.069  0.0125 -1.4487 -0.6886
 1295SOL     H2 5625   3.224   5.816   0.074  2.4836  1.5713 -0.7994
 1295SOL    EPW 5626   3.253   5.733   0.060  0.3332  0.7369 -0.4845
 1296SOL      O 5627   0.635   0.497   2.076  0.4343 -0.1257 -0.7086
 1296SOL     H1 5628   0.632   0.409   2.038  0.3210  0.0506 -1.1024
 1296SOL     H2 5629   0.551   0.536   2.052  0.0478 -0.2823  0.3570
 1296SOL    EPW 5630   0.625   0.491   2.070  0.3810 -0.1236 -0.6369
 1297SOL      O 5631   2.083   5.521   3.687 -0.0091  0.2732 -0.0684
 1297SOL     H1 5632   2.092   5.586   3.616 -0.7475 -0.2138 -0.6087
 1297SOL     H2 5633   2.077   5.437   3.642 -3.2548  0.2030  0.4397
 1297SOL    EPW 5634   2.084   5.519   3.675 -0.4341  0.2137 -0.0719
 1298SOL      O 5635   5.826   0.001   0.647  0.4282 -0.5525  0.5553
 1298SOL     H1 5636   5.731   0.006   0.640  0.4257 -0.7630  0.4352
 1298SOL     H2 5637   5.857   0.085   0.615  0.3375 -0.8908 -0.4475
 1298SOL    EPW 5638   5.819   0.010   0.643  0.4183 -0.6110  0.4355
 1299SOL      O 5639   0.919   5.343   2.629  0.0522  0.9073 -0.1424
 1299SOL     H1 5640   0.942   5.253   2.605 -2.6132  0.1424  0.0419
 1299SOL     H2 5641   0.993   5.373   2.682  1.0709 -1.1008 -0.3876
 1299SOL    EPW 5642   0.929   5.337   2.632 -0.1235  0.6115 -0.1489
 1300SOL      O 5643   1.197   5.014   2.190  0.8680  0.9938  0.2222
 1300SOL     H1 5644   1.264   4.947   2.196 -0.0770 -0.1893 -1.9376
 1300SOL     H2 5645   1.189   5.048   2.279  2.2433 -0.8751  1.0904
 1300SOL    EPW 5646   1.203   5.011   2.200  0.9139  0.6682  0.0844
 1301SOL      O 5647   1.107   2.222   1.382  0.2321  0.1430  0.0369
 1301SOL     H1 5648   1.087   2.254   1.294  0.2812  1.0304  0.3426
 1301SOL     H2 5649   1.031   2.246   1.434  1.2016  1.7466  0.7535
 1301SOL    EPW 5650   1.097   2.228   1.378  0.3408  0.4087  0.1459
 1302SOL      O 5651   2.545   4.709   2.984  0.2154  0.3737 -0.2786
 1302SOL     H1 5652   2.610   4.778   2.998  0.1762  0.5579 -0.9807
 1302SOL     H2 5653   2.596   4.634   2.952  0.3227 -0.0867  0.9410
 1302SOL    EPW 5654   2.558   4.708   2.982  0.2227  0.3442 -0.2234
 1303SOL      O 5655   0.350   4.481   2.712  0.3433  0.7077  0.5652
 1303SOL     H1 5656   0.298   4.467   2.792  0.6122 -0.0773  0.5984
 1303SOL     H2 5657   0.437   4.449   2.734  0.4126  0.4615 -0.0621
 1303SOL    EPW 5658   0.353   4.476   2.723  0.3794  0.5977  0.5018
 1304SOL      O 5659   2.722   4.905   3.012 -0.4251  0.1928  0.5574
 1304SOL     H1 5660   2.806   4.886   3.054  0.0842  0.4155 -0.3392
 1304SOL     H2 5661   2.670   4.949   3.079  1.4363  3.2681  0.0809
 1304SOL    EPW 5662   2.726   4.908   3.023 -0.1722  0.5446  0.4109
 1305SOL      O 5663   0.621   4.221   2.309  0.8580  0.0445  0.4146
 1305SOL     H1 5664   0.556   4.176   2.256  0.7973  0.0069  0.5200
 1305SOL     H2 5665   0.694   4.158   2.315  1.0519  0.2269  0.0015
 1305SOL    EPW 5666   0.622   4.209   2.304  0.8722  0.0599  0.3818
 1306SOL      O 5667   4.023   1.658   0.173 -0.1811  0.2219  0.1855
 1306SOL     H1 5668   3.940   1.659   0.126 -2.3704 -1.4730  3.8605
 1306SOL     H2 5669   4.046   1.751   0.182 -1.4742  0.7008 -1.1556
 1306SOL    EPW 5670   4.017   1.668   0.169 -0.5526  0.0922  0.4345
 1307SOL      O 5671   2.495   1.071   1.223  0.0785  0.3241 -0.2366
 1307SOL     H1 5672   2.494   1.160   1.189 -1.0442  0.8193  1.0646
 1307SOL     H2 5673   2.420   1.067   1.282 -1.8378 -2.4645 -2.7361
 1307SOL    EPW 5674   2.487   1.080   1.226 -0.2457  0.0794 -0.3645
 1308SOL      O 5675   1.601   3.249   2.597 -0.2685 -0.5152 -0.0912
 1308SOL     H1 5676   1.656   3.316   2.638 -0.6908 -0.1609 -0.0932
 1308SOL     H2 5677   1.512   3.281   2.609 -0.5412 -1.5477  0.7292
 1308SOL    EPW 5678   1.597   3.260   2.602 -0.3427 -0.5875 -0.0039
 1309SOL      O 5679   1.731   5.108   2.687  0.4108 -0.2141 -0.0510
 1309SOL     H1 5680   1.665   5.045   2.716  0.2526  0.2528  0.6223
 1309SOL     H2 5681   1.688   5.193   2.693  0.4270 -0.0840 -1.5388
 1309SOL    EPW 5682   1.719   5.110   2.691  0.3956 -0.1505 -0.1379
 1310SOL      O 5683   2.950   4.311   3.295 -0.2121  0.1217 -0.2557
 1310SOL     H1 5684   3.046   4.314   3.298 -0.0451 -3.6026  0.2923
 1310SOL     H2 5685   2.924   4.325   3.387 -0.2001  0.6652 -0.3309
 1310SOL    EPW 5686   2.958   4.313   3.305 -0.1930 -0.2176 -0.2053
 1311SOL      O 5687   0.517   5.455   2.168 -0.0540  0.3575 -0.5732
 1311SOL     H1 5688   0.423   5.466   2.160  0.1070 -0.2595 -4.1458
 1311SOL     H2 5689   0.552   5.484   2.084  2.9008  0.1799  0.5324
 1311SOL    EPW 5690   0.511   5.459   2.158  0.2784  0.2727 -0.8364
 1312SOL      O 5691   0.030   4.427   1.719  0.1924  0.3042  0.2954
 1312SOL     H1 5692   0.002   4.348   1.766 -0.4809  0.8809  0.8878
 1312SOL     H2 5693   0.034   4.495   1.787 -1.6598  1.3597 -0.5920
 1312SOL    EPW 5694   0.027   4.426   1.731 -0.0770  0.4783  0.2640
 1313SOL      O 5695   0.487   3.514   2.703  0.3149  0.4021 -0.3911
 1313SOL     H1 5696   0.439   3.452   2.649  1.2299 -0.7092  0.0601
 1313SOL     H2 5697   0.575   3.478   2.709  0.3464  0.7423  1.4511
 1313SOL    EPW 5698   0.491   3.504   2.698  0.4158  0.3198 -0.1464
 1314SOL      O 5699   1.616   0.111   1.126 -0.1715  0.0396  0.4119
 1314SOL     H1 5700   1.540   0.166   1.142  1.1793  1.9524  0.4106
 1314SOL     H2 5701   1.685   0.149   1.181  1.3070 -0.4703 -1.0592
 1314SOL    EPW 5702   1.616   0.121   1.134  0.1304  0.1893  0.2549
 1315SOL      O 5703   2.301   5.011   1.058 -0.0389 -0.2080 -0.3057
 1315SOL     H1 5704   2.299   4.923   1.021  0.5198 -0.0352 -0.7566
 1315SOL     H2 5705   2.233   5.059   1.010 -1.0797 -0.6801  0.6844
 1315SOL    EPW 5706   2.293   5.007   1.049 -0.0903 -0.2399 -0.2482
 1316SOL      O 5707   0.968   4.548   0.784  0.2395  0.1524 -0.3002
 1316SOL     H1 5708   1.005   4.631   0.814  1.4332 -0.7377  0.7846
 1316SOL     H2 5709   0.874   4.564   0.776  0.3712  1.4105  0.5648
 1316SOL    EPW 5710   0.962   4.559   0.787  0.3809  0.1917 -0.0922
 1317SOL      O 5711   2.874   4.971   2.124  0.0217 -0.3996  0.5744
 1317SOL     H1 5712   2.786   4.991   2.157  0.3535  1.2665  0.4717
 1317SOL     H2 5713   2.928   4.963   2.203  0.2350  0.7829  0.5488
 1317SOL    EPW 5714   2.870   4.972   2.136  0.0798 -0.0957  0.5607
 1318SOL      O 5715   5.778   5.641   2.020  0.3119 -1.0270  0.2496
 1318SOL     H1 5716   5.789   5.736   2.021 -0.2560 -0.8212 -3.7928
 1318SOL     H2 5717   5.688   5.627   2.052 -0.1582 -0.0829 -0.6303
 1318SOL    EPW 5718   5.769   5.649   2.024  0.2012 -0.9043 -0.2755
 1319SOL      O 5719   2.017   5.498   2.245 -0.1728  0.5404 -0.0101
 1319SOL     H1 5720   1.981   5.432   2.186 -0.3538  0.5259  0.1152
 1319SOL     H2 5721   1.976   5.580   2.217  1.6649  0.9749 -1.5538
 1319SOL    EPW 5722   2.009   5.500   2.236  0.0039  0.5852 -0.1614
 1320SOL      O 5723   0.287   4.888   2.335  0.0088 -0.1057 -0.3997
 1320SOL     H1 5724   0.227   4.963   2.331  0.3285  0.2033  0.4620
 1320SOL     H2 5725   0.292   4.857   2.244  0.5448  1.4656 -0.9354
 1320SOL    EPW 5726   0.281   4.893   2.325  0.1001  0.0949 -0.3649
 1321SOL      O 5727   2.497   4.756   1.862 -0.5856  0.0982  0.1654
 1321SOL     H1 5728   2.401   4.756   1.860 -0.5661 -1.8974 -3.2608
 1321SOL     H2 5729   2.522   4.837   1.818 -0.7175 -0.3646 -0.7790
 1321SOL    EPW 5730   2.490   4.765   1.857 -0.5976 -0.1641 -0.3008
 1322SOL      O 5731   0.253   3.038   3.366  0.2118  0.2776 -0.1514
 1322SOL     H1 5732   0.330   3.082   3.403 -0.0078  1.5675 -1.1941
 1322SOL     H2 5733   0.264   2.946   3.391  2.1130  0.4268 -0.3227
 1322SOL    EPW 5734   0.263   3.033   3.373  0.3912  0.4311 -0.2809
 1323SOL      O 5735   0.485   5.633   3.416 -0.1675 -0.0023  0.2914
 1323SOL     H1 5736   0.486   5.545   3.377  1.9912  0.5078 -0.8965
 1323SOL     H2 5737   0.567   5.639   3.465  0.4277  1.8675 -0.8792
 1323SOL    EPW 5738   0.494   5.624   3.417  0.1263  0.2516  0.0398
 1324SOL      O 5739   0.476   5.210   2.639 -0.1200  0.1653  0.0159
 1324SOL     H1 5740   0.391   5.167   2.645 -0.3274  0.6694  0.8959
 1324SOL     H2 5741   0.456   5.299   2.612  0.1546  0.1826 -0.1286
 1324SOL    EPW 5742   0.465   5.215   2.637 -0.1128  0.2209  0.0944
 1325SOL      O 5743   4.984   4.049   1.926 -0.5540  0.9442 -0.7007
 1325SOL     H1 5744   4.963   4.142   1.933 -2.6376  0.6110 -1.7705
 1325SOL     H2 5745   4.911   4.005   1.970  0.5297 -0.1797  0.0047
 1325SOL    EPW 5746   4.974   4.054   1.931 -0.6607  0.7888 -0.7396
 1326SOL      O 5747   5.358   4.504   3.442  0.1919  0.1791 -0.4710
 1326SOL     H1 5748   5.271   4.541   3.428  0.0816 -0.3871 -1.3389
 1326SOL     H2 5749   5.376   4.453   3.362  0.6534 -1.0160  0.3743
 1326SOL    EPW 5750   5.351   4.502   3.432  0.2293 -0.0088 -0.4734
 1327SOL      O 5751   1.082   1.800   3.120 -0.0150 -0.9205  0.7744
 1327SOL     H1 5752   1.097   1.783   3.027 -0.6384 -3.9063  1.1515
 1327SOL     H2 5753   1.157   1.852   3.148 -0.3044  0.8496 -1.5946
 1327SOL    EPW 5754   1.091   1.804   3.114 -0.1123 -1.0502  0.5620
 1328SOL      O 5755   2.838   1.359   0.637  0.1700 -0.5401 -0.3276
 1328SOL     H1 5756   2.823   1.315   0.553  0.6101  0.6373 -1.0272
 1328SOL     H2 5757   2.821   1.451   0.619  0.5136 -0.2483  0.8198
 1328SOL    EPW 5758   2.834   1.364   0.626  0.2536 -0.3833 -0.2798
 1329SOL      O 5759   5.776   0.486   2.746 -0.0696  0.5291 -0.1078
 1329SOL     H1 5760   5.796   0.547   2.817  1.7192  1.1383 -1.1058
 1329SOL     H2 5761   5.855   0.432   2.738 -0.7533 -0.3843 -0.7878
 1329SOL    EPW 5762   5.787   0.487   2.753  0.0483  0.4966 -0.2868
 1330SOL      O 5763   2.239   4.950   3.050  0.2107  0.5901 -0.1829
 1330SOL     H1 5764   2.282   4.893   2.985  1.1521  1.5997 -0.4589
 1330SOL     H2 5765   2.207   4.889   3.117 -1.6459 -0.5674 -2.0525
 1330SOL    EPW 5766   2.241   4.937   3.050  0.1131  0.5743 -0.4118
 1331SOL      O 5767   4.528   5.721   1.371 -0.1876 -0.3842  0.3756
 1331SOL     H1 5768   4.488   5.753   1.452 -2.9139 -0.1129 -1.0088
 1331SOL     H2 5769   4.561   5.800   1.328  0.4757 -0.4307  0.7836
 1331SOL    EPW 5770   4.527   5.733   1.375 -0.4076 -0.3602  0.2714
 1332SOL      O 5771   1.746   5.285   0.741  0.2876 -0.4489 -0.5566
 1332SOL     H1 5772   1.743   5.214   0.805  0.2089  0.3275  0.3127
 1332SOL     H2 5773   1.801   5.352   0.782  0.5928 -0.1171 -1.4901
 1332SOL    EPW 5774   1.752   5.285   0.752  0.3117 -0.3307 -0.5634
 1333SOL      O 5775   2.358   5.839   2.467  0.7941 -0.2585  0.6297
 1333SOL     H1 5776   2.362   5.793   2.551  0.5443  0.6575  1.1555
 1333SOL     H2 5777   2.284   5.801   2.421 -0.8844  1.2081  2.0343
 1333SOL    EPW 5778   2.351   5.830   2.471  0.5884 -0.0043  0.8357
 1334SOL      O 5779   2.090   0.240   3.325 -0.1151  0.1073  0.0121
 1334SOL     H1 5780   2.103   0.261   3.233  3.3307 -0.3368  0.3234
 1334SOL     H2 5781   2.044   0.315   3.362 -1.1991  0.4363 -1.9872
 1334SOL    EPW 5782   2.087   0.250   3.319  0.1369  0.0950 -0.1680
 1335SOL      O 5783   0.157   5.067   1.990 -0.3429 -0.6011  0.1208
 1335SOL     H1 5784   0.242   5.062   1.947 -0.8375  0.9120 -1.0894
 1335SOL     H2 5785   0.168   5.020   2.073  2.2300  1.2847  0.8938
 1335SOL    EPW 5786   0.167   5.062   1.994 -0.1212 -0.2385  0.0742
 1336SOL      O 5787   0.929   5.010   2.156 -0.0079  0.1322  0.1240
 1336SOL     H1 5788   0.895   5.097   2.136  2.2533  0.4187 -2.9382
 1336SOL     H2 5789   1.022   5.024   2.174  0.5984 -1.7015 -1.3465
 1336SOL    EPW 5790   0.935   5.021   2.156  0.2980 -0.0328 -0.3595
 1337SOL      O 5791   0.440   5.113   1.910  0.0081 -0.8400 -0.4126
 1337SOL     H1 5792   0.434   5.183   1.845  0.8382 -0.5762 -0.2215
 1337SOL     H2 5793   0.499   5.149   1.977  0.0557 -1.5423 -0.0791
 1337SOL    EPW 5794   0.446   5.124   1.911  0.1018 -0.8868 -0.3567
 1338SOL      O 5795   0.074   5.407   2.465  0.1660  0.0144 -0.1184
 1338SOL     H1 5796   0.116   5.385   2.548 -0.9492  0.7569  0.6485
 1338SOL     H2 5797   0.025   5.487   2.483 -0.1603  0.1342 -1.4687
 1338SOL    EPW 5798   0.073   5.413   2.476  0.0122  0.1064 -0.1806
 1339SOL      O 5799   0.020   5.398   3.396  0.2117 -0.2216  0.4379
 1339SOL     H1 5800   0.059   5.473   3.352 -0.1036 -0.9087 -1.0305
 1339SOL     H2 5801   0.076   5.384   3.473  0.4414  1.3123  0.5625
 1339SOL    EPW 5802   0.030   5.404   3.400  0.2026 -0.1312  0.2946
 1340SOL      O 5803   0.752   3.268   3.585 -0.1377 -0.2666  0.3599
 1340SOL     H1 5804   0.701   3.293   3.509  0.7616  1.0854  0.1901
 1340SOL     H2 5805   0.843   3.276   3.557  0.2321  1.4488  1.9256
 1340SOL    EPW 5806   0.756   3.271   3.574 -0.0023  0.0606  0.5088
 1341SOL      O 5807   0.031   4.090   3.171  0.4382 -0.4761  0.0040
 1341SOL     H1 5808  -0.013   4.168   3.206 -0.7462 -0.0644 -2.3109
 1341SOL     H2 5809   0.037   4.030   3.246  0.2957  1.3480  1.5314
 1341SOL    EPW 5810   0.027   4.092   3.183  0.2966 -0.2376 -0.0800
 1342SOL      O 5811   5.593   4.605   1.063 -0.1568 -0.3109 -0.5814
 1342SOL     H1 5812   5.531   4.591   1.134 -0.0486 -0.1872 -0.4623
 1342SOL     H2 5813   5.539   4.607   0.984 -0.1682 -1.4418 -0.6105
 1342SOL    EPW 5814   5.581   4.604   1.062 -0.1465 -0.4183 -0.5718
 1343SOL      O 5815   5.455   5.054   2.531 -0.6030 -0.3629  0.0739
 1343SOL     H1 5816   5.395   5.105   2.477  1.0580  2.0007  0.3833
 1343SOL     H2 5817   5.424   4.964   2.523 -1.8906  0.2893 -2.8099
 1343SOL    EPW 5818   5.446   5.050   2.524 -0.5632 -0.0412 -0.2007
 1344SOL      O 5819   1.558   0.252   2.177 -0.2122 -0.1886  0.3721
 1344SOL     H1 5820   1.632   0.262   2.118 -1.7426  0.9362 -1.4191
 1344SOL     H2 5821   1.524   0.164   2.159 -0.6714  0.1496 -0.4414
 1344SOL    EPW 5822   1.562   0.243   2.169 -0.4245 -0.0325  0.0942
 1345SOL      O 5823   0.693   4.896   1.695 -0.3515  0.3578 -0.2808
 1345SOL     H1 5824   0.730   4.883   1.782 -2.0250 -1.8493  0.1313
 1345SOL     H2 5825   0.757   4.951   1.650  1.3137  0.1718  1.8033
 1345SOL    EPW 5826   0.704   4.901   1.699 -0.3524  0.1025 -0.0145
 1346SOL      O 5827   0.941   0.028   1.598  0.1206 -0.0532  0.3579
 1346SOL     H1 5828   0.899  -0.051   1.633  0.6422 -1.2700 -1.6374
 1346SOL     H2 5829   0.943   0.013   1.503  0.9182  2.0350  0.0299
 1346SOL    EPW 5830   0.936   0.018   1.591  0.2613  0.0398  0.1100
 1347SOL      O 5831   0.701   4.297   2.862 -0.9238 -0.5207  0.1991
 1347SOL     H1 5832   0.638   4.229   2.839 -0.4926 -0.0472 -2.5958
 1347SOL     H2 5833   0.661   4.378   2.830 -1.0140  0.4459  2.6632
 1347SOL    EPW 5834   0.690   4.299   2.856 -0.8874 -0.3670  0.1638
 1348SOL      O 5835   5.838   5.789   1.627 -0.5883 -0.0954 -0.0514
 1348SOL     H1 5836   5.885   5.707   1.618  1.9620  1.3932 -0.8601
 1348SOL     H2 5837   5.747   5.764   1.641  0.1287 -3.0268 -0.4687
 1348SOL    EPW 5838   5.833   5.778   1.627 -0.2397 -0.2493 -0.1822
 1349SOL      O 5839   5.730   5.203   3.714 -0.2752 -0.0249 -0.0564
 1349SOL     H1 5840   5.810   5.170   3.754 -0.4832  0.9374  1.1944
 1349SOL     H2 5841   5.745   5.196   3.619 -0.3013 -3.6264  0.1522
 1349SOL    EPW 5842   5.740   5.199   3.708 -0.3001 -0.3064  0.0993
 1350SOL      O 5843   2.999   2.378   1.209 -0.0035  0.1296  0.2623
 1350SOL     H1 5844   2.908   2.390   1.237 -0.1360 -2.5937  1.1501
 1350SOL     H2 5845   3.000   2.409   1.118 -2.2419 -1.3765 -0.3267
 1350SOL    EPW 5846   2.989   2.382   1.202 -0.2564 -0.3216  0.2942
 1351SOL      O 5847   3.275   4.595   1.988  0.4752  0.3616  0.7217
 1351SOL     H1 5848   3.336   4.557   1.924 -0.5768 -0.4502  0.1704
 1351SOL     H2 5849   3.265   4.686   1.961 -0.0253  0.0060 -0.3612
 1351SOL    EPW 5850   3.280   4.600   1.978  0.3096  0.2371  0.5473
 1352SOL      O 5851   0.092   2.306   2.934  0.3099  0.0686 -0.2907
 1352SOL     H1 5852   0.059   2.298   2.845 -0.1150  0.7407 -0.2012
 1352SOL     H2 5853   0.024   2.357   2.979 -0.3847 -1.8293  0.8802
 1352SOL    EPW 5854   0.081   2.310   2.930  0.1905 -0.0622 -0.1563
 1353SOL      O 5855   0.710   3.383   2.682  0.1379 -0.1012 -0.1543
 1353SOL     H1 5856   0.799   3.405   2.710 -0.2634  0.7289  0.5010
 1353SOL     H2 5857   0.705   3.288   2.693  1.4336 -0.3664 -1.6557
 1353SOL    EPW 5858   0.719   3.375   2.686  0.2333 -0.0410 -0.2446
 1354SOL      O 5859   1.501   5.864   2.392 -0.3750 -0.4119  0.1019
 1354SOL     H1 5860   1.493   5.953   2.424 -1.0639 -0.4185 -0.0378
 1354SOL     H2 5861   1.590   5.837   2.415  0.6612  1.1302 -1.9523
 1354SOL    EPW 5862   1.509   5.870   2.398 -0.3380 -0.2481 -0.1322
 1355SOL      O 5863   1.714   2.792   1.669  0.1001 -0.4397  0.0118
 1355SOL     H1 5864   1.657   2.803   1.593  2.5346 -0.8325 -1.9383
 1355SOL     H2 5865   1.680   2.715   1.714  0.5000 -2.1587 -2.4869
 1355SOL    EPW 5866   1.705   2.785   1.666  0.4024 -0.6650 -0.4628
 1356SOL      O 5867   5.210   4.937   2.946 -0.6288  0.0955 -0.5274
 1356SOL     H1 5868   5.295   4.972   2.971 -0.5651  0.4691 -1.2578
 1356SOL     H2 5869   5.229   4.853   2.903 -0.8196 -1.1601  1.7634
 1356SOL    EPW 5870   5.221   4.932   2.944 -0.6424  0.0014 -0.3609
 1357SOL      O 5871   2.514   4.496   3.284  0.5437  0.3784  0.0491
 1357SOL     H1 5872   2.445   4.523   3.223  0.9229  1.7515  0.2221
 1357SOL     H2 5873   2.565   4.431   3.236  0.5590  1.1141 -0.9317
 1357SOL    EPW 5874   2.512   4.492   3.272  0.5858  0.6034 -0.0371
 1358SOL      O 5875   0.409   5.780   2.049 -0.0959  0.0039  0.1720
 1358SOL     H1 5876   0.504   5.779   2.047 -0.0642  0.9175  1.0204
 1358SOL     H2 5877   0.386   5.761   2.140 -0.7463 -1.2008 -0.2275
 1358SOL    EPW 5878   0.416   5.778   2.059 -0.1619 -0.0271  0.2199
 1359SOL      O 5879   0.195   0.474   1.836 -0.4445 -0.0413  0.0390
 1359SOL     H1 5880   0.219   0.412   1.766 -0.7375  1.1622 -1.1374
 1359SOL     H2 5881   0.102   0.460   1.849 -0.5813  0.3778 -0.4642
 1359SOL    EPW 5882   0.188   0.466   1.830 -0.4904  0.1318 -0.1402
 1360SOL      O 5883   0.623   4.524   1.391  0.3842  0.1144 -0.0088
 1360SOL     H1 5884   0.589   4.593   1.447 -0.3228 -0.7579  0.6604
 1360SOL     H2 5885   0.546   4.470   1.371  1.2950 -1.7945  1.4077
 1360SOL    EPW 5886   0.611   4.525   1.395  0.4059 -0.1823  0.2137
 1361SOL      O 5887   1.901   0.147   2.470  0.3557 -0.0630  0.3358
 1361SOL     H1 5888   1.828   0.127   2.528 -0.3010  0.8731 -0.1578
 1361SOL     H2 5889   1.977   0.109   2.513 -0.4598 -1.2761  0.7222
 1361SOL    EPW 5890   1.901   0.141   2.481  0.1986 -0.0925  0.3243
 1362SOL      O 5891   2.205   5.503   1.382 -0.1235 -0.4581  0.1376
 1362SOL     H1 5892   2.160   5.443   1.442 -0.7422 -0.6472 -0.5100
 1362SOL     H2 5893   2.297   5.497   1.407 -0.3716 -0.5331  1.0738
 1362SOL    EPW 5894   2.210   5.496   1.391 -0.2159 -0.4863  0.1683
 1363SOL      O 5895   2.545   4.472   3.770 -0.6867 -0.1425  0.5036
 1363SOL     H1 5896   2.476   4.419   3.810 -1.4432  1.3837  1.2204
 1363SOL     H2 5897   2.532   4.461   3.676 -1.8036  0.0083  0.6366
 1363SOL    EPW 5898   2.536   4.465   3.764 -0.8865  0.0364  0.5942
 1364SOL      O 5899   5.602   5.576   4.150 -0.7777  0.5508  0.1861
 1364SOL     H1 5900   5.607   5.497   4.096  0.1884  0.2521  0.6886
 1364SOL     H2 5901   5.533   5.557   4.214 -0.8180  0.2679  0.0609
 1364SOL    EPW 5902   5.595   5.565   4.151 -0.6790  0.4888  0.2263
 1365SOL      O 5903   0.094   5.337   2.065  0.1980 -0.1312 -0.2119
 1365SOL     H1 5904   0.015   5.361   2.114 -0.1063 -0.2428 -0.6485
 1365SOL     H2 5905   0.087   5.243   2.053 -0.7722  0.1820 -2.2927
 1365SOL    EPW 5906   0.085   5.330   2.069  0.0620 -0.1097 -0.4805
 1366SOL      O 5907   5.634   4.829   2.489 -0.0814  0.0908 -0.1449
 1366SOL     H1 5908   5.592   4.853   2.406 -0.9422  1.2218  0.5886
 1366SOL     H2 5909   5.563   4.791   2.541  0.5992 -1.2150 -0.1626
 1366SOL    EPW 5910   5.622   4.828   2.486 -0.1006  0.0721 -0.0686
 1367SOL      O 5911   1.397   5.154   1.963  0.1710  0.4280 -0.0767
 1367SOL     H1 5912   1.377   5.078   2.017  0.5470  0.7859  0.5813
 1367SOL     H2 5913   1.312   5.183   1.930 -0.2835  1.2291  1.7328
 1367SOL    EPW 5914   1.386   5.149   1.965  0.1626  0.5517  0.1866
 1368SOL      O 5915   4.556   2.270   3.998 -0.1424  0.5538 -0.1043
 1368SOL     H1 5916   4.568   2.246   4.090  0.4407  0.6678 -0.1501
 1368SOL     H2 5917   4.626   2.332   3.980  0.1960 -0.0398 -0.8415
 1368SOL    EPW 5918   4.565   2.274   4.006 -0.0441  0.5026 -0.1879
 1369SOL      O 5919   1.472   5.866   2.127 -0.8452 -0.6620  0.3820
 1369SOL     H1 5920   1.481   5.787   2.074  0.4041  0.4168 -1.0678
 1369SOL     H2 5921   1.511   5.842   2.211 -1.0839 -1.8046  0.1740
 1369SOL    EPW 5922   1.477   5.855   2.130 -0.7374 -0.6688  0.2052
 1370SOL      O 5923   0.331   4.697   2.529  0.0636 -0.6562 -0.6073
 1370SOL     H1 5924   0.308   4.769   2.471  0.1582 -0.9516 -1.0133
 1370SOL     H2 5925   0.379   4.738   2.601 -0.3013 -0.2523 -0.5907
 1370SOL    EPW 5926   0.334   4.709   2.531  0.0347 -0.6447 -0.6488
 1371SOL      O 5927   2.331   4.766   2.837 -0.6235  0.0120  0.2418
 1371SOL     H1 5928   2.335   4.746   2.744 -0.8764 -4.1299  1.0529
 1371SOL     H2 5929   2.419   4.745   2.870 -0.9995 -0.0618  1.2223
 1371SOL    EPW 5930   2.341   4.762   2.831 -0.6906 -0.4377  0.4329
 1372SOL      O 5931   1.148   3.746   4.047  0.1753 -0.0836  0.2531
 1372SOL     H1 5932   1.096   3.667   4.032 -1.5283  1.1613 -0.6402
 1372SOL     H2 5933   1.195   3.759   3.965  1.3775 -0.7971  0.8086
 1372SOL    EPW 5934   1.148   3.739   4.036  0.1218 -0.0269  0.2171
 1373SOL      O 5935   1.786   0.279   2.014 -0.0270  0.1439 -0.9357
 1373SOL     H1 5936   1.803   0.197   1.968  0.5672 -0.1380 -0.2280
 1373SOL     H2 5937   1.872   0.308   2.045 -0.4215  0.2779  0.0713
 1373SOL    EPW 5938   1.797   0.274   2.013 -0.0057  0.1281 -0.7528
 1374SOL      O 5939   0.402   4.120   2.200  0.6110 -0.0861  0.1828
 1374SOL     H1 5940   0.386   4.055   2.132  1.1402 -0.0076 -0.0200
 1374SOL     H2 5941   0.357   4.084   2.278  1.3848 -0.9879  0.2284
 1374SOL    EPW 5942   0.395   4.109   2.201  0.7500 -0.1740  0.1660
 1375SOL      O 5943   1.515   4.119   2.954  0.1445  0.2519 -0.4594
 1375SOL     H1 5944   1.565   4.201   2.946 -0.3359  0.6004  0.1561
 1375SOL     H2 5945   1.484   4.118   3.044  0.0769 -0.5747 -0.4894
 1375SOL    EPW 5946   1.517   4.128   2.962  0.0860  0.2009 -0.3970
 1376SOL      O 5947   0.966   4.589   1.916  0.1205  0.5164  0.8799
 1376SOL     H1 5948   0.918   4.525   1.969  1.1385 -0.7230  0.3369
 1376SOL     H2 5949   1.033   4.623   1.975  0.7559 -0.2885  0.6300
 1376SOL    EPW 5950   0.968   4.586   1.928  0.2969  0.2983  0.7953
 1377SOL      O 5951   1.446   0.225   1.760  0.1698  0.5664 -0.0289
 1377SOL     H1 5952   1.456   0.294   1.826 -1.5788  1.6600 -0.8744
 1377SOL     H2 5953   1.351   0.213   1.753  0.4179 -0.9300 -0.9339
 1377SOL    EPW 5954   1.437   0.231   1.766  0.0097  0.5234 -0.2156
 1378SOL      O 5955   1.976   2.877   0.061  0.0462  0.7177 -1.3709
 1378SOL     H1 5956   1.966   2.835   0.146 -0.8148  1.2530 -1.1987
 1378SOL     H2 5957   2.070   2.890   0.051  0.1141  1.2025 -0.2277
 1378SOL    EPW 5958   1.985   2.874   0.069 -0.0384  0.8265 -1.2306
 1379SOL      O 5959   0.257   4.432   2.946  0.3389 -0.3122  0.3153
 1379SOL     H1 5960   0.202   4.426   3.024  1.2049 -1.3280  0.8714
 1379SOL     H2 5961   0.346   4.438   2.981  0.6039  1.0957 -0.5718
 1379SOL    EPW 5962   0.261   4.432   2.958  0.4596 -0.2704  0.2800
 1380SOL      O 5963   1.227   2.428   3.295 -0.0146 -0.1315 -0.2286
 1380SOL     H1 5964   1.238   2.416   3.390 -0.8107  1.4814  0.0709
 1380SOL     H2 5965   1.244   2.521   3.280  0.5175 -0.4561 -1.7390
 1380SOL    EPW 5966   1.230   2.436   3.304 -0.0428  0.0059 -0.3578
 1381SOL      O 5967   5.638   5.351   1.392  0.3336 -0.4843  0.0567
 1381SOL     H1 5968   5.557   5.394   1.363 -0.3243 -2.6934 -1.4663
 1381SOL     H2 5969   5.699   5.423   1.406 -0.5408  0.9259 -3.0721
 1381SOL    EPW 5970   5.636   5.363   1.391  0.1702 -0.5696 -0.4396
 1382SOL      O 5971   0.002   4.532   1.270 -0.0876 -0.0194 -0.1424
 1382SOL     H1 5972  -0.035   4.503   1.353 -0.8146  2.3876  0.4336
 1382SOL     H2 5973  -0.030   4.470   1.205  0.4343 -1.8794  1.3545
 1382SOL    EPW 5974  -0.005   4.522   1.272 -0.1094  0.0389  0.0787
 1383SOL      O 5975   1.184   0.139   1.685  0.0690 -0.7683  0.2326
 1383SOL     H1 5976   1.171   0.220   1.635  0.3184 -0.5860  0.4595
 1383SOL     H2 5977   1.145   0.071   1.631  0.0879 -0.5320 -0.0812
 1383SOL    EPW 5978   1.178   0.140   1.674  0.0977 -0.7237  0.2233
 1384SOL      O 5979   5.288   5.632   3.319 -0.6087 -0.2116 -0.0434
 1384SOL     H1 5980   5.334   5.629   3.235  0.1754 -2.5669  0.4426
 1384SOL     H2 5981   5.196   5.620   3.295 -0.0433 -4.7847 -0.3505
 1384SOL    EPW 5982   5.283   5.631   3.307 -0.4648 -0.9507 -0.0243
 1385SOL      O 5983   2.359   0.797   3.454 -0.0322  0.1470  0.0797
 1385SOL     H1 5984   2.399   0.822   3.537 -1.5553 -0.5514  1.0585
 1385SOL     H2 5985   2.268   0.824   3.463 -0.2166  0.0088 -1.3458
 1385SOL    EPW 5986   2.354   0.803   3.464 -0.2144  0.0577  0.0321
 1386SOL      O 5987   0.400   5.380   1.364  0.0277 -0.5442 -0.0029
 1386SOL     H1 5988   0.310   5.409   1.380  0.1749 -0.1549  0.1373
 1386SOL     H2 5989   0.405   5.293   1.403 -0.2597 -0.5222  0.0794
 1386SOL    EPW 5990   0.391   5.374   1.370  0.0127 -0.5003  0.0208
 1387SOL      O 5991   0.362   4.386   2.128  0.4450 -0.3799  0.1806
 1387SOL     H1 5992   0.414   4.391   2.048  1.0772 -0.7493  0.5600
 1387SOL     H2 5993   0.342   4.293   2.138 -0.1481 -0.2607  0.1316
 1387SOL    EPW 5994   0.366   4.376   2.121  0.4492 -0.4066  0.2158
 1388SOL      O 5995   1.926   4.355   3.539 -0.2719  0.5615 -0.9161
 1388SOL     H1 5996   1.872   4.299   3.483  0.3434 -0.3426 -0.6104
 1388SOL     H2 5997   1.865   4.421   3.571 -0.8304  0.5512 -1.9257
 1388SOL    EPW 5998   1.913   4.356   3.536 -0.2659  0.4640 -0.9912
 1389SOL      O 5999   2.281   4.468   1.972 -0.3702  0.1172 -0.3915
 1389SOL     H1 6000   2.340   4.440   2.041  0.6101 -0.1596 -1.3342
 1389SOL     H2 6001   2.261   4.388   1.923 -1.3620  0.2451 -0.2050
 1389SOL    EPW 6002   2.285   4.457   1.974 -0.3714  0.1013 -0.4721
 1390SOL      O 6003   4.048   0.623   0.294  0.0353  0.0174  0.4920
 1390SOL     H1 6004   4.141   0.601   0.299  0.3293  1.0817 -0.1329
 1390SOL     H2 6005   4.012   0.558   0.234 -0.0748 -1.7932  2.4864
 1390SOL    EPW 6006   4.054   0.614   0.288  0.0549 -0.0622  0.6381
 1391SOL      O 6007   5.675   5.087   2.118  0.0929  0.1552 -0.1952
 1391SOL     H1 6008   5.755   5.036   2.106  1.4144  2.0584  0.1463
 1391SOL     H2 6009   5.617   5.031   2.168  1.7757 -0.7424  0.7929
 1391SOL    EPW 6010   5.677   5.076   2.122  0.4134  0.2625 -0.0534
 1392SOL      O 6011   0.211   1.783   1.117  0.0263  0.0104  0.1217
 1392SOL     H1 6012   0.266   1.849   1.075  0.0860 -1.1162 -1.6363
 1392SOL     H2 6013   0.125   1.823   1.122  0.0813  0.2670 -0.8487
 1392SOL    EPW 6014   0.208   1.794   1.113  0.0385 -0.0824 -0.1693
 1393SOL      O 6015   2.749   0.504   2.047  0.1604 -0.1528  0.3237
 1393SOL     H1 6016   2.830   0.463   2.017  0.8243  1.0766  0.3962
 1393SOL     H2 6017   2.734   0.467   2.134  0.7956 -0.1826  0.4221
 1393SOL    EPW 6018   2.756   0.496   2.053  0.2990 -0.0248  0.3419
 1394SOL      O 6019   5.846   4.630   1.898 -0.1790  0.6606  0.1858
 1394SOL     H1 6020   5.868   4.713   1.857  0.5860  0.0507 -0.6441
 1394SOL     H2 6021   5.751   4.635   1.912 -0.2563  1.3700 -0.5388
 1394SOL    EPW 6022   5.838   4.639   1.895 -0.1057  0.6712  0.0200
 1395SOL      O 6023   0.822   4.706   2.364  0.1669 -0.1068 -0.2642
 1395SOL     H1 6024   0.789   4.796   2.366  3.2617  1.0815  2.2639
 1395SOL     H2 6025   0.910   4.714   2.325  0.2682 -2.1210 -0.4762
 1395SOL    EPW 6026   0.828   4.717   2.360  0.5079 -0.1949 -0.0171
 1396SOL      O 6027   1.256   5.632   2.185 -0.0121 -0.1647  0.2623
 1396SOL     H1 6028   1.316   5.695   2.224  0.4331 -1.3291  1.4629
 1396SOL     H2 6029   1.307   5.551   2.178 -1.0137 -0.7780  0.0020
 1396SOL    EPW 6030   1.268   5.630   2.188 -0.0714 -0.3544  0.3626
 1397SOL      O 6031   3.250   3.354   4.115  0.6114 -0.0135 -0.1989
 1397SOL     H1 6032   3.197   3.401   4.052  1.1527  0.0070 -0.6383
 1397SOL     H2 6033   3.223   3.388   4.200 -1.5059 -1.4103 -0.2700
 1397SOL    EPW 6034   3.241   3.362   4.118  0.4433 -0.1603 -0.2534
 1398SOL      O 6035   2.338   4.215   3.110  0.3163  0.1132  1.1477
 1398SOL     H1 6036   2.285   4.135   3.116  0.2303  0.1424  0.7846
 1398SOL     H2 6037   2.303   4.272   3.178 -0.8826  0.5743  0.1651
 1398SOL    EPW 6038   2.329   4.213   3.118  0.1793  0.1655  1.0041
 1399SOL      O 6039   5.731   4.451   1.481  0.1372  0.1624 -0.1216
 1399SOL     H1 6040   5.800   4.444   1.547 -1.1452 -0.8458  1.1231
 1399SOL     H2 6041   5.728   4.365   1.439 -1.2531 -0.2221  0.7401
 1399SOL    EPW 6042   5.738   4.441   1.483 -0.1480  0.0138  0.1031
 1400SOL      O 6043   1.568   4.033   2.287  0.4980 -0.7227 -0.2990
 1400SOL     H1 6044   1.628   4.089   2.239  1.6263 -1.1324  0.6151
 1400SOL     H2 6045   1.583   3.945   2.253  1.4898 -1.0525  0.9704
 1400SOL    EPW 6046   1.576   4.030   2.279  0.7241 -0.8016 -0.0661
 1401SOL      O 6047   5.533   2.358   0.280  0.1142 -0.6369  0.2708
 1401SOL     H1 6048   5.546   2.292   0.212  3.9699  0.5006 -0.2389
 1401SOL     H2 6049   5.581   2.325   0.355  0.8381  0.8891  0.4934
 1401SOL    EPW 6050   5.539   2.348   0.281  0.6027 -0.3528  0.2402
 1402SOL      O 6051   2.226   4.845   0.812  0.3281 -0.0183  0.5715
 1402SOL     H1 6052   2.304   4.791   0.823 -0.4020 -1.6157 -1.8638
 1402SOL     H2 6053   2.167   4.792   0.758 -2.7572  0.8642  2.9478
 1402SOL    EPW 6054   2.228   4.834   0.807 -0.0789 -0.0946  0.5652
 1403SOL      O 6055   5.106   0.849   0.481  0.3828  0.1907  0.3231
 1403SOL     H1 6056   5.162   0.819   0.552 -0.7879 -1.4192  0.5873
 1403SOL     H2 6057   5.019   0.817   0.504 -0.3564  1.2847 -0.8879
 1403SOL    EPW 6058   5.103   0.843   0.491  0.1791  0.1356  0.2221
 1404SOL      O 6059   0.838   4.780   3.218  0.1802  0.4795 -0.0179
 1404SOL     H1 6060   0.853   4.685   3.213  0.6384  0.4971  0.9306
 1404SOL     H2 6061   0.906   4.817   3.162 -1.1074  0.1690 -1.8318
 1404SOL    EPW 6062   0.847   4.773   3.212  0.0917  0.4482 -0.1102
 1405SOL      O 6063   1.016   3.514   2.064 -0.0240  0.8393  0.6310
 1405SOL     H1 6064   0.994   3.549   2.150 -0.6743  0.2139  0.7183
 1405SOL     H2 6065   0.957   3.440   2.051  2.3895 -1.2744  1.1432
 1405SOL    EPW 6066   1.008   3.510   2.072  0.1641  0.5471  0.6949
 1406SOL      O 6067   0.437   5.020   3.058 -0.6086 -1.0486 -0.2900
 1406SOL     H1 6068   0.360   5.077   3.065 -0.3033 -0.5778 -0.6760
 1406SOL     H2 6069   0.405   4.942   3.011 -1.4689 -2.0358  1.8795
 1406SOL    EPW 6070   0.425   5.018   3.053 -0.6678 -1.1037 -0.0997
 1407SOL      O 6071   1.323   4.928   2.573  0.1565 -0.2948  0.2206
 1407SOL     H1 6072   1.310   5.018   2.602  0.7837 -0.7345  1.9103
 1407SOL     H2 6073   1.234   4.893   2.564 -0.0531 -0.2325  1.9300
 1407SOL    EPW 6074   1.312   4.934   2.575  0.2010 -0.3351  0.5832
 1408SOL      O 6075   0.098   4.585   2.660  0.0371 -0.1928  0.3101
 1408SOL     H1 6076   0.096   4.661   2.719 -0.9843  0.0084  0.0396
 1408SOL     H2 6077   0.028   4.529   2.693  0.6469 -0.9157  0.3711
 1408SOL    EPW 6078   0.090   4.587   2.670 -0.0068 -0.2484  0.2877
 1409SOL      O 6079   1.889   4.966   3.196  0.0153 -0.3636 -0.5578
 1409SOL     H1 6080   1.970   4.946   3.243  0.6442  2.2231 -0.4643
 1409SOL     H2 6081   1.901   4.926   3.110  0.4640 -1.8224  0.1530
 1409SOL    EPW 6082   1.899   4.959   3.192  0.1302 -0.2433 -0.4720
 1410SOL      O 6083   0.521   4.739   1.584  0.1520 -0.4507 -0.3920
 1410SOL     H1 6084   0.596   4.790   1.614  0.8404 -1.8794  0.3791
 1410SOL     H2 6085   0.497   4.779   1.500  2.7483 -0.8866 -1.4117
 1410SOL    EPW 6086   0.527   4.749   1.578  0.5024 -0.6496 -0.4185
 1411SOL      O 6087   0.609   4.707   3.893  0.3080 -0.8353  0.4136
 1411SOL     H1 6088   0.652   4.624   3.877  0.7910 -0.4756 -0.1717
 1411SOL     H2 6089   0.620   4.756   3.811  0.7849  0.1286  1.0518
 1411SOL    EPW 6090   0.615   4.704   3.882  0.4104 -0.6941  0.4192
 1412SOL      O 6091   5.755   4.911   2.724  0.4324 -0.3111  0.4119
 1412SOL     H1 6092   5.678   4.895   2.779  0.0407 -0.4129 -0.1531
 1412SOL     H2 6093   5.728   4.881   2.637  1.0787 -0.2501  0.1894
 1412SOL    EPW 6094   5.743   4.906   2.720  0.4596 -0.3154  0.3279
 1413SOL      O 6095   0.047   0.267   2.109 -0.4404 -0.1248  0.5199
 1413SOL     H1 6096   0.102   0.212   2.053 -0.4998 -0.3782  0.7076
 1413SOL     H2 6097   0.009   0.331   2.049  1.5810  1.2752  0.7130
 1413SOL    EPW 6098   0.049   0.268   2.097 -0.2311 -0.0025  0.5605
 1414SOL      O 6099   0.585   5.518   1.924  0.7432  0.2398  0.5888
 1414SOL     H1 6100   0.643   5.483   1.857  1.4724  0.5759  1.0366
 1414SOL     H2 6101   0.499   5.522   1.882  1.0175 -0.3727 -0.0389
 1414SOL    EPW 6102   0.582   5.514   1.913  0.8503  0.2103  0.5696
 1415SOL      O 6103   1.515   5.070   0.904  0.4909  0.1417  0.9015
 1415SOL     H1 6104   1.483   4.981   0.893  1.4491 -0.0206 -0.6191
 1415SOL     H2 6105   1.498   5.090   0.996  0.8894 -1.8439  1.4290
 1415SOL    EPW 6106   1.510   5.063   0.913  0.6356 -0.0874  0.7956
 1416SOL      O 6107   1.127   5.612   3.152 -0.1663  0.2585 -0.3301
 1416SOL     H1 6108   1.109   5.689   3.098  0.7984 -0.2001 -1.3446
 1416SOL     H2 6109   1.120   5.643   3.242 -1.0152  1.2334 -0.7174
 1416SOL    EPW 6110   1.124   5.623   3.156 -0.1540  0.3136 -0.4797
 1417SOL      O 6111   5.421   5.526   3.087  0.4044  0.5671 -0.3558
 1417SOL     H1 6112   5.460   5.545   3.002 -0.3967 -0.7744 -1.0467
 1417SOL     H2 6113   5.399   5.433   3.083  0.0165  0.5735  1.1835
 1417SOL    EPW 6114   5.423   5.518   3.078  0.2776  0.4247 -0.2653
 1418SOL      O 6115   1.327   5.353   3.576 -0.3693 -0.3044 -0.0686
 1418SOL     H1 6116   1.330   5.448   3.570 -1.1713 -0.2791 -0.0532
 1418SOL     H2 6117   1.369   5.322   3.496  2.3557  0.0528  1.1632
 1418SOL    EPW 6118   1.332   5.360   3.567 -0.1642 -0.2636  0.0644
 1419SOL      O 6119   0.069   2.668   3.016 -0.4169 -0.4484  0.6192
 1419SOL     H1 6120   0.156   2.633   3.001 -1.6724 -4.3130  1.8319
 1419SOL     H2 6121   0.082   2.740   3.078  2.1380  0.7252 -1.2205
 1419SOL    EPW 6122   0.080   2.672   3.021 -0.2783 -0.7355  0.5523
 1420SOL      O 6123   3.078   1.929   0.197 -0.6544  0.2284  0.1591
 1420SOL     H1 6124   3.124   1.971   0.123 -1.9538  2.2869  0.4776
 1420SOL     H2 6125   3.104   1.837   0.192  0.4843  0.6281 -1.9523
 1420SOL    EPW 6126   3.086   1.924   0.188 -0.6715  0.4906 -0.0322
 1421SOL      O 6127   1.356   3.317   2.738  0.2979  0.1336 -0.1277
 1421SOL     H1 6128   1.309   3.244   2.777 -0.7382  0.7866 -0.1240
 1421SOL     H2 6129   1.294   3.390   2.742  1.0604  0.8290 -0.7717
 1421SOL    EPW 6130   1.345   3.317   2.742  0.2687  0.2775 -0.1960
 1422SOL      O 6131   5.278   2.116   0.617 -0.1983  1.0257 -0.6225
 1422SOL     H1 6132   5.298   2.029   0.583 -0.7019  1.0283 -0.9274
 1422SOL     H2 6133   5.253   2.166   0.539 -3.4763  0.4505  0.0060
 1422SOL    EPW 6134   5.278   2.112   0.605 -0.6017  0.9646 -0.5880
 1423SOL      O 6135   0.949   2.676   2.379  0.1463 -0.1284 -0.1370
 1423SOL     H1 6136   1.017   2.625   2.337 -0.1381  1.2187 -2.3086
 1423SOL     H2 6137   0.991   2.759   2.402  0.0724 -0.5160  1.5264
 1423SOL    EPW 6138   0.960   2.680   2.377  0.1080 -0.0261 -0.1912
 1424SOL      O 6139   0.270   5.177   3.401 -0.2519 -0.3150 -0.1270
 1424SOL     H1 6140   0.204   5.153   3.336  0.7388 -0.7525 -0.9867
 1424SOL     H2 6141   0.264   5.108   3.467  1.5831 -2.1915 -1.8509
 1424SOL    EPW 6142   0.262   5.167   3.401  0.0495 -0.5619 -0.4026
 1425SOL      O 6143   0.486   5.519   3.160  0.6022 -0.0201  0.5695
 1425SOL     H1 6144   0.454   5.471   3.083  0.1878  0.4501  0.4429
 1425SOL     H2 6145   0.513   5.604   3.125  4.0075 -1.1339  0.3226
 1425SOL    EPW 6146   0.485   5.522   3.148  0.9213 -0.0887  0.5297
 1426SOL      O 6147   5.576   4.553   1.931 -0.2027 -0.3646  0.0906
 1426SOL     H1 6148   5.573   4.475   1.988 -0.7157 -0.0396  0.5173
 1426SOL     H2 6149   5.495   4.600   1.951 -0.2261 -0.0805 -0.6829
 1426SOL    EPW 6150   5.567   4.550   1.939 -0.2599 -0.2996  0.0536
 1427SOL      O 6151   5.648   4.494   2.964  0.0114  0.0783  0.0984
 1427SOL     H1 6152   5.708   4.553   3.009 -2.1111  0.3836  2.6549
 1427SOL     H2 6153   5.579   4.551   2.929 -1.0342 -0.6510  0.9137
 1427SOL    EPW 6154   5.647   4.506   2.965 -0.3266  0.0331  0.4581
 1428SOL      O 6155   0.420   3.952   3.813 -0.4199  0.3260  0.0518
 1428SOL     H1 6156   0.333   3.977   3.841 -0.0252  0.8919  0.7776
 1428SOL     H2 6157   0.416   3.955   3.717 -0.0258  4.4189  0.0924
 1428SOL    EPW 6158   0.411   3.955   3.806 -0.3358  0.8230  0.1335
 1429SOL      O 6159   1.212   0.386   1.888 -0.5479  0.2817  0.0117
 1429SOL     H1 6160   1.187   0.451   1.953 -1.0964  0.0140  0.0724
 1429SOL     H2 6161   1.260   0.435   1.822 -0.4263  0.6405  0.3670
 1429SOL    EPW 6162   1.214   0.398   1.888 -0.5935  0.2914  0.0561
 1430SOL      O 6163   2.166   4.775   3.763 -0.0960 -0.3119 -0.3002
 1430SOL     H1 6164   2.206   4.800   3.846 -0.2840  0.8778 -0.5613
 1430SOL     H2 6165   2.129   4.688   3.779  0.3911 -0.3346  0.6810
 1430SOL    EPW 6166   2.166   4.768   3.773 -0.0641 -0.1874 -0.2234
 1431SOL      O 6167   5.506   3.151   2.895  0.6033 -0.3565 -0.2805
 1431SOL     H1 6168   5.418   3.189   2.895  0.9648  0.5248  0.9546
 1431SOL     H2 6169   5.547   3.186   2.816  0.4396  0.7044  0.0892
 1431SOL    EPW 6170   5.501   3.159   2.887  0.6244 -0.1493 -0.1093
 1432SOL      O 6171   1.392   0.193   3.915  0.3415 -0.0882 -0.0349
 1432SOL     H1 6172   1.470   0.212   3.864  0.8854  0.3210  0.9326
 1432SOL     H2 6173   1.348   0.123   3.867  0.1238  1.2192 -1.7717
 1432SOL    EPW 6174   1.396   0.187   3.904  0.3763  0.0949 -0.1170
 1433SOL      O 6175   0.022   4.900   3.527 -0.4291 -0.1949  0.6036
 1433SOL     H1 6176   0.025   4.991   3.497  1.7737 -0.4729 -0.1068
 1433SOL     H2 6177   0.069   4.901   3.610 -0.0775 -0.7442  0.4135
 1433SOL    EPW 6178   0.027   4.910   3.533 -0.1566 -0.2832  0.5076
 1434SOL      O 6179   5.051   0.301   0.219  0.4305 -0.0151 -0.3428
 1434SOL     H1 6180   5.102   0.351   0.155 -2.4096  0.2234 -2.4939
 1434SOL     H2 6181   5.038   0.362   0.292  1.3305  0.6549 -0.7344
 1434SOL    EPW 6182   5.055   0.313   0.220  0.2236  0.0818 -0.6140
 1435SOL      O 6183   3.677   0.803   0.037  0.1340 -0.3543  0.1791
 1435SOL     H1 6184   3.769   0.826   0.022  0.7905 -3.2141 -0.4442
 1435SOL     H2 6185   3.669   0.797   0.132  0.9834 -1.5202  0.1870
 1435SOL    EPW 6186   3.686   0.805   0.046  0.2946 -0.7837  0.1135
 1436SOL      O 6187   0.606   2.945   3.912  0.0015  0.4769  0.1056
 1436SOL     H1 6188   0.523   2.933   3.865  0.3469  1.0392 -0.6626
 1436SOL     H2 6189   0.615   2.866   3.965  0.5719 -1.0962 -2.2630
 1436SOL    EPW 6190   0.598   2.935   3.913  0.0992  0.3690 -0.2290
 1437SOL      O 6191   0.791   5.166   1.121 -0.2891 -0.1296 -0.5490
 1437SOL     H1 6192   0.704   5.193   1.091 -1.1356 -1.8845  0.2638
 1437SOL     H2 6193   0.774   5.100   1.188  1.6334  0.9326  1.0658
 1437SOL    EPW 6194   0.780   5.162   1.125 -0.1743 -0.2035 -0.2901
 1438SOL      O 6195   0.835   5.318   3.495  1.0812  0.2016  0.1442
 1438SOL     H1 6196   0.912   5.262   3.500  0.5367 -0.5830 -0.2440
 1438SOL     H2 6197   0.807   5.312   3.403 -0.5962 -1.0623  0.7263
 1438SOL    EPW 6198   0.840   5.312   3.486  0.8441 -0.0169  0.1649
 1439SOL      O 6199   0.199   3.429   2.811  0.7360 -0.0780  0.6082
 1439SOL     H1 6200   0.135   3.359   2.801  0.5921  0.0470  0.6522
 1439SOL     H2 6201   0.247   3.429   2.728  0.0374  0.4657  0.1908
 1439SOL    EPW 6202   0.197   3.422   2.801  0.6461 -0.0067  0.5683
 1440SOL      O 6203   0.455   0.122   1.279 -0.8463  0.1479 -0.0985
 1440SOL     H1 6204   0.495   0.053   1.227  0.3187 -0.2265  1.2585
 1440SOL     H2 6205   0.363   0.098   1.284 -0.5325 -1.0559 -0.0295
 1440SOL    EPW 6206   0.450   0.112   1.274 -0.6886 -0.0205  0.0536
 1441SOL      O 6207   1.898   4.847   2.580  0.0345  0.1850 -0.3123
 1441SOL     H1 6208   1.934   4.882   2.662 -0.0788 -0.6510  0.0962
 1441SOL     H2 6209   1.854   4.922   2.540 -1.5616  0.1443  1.3084
 1441SOL    EPW 6210   1.897   4.859   2.585 -0.1478  0.0915 -0.0958
 1442SOL      O 6211   1.756   0.173   4.005  0.2385  0.3964  0.0203
 1442SOL     H1 6212   1.836   0.226   4.003  0.3531  0.1917 -1.6432
 1442SOL     H2 6213   1.738   0.153   3.913 -1.7046  0.3885  0.3723
 1442SOL    EPW 6214   1.763   0.176   3.995  0.0434  0.3738 -0.1196
 1443SOL      O 6215   0.674   3.826   3.148 -0.2855 -0.1124  0.1902
 1443SOL     H1 6216   0.660   3.855   3.058 -0.5740  0.0855  0.2973
 1443SOL     H2 6217   0.695   3.906   3.196  0.5491 -0.3128  0.1678
 1443SOL    EPW 6218   0.675   3.837   3.144 -0.2273 -0.1127  0.1992
 1444SOL      O 6219   1.089   5.555   1.682  0.4829 -0.0749  0.0231
 1444SOL     H1 6220   1.052   5.616   1.746 -1.1137  0.3803 -1.2850
 1444SOL     H2 6221   1.055   5.469   1.707  0.8203 -0.0830  0.4664
 1444SOL    EPW 6222   1.082   5.552   1.691  0.3485 -0.0272 -0.0692
 1445SOL      O 6223   5.643   4.338   2.523 -0.4220  0.3936  0.2531
 1445SOL     H1 6224   5.619   4.258   2.570 -3.4299  0.7736 -0.5335
 1445SOL     H2 6225   5.703   4.384   2.583 -1.1238 -0.9682  2.0367
 1445SOL    EPW 6226   5.647   4.335   2.535 -0.8177  0.2889  0.3595
 1446SOL      O 6227   5.730   3.867   3.093  0.0638  0.7812 -0.3703
 1446SOL     H1 6228   5.745   3.962   3.094 -1.7734  1.0824  0.0842
 1446SOL     H2 6229   5.658   3.855   3.031 -0.1139 -0.2634  0.0281
 1446SOL    EPW 6230   5.724   3.876   3.086 -0.1511  0.7019 -0.2793
 1447SOL      O 6231   0.417   0.717   0.252 -0.0836  0.0813 -0.5788
 1447SOL     H1 6232   0.396   0.739   0.161 -1.2057 -0.3365 -0.4337
 1447SOL     H2 6233   0.494   0.769   0.273 -0.5561  1.1121 -1.3819
 1447SOL    EPW 6234   0.423   0.725   0.245 -0.2537  0.1467 -0.6490
 1448SOL      O 6235   2.293   5.382   3.342  0.5339  0.0362 -0.1534
 1448SOL     H1 6236   2.226   5.313   3.339 -0.0734  0.6853 -1.9054
 1448SOL     H2 6237   2.249   5.457   3.383 -0.2060  0.8637 -2.4185
 1448SOL    EPW 6238   2.281   5.383   3.346  0.3902  0.1937 -0.5820
 1449SOL      O 6239   3.723   3.409   0.006  0.3971 -0.4386 -0.3311
 1449SOL     H1 6240   3.797   3.370  -0.041  1.4414  0.6253  0.3954
 1449SOL     H2 6241   3.747   3.401   0.098 -0.0035  0.6957 -0.1265
 1449SOL    EPW 6242   3.733   3.404   0.011  0.4658 -0.2041 -0.2318
 1450SOL      O 6243   1.727   5.029   2.413  0.0794  0.1180 -0.1553
 1450SOL     H1 6244   1.720   5.080   2.493  1.7655 -0.4168  0.3722
 1450SOL     H2 6245   1.811   5.055   2.375 -0.4143 -0.0902 -1.4210
 1450SOL    EPW 6246   1.736   5.037   2.418  0.2066  0.0388 -0.2341
 1451SOL      O 6247   5.500   0.048   3.221  0.3718  0.3289 -0.1250
 1451SOL     H1 6248   5.560   0.122   3.210  0.5094  0.5356  1.8322
 1451SOL     H2 6249   5.553  -0.018   3.264 -0.3865 -0.0783  0.1770
 1451SOL    EPW 6250   5.512   0.049   3.224  0.3056  0.3075  0.1160
 1452SOL      O 6251   0.293   3.736   3.099  0.0188 -0.3317  0.0785
 1452SOL     H1 6252   0.214   3.692   3.068 -0.1668 -0.7321  1.1090
 1452SOL     H2 6253   0.363   3.701   3.043 -0.3422 -0.8702 -0.0415
 1452SOL    EPW 6254   0.292   3.728   3.089 -0.0395 -0.4318  0.1756
 1453SOL      O 6255   5.403   1.106   0.316 -0.2848  0.1436  0.5403
 1453SOL     H1 6256   5.430   1.014   0.307 -0.4624  0.1600 -0.1400
 1453SOL     H2 6257   5.481   1.150   0.349  0.1847 -0.0294 -0.3108
 1453SOL    EPW 6258   5.414   1.101   0.319 -0.2537  0.1269  0.3770
 1454SOL      O 6259   1.633   5.108   3.169 -0.6448 -0.5767  0.3135
 1454SOL     H1 6260   1.575   5.041   3.134 -0.4007 -1.1601  1.0180
 1454SOL     H2 6261   1.712   5.061   3.194 -0.0784  0.1314 -0.1247
 1454SOL    EPW 6262   1.635   5.096   3.168 -0.5584 -0.5634  0.3419
 1455SOL      O 6263   0.613   0.011   2.340 -0.6234  0.8215  0.4604
 1455SOL     H1 6264   0.697  -0.026   2.312 -1.1236 -0.5192  0.7213
 1455SOL     H2 6265   0.550  -0.059   2.327 -1.7408  1.8636  0.1557
 1455SOL    EPW 6266   0.615  -0.000   2.336 -0.7960  0.7896  0.4557
 1456SOL      O 6267   1.524   5.714   1.495  0.2895 -0.3935 -0.4213
 1456SOL     H1 6268   1.432   5.692   1.484  0.7768 -1.4006 -2.9146
 1456SOL     H2 6269   1.562   5.637   1.537  0.3265 -0.7250 -1.0554
 1456SOL    EPW 6270   1.518   5.703   1.498  0.3455 -0.5363 -0.7549
 1457SOL      O 6271   1.171   0.236   2.383  0.1181 -0.8750  0.1171
 1457SOL     H1 6272   1.159   0.179   2.308  0.4997 -3.1758  1.7580
 1457SOL     H2 6273   1.090   0.225   2.434  0.7774 -1.0420  1.1372
 1457SOL    EPW 6274   1.161   0.229   2.381  0.2291 -1.1383  0.4010
 1458SOL      O 6275   0.682   2.997   3.564  0.4169 -0.1815 -0.9584
 1458SOL     H1 6276   0.683   3.086   3.599  0.8556 -0.0526 -1.2918
 1458SOL     H2 6277   0.772   2.965   3.578 -0.4837 -1.6368  1.8522
 1458SOL    EPW 6278   0.692   3.003   3.570  0.3677 -0.3230 -0.6941
 1459SOL      O 6279   0.066   0.071   3.424  0.6021 -0.0640  0.2400
 1459SOL     H1 6280   0.125   0.066   3.348  1.1866 -0.5953  0.7269
 1459SOL     H2 6281   0.036  -0.018   3.438 -2.9995  0.6796 -2.0772
 1459SOL    EPW 6282   0.069   0.061   3.417  0.2803 -0.0414  0.0448
 1460SOL      O 6283   1.851   3.966   0.777 -0.7038  0.8734 -0.2936
 1460SOL     H1 6284   1.759   3.990   0.767 -1.0135 -0.1936 -0.1089
 1460SOL     H2 6285   1.893   3.994   0.696 -1.5759 -0.3668 -1.1859
 1460SOL    EPW 6286   1.846   3.972   0.767 -0.8299  0.6273 -0.3691
 1461SOL      O 6287   0.847   4.018   2.829 -0.0432  0.1905  0.6050
 1461SOL     H1 6288   0.780   3.950   2.819 -0.5202  0.5728  1.1919
 1461SOL     H2 6289   0.859   4.053   2.741  3.0581 -3.3238 -0.5009
 1461SOL    EPW 6290   0.842   4.014   2.819  0.2367 -0.1436  0.5496
 1462SOL      O 6291   5.362   4.432   3.163 -0.5023  0.1543 -0.1708
 1462SOL     H1 6292   5.396   4.519   3.144 -0.0679  0.5579  2.2255
 1462SOL     H2 6293   5.437   4.374   3.152  0.1703  0.5990  1.7863
 1462SOL    EPW 6294   5.373   4.435   3.160 -0.3842  0.2448  0.2936
 1463SOL      O 6295   2.051   4.621   1.961 -0.5438 -0.2178  0.2060
 1463SOL     H1 6296   2.004   4.558   2.016  1.9056  0.0364  2.6972
 1463SOL     H2 6297   2.131   4.576   1.936  0.4444  1.2599  0.6052
 1463SOL    EPW 6298   2.054   4.610   1.964 -0.1771 -0.0331  0.5143
 1464SOL      O 6299   0.459   4.971   0.423 -0.2057  0.1373 -0.3630
 1464SOL     H1 6300   0.435   4.884   0.453 -1.5016  0.2865 -0.9377
 1464SOL     H2 6301   0.504   5.011   0.498 -0.2005 -0.7756  0.1197
 1464SOL    EPW 6302   0.461   4.966   0.434 -0.3434  0.0558 -0.3729
 1465SOL      O 6303   1.963   4.105   1.732 -0.5574  0.0710  0.2755
 1465SOL     H1 6304   1.872   4.097   1.759 -0.6473  0.9551  0.2536
 1465SOL     H2 6305   1.959   4.152   1.649 -0.2809 -2.6468 -1.3291
 1465SOL    EPW 6306   1.953   4.110   1.726 -0.5375 -0.1246  0.1020
 1466SOL      O 6307   5.734   4.522   3.427  0.0778 -0.0776  0.1648
 1466SOL     H1 6308   5.689   4.604   3.406 -0.8518 -0.2409  1.5478
 1466SOL     H2 6309   5.710   4.503   3.517  0.8629 -1.5162  0.0818
 1466SOL    EPW 6310   5.727   4.529   3.434  0.0624 -0.2485  0.3034
 1467SOL      O 6311   0.233   5.206   1.539  0.1688 -0.0015 -0.0196
 1467SOL     H1 6312   0.247   5.146   1.465 -0.1612 -0.9491  0.6686
 1467SOL     H2 6313   0.146   5.182   1.572 -1.3412  2.9380 -1.6126
 1467SOL    EPW 6314   0.225   5.197   1.534 -0.0275  0.2110 -0.1161
 1468SOL      O 6315   0.270   5.029   3.639 -0.5217  0.3444 -0.7292
 1468SOL     H1 6316   0.267   4.936   3.618 -1.6968 -0.0483  1.0570
 1468SOL     H2 6317   0.363   5.048   3.650 -0.2537 -0.5280 -1.4611
 1468SOL    EPW 6318   0.280   5.021   3.638 -0.6184  0.2094 -0.6167
 1469SOL      O 6319   0.348   3.321   2.546 -0.1772 -0.8863 -0.4116
 1469SOL     H1 6320   0.288   3.389   2.514  1.3577 -0.2076 -1.9105
 1469SOL     H2 6321   0.363   3.265   2.471  1.8413 -0.4835 -0.3307
 1469SOL    EPW 6322   0.343   3.322   2.535  0.2018 -0.7709 -0.5628
 1470SOL      O 6323   2.185   3.979   3.188 -0.2606 -0.3164 -0.3262
 1470SOL     H1 6324   2.223   4.036   3.254  0.3465  0.0832 -1.0154
 1470SOL     H2 6325   2.256   3.919   3.165  0.2613  1.0219 -2.2930
 1470SOL    EPW 6326   2.197   3.978   3.193 -0.1402 -0.1310 -0.6095
 1471SOL      O 6327   0.913   2.922   1.210  0.2013 -0.1336 -0.2200
 1471SOL     H1 6328   0.855   2.999   1.209 -2.2183 -1.9183 -0.8546
 1471SOL     H2 6329   0.883   2.869   1.136  4.2583  0.0060 -2.0940
 1471SOL    EPW 6330   0.903   2.925   1.202  0.3759 -0.3091 -0.4876
 1472SOL      O 6331   1.828   1.279   2.358  0.3853 -0.1250  0.2812
 1472SOL     H1 6332   1.784   1.194   2.357  1.2070 -0.5633  0.4657
 1472SOL     H2 6333   1.858   1.292   2.268 -1.1209  0.7086 -0.1027
 1472SOL    EPW 6334   1.827   1.271   2.349  0.3123 -0.0828  0.2599
 1473SOL      O 6335   1.634   5.544   2.086 -0.0179 -1.0055  0.2859
 1473SOL     H1 6336   1.672   5.460   2.060 -1.1972 -1.1022 -1.2064
 1473SOL     H2 6337   1.618   5.535   2.180 -0.3138 -2.5149  0.1039
 1473SOL    EPW 6338   1.637   5.534   2.093 -0.1753 -1.1768  0.1073
 1474SOL      O 6339   2.316   5.354   2.295  0.1137  0.1756 -0.2425
 1474SOL     H1 6340   2.370   5.404   2.233  0.8261  0.9388  0.9885
 1474SOL     H2 6341   2.230   5.350   2.253  0.4087  1.2874 -0.9749
 1474SOL    EPW 6342   2.312   5.359   2.284  0.2211  0.3756 -0.1893
 1475SOL      O 6343   1.617   4.505   2.741  0.5898  0.2737  0.4196
 1475SOL     H1 6344   1.656   4.440   2.799  2.4411  0.9301 -0.0510
 1475SOL     H2 6345   1.669   4.500   2.661 -0.1474  1.3628 -0.1448
 1475SOL    EPW 6346   1.627   4.498   2.739  0.7086  0.4599  0.3092
 1476SOL      O 6347   5.291   2.344   1.172 -0.2981 -0.3430 -0.2941
 1476SOL     H1 6348   5.299   2.306   1.259 -1.2906  0.4251  0.1450
 1476SOL     H2 6349   5.219   2.406   1.179 -0.2825 -0.1441 -1.6198
 1476SOL    EPW 6350   5.284   2.347   1.182 -0.4023 -0.2399 -0.3887
 1477SOL      O 6351   0.925   5.017   2.603  0.2633 -0.3854 -0.4824
 1477SOL     H1 6352   0.953   4.926   2.615 -0.2398 -0.4851 -0.0433
 1477SOL     H2 6353   0.860   5.014   2.533 -1.2645 -0.6664  0.9100
 1477SOL    EPW 6354   0.921   5.007   2.597  0.0467 -0.4260 -0.2870
 1478SOL      O 6355   1.883   4.446   2.348 -0.4174  0.0857  0.3274
 1478SOL     H1 6356   1.948   4.411   2.409 -1.3277 -0.2745  1.1086
 1478SOL     H2 6357   1.926   4.442   2.262  0.3529 -0.7509  0.7418
 1478SOL    EPW 6358   1.894   4.442   2.345 -0.4324 -0.0419  0.4550
 1479SOL      O 6359   3.651   0.498   0.503 -0.3233  0.3305  0.4328
 1479SOL     H1 6360   3.700   0.422   0.534 -0.7008 -0.0030  0.2149
 1479SOL     H2 6361   3.571   0.461   0.466 -0.4412  0.8228  0.1957
 1479SOL    EPW 6362   3.648   0.486   0.502 -0.3761  0.3474  0.3843
 1480SOL      O 6363   4.452   1.424   1.526 -0.3576  0.3069 -0.5480
 1480SOL     H1 6364   4.381   1.396   1.583 -0.7503  0.9079 -0.7432
 1480SOL     H2 6365   4.500   1.489   1.577  0.5192 -0.6503 -0.1196
 1480SOL    EPW 6366   4.450   1.428   1.538 -0.3059  0.2689 -0.5231
 1481SOL      O 6367   1.797   5.540   2.875 -0.0620 -0.0520  0.1732
 1481SOL     H1 6368   1.854   5.485   2.821  0.3367 -1.2424  1.7780
 1481SOL     H2 6369   1.752   5.480   2.933 -0.8320  1.1673  0.8732
 1481SOL    EPW 6370   1.799   5.528   2.875 -0.1016 -0.0489  0.4191
 1482SOL      O 6371   1.381   4.077   3.227  0.5482 -0.4050 -0.1574
 1482SOL     H1 6372   1.306   4.029   3.262  1.0225 -0.8990  0.1695
 1482SOL     H2 6373   1.342   4.135   3.161 -0.4681  1.1526  1.7538
 1482SOL    EPW 6374   1.369   4.078   3.224  0.4904 -0.2915  0.0814
 1483SOL      O 6375   3.954   0.218   0.976  0.2619  0.4794 -0.8364
 1483SOL     H1 6376   3.997   0.164   1.042  0.0977  2.3662  0.8791
 1483SOL     H2 6377   3.987   0.307   0.993 -2.0377  1.4867 -1.3614
 1483SOL    EPW 6378   3.962   0.222   0.985 -0.0010  0.7882 -0.7094
 1484SOL      O 6379   4.168   1.753   0.603  0.6540 -0.4175  0.2330
 1484SOL     H1 6380   4.073   1.764   0.612  0.2160 -2.8726 -1.1483
 1484SOL     H2 6381   4.196   1.833   0.558 -0.1154  2.1757  4.0604
 1484SOL    EPW 6382   4.161   1.763   0.599  0.5252 -0.4028  0.4939
 1485SOL      O 6383   1.855   5.652   3.816 -0.6923  0.3216  0.5809
 1485SOL     H1 6384   1.859   5.680   3.907 -1.6873  1.7228  0.2095
 1485SOL     H2 6385   1.944   5.666   3.782 -1.3444  4.0112  0.1526
 1485SOL    EPW 6386   1.865   5.657   3.822 -0.8680  0.8647  0.4956
 1486SOL      O 6387   3.388   4.306   2.133 -0.1015 -0.3073 -0.4208
 1486SOL     H1 6388   3.326   4.358   2.184  1.9232  0.7503  1.0386
 1486SOL     H2 6389   3.399   4.226   2.185  0.9627  0.2024  0.1469
 1486SOL    EPW 6390   3.382   4.303   2.144  0.2280 -0.1401 -0.2046
 1487SOL      O 6391   5.363   0.566   1.016  0.0512 -0.0874  0.0852
 1487SOL     H1 6392   5.291   0.559   1.078 -1.0606  1.7704 -0.9260
 1487SOL     H2 6393   5.413   0.642   1.046  0.6630 -0.4046 -0.1260
 1487SOL    EPW 6394   5.361   0.574   1.026 -0.0021  0.0770 -0.0452
 1488SOL      O 6395   2.179   5.164   2.720 -0.4636  0.0558  0.3108
 1488SOL     H1 6396   2.245   5.187   2.786 -2.8619  1.0883  2.4268
 1488SOL     H2 6397   2.228   5.163   2.637  1.8846  2.4496  1.5661
 1488SOL    EPW 6398   2.191   5.167   2.718 -0.4690  0.4213  0.6704
 1489SOL      O 6399   0.997   5.733   1.865 -0.0501 -0.1431  0.3080
 1489SOL     H1 6400   1.037   5.819   1.876 -0.8761  0.3829 -0.7080
 1489SOL     H2 6401   1.009   5.689   1.950  0.5158  0.9032  0.7711
 1489SOL    EPW 6402   1.003   5.737   1.875 -0.0779  0.0246  0.2490
 1490SOL      O 6403   0.949   5.596   3.680  0.2161 -0.0992  0.4157
 1490SOL     H1 6404   0.878   5.623   3.622 -0.2365  0.1253  1.0700
 1490SOL     H2 6405   0.909   5.532   3.739  0.4542  0.3277  1.0445
 1490SOL    EPW 6406   0.937   5.592   3.681  0.1932 -0.0297  0.5526
 1491SOL      O 6407   5.780   0.955   0.154  0.0967  0.4920  0.6029
 1491SOL     H1 6408   5.797   1.015   0.081 -1.0807  0.2345  0.1137
 1491SOL     H2 6409   5.834   0.879   0.136 -1.2705 -0.1825 -0.7703
 1491SOL    EPW 6410   5.787   0.954   0.144 -0.1747  0.3926  0.4043
 1492SOL      O 6411   1.428   0.324   3.297  0.6103 -0.1689 -0.4369
 1492SOL     H1 6412   1.402   0.287   3.382  1.0047 -1.0113 -0.6754
 1492SOL     H2 6413   1.345   0.334   3.250  0.5075 -0.9384 -0.4368
 1492SOL    EPW 6414   1.416   0.321   3.301  0.6414 -0.3409 -0.4623
 1493SOL      O 6415   2.833   4.551   3.516 -0.3588 -0.1475  0.0369
 1493SOL     H1 6416   2.924   4.547   3.546 -0.6814 -0.0782  1.0722
 1493SOL     H2 6417   2.797   4.628   3.560 -1.0400 -0.4455  0.0063
 1493SOL    EPW 6418   2.839   4.559   3.524 -0.4659 -0.1719  0.1441
 1494SOL      O 6419   2.599   4.038   3.764 -0.6876  0.2012  0.6467
 1494SOL     H1 6420   2.614   4.085   3.682  1.4693 -3.2052 -1.0186
 1494SOL     H2 6421   2.516   3.992   3.750  0.1889 -1.1963 -0.0748
 1494SOL    EPW 6422   2.592   4.038   3.754 -0.3640 -0.3113  0.3921
 1495SOL      O 6423   3.194   3.538   2.942  0.2520  0.7185  0.4327
 1495SOL     H1 6424   3.172   3.630   2.959 -0.2526  0.7276 -0.2626
 1495SOL     H2 6425   3.263   3.542   2.876 -1.2895  0.5492 -1.2287
 1495SOL    EPW 6426   3.199   3.549   2.937  0.0338  0.7014  0.1813
 1496SOL      O 6427   4.698   1.393   0.350  0.3127 -0.2435 -0.7887
 1496SOL     H1 6428   4.676   1.303   0.373 -1.3998  0.3693  0.0441
 1496SOL     H2 6429   4.739   1.429   0.429 -0.7966  0.2883 -0.4462
 1496SOL    EPW 6430   4.700   1.387   0.361  0.0117 -0.1214 -0.6633
 1497SOL      O 6431   2.441   1.249   1.641  0.4524  0.3812 -0.5360
 1497SOL     H1 6432   2.438   1.342   1.619 -2.8438  0.2831 -0.8308
 1497SOL     H2 6433   2.409   1.205   1.562  1.2483 -0.9595 -0.1244
 1497SOL    EPW 6434   2.437   1.254   1.630  0.1857  0.2277 -0.5236
 1498SOL      O 6435   0.823   5.698   2.336  0.4184 -0.7638 -0.4946
 1498SOL     H1 6436   0.905   5.715   2.384 -0.3178  3.0165 -0.4259
 1498SOL     H2 6437   0.852   5.654   2.255  2.2746 -1.5342  0.5398
 1498SOL    EPW 6438   0.835   5.695   2.332  0.5379 -0.4427 -0.3769
 1499SOL      O 6439   1.065   0.128   1.914  0.4958  0.5162  0.0318
 1499SOL     H1 6440   1.099   0.152   1.828  2.2041 -2.6426 -0.2221
 1499SOL     H2 6441   1.127   0.167   1.976  1.1833 -0.1036 -0.2633
 1499SOL    EPW 6442   1.075   0.135   1.912  0.7514  0.1131 -0.0268
 1500SOL      O 6443   0.156   4.328   2.518  0.0308 -0.1073 -0.5046
 1500SOL     H1 6444   0.148   4.298   2.428  2.6587 -0.7149 -0.5922
 1500SOL     H2 6445   0.108   4.264   2.570  1.7373 -1.9602 -1.1351
 1500SOL    EPW 6446   0.150   4.318   2.514  0.4932 -0.3698 -0.5812
 1501SOL      O 6447   2.600   4.005   3.331 -0.3618 -0.2197  0.5324
 1501SOL     H1 6448   2.687   3.972   3.353 -0.8642 -0.4519  2.2262
 1501SOL     H2 6449   2.617   4.072   3.264  0.9246 -1.6903 -0.6722
 1501SOL    EPW 6450   2.611   4.009   3.326 -0.2782 -0.4013  0.5846
 1502SOL      O 6451   2.177   0.064   3.889 -0.6794 -0.4236 -0.0640
 1502SOL     H1 6452   2.106   0.124   3.911 -1.5998 -1.2763 -0.6615
 1502SOL     H2 6453   2.142   0.010   3.818 -0.0534 -1.9803  0.7785
 1502SOL    EPW 6454   2.166   0.064   3.884 -0.7108 -0.6807 -0.0378
 1503SOL      O 6455   1.302   4.519   3.374  0.6604  0.7500  0.1552
 1503SOL     H1 6456   1.301   4.615   3.377 -0.6573  0.7914 -1.1156
 1503SOL     H2 6457   1.210   4.495   3.362  1.0170 -0.6748  0.2367
 1503SOL    EPW 6458   1.292   4.527   3.373  0.5579  0.6024  0.0283
 1504SOL      O 6459   4.291   1.465   0.363 -0.2837  0.0155  0.4940
 1504SOL     H1 6460   4.251   1.384   0.395 -1.1163 -0.8100 -2.4705
 1504SOL     H2 6461   4.220   1.529   0.363 -0.3432 -0.0482  0.1148
 1504SOL    EPW 6462   4.279   1.463   0.366 -0.3789 -0.0793  0.1373
 1505SOL      O 6463   2.617   2.085   0.254 -0.7918  0.2665  0.3481
 1505SOL     H1 6464   2.678   2.016   0.229 -1.2523  0.0336 -0.1407
 1505SOL     H2 6465   2.671   2.151   0.297 -0.2305 -0.0349  0.1012
 1505SOL    EPW 6466   2.629   2.085   0.256 -0.7811  0.2095  0.2696
 1506SOL      O 6467   1.124   5.128   2.414  0.1875  0.1837 -0.3639
 1506SOL     H1 6468   1.046   5.117   2.469  0.7532  0.9180  0.6040
 1506SOL     H2 6469   1.185   5.177   2.469  0.9799  0.4405 -1.4560
 1506SOL    EPW 6470   1.122   5.132   2.426  0.3324  0.2894 -0.3772
 1507SOL      O 6471   0.206   5.861   3.176  0.3809  0.5475  0.1673
 1507SOL     H1 6472   0.210   5.906   3.092  1.5636  0.8039  0.3440
 1507SOL     H2 6473   0.293   5.873   3.213 -0.2283  0.7144  1.5738
 1507SOL    EPW 6474   0.216   5.867   3.171  0.4421  0.5926  0.3362
 1508SOL      O 6475   1.947   3.316   2.886  0.1812  0.2654 -0.6056
 1508SOL     H1 6476   1.894   3.275   2.817 -2.1493 -1.1454  1.9299
 1508SOL     H2 6477   2.019   3.255   2.900 -1.0789 -1.0337  0.3595
 1508SOL    EPW 6478   1.949   3.305   2.880 -0.2018 -0.0237 -0.2322
 1509SOL      O 6479   4.678   0.935   1.328 -0.2726 -0.0273  0.3237
 1509SOL     H1 6480   4.621   1.010   1.341 -2.4190 -1.7519  1.3254
 1509SOL     H2 6481   4.675   0.888   1.412  0.7491 -1.3927 -0.3759
 1509SOL    EPW 6482   4.672   0.938   1.338 -0.3926 -0.3569  0.3559
 1510SOL      O 6483   0.681   5.230   2.808  0.2402  0.3494 -0.1791
 1510SOL     H1 6484   0.613   5.196   2.750 -0.1082  2.5907 -1.1238
 1510SOL     H2 6485   0.746   5.269   2.749  1.4869 -0.2303  0.7902
 1510SOL    EPW 6486   0.681   5.231   2.796  0.3360  0.5267 -0.1765
 1511SOL      O 6487   3.151   5.440   0.491 -0.1381  0.2990 -0.2031
 1511SOL     H1 6488   3.163   5.505   0.421  0.7828 -0.2467 -0.5522
 1511SOL     H2 6489   3.110   5.365   0.446 -2.4839  1.1294  0.4550
 1511SOL    EPW 6490   3.148   5.439   0.479 -0.2901  0.3294 -0.1701
 1512SOL      O 6491   4.390   2.718   0.868  0.5738  0.5210 -0.1427
 1512SOL     H1 6492   4.321   2.723   0.933 -0.0484 -0.1689 -0.7337
 1512SOL     H2 6493   4.471   2.723   0.918  0.1094 -0.4481  0.7372
 1512SOL    EPW 6494   4.391   2.719   0.880  0.4579  0.3440 -0.1119
 1513SOL      O 6495   2.722   2.557   0.867 -0.2945 -0.2080 -0.2217
 1513SOL     H1 6496   2.738   2.620   0.796 -0.6696  0.8365  0.6041
 1513SOL     H2 6497   2.658   2.495   0.830 -0.2108  0.1138 -0.9192
 1513SOL    EPW 6498   2.717   2.557   0.855 -0.3256 -0.0622 -0.2080
 1514SOL      O 6499   5.267   0.736   0.715 -0.3183 -1.0667 -0.2192
 1514SOL     H1 6500   5.239   0.785   0.792  1.4079  0.9189 -0.8199
 1514SOL     H2 6501   5.253   0.644   0.739 -0.7895 -0.4366  2.0485
 1514SOL    EPW 6502   5.262   0.731   0.726 -0.1845 -0.7877 -0.0414
 1515SOL      O 6503   1.824   5.123   3.621  0.0772 -0.1013  0.7105
 1515SOL     H1 6504   1.821   5.036   3.582  0.6359  0.5089 -0.7396
 1515SOL     H2 6505   1.807   5.108   3.714 -1.5881 -1.5587  0.2064
 1515SOL    EPW 6506   1.822   5.112   3.626 -0.0408 -0.1917  0.5020
 1516SOL      O 6507   4.785   2.070   1.574  0.2659  0.0451 -0.3678
 1516SOL     H1 6508   4.757   2.127   1.645  0.4983  0.1717 -0.3757
 1516SOL     H2 6509   4.744   1.986   1.593  3.3941 -1.0491  2.0932
 1516SOL    EPW 6510   4.778   2.067   1.584  0.6244 -0.0581 -0.1061
 1517SOL      O 6511   0.133   4.588   2.373  0.0347  0.5527  0.2113
 1517SOL     H1 6512   0.049   4.631   2.359  0.3488  0.9624 -0.4738
 1517SOL     H2 6513   0.157   4.554   2.286  0.7960  0.8540  0.2999
 1517SOL    EPW 6514   0.127   4.589   2.362  0.1494  0.6285  0.1477
 1518SOL      O 6515   1.350   4.812   3.419  0.0501 -0.0710  0.0481
 1518SOL     H1 6516   1.434   4.848   3.392 -0.0890 -0.3817 -0.8165
 1518SOL     H2 6517   1.337   4.844   3.509  1.5891 -0.9308  0.5840
 1518SOL    EPW 6518   1.357   4.819   3.426  0.1995 -0.1959  0.0131
 1519SOL      O 6519   1.198   2.384   3.603 -0.4553 -0.0309 -0.6181
 1519SOL     H1 6520   1.255   2.367   3.677 -0.2059  0.2446 -0.7457
 1519SOL     H2 6521   1.112   2.403   3.642 -0.5430 -0.8000 -0.4460
 1519SOL    EPW 6522   1.195   2.384   3.615 -0.4380 -0.0835 -0.6133
 1520SOL      O 6523   1.705   4.504   3.652  0.8273 -0.0333  0.2356
 1520SOL     H1 6524   1.630   4.457   3.689 -0.0321  1.2636  0.1879
 1520SOL     H2 6525   1.704   4.589   3.697  1.5203  0.4570 -0.6578
 1520SOL    EPW 6526   1.697   4.508   3.661  0.8095  0.1574  0.1352
 1521SOL      O 6527   3.046   3.496   3.310  0.7687  0.1324  0.4451
 1521SOL     H1 6528   3.112   3.560   3.285  0.7460  0.9419  2.3618
 1521SOL     H2 6529   2.966   3.547   3.320  0.7707 -0.1444  2.0694
 1521SOL    EPW 6530   3.045   3.508   3.309  0.7665  0.1892  0.8228
 1522SOL      O 6531   4.852   5.760   0.703 -1.0713 -0.3801  0.2338
 1522SOL     H1 6532   4.792   5.818   0.656  0.4304  1.5792  0.6547
 1522SOL     H2 6533   4.912   5.819   0.748  0.6814 -2.2708  0.4691
 1522SOL    EPW 6534   4.852   5.772   0.703 -0.7241 -0.3728  0.3038
 1523SOL      O 6535   0.863   4.438   3.680  0.7793 -0.1703 -0.0488
 1523SOL     H1 6536   0.798   4.428   3.610 -0.3511  0.1373  0.9540
 1523SOL     H2 6537   0.895   4.349   3.695 -1.5232 -0.7806  1.4562
 1523SOL    EPW 6538   0.859   4.427   3.674  0.4131 -0.2026  0.2187
 1524SOL      O 6539   4.342   2.149   0.613  0.1028 -0.0042 -0.0163
 1524SOL     H1 6540   4.288   2.221   0.578 -1.5524 -0.1852  2.0720
 1524SOL     H2 6541   4.330   2.078   0.550 -2.7030 -0.2621  0.7116
 1524SOL    EPW 6542   4.335   2.150   0.602 -0.3731 -0.0510  0.2841
 1525SOL      O 6543   3.522   0.597   0.228  0.0465 -0.2741 -0.3865
 1525SOL     H1 6544   3.492   0.568   0.142  0.2994  1.4443 -1.0795
 1525SOL     H2 6545   3.618   0.597   0.221  0.0556  0.7683 -0.4426
 1525SOL    EPW 6546   3.529   0.594   0.218  0.0744  0.0205 -0.4664
 1526SOL      O 6547   1.465   5.598   2.577  0.3173  0.1246 -0.5085
 1526SOL     H1 6548   1.404   5.667   2.552 -0.9599 -0.1919  1.6237
 1526SOL     H2 6549   1.509   5.631   2.655 -1.0629 -1.8619  1.1666
 1526SOL    EPW 6550   1.463   5.609   2.583  0.0338 -0.1211 -0.1024
 1527SOL      O 6551   3.741   1.078   1.464  0.5137 -0.1993 -0.1166
 1527SOL     H1 6552   3.705   1.012   1.404  2.1669 -0.8054 -0.4530
 1527SOL     H2 6553   3.731   1.039   1.551 -0.8998  0.2258 -0.0761
 1527SOL    EPW 6554   3.736   1.067   1.467  0.5393 -0.2186 -0.1482
 1528SOL      O 6555   3.390   2.374   0.247 -0.0406  0.1222 -0.2709
 1528SOL     H1 6556   3.440   2.293   0.259 -0.1124 -0.1150 -1.4930
 1528SOL     H2 6557   3.412   2.403   0.159 -0.5574  1.0726 -0.0989
 1528SOL    EPW 6558   3.398   2.369   0.239 -0.1034  0.1982 -0.3830
 1529SOL      O 6559   3.524   4.323   3.574 -0.8083  0.3869 -0.3974
 1529SOL     H1 6560   3.619   4.328   3.563 -0.5469 -1.4023  0.9273
 1529SOL     H2 6561   3.489   4.331   3.485  0.5579  1.0742 -0.8945
 1529SOL    EPW 6562   3.531   4.325   3.563 -0.6347  0.2693 -0.3091
 1530SOL      O 6563   1.899   4.249   2.880 -0.0546 -0.2996 -0.5915
 1530SOL     H1 6564   1.984   4.292   2.870 -0.7420  1.5785  1.3780
 1530SOL     H2 6565   1.920   4.163   2.915  1.0543  0.1808 -0.0507
 1530SOL    EPW 6566   1.910   4.245   2.882 -0.0096 -0.0480 -0.3237
 1531SOL      O 6567   4.246   5.115   0.448  0.6588  0.3494  0.3533
 1531SOL     H1 6568   4.212   5.026   0.444  0.8579  0.3150 -0.7851
 1531SOL     H2 6569   4.337   5.105   0.477  0.1472  0.3306  1.9860
 1531SOL    EPW 6570   4.252   5.105   0.451  0.6255  0.3437  0.4060
 1532SOL      O 6571   2.098   4.017   2.639  0.0536  0.1183 -0.1946
 1532SOL     H1 6572   2.182   4.061   2.630 -0.0915  0.5113  0.3214
 1532SOL     H2 6573   2.092   3.995   2.732 -0.4428  0.1585 -0.2121
 1532SOL    EPW 6574   2.106   4.020   2.648 -0.0148  0.1645 -0.1414
 1533SOL      O 6575   1.518   4.651   3.087  0.5583  0.3507 -0.8224
 1533SOL     H1 6576   1.469   4.674   3.008  0.1474 -2.3295 -1.3953
 1533SOL     H2 6577   1.465   4.584   3.129  1.3273  0.9599  1.1677
 1533SOL    EPW 6578   1.507   4.647   3.083  0.5965  0.1297 -0.6712
 1534SOL      O 6579   4.868   1.463   0.558  0.3512 -0.3277 -0.4670
 1534SOL     H1 6580   4.846   1.505   0.641 -0.7366 -0.7422 -0.5340
 1534SOL     H2 6581   4.908   1.380   0.582  1.1229  0.0755 -0.3494
 1534SOL    EPW 6582   4.870   1.459   0.569  0.3175 -0.3289 -0.4616
 1535SOL      O 6583   1.134   4.735   2.929 -0.6122  0.0003  0.1424
 1535SOL     H1 6584   1.065   4.671   2.951 -0.3201 -0.5148 -0.4196
 1535SOL     H2 6585   1.213   4.682   2.920 -0.1894  0.5594  0.5198
 1535SOL    EPW 6586   1.135   4.722   2.931 -0.5360  0.0050  0.1227
 1536SOL      O 6587   0.003   4.877   2.163  0.2591  0.0053  0.5456
 1536SOL     H1 6588  -0.052   4.835   2.229 -1.4493  0.3636 -0.6022
 1536SOL     H2 6589   0.034   4.805   2.108  0.8631 -0.1890  1.1391
 1536SOL    EPW 6590   0.000   4.865   2.164  0.1413  0.0228  0.4865
 1537SOL      O 6591   4.576   1.956   0.036  0.4396 -0.6901  0.1615
 1537SOL     H1 6592   4.597   2.036   0.085 -1.3937  1.3126 -2.1795
 1537SOL     H2 6593   4.651   1.898   0.052  1.0764  0.8660  3.1829
 1537SOL    EPW 6594   4.586   1.959   0.042  0.3120 -0.3105  0.2341
 1538SOL      O 6595   5.668   4.818   3.657  0.0517 -0.2162  0.5946
 1538SOL     H1 6596   5.743   4.825   3.598  0.8139  0.2452  1.5961
 1538SOL     H2 6597   5.703   4.844   3.743 -1.0213 -0.9210  1.2532
 1538SOL    EPW 6598   5.680   4.821   3.660  0.0185 -0.2421  0.7717
 1539SOL      O 6599   2.220   4.099   3.864  0.3524 -0.3254 -0.6082
 1539SOL     H1 6600   2.127   4.108   3.848  0.6301  1.0080 -1.5114
 1539SOL     H2 6601   2.226   4.074   3.957 -0.9015 -0.8755 -0.6690
 1539SOL    EPW 6602   2.211   4.097   3.872  0.2483 -0.2418 -0.7111
 1540SOL      O 6603   1.849   5.703   2.624 -0.1728 -0.0594 -0.3887
 1540SOL     H1 6604   1.938   5.681   2.597  0.1089 -0.4198  0.8223
 1540SOL     H2 6605   1.804   5.619   2.633  0.4142 -0.1115  2.5361
 1540SOL    EPW 6606   1.853   5.692   2.622 -0.0801 -0.1034  0.0525
 1541SOL      O 6607   1.214   2.627   3.029  0.0088  0.4657  0.0554
 1541SOL     H1 6608   1.262   2.693   3.078  0.6919  0.4478 -0.5807
 1541SOL     H2 6609   1.124   2.661   3.025  0.3164  1.2663 -0.1244
 1541SOL    EPW 6610   1.209   2.638   3.034  0.1145  0.5492 -0.0316
 1542SOL      O 6611   1.504   4.708   2.428  0.0223  0.1767 -0.3475
 1542SOL     H1 6612   1.598   4.720   2.443  0.2920 -0.9836 -1.0070
 1542SOL     H2 6613   1.462   4.746   2.504  0.9268  2.8372 -1.1185
 1542SOL    EPW 6614   1.510   4.713   2.437  0.1475  0.3367 -0.5001
 1543SOL      O 6615   1.778   3.051   3.305 -0.0873  0.3748  0.2311
 1543SOL     H1 6616   1.839   3.124   3.309  2.5380 -1.7559  0.4469
 1543SOL     H2 6617   1.741   3.046   3.393  1.1138  0.3151  0.7466
 1543SOL    EPW 6618   1.780   3.058   3.315  0.3209  0.1411  0.3091
 1544SOL      O 6619   1.368   0.003   3.306  0.0439 -0.2104 -0.0589
 1544SOL     H1 6620   1.412   0.008   3.221  0.2843 -0.0523  0.0739
 1544SOL     H2 6621   1.364  -0.090   3.325  2.0000 -0.1398  0.7916
 1544SOL    EPW 6622   1.372  -0.006   3.299  0.2782 -0.1860  0.0460
 1545SOL      O 6623   1.622   5.655   4.080  0.7059 -0.1697  1.0450
 1545SOL     H1 6624   1.661   5.646   4.167  0.1201  0.9501  1.4367
 1545SOL     H2 6625   1.586   5.744   4.080  1.4039  0.1239 -0.6229
 1545SOL    EPW 6626   1.622   5.664   4.089  0.7179 -0.0189  0.9089
 1546SOL      O 6627   3.017   2.316   0.097 -0.3976  0.4792 -0.2378
 1546SOL     H1 6628   2.966   2.393   0.120  2.6890  2.0207  1.9037
 1546SOL     H2 6629   3.011   2.260   0.175 -1.0282 -0.5375 -1.0159
 1546SOL    EPW 6630   3.011   2.318   0.108 -0.1356  0.5352 -0.0923
 1547SOL      O 6631   4.803   3.209   0.277  0.6677 -0.4297  0.4036
 1547SOL     H1 6632   4.847   3.221   0.362  0.4251  0.4065  0.4197
 1547SOL     H2 6633   4.807   3.115   0.261 -0.1316 -0.7360  1.8167
 1547SOL    EPW 6634   4.808   3.201   0.285  0.5565 -0.3732  0.5560
 1548SOL      O 6635   0.637   2.096   1.645 -0.4621  0.4267 -0.4004
 1548SOL     H1 6636   0.610   2.185   1.624 -1.4392  0.2762  0.1770
 1548SOL     H2 6637   0.674   2.103   1.733  0.5504  0.4617 -0.8168
 1548SOL    EPW 6638   0.638   2.106   1.652 -0.4583  0.4144 -0.3832
 1549SOL      O 6639   1.972   5.864   3.291  0.5166  0.2856  0.2423
 1549SOL     H1 6640   2.005   5.954   3.300 -0.5551  0.6654  0.3400
 1549SOL     H2 6641   2.005   5.819   3.369  0.2274  0.8466  0.6939
 1549SOL    EPW 6642   1.979   5.869   3.300  0.3714  0.3860  0.3009
 1550SOL      O 6643   0.394   4.468   2.397  0.7074 -0.1872  0.1992
 1550SOL     H1 6644   0.386   4.437   2.307  1.3048  3.8659 -1.3521
 1550SOL     H2 6645   0.486   4.455   2.419  0.2827 -2.4636  0.8000
 1550SOL    EPW 6646   0.403   4.463   2.390  0.7258  0.0024  0.0978
 1551SOL      O 6647   2.960   4.895   4.143 -0.7366 -0.5121 -0.3624
 1551SOL     H1 6648   3.021   4.883   4.070 -2.7278 -0.1360 -2.1390
 1551SOL     H2 6649   2.928   4.807   4.163  0.4372 -0.7218  0.6340
 1551SOL    EPW 6650   2.963   4.885   4.138 -0.8238 -0.4944 -0.4456
 1552SOL      O 6651   1.514   5.331   2.722 -0.2692  0.2217  0.7386
 1552SOL     H1 6652   1.546   5.358   2.808  1.6495  1.1738 -0.2459
 1552SOL     H2 6653   1.463   5.407   2.691  0.8518  0.7553  0.1469
 1552SOL    EPW 6654   1.512   5.342   2.728  0.0551  0.3802  0.5705
 1553SOL      O 6655   0.459   5.372   2.908  0.1654  0.4175 -0.2117
 1553SOL     H1 6656   0.460   5.298   2.847  1.1505 -0.7644  1.1981
 1553SOL     H2 6657   0.534   5.425   2.882 -0.0524  0.4880 -0.7006
 1553SOL    EPW 6658   0.467   5.370   2.899  0.2472  0.2989 -0.1135
 1554SOL      O 6659   0.221   5.105   2.625 -0.2296 -0.7328  0.4433
 1554SOL     H1 6660   0.190   5.186   2.666  1.4877  0.0044  0.3236
 1554SOL     H2 6661   0.186   5.109   2.536  0.4959  0.2591  0.1998
 1554SOL    EPW 6662   0.214   5.114   2.620  0.0310 -0.5483  0.4045
 1555SOL      O 6663   4.558   3.608   3.013  0.0156  0.0261 -0.5587
 1555SOL     H1 6664   4.486   3.635   2.955 -1.9573 -0.2964  1.6752
 1555SOL     H2 6665   4.584   3.689   3.057  0.9372  0.1169 -1.2677
 1555SOL    EPW 6666   4.553   3.620   3.012 -0.0966  0.0014 -0.3961
 1556SOL      O 6667   1.827   4.178   3.326 -0.5626 -0.2494  0.0455
 1556SOL     H1 6668   1.859   4.241   3.262 -0.2530  0.3773  0.8237
 1556SOL     H2 6669   1.854   4.093   3.291  0.0163  0.1205 -0.4119
 1556SOL    EPW 6670   1.833   4.175   3.315 -0.4678 -0.1430  0.0797
 1557SOL      O 6671   1.432   0.572   1.822  0.0808  0.4563 -0.1009
 1557SOL     H1 6672   1.503   0.508   1.828  0.1704  0.5834  0.1875
 1557SOL     H2 6673   1.395   0.575   1.911 -1.3578 -0.8474 -0.6279
 1557SOL    EPW 6674   1.435   0.565   1.833 -0.0631  0.3308 -0.1263
 1558SOL      O 6675   3.607   2.731   3.370  0.6065 -0.6105 -0.1324
 1558SOL     H1 6676   3.583   2.727   3.463  1.4935 -0.0551  0.1279
 1558SOL     H2 6677   3.524   2.720   3.324 -0.1165  0.9604  0.7496
 1558SOL    EPW 6678   3.596   2.730   3.375  0.6240 -0.3836 -0.0105
 1559SOL      O 6679   2.779   1.954   3.923  0.5065 -0.2673 -0.4347
 1559SOL     H1 6680   2.729   2.036   3.920  0.7943  0.0209  1.7096
 1559SOL     H2 6681   2.725   1.891   3.876 -0.0373  0.9881 -1.5182
 1559SOL    EPW 6682   2.768   1.956   3.918  0.4792 -0.1026 -0.3215
 1560SOL      O 6683   0.066   5.700   2.253  0.1637 -0.2407  0.2961
 1560SOL     H1 6684  -0.003   5.684   2.189  1.1798  1.8027 -1.3858
 1560SOL     H2 6685   0.131   5.632   2.236  0.3662  0.2164 -0.7823
 1560SOL    EPW 6686   0.066   5.691   2.244  0.2937  0.0260  0.0017
 1561SOL      O 6687   1.615   5.048   0.419 -0.5278 -0.0747  0.3423
 1561SOL     H1 6688   1.692   5.097   0.448  0.3016 -0.7273 -0.7075
 1561SOL     H2 6689   1.586   5.093   0.340  0.0778 -1.0809 -0.4779
 1561SOL    EPW 6690   1.620   5.058   0.413 -0.3747 -0.2516  0.1428
 1562SOL      O 6691   1.384   5.687   0.786 -0.3992 -0.0367 -0.4251
 1562SOL     H1 6692   1.432   5.619   0.833  0.3324  1.4616  1.0659
 1562SOL     H2 6693   1.299   5.691   0.829  0.2836  1.3615  0.8182
 1562SOL    EPW 6694   1.380   5.680   0.795 -0.2483  0.2723 -0.1334
 1563SOL      O 6695   4.602   5.853   1.850  0.4252  0.2149 -0.6769
 1563SOL     H1 6696   4.571   5.849   1.759  1.4254 -0.5380 -0.9867
 1563SOL     H2 6697   4.588   5.765   1.884  1.5298  0.0816 -0.5744
 1563SOL    EPW 6698   4.597   5.843   1.844  0.6497  0.1203 -0.6990
 1564SOL      O 6699   0.488   5.459   0.260 -0.0679 -0.1067  0.7624
 1564SOL     H1 6700   0.531   5.376   0.238 -1.5823 -1.0305  1.2333
 1564SOL     H2 6701   0.476   5.456   0.355 -3.4886 -1.0329  0.3495
 1564SOL    EPW 6702   0.492   5.450   0.268 -0.5944 -0.3041  0.7686
 1565SOL      O 6703   1.914   1.501   1.470  0.7839  0.1215  0.1879
 1565SOL     H1 6704   1.976   1.574   1.481  0.5471  0.3187  0.2139
 1565SOL     H2 6705   1.850   1.513   1.540  1.2590 -0.6453  0.7629
 1565SOL    EPW 6706   1.914   1.510   1.478  0.8093  0.0607  0.2521
 1566SOL      O 6707   1.185   4.872   0.526 -0.0869 -0.5041 -0.1823
 1566SOL     H1 6708   1.205   4.964   0.540 -0.1606 -0.5942  0.5404
 1566SOL     H2 6709   1.093   4.871   0.501  0.4346 -0.2128 -2.1429
 1566SOL    EPW 6710   1.178   4.882   0.525 -0.0391 -0.4826 -0.3143
 1567SOL      O 6711   5.379   4.641   2.372 -0.3320 -0.2695 -0.5685
 1567SOL     H1 6712   5.379   4.638   2.468  1.8408  2.8548 -0.3913
 1567SOL     H2 6713   5.438   4.569   2.347 -0.1710 -0.5167  0.4722
 1567SOL    EPW 6714   5.386   4.633   2.380 -0.0831  0.0374 -0.4386
 1568SOL      O 6715   2.919   2.249   4.013  0.0435  0.6996  0.1789
 1568SOL     H1 6716   2.855   2.192   4.057 -0.1061  1.4287  0.9243
 1568SOL     H2 6717   3.002   2.202   4.023 -0.3466 -0.1869 -0.6764
 1568SOL    EPW 6718   2.921   2.238   4.019 -0.0141  0.6828  0.1672
 1569SOL      O 6719   0.361   4.420   1.373 -0.0525 -0.1821  0.3401
 1569SOL     H1 6720   0.314   4.480   1.430  0.0751  0.4608 -0.2248
 1569SOL     H2 6721   0.343   4.451   1.284  2.1068  0.6063  0.1339
 1569SOL    EPW 6722   0.354   4.430   1.370  0.1915 -0.0294  0.2579
 1570SOL      O 6723   0.693   3.996   0.604 -0.5556 -0.8225  0.2640
 1570SOL     H1 6724   0.710   3.930   0.672  0.3246 -1.3133 -0.4163
 1570SOL     H2 6725   0.711   4.079   0.647  2.9547 -1.2712 -0.1618
 1570SOL    EPW 6726   0.697   3.998   0.616 -0.0872 -0.9228  0.1460
 1571SOL      O 6727   1.360   0.188   0.267  0.0063  0.1584  0.0440
 1571SOL     H1 6728   1.331   0.218   0.181  2.7295  0.2053 -0.8770
 1571SOL     H2 6729   1.317   0.248   0.329 -1.7494  0.2856 -1.2644
 1571SOL    EPW 6730   1.352   0.197   0.265  0.1095  0.1769 -0.1938
 1572SOL      O 6731   5.447   4.521   0.831 -0.4120 -0.5955 -0.2675
 1572SOL     H1 6732   5.356   4.504   0.859 -0.5943 -1.5576 -1.4170
 1572SOL     H2 6733   5.448   4.498   0.738  1.4379 -2.2340  0.1405
 1572SOL    EPW 6734   5.437   4.517   0.824 -0.2341 -0.8729 -0.3466
 1573SOL      O 6735   5.370   4.794   0.881 -0.0091 -0.9642  1.0422
 1573SOL     H1 6736   5.299   4.801   0.818  2.0936  1.4725 -1.1971
 1573SOL     H2 6737   5.414   4.712   0.859 -0.2282 -0.8991  0.3706
 1573SOL    EPW 6738   5.367   4.786   0.872  0.1919 -0.6973  0.7317
 1574SOL      O 6739   0.998   3.337   0.379  0.4562 -0.3684 -0.6693
 1574SOL     H1 6740   0.994   3.379   0.465 -1.0573 -0.9824 -0.4349
 1574SOL     H2 6741   0.964   3.402   0.318 -2.1312 -1.3165 -0.2721
 1574SOL    EPW 6742   0.994   3.349   0.382  0.0187 -0.5350 -0.6019
 1575SOL      O 6743   0.455   5.136   0.203 -0.1441 -0.4571  0.2483
 1575SOL     H1 6744   0.470   5.097   0.289  0.2440 -0.7489  0.0448
 1575SOL     H2 6745   0.477   5.067   0.140  0.0295 -0.0904 -0.0960
 1575SOL    EPW 6746   0.459   5.125   0.206 -0.0842 -0.4491  0.1899
 1576SOL      O 6747   0.735   5.801   1.906  0.3568  0.1013  0.1750
 1576SOL     H1 6748   0.824   5.768   1.894  0.5170  1.3059 -2.1126
 1576SOL     H2 6749   0.688   5.772   1.829 -0.7494  1.0781  0.4670
 1576SOL    EPW 6750   0.740   5.795   1.897  0.2559  0.3340 -0.0379
 1577SOL      O 6751   1.446   5.808   0.515  0.2603  0.2330  0.0654
 1577SOL     H1 6752   1.370   5.769   0.473  0.4640 -0.8332  0.6571
 1577SOL     H2 6753   1.520   5.756   0.484  0.4753 -0.2000  1.2627
 1577SOL    EPW 6754   1.446   5.798   0.507  0.3050  0.0731  0.2563
 1578SOL      O 6755   1.666   4.538   3.378  0.0312 -0.1409  0.1205
 1578SOL     H1 6756   1.658   4.556   3.472 -0.2537 -1.4695  0.3603
 1578SOL     H2 6757   1.633   4.617   3.336 -0.2308  0.3052  1.1379
 1578SOL    EPW 6758   1.662   4.549   3.384 -0.0271 -0.2351  0.2547
 1579SOL      O 6759   0.702   4.959   0.281  0.2595 -0.5153 -0.0424
 1579SOL     H1 6760   0.762   5.032   0.292  0.6557 -0.7461 -0.6758
 1579SOL     H2 6761   0.653   4.956   0.364  1.2980 -0.5071  0.5706
 1579SOL    EPW 6762   0.703   4.967   0.291  0.4126 -0.5391 -0.0446
 1580SOL      O 6763   1.171   3.931   1.434 -0.1894  0.1897 -0.2098
 1580SOL     H1 6764   1.221   3.866   1.385 -2.9184 -1.6407 -0.6755
 1580SOL     H2 6765   1.235   3.969   1.495  1.4628 -3.0347  0.2080
 1580SOL    EPW 6766   1.183   3.928   1.436 -0.3043 -0.3496 -0.2149
 1581SOL      O 6767   1.511   1.063   2.542  0.3218  0.3453 -0.2683
 1581SOL     H1 6768   1.441   1.001   2.562  0.1069  0.2314 -1.3542
 1581SOL     H2 6769   1.560   1.022   2.471 -0.6759  2.0512 -1.9812
 1581SOL    EPW 6770   1.509   1.052   2.537  0.1925  0.5152 -0.5669
 1582SOL      O 6771   5.662   0.060   1.218 -0.1869 -0.4491 -0.5433
 1582SOL     H1 6772   5.584   0.112   1.200  0.2853  0.0081 -1.2613
 1582SOL     H2 6773   5.638  -0.029   1.192  0.3937  0.1355 -3.2385
 1582SOL    EPW 6774   5.651   0.056   1.214 -0.0746 -0.3379 -0.9074
 1583SOL      O 6775   2.621   3.675   3.997 -0.0215 -0.0799 -0.0154
 1583SOL     H1 6776   2.615   3.655   3.904 -0.7621  1.5875 -0.3468
 1583SOL     H2 6777   2.580   3.600   4.040  2.0061 -1.7331 -0.9249
 1583SOL    EPW 6778   2.616   3.665   3.992  0.1158 -0.0784 -0.1478
 1584SOL      O 6779   1.344   0.839   2.077 -0.4936 -0.2142 -0.5023
 1584SOL     H1 6780   1.319   0.846   1.985  1.5045 -0.4612 -1.0705
 1584SOL     H2 6781   1.328   0.746   2.099  0.8345 -0.5898 -1.1277
 1584SOL    EPW 6782   1.339   0.829   2.070 -0.1388 -0.2806 -0.6296
 1585SOL      O 6783   4.763   2.423   3.908 -0.2287 -0.1795  0.3180
 1585SOL     H1 6784   4.846   2.433   3.863  0.4126 -1.7815  1.1101
 1585SOL     H2 6785   4.700   2.471   3.854  1.0055  0.1671 -0.8282
 1585SOL    EPW 6786   4.765   2.429   3.898 -0.0286 -0.3134  0.2802
 1586SOL      O 6787   0.898   0.015   0.416  0.2366  0.1254  0.3981
 1586SOL     H1 6788   0.903   0.069   0.338  1.0183 -0.6218 -0.0821
 1586SOL     H2 6789   0.840  -0.057   0.392  0.3417 -0.0157  0.5630
 1586SOL    EPW 6790   0.892   0.013   0.405  0.3312  0.0306  0.3645
 1587SOL      O 6791   0.061   5.206   1.289 -0.4127 -0.2331  0.2880
 1587SOL     H1 6792  -0.010   5.178   1.346 -0.4511  1.6576  1.2230
 1587SOL     H2 6793   0.081   5.295   1.319  1.0038 -0.0165 -1.2587
 1587SOL    EPW 6794   0.055   5.213   1.298 -0.2657 -0.0083  0.2228
 1588SOL      O 6795   0.603   4.931   0.053  0.0370 -0.3614  1.1226
 1588SOL     H1 6796   0.651   4.981  -0.012 -1.3179  1.1192  1.2237
 1588SOL     H2 6797   0.661   4.926   0.128  1.1667 -1.1129  0.2106
 1588SOL    EPW 6798   0.614   4.936   0.054  0.0129 -0.2836  1.0361
 1589SOL      O 6799   5.077   4.287   0.139 -0.0669  0.3539 -0.4007
 1589SOL     H1 6800   5.010   4.311   0.075 -0.4706 -2.4926 -1.0988
 1589SOL     H2 6801   5.158   4.325   0.104 -0.5625  0.1735 -1.7681
 1589SOL    EPW 6802   5.079   4.294   0.128 -0.1628  0.0310 -0.6210
 1590SOL      O 6803   5.310   0.068   2.218  0.3216  0.6380  0.5770
 1590SOL     H1 6804   5.387   0.032   2.263 -0.7094 -0.9550  1.1101
 1590SOL     H2 6805   5.328   0.054   2.125  0.3308 -0.4537  0.7370
 1590SOL    EPW 6806   5.320   0.062   2.213  0.2126  0.3516  0.6509
 1591SOL      O 6807   0.600   5.607   2.810 -0.2220  0.3341  0.4289
 1591SOL     H1 6808   0.663   5.641   2.747 -0.0493  1.2228  1.0750
 1591SOL     H2 6809   0.615   5.658   2.890 -3.0367  1.8859  0.0361
 1591SOL    EPW 6810   0.608   5.616   2.812 -0.5038  0.5944  0.4559
 1592SOL      O 6811   5.001   0.099   1.568  0.4180 -0.2704  0.0702
 1592SOL     H1 6812   5.066   0.073   1.632  1.2831  2.4997  0.3593
 1592SOL     H2 6813   5.048   0.155   1.507 -0.4247 -2.6447 -2.9321
 1592SOL    EPW 6814   5.013   0.102   1.568  0.4204 -0.2282 -0.2192
 1593SOL      O 6815   1.866   4.055   2.473  0.0864  0.3221  0.0641
 1593SOL     H1 6816   1.942   4.031   2.526 -0.3017 -0.0879  0.4380
 1593SOL     H2 6817   1.827   3.972   2.447 -0.5738  0.5322  0.3667
 1593SOL    EPW 6818   1.870   4.044   2.476 -0.0254  0.3008  0.1363
 1594SOL      O 6819   5.598   5.392   2.456 -0.0630  0.3821 -0.0441
 1594SOL     H1 6820   5.542   5.357   2.386 -0.6222  0.3230  0.4352
 1594SOL     H2 6821   5.642   5.315   2.492  1.4729  0.5762 -1.3969
 1594SOL    EPW 6822   5.597   5.380   2.452  0.0412  0.3965 -0.1373
 1595SOL      O 6823   0.780   0.557   3.176  0.3304 -0.3199  0.6539
 1595SOL     H1 6824   0.699   0.525   3.137  0.9391  1.7549 -2.5284
 1595SOL     H2 6825   0.834   0.479   3.185 -0.8262 -1.2574 -0.2747
 1595SOL    EPW 6826   0.777   0.546   3.173  0.2720 -0.1986  0.2153
 1596SOL      O 6827   5.550   0.821   3.531  0.3484 -0.2689  0.2428
 1596SOL     H1 6828   5.468   0.864   3.557  0.6182  1.2266 -1.2982
 1596SOL     H2 6829   5.522   0.745   3.480 -0.0965 -0.2621  0.4761
 1596SOL    EPW 6830   5.538   0.818   3.528  0.3297 -0.1087  0.1033
 1597SOL      O 6831   5.263   4.896   3.306  0.7041  1.2766 -0.3535
 1597SOL     H1 6832   5.297   4.846   3.380 -0.3216 -4.0801 -3.2696
 1597SOL     H2 6833   5.170   4.908   3.325  0.7768  1.3649 -0.0536
 1597SOL    EPW 6834   5.257   4.892   3.316  0.6025  0.7146 -0.6326
 1598SOL      O 6835   0.788   5.473   3.859  0.2831  0.1949 -0.2669
 1598SOL     H1 6836   0.727   5.438   3.794 -1.0465 -0.1260  1.1188
 1598SOL     H2 6837   0.844   5.398   3.881  0.5521  0.2290 -0.8329
 1598SOL    EPW 6838   0.788   5.461   3.855  0.1699  0.1643 -0.1794
 1599SOL      O 6839   0.063   4.728   0.687 -0.1628 -0.3093  0.0399
 1599SOL     H1 6840   0.146   4.686   0.710 -0.2794 -0.2375  0.6181
 1599SOL     H2 6841   0.005   4.707   0.761  0.4876  2.9859  1.5739
 1599SOL    EPW 6842   0.066   4.721   0.698 -0.1059  0.0499  0.2652
 1600SOL      O 6843   1.559   5.385   2.988  0.2594  0.0364 -0.1196
 1600SOL     H1 6844   1.603   5.324   3.047 -0.0079 -1.0317 -1.0025
 1600SOL     H2 6845   1.501   5.436   3.045 -0.0761 -1.0440  0.5173
 1600SOL    EPW 6846   1.557   5.384   3.000  0.1951 -0.1928 -0.1459
 1601SOL      O 6847   0.561   5.191   2.120  0.3340 -0.2287  0.0556
 1601SOL     H1 6848   0.543   5.144   2.201 -1.4587 -0.1472 -0.2701
 1601SOL     H2 6849   0.553   5.284   2.144 -1.9650 -0.2275 -0.5579
 1601SOL    EPW 6850   0.558   5.196   2.131 -0.1025 -0.2199 -0.0446
 1602SOL      O 6851   0.593   5.535   2.412 -0.2058  0.2266  0.0793
 1602SOL     H1 6852   0.566   5.508   2.325  0.0342  0.9423 -0.2252
 1602SOL     H2 6853   0.670   5.591   2.397 -0.6484  1.0118  0.6911
 1602SOL    EPW 6854   0.599   5.538   2.401 -0.2274  0.3867  0.1120
 1603SOL      O 6855   0.365   5.720   1.532 -0.0501 -0.4778  0.0061
 1603SOL     H1 6856   0.443   5.668   1.512  0.8053  0.4759  0.8059
 1603SOL     H2 6857   0.335   5.686   1.617  0.5637  0.3644  0.5748
 1603SOL    EPW 6858   0.370   5.711   1.539  0.1066 -0.2862  0.1521
 1604SOL      O 6859   0.562   5.244   0.998  0.2116 -0.0090  0.3958
 1604SOL     H1 6860   0.545   5.159   0.957 -1.2062  0.5151 -0.1272
 1604SOL     H2 6861   0.589   5.301   0.925  0.4001  0.1958  0.6229
 1604SOL    EPW 6862   0.563   5.241   0.986  0.0804  0.0688  0.3643
 1605SOL      O 6863   1.221   0.062   1.027  0.3202  0.7903  0.0581
 1605SOL     H1 6864   1.216   0.037   1.119  0.1635  0.0225 -0.1587
 1605SOL     H2 6865   1.225   0.158   1.029  1.1587  0.7502  0.8952
 1605SOL    EPW 6866   1.221   0.070   1.037  0.3930  0.7041  0.1242
 1606SOL      O 6867   5.791   0.088   2.262  0.4067 -0.0329 -0.1743
 1606SOL     H1 6868   5.867   0.033   2.278 -0.1245 -0.8386 -0.4255
 1606SOL     H2 6869   5.828   0.175   2.244  1.3166 -0.6434 -1.3226
 1606SOL    EPW 6870   5.803   0.092   2.262  0.4471 -0.1840 -0.3236
 1607SOL      O 6871   1.610   0.926   2.072  0.9849  0.4508  0.6064
 1607SOL     H1 6872   1.522   0.901   2.041  1.1103 -0.1517  0.7240
 1607SOL     H2 6873   1.668   0.899   2.002  1.3619 -1.7181  1.7215
 1607SOL    EPW 6874   1.606   0.920   2.061  1.0385  0.1552  0.7379
 1608SOL      O 6875   5.450   5.566   3.814 -0.1380 -0.2934  0.2717
 1608SOL     H1 6876   5.402   5.627   3.757  2.6203  0.7124 -1.0622
 1608SOL     H2 6877   5.436   5.480   3.775  1.5175  0.3580 -1.7993
 1608SOL    EPW 6878   5.443   5.564   3.804  0.3328 -0.1166 -0.0915
 1609SOL      O 6879   0.857   1.834   1.203 -0.2403 -0.2048 -0.5682
 1609SOL     H1 6880   0.851   1.899   1.272  1.0025  1.6757 -2.1542
 1609SOL     H2 6881   0.784   1.854   1.145 -0.3960 -0.8154 -0.5884
 1609SOL    EPW 6882   0.849   1.843   1.204 -0.1243 -0.0694 -0.7395
 1610SOL      O 6883   0.317   0.572   1.490  0.3115 -0.8508  0.4367
 1610SOL     H1 6884   0.262   0.516   1.436  2.2386 -0.4598 -2.0483
 1610SOL     H2 6885   0.401   0.574   1.444  1.3834  1.1704  2.3883
 1610SOL    EPW 6886   0.320   0.566   1.480  0.6314 -0.5935  0.3798
 1611SOL      O 6887   1.343   5.375   2.169 -0.0719  0.3108 -0.3971
 1611SOL     H1 6888   1.334   5.280   2.177  2.3027  0.2070  1.9331
 1611SOL     H2 6889   1.410   5.387   2.101  0.4194  0.2578  0.0709
 1611SOL    EPW 6890   1.349   5.366   2.163  0.2338  0.2941 -0.0986
 1612SOL      O 6891   1.063   4.999   1.809 -0.6701 -0.1726  0.8653
 1612SOL     H1 6892   1.057   5.036   1.721  1.5688 -0.2939  0.6393
 1612SOL     H2 6893   0.978   4.956   1.822 -0.8060 -0.6956 -1.4865
 1612SOL    EPW 6894   1.053   4.998   1.801 -0.4457 -0.2413  0.5903
 1613SOL      O 6895   0.915   0.446   1.898 -0.0136 -0.5610  0.0150
 1613SOL     H1 6896   0.949   0.358   1.887 -1.3749 -1.1316  0.3162
 1613SOL     H2 6897   0.854   0.458   1.825  0.1810  0.1302 -0.0370
 1613SOL    EPW 6898   0.912   0.438   1.889 -0.1380 -0.5481  0.0416
 1614SOL      O 6899   1.909   5.480   0.883 -0.4617 -0.3269 -0.4015
 1614SOL     H1 6900   1.993   5.437   0.902 -0.8593 -1.0178 -0.1712
 1614SOL     H2 6901   1.927   5.534   0.806  0.9975  1.9815  1.5032
 1614SOL    EPW 6902   1.920   5.481   0.877 -0.3485 -0.1544 -0.1737
 1615SOL      O 6903   5.371   0.069   3.464 -0.1376 -0.0221 -1.1489
 1615SOL     H1 6904   5.294   0.123   3.446 -0.3959 -0.1815 -0.5485
 1615SOL     H2 6905   5.409   0.052   3.378 -2.6356 -2.6809 -1.7859
 1615SOL    EPW 6906   5.367   0.073   3.453 -0.4316 -0.3227 -1.1528
 1616SOL      O 6907   1.421   4.856   2.172 -0.3293  0.1057 -0.5798
 1616SOL     H1 6908   1.491   4.883   2.112 -0.3566  1.7622  0.1304
 1616SOL     H2 6909   1.464   4.849   2.257 -1.4081  2.9743  0.2312
 1616SOL    EPW 6910   1.433   4.858   2.174 -0.4473  0.5884 -0.4175
 1617SOL      O 6911   5.511   1.057   2.486 -0.0746  0.0316 -0.0043
 1617SOL     H1 6912   5.518   0.968   2.520 -0.5474  0.0486  0.1373
 1617SOL     H2 6913   5.489   1.111   2.562 -0.0752  0.2296 -0.1429
 1617SOL    EPW 6914   5.510   1.053   2.498 -0.1251  0.0545 -0.0040
 1618SOL      O 6915   1.020   5.788   2.490  0.1735  0.1976  0.5079
 1618SOL     H1 6916   1.107   5.792   2.530  0.7282  3.0506 -0.8510
 1618SOL     H2 6917   1.000   5.879   2.468 -1.4023 -0.8848 -2.8785
 1618SOL    EPW 6918   1.027   5.798   2.492  0.0645  0.3865  0.0017
 1619SOL      O 6919   1.026   4.598   1.400  0.0901  0.2631  0.2822
 1619SOL     H1 6920   1.032   4.684   1.360  0.2354  0.2189  0.2077
 1619SOL     H2 6921   1.067   4.609   1.487 -0.4150  0.4106  0.4995
 1619SOL    EPW 6922   1.031   4.608   1.405  0.0517  0.2741  0.2975
 1620SOL      O 6923   2.598   5.264   3.043  0.4599  0.2067 -0.2653
 1620SOL     H1 6924   2.566   5.179   3.072 -1.0621  0.3145 -1.5816
 1620SOL     H2 6925   2.522   5.322   3.046  1.0496  1.0591 -1.1471
 1620SOL    EPW 6926   2.587   5.261   3.047  0.3605  0.3091 -0.4998
 1621SOL      O 6927   0.120   5.623   3.290  0.1102  0.3098 -0.2485
 1621SOL     H1 6928   0.170   5.645   3.369  0.9208 -0.0811 -0.6516
 1621SOL     H2 6929   0.159   5.676   3.221 -1.3324  1.4984 -0.1798
 1621SOL    EPW 6930   0.130   5.631   3.291  0.0428  0.3949 -0.2842
 1622SOL      O 6931   5.283   1.355   2.759 -0.3051 -0.0875 -0.1008
 1622SOL     H1 6932   5.217   1.354   2.690 -0.4272 -1.9243  0.0043
 1622SOL     H2 6933   5.236   1.386   2.837 -0.2882  1.5099 -0.7247
 1622SOL    EPW 6934   5.271   1.358   2.760 -0.3163 -0.1130 -0.1562
 1623SOL      O 6935   1.593   1.093   1.753 -0.7594  0.2192  0.3224
 1623SOL     H1 6936   1.580   1.187   1.769  0.8810  0.9516 -2.3685
 1623SOL     H2 6937   1.550   1.077   1.670 -0.7895 -1.3805  0.6376
 1623SOL    EPW 6938   1.587   1.102   1.746 -0.5876  0.1267  0.0689
 1624SOL      O 6939   3.800   3.180   0.834 -0.3196  0.6256 -0.0328
 1624SOL     H1 6940   3.758   3.135   0.761 -1.1598 -0.9843  1.4100
 1624SOL     H2 6941   3.743   3.256   0.851 -1.5412 -0.4241  0.6039
 1624SOL    EPW 6942   3.789   3.184   0.828 -0.5395  0.3419  0.1890
 1625SOL      O 6943   0.288   5.738   4.145 -0.6720  0.4749 -0.2596
 1625SOL     H1 6944   0.359   5.787   4.187 -0.5027  1.0214 -1.1836
 1625SOL     H2 6945   0.214   5.799   4.143 -0.2601  0.9276 -2.0174
 1625SOL    EPW 6946   0.287   5.750   4.150 -0.6100  0.5815 -0.5457
 1626SOL      O 6947   2.980   2.998   0.169 -0.5825  0.5469  0.0560
 1626SOL     H1 6948   2.981   3.000   0.073 -0.6816  1.5479  0.0637
 1626SOL     H2 6949   2.894   2.962   0.191 -1.2138  1.8123 -0.2448
 1626SOL    EPW 6950   2.971   2.995   0.161 -0.6605  0.7887  0.0247
 1627SOL      O 6951   1.889   0.986   1.400 -0.0458  0.3794  0.2330
 1627SOL     H1 6952   1.888   1.076   1.431  2.2843  0.3147  0.5930
 1627SOL     H2 6953   1.825   0.941   1.455  1.0676  1.1528  2.2205
 1627SOL    EPW 6954   1.882   0.991   1.409  0.3215  0.4550  0.4834
 1628SOL      O 6955   4.158   1.483   0.865 -0.0552  0.2610  0.2711
 1628SOL     H1 6956   4.214   1.412   0.897  0.7702  1.7652  2.3466
 1628SOL     H2 6957   4.109   1.445   0.793  1.7111 -1.8820  0.1365
 1628SOL    EPW 6958   4.159   1.472   0.861  0.2213  0.1929  0.4782
 1629SOL      O 6959   1.283   4.986   3.230 -0.1489  0.4479  0.1338
 1629SOL     H1 6960   1.284   5.065   3.284 -0.2133 -0.1187  0.9896
 1629SOL     H2 6961   1.282   4.914   3.294 -0.5825 -0.2355 -0.6298
 1629SOL    EPW 6962   1.283   4.987   3.243 -0.2020  0.3146  0.1437
 1630SOL      O 6963   4.712   2.602   0.426  0.4693 -0.5268  0.9851
 1630SOL     H1 6964   4.720   2.636   0.515 -0.4956 -0.2835  0.9851
 1630SOL     H2 6965   4.618   2.606   0.407  0.7320  0.0280 -0.2798
 1630SOL    EPW 6966   4.702   2.606   0.434  0.3944 -0.4417  0.8501
 1631SOL      O 6967   0.886   5.768   3.115 -0.3588  0.9867 -0.1614
 1631SOL     H1 6968   0.937   5.697   3.154 -2.4978  0.5165  1.8908
 1631SOL     H2 6969   0.907   5.764   3.022  1.7486 -0.4903  0.3377
 1631SOL    EPW 6970   0.894   5.760   3.110 -0.3622  0.7790  0.1108
 1632SOL      O 6971   0.522   5.084   2.374 -0.3766  0.1095  0.0048
 1632SOL     H1 6972   0.512   5.135   2.455 -0.3364 -0.0746  0.1264
 1632SOL     H2 6973   0.461   5.010   2.385 -0.9152  0.4839 -0.4529
 1632SOL    EPW 6974   0.514   5.081   2.384 -0.4298  0.1298 -0.0311
 1633SOL      O 6975   3.812   2.526   0.191 -0.2775  0.1754 -0.1084
 1633SOL     H1 6976   3.783   2.494   0.277  0.7853 -0.3321  0.0754
 1633SOL     H2 6977   3.824   2.620   0.203 -0.8902  0.2326  0.0796
 1633SOL    EPW 6978   3.810   2.532   0.202 -0.2295  0.1274 -0.0687
 1634SOL      O 6979   0.926   4.099   3.213 -0.6228  1.1175  0.4566
 1634SOL     H1 6980   1.010   4.134   3.184 -0.7776 -0.6663 -2.2986
 1634SOL     H2 6981   0.862   4.163   3.184 -0.3318  1.8777  1.4736
 1634SOL    EPW 6982   0.928   4.109   3.207 -0.6083  1.0083  0.2711
 1635SOL      O 6983   4.378   1.820   0.246 -0.2822  0.1101 -0.0375
 1635SOL     H1 6984   4.294   1.828   0.200 -0.2429 -0.9140 -0.2910
 1635SOL     H2 6985   4.440   1.865   0.188 -0.6972  1.0954  0.2756
 1635SOL    EPW 6986   4.376   1.826   0.235 -0.3223  0.1060 -0.0311
 1636SOL      O 6987   2.121   5.652   2.537  0.8583  0.3867  0.1537
 1636SOL     H1 6988   2.139   5.592   2.465  1.8975  0.3917  0.4078
 1636SOL     H2 6989   2.159   5.610   2.614  1.7432  1.4274  0.3076
 1636SOL    EPW 6990   2.127   5.641   2.538  1.0635  0.4983  0.1972
 1637SOL      O 6991   5.494   5.189   2.764  0.3050 -0.1768  0.3418
 1637SOL     H1 6992   5.493   5.144   2.680 -3.0211  2.0170 -0.8972
 1637SOL     H2 6993   5.453   5.274   2.746 -0.7371  0.2364  4.2147
 1637SOL    EPW 6994   5.489   5.194   2.753 -0.1610  0.1013  0.6228
 1638SOL      O 6995   1.106   3.353   3.358 -0.0990 -0.0076 -0.1340
 1638SOL     H1 6996   1.067   3.269   3.333  2.2141 -0.8162 -1.1883
 1638SOL     H2 6997   1.035   3.416   3.351 -1.9934 -1.9356  1.0676
 1638SOL    EPW 6998   1.094   3.350   3.355 -0.0543 -0.2995 -0.1183
 1639SOL      O 6999   1.561   1.355   1.841 -0.1346 -0.1356  0.2645
 1639SOL     H1 7000   1.637   1.412   1.854  1.2316 -2.1460  1.3662
 1639SOL     H2 7001   1.561   1.297   1.917 -0.4687 -2.7377 -1.6478
 1639SOL    EPW 7002   1.569   1.355   1.850 -0.0245 -0.6276  0.1781
 1640SOL      O 7003   0.943   4.741   3.972  0.0133  0.5968 -0.2344
 1640SOL     H1 7004   0.917   4.687   4.047 -0.2150 -1.0628 -1.4875
 1640SOL     H2 7005   0.934   4.683   3.896 -0.6182  2.5244 -1.6687
 1640SOL    EPW 7006   0.939   4.729   3.972 -0.0784  0.6254 -0.5211
 1641SOL      O 7007   3.504   0.950   3.875  0.2232  0.2810 -0.1515
 1641SOL     H1 7008   3.547   0.995   3.948  0.1202 -0.7359  0.5399
 1641SOL     H2 7009   3.565   0.880   3.851  0.7104  1.2031 -1.6874
 1641SOL    EPW 7010   3.515   0.948   3.880  0.2642  0.2709 -0.2416
 1642SOL      O 7011   4.534   1.132   0.881  0.0697  0.0122 -0.1852
 1642SOL     H1 7012   4.573   1.217   0.860 -0.5495  0.3965  0.1851
 1642SOL     H2 7013   4.605   1.081   0.918  0.4008  0.4395 -0.2294
 1642SOL    EPW 7014   4.545   1.136   0.883  0.0390  0.0988 -0.1504
 1643SOL      O 7015   2.574   0.848   0.933 -0.3824 -0.2680 -0.6365
 1643SOL     H1 7016   2.489   0.861   0.977  0.1894  1.0580  0.1117
 1643SOL     H2 7017   2.564   0.892   0.848 -0.4634 -0.1352 -0.5596
 1643SOL    EPW 7018   2.564   0.854   0.929 -0.3301 -0.1124 -0.5485
 1644SOL      O 7019   1.461   1.861   0.246 -0.0973  0.2519  0.6287
 1644SOL     H1 7020   1.533   1.884   0.189 -1.4806  0.3415 -1.1206
 1644SOL     H2 7021   1.383   1.898   0.204 -1.2349 -0.2625  2.1973
 1644SOL    EPW 7022   1.460   1.867   0.236 -0.3662  0.2066  0.6094
 1645SOL      O 7023   2.089   3.437   1.490 -0.4472  0.1521 -0.3826
 1645SOL     H1 7024   2.102   3.471   1.578  1.4720  0.7617 -0.8753
 1645SOL     H2 7025   2.069   3.344   1.502  0.3650  0.1133  0.6506
 1645SOL    EPW 7026   2.088   3.431   1.500 -0.1558  0.2130 -0.3250
 1646SOL      O 7027   3.683   2.940   3.904  0.0857  0.1983 -0.2730
 1646SOL     H1 7028   3.694   2.845   3.894  0.0833  0.3312 -1.7328
 1646SOL     H2 7029   3.588   2.953   3.903  0.1101  0.3309 -1.3840
 1646SOL    EPW 7030   3.674   2.931   3.903  0.0880  0.2266 -0.5472
 1647SOL      O 7031   3.712   0.157   0.841 -0.1513  0.7071 -0.0931
 1647SOL     H1 7032   3.786   0.187   0.894  0.4996  0.4909 -0.8744
 1647SOL     H2 7033   3.653   0.115   0.904  1.1088 -0.4810  0.3055
 1647SOL    EPW 7034   3.714   0.156   0.853  0.0526  0.5573 -0.1339
 1648SOL      O 7035   2.757   1.304   1.917 -0.4528 -0.6664  0.3648
 1648SOL     H1 7036   2.769   1.341   1.829 -1.5855 -0.0714  0.4516
 1648SOL     H2 7037   2.719   1.375   1.968 -3.2248 -2.0825  0.3787
 1648SOL    EPW 7038   2.754   1.316   1.913 -0.8693 -0.7540  0.3755
 1649SOL      O 7039   1.740   1.545   1.685 -0.2141  0.3844 -0.2495
 1649SOL     H1 7040   1.802   1.568   1.756 -0.3947 -2.1671  0.7701
 1649SOL     H2 7041   1.670   1.610   1.693  0.2422  0.7089  1.3155
 1649SOL    EPW 7042   1.739   1.555   1.694 -0.1847  0.1468  0.0262
 1650SOL      O 7043   4.353   2.364   1.837  0.2451 -0.2953 -0.6737
 1650SOL     H1 7044   4.430   2.391   1.888 -0.3057 -1.7676  0.9994
 1650SOL     H2 7045   4.280   2.374   1.898 -0.8564  0.7991 -2.1567
 1650SOL    EPW 7046   4.353   2.368   1.849  0.0688 -0.3356 -0.6534
 1651SOL      O 7047   2.166   1.195   0.852  0.1282  0.4460  0.1600
 1651SOL     H1 7048   2.159   1.101   0.869  0.8628  0.2020 -0.8548
 1651SOL     H2 7049   2.158   1.202   0.757  0.3755  1.3790  0.2101
 1651SOL    EPW 7050   2.164   1.185   0.844  0.2329  0.5195  0.0571
 1652SOL      O 7051   2.796   1.719   0.812 -1.0249 -0.5976 -0.2022
 1652SOL     H1 7052   2.867   1.704   0.874 -0.0469  0.0420 -1.1686
 1652SOL     H2 7053   2.717   1.717   0.866 -0.1064  1.1265  1.2634
 1652SOL    EPW 7054   2.795   1.717   0.825 -0.8226 -0.3455 -0.1489
 1653SOL      O 7055   1.868   1.505   1.210 -0.7151 -0.1078 -0.0504
 1653SOL     H1 7056   1.885   1.487   1.302  1.0980  1.0852 -0.1284
 1653SOL     H2 7057   1.834   1.595   1.208 -1.5001 -0.4057 -0.4767
 1653SOL    EPW 7058   1.866   1.513   1.219 -0.6054 -0.0123 -0.1042
 1654SOL      O 7059   2.348   1.731   1.401  0.5146  0.4076  0.4901
 1654SOL     H1 7060   2.389   1.645   1.404  2.5474  1.3852  1.2066
 1654SOL     H2 7061   2.368   1.764   1.314 -1.0861 -0.2102 -0.1356
 1654SOL    EPW 7062   2.354   1.725   1.392  0.5607  0.4460  0.4998
 1655SOL      O 7063   2.985   0.684   1.090 -0.1093  0.9718 -0.1486
 1655SOL     H1 7064   3.078   0.678   1.067  0.1128 -3.0156  1.3950
 1655SOL     H2 7065   2.940   0.698   1.007  1.5409 -1.5236 -1.5205
 1655SOL    EPW 7066   2.990   0.685   1.079  0.0904  0.2802 -0.1303
 1656SOL      O 7067   2.100   3.095   1.894 -0.6447 -0.4128  0.4581
 1656SOL     H1 7068   2.066   3.133   1.975 -1.6327 -1.9121  0.7734
 1656SOL     H2 7069   2.033   3.032   1.867 -0.2787 -0.0021 -1.4897
 1656SOL    EPW 7070   2.089   3.092   1.900 -0.7110 -0.5289  0.2839
 1657SOL      O 7071   5.743   4.807   3.945  0.5547 -0.3852 -0.5514
 1657SOL     H1 7072   5.823   4.773   3.904  0.7530  1.5323 -1.8102
 1657SOL     H2 7073   5.774   4.881   3.998 -0.1118 -0.9775  0.6846
 1657SOL    EPW 7074   5.755   4.811   3.947  0.5047 -0.2439 -0.5538
 1658SOL      O 7075   4.123   5.339   0.538  0.4225  0.6857 -0.3642
 1658SOL     H1 7076   4.173   5.264   0.509  2.8937  1.9016  0.6266
 1658SOL     H2 7077   4.073   5.366   0.460  0.1965 -1.3785 -0.9642
 1658SOL    EPW 7078   4.123   5.334   0.526  0.6620  0.5952 -0.3225
 1659SOL      O 7079   2.429   0.947   0.233 -0.5199  0.1386 -0.1599
 1659SOL     H1 7080   2.521   0.973   0.220  0.5834 -2.9722  0.9673
 1659SOL     H2 7081   2.379   1.022   0.201  2.3921  1.7640 -1.1739
 1659SOL    EPW 7082   2.434   0.958   0.228 -0.0916 -0.0199 -0.1478
 1660SOL      O 7083   1.829   1.406   0.781 -0.4198  0.0631 -0.1702
 1660SOL     H1 7084   1.763   1.471   0.757 -0.1789  0.5500  0.4538
 1660SOL     H2 7085   1.841   1.353   0.703 -0.7772  0.6432 -0.6179
 1660SOL    EPW 7086   1.823   1.407   0.770 -0.4322  0.1769 -0.1514
 1661SOL      O 7087   4.689   5.065   3.774 -0.5541 -0.4022 -1.0447
 1661SOL     H1 7088   4.734   4.982   3.757 -0.7777 -0.3627 -1.8410
 1661SOL     H2 7089   4.679   5.105   3.688 -1.3602 -0.0169 -0.7735
 1661SOL    EPW 7090   4.693   5.060   3.763 -0.6640 -0.3569 -1.1007
 1662SOL      O 7091   2.543   1.438   0.715  0.4844 -0.0895  0.4264
 1662SOL     H1 7092   2.487   1.361   0.724  0.0888 -0.0146 -1.2096
 1662SOL     H2 7093   2.620   1.419   0.769  2.0800 -3.2259 -2.7388
 1662SOL    EPW 7094   2.545   1.428   0.722  0.6124 -0.4161 -0.0858
 1663SOL      O 7095   4.837   0.876   0.229 -0.3003 -0.1646 -0.3544
 1663SOL     H1 7096   4.848   0.969   0.249  0.6133 -0.8043  2.3090
 1663SOL     H2 7097   4.925   0.846   0.206 -0.3120 -0.7177  0.3237
 1663SOL    EPW 7098   4.847   0.883   0.228 -0.2041 -0.2918  0.0021
 1664SOL      O 7099   2.495   1.951   0.597  0.5898  0.3805  0.2212
 1664SOL     H1 7100   2.469   1.870   0.642  1.1010  0.5788  0.8879
 1664SOL     H2 7101   2.503   2.016   0.667 -0.4866  1.1903 -0.3939
 1664SOL    EPW 7102   2.493   1.949   0.609  0.5295  0.4881  0.2267
 1665SOL      O 7103   3.221   1.403   2.020  0.4307  0.2025  0.1488
 1665SOL     H1 7104   3.135   1.372   2.050 -1.4130  2.1220 -2.8909
 1665SOL     H2 7105   3.269   1.422   2.100 -2.1015 -0.5903  1.9112
 1665SOL    EPW 7106   3.217   1.402   2.032 -0.0361  0.3227  0.0125
 1666SOL      O 7107   5.557   0.749   1.084 -0.2804 -0.1139 -0.1006
 1666SOL     H1 7108   5.605   0.745   1.001  0.7808 -2.6931  0.5685
 1666SOL     H2 7109   5.591   0.827   1.128  0.8070  0.0058 -1.1341
 1666SOL    EPW 7110   5.566   0.757   1.080 -0.0512 -0.3763 -0.1394
 1667SOL      O 7111   5.722   3.562   3.697  0.0848 -0.0728 -0.0015
 1667SOL     H1 7112   5.748   3.525   3.613 -1.7542  1.1355 -1.1375
 1667SOL     H2 7113   5.731   3.489   3.759  1.1596 -1.0577 -1.2934
 1667SOL    EPW 7114   5.725   3.550   3.695  0.0033 -0.0489 -0.2605
 1668SOL      O 7115   5.567   3.684   4.045 -0.4964 -0.4709 -0.4192
 1668SOL     H1 7116   5.510   3.616   4.010 -0.1382  0.0201 -1.9902
 1668SOL     H2 7117   5.632   3.636   4.096 -1.1869 -1.1764 -0.1947
 1668SOL    EPW 7118   5.568   3.672   4.047 -0.5319 -0.4938 -0.5629
 1669SOL      O 7119   1.431   3.687   2.762  0.5559  0.6818  0.7382
 1669SOL     H1 7120   1.480   3.737   2.828  1.8101  0.0409  0.3137
 1669SOL     H2 7121   1.498   3.657   2.701 -0.5785  1.1536 -0.7609
 1669SOL    EPW 7122   1.443   3.689   2.763  0.5687  0.6638  0.5330
 1670SOL      O 7123   2.489   2.383   1.516  0.0147 -0.1812 -0.1244
 1670SOL     H1 7124   2.397   2.409   1.512  0.5583  1.8253  0.1060
 1670SOL     H2 7125   2.506   2.343   1.431 -1.0025 -0.3196 -0.2671
 1670SOL    EPW 7126   2.481   2.382   1.507 -0.0358  0.0181 -0.1150
 1671SOL      O 7127   3.389   3.494   3.151  0.5056  0.1360  0.1591
 1671SOL     H1 7128   3.338   3.526   3.077  0.5492  0.5629  0.3123
 1671SOL     H2 7129   3.347   3.411   3.176 -0.1240  0.4929  0.2952
 1671SOL    EPW 7130   3.379   3.488   3.146  0.4431  0.2196  0.1900
 1672SOL      O 7131   5.779   3.369   3.863  0.0057  0.3303  0.0897
 1672SOL     H1 7132   5.851   3.385   3.924 -0.8460 -1.2110  1.5707
 1672SOL     H2 7133   5.706   3.343   3.920 -1.0328 -0.3968 -1.5460
 1672SOL    EPW 7134   5.779   3.368   3.876 -0.1959  0.0883  0.0732
 1673SOL      O 7135   5.608   4.176   3.665 -0.4543 -0.2532  0.3001
 1673SOL     H1 7136   5.519   4.193   3.634  0.4054  0.4511 -1.8373
 1673SOL     H2 7137   5.596   4.145   3.755 -3.0070 -2.8075 -0.8607
 1673SOL    EPW 7138   5.597   4.175   3.672 -0.6349 -0.4505 -0.0518
 1674SOL      O 7139   3.312   1.831   1.272  0.6716  0.0812  0.3110
 1674SOL     H1 7140   3.403   1.809   1.288  0.6459  0.7709  1.4614
 1674SOL     H2 7141   3.280   1.761   1.216  1.7816 -0.4167  0.2887
 1674SOL    EPW 7142   3.318   1.821   1.268  0.7873  0.1017  0.4313
 1675SOL      O 7143   3.313   0.266   0.583 -0.4063  0.6744  0.4824
 1675SOL     H1 7144   3.357   0.280   0.666  1.7890 -1.7438 -0.1975
 1675SOL     H2 7145   3.381   0.277   0.517 -1.3129 -0.7458 -0.7404
 1675SOL    EPW 7146   3.325   0.268   0.585 -0.2688  0.2649  0.2794
 1676SOL      O 7147   3.786   0.219   0.072 -0.5119  0.2418  0.6735
 1676SOL     H1 7148   3.811   0.244   0.161 -0.4825  0.9329  0.4763
 1676SOL     H2 7149   3.698   0.183   0.080 -1.1890  1.8790  0.7443
 1676SOL    EPW 7150   3.779   0.218   0.082 -0.5810  0.4901  0.6600
 1677SOL      O 7151   3.589   1.012   1.073 -0.2573 -0.4846  0.3159
 1677SOL     H1 7152   3.530   0.974   1.007  0.4759 -2.2028  0.6168
 1677SOL     H2 7153   3.677   0.999   1.036  0.0013  1.0321  0.3883
 1677SOL    EPW 7154   3.592   1.006   1.062 -0.1515 -0.5061  0.3557
 1678SOL      O 7155   4.226   1.312   2.116  0.1482  0.8757  0.8724
 1678SOL     H1 7156   4.146   1.358   2.143 -0.3503  0.2849  0.4106
 1678SOL     H2 7157   4.293   1.380   2.116 -1.0807  2.2078 -2.2410
 1678SOL    EPW 7158   4.224   1.324   2.119 -0.0360  0.9548  0.4910
 1679SOL      O 7159   2.888   0.958   0.930 -0.4108  0.0848  0.1243
 1679SOL     H1 7160   2.848   0.873   0.914 -0.1745 -0.5701  2.7915
 1679SOL     H2 7161   2.816   1.013   0.963 -0.0776  0.2262  0.6267
 1679SOL    EPW 7162   2.876   0.955   0.932 -0.3501  0.0300  0.4624
 1680SOL      O 7163   4.768   5.681   2.475  0.0091  0.7558  0.0992
 1680SOL     H1 7164   4.735   5.754   2.423  0.8441  0.8433 -0.3090
 1680SOL     H2 7165   4.696   5.617   2.475 -0.0767  0.8463 -0.9759
 1680SOL    EPW 7166   4.756   5.682   2.470  0.0890  0.7748 -0.0590
 1681SOL      O 7167   3.546   1.734   1.337  0.4739 -0.0354  0.4980
 1681SOL     H1 7168   3.602   1.718   1.261  1.4052 -1.7238  1.5145
 1681SOL     H2 7169   3.579   1.675   1.404 -1.2975  0.3458  1.7477
 1681SOL    EPW 7170   3.555   1.726   1.336  0.3843 -0.1749  0.7398
 1682SOL      O 7171   2.454   0.138   0.089  0.2230 -0.3458  0.2580
 1682SOL     H1 7172   2.404   0.216   0.063  1.0828  0.1164 -0.0427
 1682SOL     H2 7173   2.491   0.106   0.006  0.5388 -0.6006  0.4991
 1682SOL    EPW 7174   2.453   0.143   0.077  0.3484 -0.3237  0.2516
 1683SOL      O 7175   4.310   0.507   0.285 -0.2030  0.8149 -0.5196
 1683SOL     H1 7176   4.360   0.427   0.299  1.4981  1.9655  0.2464
 1683SOL     H2 7177   4.304   0.516   0.190 -1.1743 -0.6681 -0.6064
 1683SOL    EPW 7178   4.314   0.499   0.276 -0.1252  0.7795 -0.4471
 1684SOL      O 7179   1.466   3.764   3.802  0.4033 -0.6512  0.2298
 1684SOL     H1 7180   1.372   3.774   3.786  0.9003  2.9017 -1.1148
 1684SOL     H2 7181   1.503   3.745   3.716  0.7958 -3.4090  0.9891
 1684SOL    EPW 7182   1.460   3.763   3.791  0.4982 -0.5664  0.1674
 1685SOL      O 7183   2.842   0.780   0.106 -0.1932 -0.1944 -0.8255
 1685SOL     H1 7184   2.894   0.711   0.148  1.2335  0.5465 -1.3510
 1685SOL     H2 7185   2.865   0.774   0.013  0.0320  1.0784 -0.8589
 1685SOL    EPW 7186   2.850   0.772   0.100 -0.0170  0.0204 -0.8851
 1686SOL      O 7187   0.950   0.640   1.084 -0.2729  0.0780 -0.3589
 1686SOL     H1 7188   0.967   0.673   0.996 -2.0123  2.4972  0.1527
 1686SOL     H2 7189   1.022   0.580   1.101  2.2012  2.4149 -1.9908
 1686SOL    EPW 7190   0.959   0.637   1.076 -0.1945  0.5854 -0.4785
 1687SOL      O 7191   3.847   2.224   0.189 -0.1865 -0.3195  0.2453
 1687SOL     H1 7192   3.809   2.241   0.103 -1.1170  1.9565  1.0571
 1687SOL     H2 7193   3.940   2.242   0.178 -0.2229 -0.5103 -0.3967
 1687SOL    EPW 7194   3.853   2.228   0.179 -0.2897 -0.0971  0.2634
 1688SOL      O 7195   2.918   1.669   1.523 -0.0572  0.8339  0.5812
 1688SOL     H1 7196   2.897   1.697   1.434 -0.6479 -0.1102  0.4194
 1688SOL     H2 7197   2.910   1.750   1.575 -2.5525  0.8618  0.2491
 1688SOL    EPW 7198   2.915   1.681   1.519 -0.3864  0.7362  0.5285
 1689SOL      O 7199   4.835   3.966   3.593  0.1133  0.0853  0.3345
 1689SOL     H1 7200   4.910   3.914   3.621 -0.2188  0.0495  1.1767
 1689SOL     H2 7201   4.870   4.025   3.526  0.5947 -0.8707 -0.2659
 1689SOL    EPW 7202   4.846   3.967   3.589  0.1292 -0.0205  0.3603
 1690SOL      O 7203   3.207   1.400   0.715  0.1588  0.2827  0.1824
 1690SOL     H1 7204   3.162   1.322   0.682  2.2301 -1.8713  2.2305
 1690SOL     H2 7205   3.149   1.434   0.783 -0.3622  0.0434 -0.1375
 1690SOL    EPW 7206   3.196   1.395   0.719  0.3242  0.0273  0.3667
 1691SOL      O 7207   4.724   5.233   0.409  0.1658  0.6250 -0.5384
 1691SOL     H1 7208   4.772   5.162   0.453  0.3953 -0.4703 -2.4922
 1691SOL     H2 7209   4.635   5.226   0.443  0.4600  0.1502  0.1548
 1691SOL    EPW 7210   4.719   5.224   0.418  0.2216  0.4575 -0.6728
 1692SOL      O 7211   1.989   1.797   1.204 -0.0046 -0.7259  0.7001
 1692SOL     H1 7212   2.001   1.872   1.146 -1.2786  0.5718  2.0652
 1692SOL     H2 7213   2.054   1.733   1.174 -0.1772  0.1713 -1.6893
 1692SOL    EPW 7214   1.998   1.799   1.195 -0.1589 -0.4917  0.5908
 1693SOL      O 7215   3.928   3.907   4.147 -0.3933 -0.0510  0.5789
 1693SOL     H1 7216   3.856   3.865   4.195 -0.7906 -0.4011 -0.3145
 1693SOL     H2 7217   3.979   3.834   4.112 -0.1101  0.2071  0.4524
 1693SOL    EPW 7218   3.925   3.894   4.148 -0.4055 -0.0608  0.4701
 1694SOL      O 7219   0.932   1.170   1.323 -0.4034  0.2572  0.6595
 1694SOL     H1 7220   0.970   1.119   1.395 -0.4383 -1.9810 -0.8480
 1694SOL     H2 7221   0.869   1.228   1.365  0.7249  0.1146  2.5990
 1694SOL    EPW 7222   0.929   1.170   1.335 -0.2868  0.0032  0.7056
 1695SOL      O 7223   1.367   1.241   0.550 -0.9648 -0.3289 -0.4057
 1695SOL     H1 7224   1.412   1.178   0.607 -1.5072 -1.6268 -1.3938
 1695SOL     H2 7225   1.337   1.189   0.476 -0.1723  1.3539 -1.9466
 1695SOL    EPW 7226   1.369   1.229   0.549 -0.9381 -0.2878 -0.6755
 1696SOL      O 7227   2.522   1.441   0.442  0.3469 -0.1980  0.3657
 1696SOL     H1 7228   2.494   1.533   0.441 -2.1223 -0.8968 -0.4809
 1696SOL     H2 7229   2.534   1.420   0.534 -0.0557  0.7124  0.6288
 1696SOL    EPW 7230   2.520   1.449   0.451  0.0406 -0.1754  0.3035
 1697SOL      O 7231   1.601   1.861   1.457  0.2953  0.4696 -0.5225
 1697SOL     H1 7232   1.602   1.793   1.390 -0.4867 -0.1770  0.1087
 1697SOL     H2 7233   1.693   1.887   1.466  0.3462  0.9368 -2.2074
 1697SOL    EPW 7234   1.611   1.857   1.451  0.2173  0.4505 -0.6349
 1698SOL      O 7235   2.372   0.778   1.927 -0.4569  0.4960  0.0660
 1698SOL     H1 7236   2.392   0.685   1.940 -1.4710  0.2956  0.2078
 1698SOL     H2 7237   2.277   0.783   1.932 -0.3270  1.7953  1.6913
 1698SOL    EPW 7238   2.364   0.768   1.929 -0.5513  0.6132  0.2545
 1699SOL      O 7239   3.784   0.462   0.878  0.7304 -0.1342  0.1301
 1699SOL     H1 7240   3.748   0.461   0.966 -0.1616 -0.6087 -0.2348
 1699SOL     H2 7241   3.867   0.416   0.885  2.4140  2.9228  1.4451
 1699SOL    EPW 7242   3.789   0.457   0.888  0.8149  0.1413  0.2315
 1700SOL      O 7243   2.084   1.749   1.454 -0.3922  0.1462  0.5705
 1700SOL     H1 7244   2.177   1.732   1.439 -0.7770 -2.2399  0.6604
 1700SOL     H2 7245   2.052   1.779   1.369  0.3428  0.4807  0.4006
 1700SOL    EPW 7246   2.091   1.750   1.443 -0.3549 -0.0726  0.5620
 1701SOL      O 7247   3.874   1.552   1.591 -0.1457 -0.0567 -0.1157
 1701SOL     H1 7248   3.941   1.611   1.626  0.1709 -0.1964 -0.4856
 1701SOL     H2 7249   3.841   1.504   1.667  0.1277  0.0575  0.0726
 1701SOL    EPW 7250   3.877   1.553   1.603 -0.0828 -0.0594 -0.1351
 1702SOL      O 7251   3.520   0.040   2.682 -0.2023 -0.1767 -0.0837
 1702SOL     H1 7252   3.504  -0.050   2.712 -0.6919  0.0285  0.2725
 1702SOL     H2 7253   3.440   0.064   2.636 -0.5547  0.5129  0.8745
 1702SOL    EPW 7254   3.510   0.033   2.681 -0.2921 -0.0812  0.0565
 1703SOL      O 7255   0.921   2.874   3.619 -0.3805  0.3593  0.5344
 1703SOL     H1 7256   0.920   2.840   3.529  0.7509  0.8566  0.3226
 1703SOL     H2 7257   0.863   2.815   3.667  2.1916 -2.4674  0.3733
 1703SOL    EPW 7258   0.915   2.864   3.615  0.0146  0.1108  0.4946
 1704SOL      O 7259   0.519   0.134   0.501 -0.8292 -0.6585 -0.2568
 1704SOL     H1 7260   0.551   0.136   0.411 -0.8073  0.7637 -0.2182
 1704SOL     H2 7261   0.425   0.150   0.494 -0.3883  2.3301  0.1732
 1704SOL    EPW 7262   0.513   0.136   0.491 -0.7798 -0.1880 -0.2068
 1705SOL      O 7263   3.937   0.671   1.229 -0.0380 -0.4219 -0.0274
 1705SOL     H1 7264   3.846   0.680   1.258 -0.5656 -1.5142 -1.2769
 1705SOL     H2 7265   3.951   0.743   1.168  0.5518  0.8808  1.6009
 1705SOL    EPW 7266   3.929   0.680   1.226 -0.0313 -0.3994  0.0130
 1706SOL      O 7267   4.028   0.480   0.652  0.0015  0.6058  0.9104
 1706SOL     H1 7268   4.122   0.464   0.652  0.0386  0.8311  0.5221
 1706SOL     H2 7269   4.019   0.575   0.655 -0.2059  0.6414 -0.6335
 1706SOL    EPW 7270   4.037   0.488   0.652 -0.0166  0.6336  0.7043
 1707SOL      O 7271   0.608   0.866   0.438 -0.1730 -0.1492  0.3689
 1707SOL     H1 7272   0.694   0.838   0.468  0.3875  0.0101 -1.0826
 1707SOL     H2 7273   0.622   0.954   0.403 -0.7324 -0.5004 -0.7497
 1707SOL    EPW 7274   0.618   0.873   0.437 -0.1729 -0.1696  0.0947
 1708SOL      O 7275   4.221   5.743   0.278  0.2696 -0.1696  0.4401
 1708SOL     H1 7276   4.210   5.826   0.324 -1.1687  0.4386 -0.9082
 1708SOL     H2 7277   4.267   5.686   0.339 -1.0376  0.8022  2.3625
 1708SOL    EPW 7278   4.224   5.746   0.289 -0.0233 -0.0011  0.5013
 1709SOL      O 7279   3.396   0.071   0.958 -0.0693 -0.4971 -0.0801
 1709SOL     H1 7280   3.456   0.038   1.025  1.1774 -0.6262 -1.2414
 1709SOL     H2 7281   3.310   0.065   0.999  0.8355  1.1698  2.1868
 1709SOL    EPW 7282   3.393   0.067   0.970  0.1603 -0.3331  0.0378
 1710SOL      O 7283   5.767   4.420   3.832  0.4290 -0.4217 -0.3626
 1710SOL     H1 7284   5.723   4.383   3.908  1.2228 -1.2181 -0.2785
 1710SOL     H2 7285   5.699   4.469   3.786  0.4502  2.0077  2.0635
 1710SOL    EPW 7286   5.755   4.421   3.835  0.5159 -0.2475 -0.0948
 1711SOL      O 7287   4.898   0.708   0.582  0.0282 -0.1388 -0.3871
 1711SOL     H1 7288   4.913   0.651   0.657  1.5679  0.5852 -0.1239
 1711SOL     H2 7289   4.816   0.753   0.602 -0.7114 -1.5628 -0.1708
 1711SOL    EPW 7290   4.891   0.706   0.592  0.1135 -0.2135 -0.3359
 1712SOL      O 7291   2.968   5.833   2.641  0.3507  0.3082  0.0668
 1712SOL     H1 7292   3.035   5.786   2.691  0.1743 -1.0912 -0.9852
 1712SOL     H2 7293   2.885   5.794   2.669  0.1983  0.0188 -0.7830
 1712SOL    EPW 7294   2.966   5.824   2.650  0.3156  0.1280 -0.1361
 1713SOL      O 7295   1.673   0.511   0.254  0.6309 -0.3802 -0.0779
 1713SOL     H1 7296   1.751   0.563   0.274  1.2327 -0.6494 -1.5850
 1713SOL     H2 7297   1.611   0.574   0.219  0.8788 -0.4550 -0.6640
 1713SOL    EPW 7298   1.675   0.524   0.252  0.7215 -0.4169 -0.3012
 1714SOL      O 7299   4.611   4.512   3.292 -0.5034  0.4948  0.1245
 1714SOL     H1 7300   4.648   4.458   3.362 -0.0259  0.1429 -0.3949
 1714SOL     H2 7301   4.677   4.510   3.223 -0.9441  0.8969 -0.3111
 1714SOL    EPW 7302   4.622   4.506   3.292 -0.4995  0.5002  0.0226
 1715SOL      O 7303   2.980   1.158   1.314 -0.0354 -0.6954 -0.0105
 1715SOL     H1 7304   3.003   1.088   1.376 -0.2065 -1.1931 -0.5062
 1715SOL     H2 7305   2.884   1.152   1.306  0.0789 -1.2717 -1.0669
 1715SOL    EPW 7306   2.972   1.150   1.320 -0.0415 -0.8099 -0.1760
 1716SOL      O 7307   3.547   1.411   0.427 -0.0750  0.1461 -0.7010
 1716SOL     H1 7308   3.508   1.381   0.345 -2.1793 -2.0906  1.0556
 1716SOL     H2 7309   3.572   1.331   0.473  1.5531  1.3876  0.6475
 1716SOL    EPW 7310   3.546   1.399   0.424 -0.1258  0.0399 -0.3698
 1717SOL      O 7311   4.753   2.509   0.995 -0.5913  0.2016  0.1841
 1717SOL     H1 7312   4.734   2.450   0.922 -0.9176 -0.2770  0.6499
 1717SOL     H2 7313   4.838   2.547   0.974 -1.2969  1.1129 -1.1242
 1717SOL    EPW 7314   4.760   2.507   0.985 -0.7014  0.2477  0.0942
 1718SOL      O 7315   3.454   0.672   0.849  0.0638  0.4179  0.3515
 1718SOL     H1 7316   3.539   0.675   0.807 -0.0627  1.5007  0.1552
 1718SOL     H2 7317   3.432   0.764   0.866 -2.5187  0.4075 -2.5463
 1718SOL    EPW 7318   3.460   0.682   0.847 -0.2252  0.5323  0.0215
 1719SOL      O 7319   0.738   1.561   1.936  0.0891  0.5068  0.5348
 1719SOL     H1 7320   0.792   1.574   1.857  0.6109 -0.5175  0.7205
 1719SOL     H2 7321   0.725   1.650   1.970 -0.9110  1.0654 -1.2023
 1719SOL    EPW 7322   0.742   1.572   1.931  0.0381  0.4571  0.3693
 1720SOL      O 7323   1.758   1.642   2.482 -0.6585 -1.1265 -0.6548
 1720SOL     H1 7324   1.823   1.698   2.524 -1.3265 -0.6392 -0.2646
 1720SOL     H2 7325   1.756   1.563   2.537  0.5003 -1.6740 -1.3782
 1720SOL    EPW 7326   1.765   1.639   2.493 -0.6062 -1.1329 -0.6904
 1721SOL      O 7327   2.601   1.717   2.224  0.2036  0.3349 -0.2937
 1721SOL     H1 7328   2.584   1.806   2.195 -0.6036  0.2170 -0.2013
 1721SOL     H2 7329   2.690   1.719   2.259  0.4929  0.9025 -1.0662
 1721SOL    EPW 7330   2.609   1.726   2.225  0.1484  0.3829 -0.3662
 1722SOL      O 7331   2.836   0.177   0.009 -0.2811 -0.2379 -0.3179
 1722SOL     H1 7332   2.802   0.087   0.008 -0.6313 -0.1114 -0.0678
 1722SOL     H2 7333   2.881   0.187  -0.074 -0.2272 -0.6545 -0.3388
 1722SOL    EPW 7334   2.837   0.169   0.000 -0.3127 -0.2689 -0.2935
 1723SOL      O 7335   0.084   5.084   3.220 -0.4192 -0.5929  0.7588
 1723SOL     H1 7336   0.102   5.148   3.151  0.0819  0.1367  1.5588
 1723SOL     H2 7337   0.004   5.116   3.262  1.1687  0.9087  2.7629
 1723SOL    EPW 7338   0.077   5.094   3.217 -0.1963 -0.3549  1.0579
 1724SOL      O 7339   1.987   1.847   0.602 -0.2195  0.1146 -0.4305
 1724SOL     H1 7340   2.050   1.777   0.612 -0.7717  0.0035  2.8783
 1724SOL     H2 7341   1.903   1.803   0.589  0.0335  0.2353 -2.5730
 1724SOL    EPW 7342   1.984   1.835   0.602 -0.2514  0.1156 -0.3061
 1725SOL      O 7343   2.454   2.821   0.922  0.7312 -0.5422 -0.3656
 1725SOL     H1 7344   2.474   2.823   0.829 -0.8744 -1.1315 -0.7517
 1725SOL     H2 7345   2.536   2.794   0.964  1.8897  1.2110 -1.4508
 1725SOL    EPW 7346   2.465   2.818   0.917  0.6835 -0.4181 -0.5226
 1726SOL      O 7347   4.882   1.216   1.410 -0.3657  0.1060  0.2515
 1726SOL     H1 7348   4.905   1.124   1.400 -0.9328  0.2908 -3.5144
 1726SOL     H2 7349   4.797   1.215   1.455 -0.9279 -1.2740 -0.7917
 1726SOL    EPW 7350   4.875   1.206   1.414 -0.4862 -0.0215 -0.2615
 1727SOL      O 7351   1.109   5.711   3.433 -0.2992 -0.0846  0.0064
 1727SOL     H1 7352   1.135   5.800   3.459 -0.9959 -0.2019  1.1302
 1727SOL     H2 7353   1.053   5.681   3.504 -2.4571 -0.3417 -1.7649
 1727SOL    EPW 7354   1.106   5.718   3.443 -0.6037 -0.1245 -0.0626
 1728SOL      O 7355   3.012   0.659   0.307 -0.6127 -0.2110 -0.8606
 1728SOL     H1 7356   3.034   0.610   0.385 -1.5977  2.6592  1.3084
 1728SOL     H2 7357   3.064   0.618   0.237  2.6395 -0.9435  1.8499
 1728SOL    EPW 7358   3.020   0.650   0.308 -0.3709  0.0171 -0.3401
 1729SOL      O 7359   5.072   3.822   4.000 -0.3504  0.1753  0.6058
 1729SOL     H1 7360   5.135   3.767   4.047 -2.1962 -1.8082  0.9041
 1729SOL     H2 7361   5.001   3.761   3.977 -2.1635  2.3358  0.3395
 1729SOL    EPW 7362   5.071   3.809   4.002 -0.7407  0.1941  0.6093
 1730SOL      O 7363   2.766   1.294   0.391  0.6219  0.3150  0.6117
 1730SOL     H1 7364   2.808   1.259   0.313 -2.8238  0.0257 -1.2186
 1730SOL     H2 7365   2.716   1.370   0.360 -2.3142 -0.9141  2.1032
 1730SOL    EPW 7366   2.765   1.298   0.380 -0.0589  0.1531  0.5756
 1731SOL      O 7367   3.836   1.001   2.263  0.3884  0.0433 -0.4570
 1731SOL     H1 7368   3.778   0.991   2.339 -3.7520  1.0175 -3.3393
 1731SOL     H2 7369   3.833   0.916   2.220 -2.2873  1.2467 -2.8104
 1731SOL    EPW 7370   3.829   0.991   2.267 -0.3387  0.2756 -1.0155
 1732SOL      O 7371   2.712   1.620   0.131  0.7386 -0.4786 -0.2625
 1732SOL     H1 7372   2.735   1.712   0.115 -0.2227  0.2159  2.1828
 1732SOL     H2 7373   2.775   1.591   0.196 -1.9075 -0.1142  2.5480
 1732SOL    EPW 7374   2.721   1.627   0.136  0.3537 -0.3657  0.2982
 1733SOL      O 7375   2.158   0.152   0.863 -0.4815  0.2191  0.8372
 1733SOL     H1 7376   2.089   0.099   0.902 -1.0718  0.2764 -0.1099
 1733SOL     H2 7377   2.157   0.128   0.770  1.2509 -0.2916  0.9478
 1733SOL    EPW 7378   2.150   0.144   0.857 -0.3597  0.1708  0.7479
 1734SOL      O 7379   0.876   0.309   0.742 -0.3170 -0.0337  0.4007
 1734SOL     H1 7380   0.833   0.234   0.782 -1.6230  1.3770  1.6994
 1734SOL     H2 7381   0.807   0.376   0.736  0.6947  0.9064 -1.1684
 1734SOL    EPW 7382   0.864   0.308   0.746 -0.3484  0.2171  0.3718
 1735SOL      O 7383   4.830   1.612   0.811 -0.0913 -0.4557 -0.2455
 1735SOL     H1 7384   4.887   1.626   0.886  1.4460  2.5134 -1.8785
 1735SOL     H2 7385   4.758   1.674   0.823 -0.7986 -1.2362 -0.3389
 1735SOL    EPW 7386   4.828   1.620   0.820 -0.0027 -0.2222 -0.4296
 1736SOL      O 7387   4.329   1.678   1.588  0.0459  0.0029  0.1758
 1736SOL     H1 7388   4.375   1.705   1.509 -1.1984  0.9139 -0.2551
 1736SOL     H2 7389   4.357   1.742   1.654  0.8949 -0.6112  0.4222
 1736SOL    EPW 7390   4.337   1.688   1.587  0.0037  0.0346  0.1561
 1737SOL      O 7391   3.288   1.373   1.503 -0.3293 -0.0781  0.0418
 1737SOL     H1 7392   3.196   1.351   1.518 -0.0138 -3.7809 -2.6463
 1737SOL     H2 7393   3.288   1.417   1.418  0.2006  1.5862  0.8957
 1737SOL    EPW 7394   3.278   1.375   1.495 -0.2391 -0.2956 -0.1539
 1738SOL      O 7395   2.428   1.803   1.777 -0.6675  0.1404  0.3504
 1738SOL     H1 7396   2.337   1.779   1.760 -0.4199 -0.1626 -0.5503
 1738SOL     H2 7397   2.422   1.894   1.807 -1.2012  0.4055 -0.5156
 1738SOL    EPW 7398   2.418   1.810   1.778 -0.6980  0.1364  0.1619
 1739SOL      O 7399   5.277   1.514   1.750 -0.1002 -0.4165 -0.5606
 1739SOL     H1 7400   5.305   1.522   1.659  0.3052 -0.3576 -0.4281
 1739SOL     H2 7401   5.354   1.482   1.797  0.0553  0.7240 -0.0198
 1739SOL    EPW 7402   5.288   1.512   1.746 -0.0404 -0.2885 -0.4888
 1740SOL      O 7403   3.131   5.439   2.035  0.0454 -0.5091 -0.2161
 1740SOL     H1 7404   3.037   5.425   2.052  0.1457 -1.3910 -0.3694
 1740SOL     H2 7405   3.151   5.381   1.962  0.5394  0.2643 -0.6894
 1740SOL    EPW 7406   3.123   5.431   2.029  0.1088 -0.5207 -0.2829
 1741SOL      O 7407   2.957   0.988   2.143  0.3724 -0.6934  0.0213
 1741SOL     H1 7408   3.029   0.971   2.083  0.8076 -0.0239  0.3402
 1741SOL     H2 7409   2.956   1.083   2.153 -0.2916 -0.7274  0.3429
 1741SOL    EPW 7410   2.965   0.996   2.138  0.3480 -0.6256  0.0896
 1742SOL      O 7411   3.948   2.546   1.270 -0.1364 -0.9920 -0.1172
 1742SOL     H1 7412   4.027   2.553   1.323 -0.2536  0.6830 -0.1391
 1742SOL     H2 7413   3.964   2.470   1.214  2.0008  0.0631 -0.9933
 1742SOL    EPW 7414   3.958   2.539   1.270  0.0791 -0.7008 -0.2130
 1743SOL      O 7415   2.932   0.390   0.471  0.4116  0.5466  0.3453
 1743SOL     H1 7416   2.884   0.449   0.529 -0.0415  1.4641 -0.9236
 1743SOL     H2 7417   2.902   0.302   0.495 -0.3549  0.9738  0.9651
 1743SOL    EPW 7418   2.924   0.387   0.479  0.2815  0.6901  0.2760
 1744SOL      O 7419   2.754   1.990   0.847  0.3258  0.0439  0.2509
 1744SOL     H1 7420   2.821   2.013   0.911 -1.1679  0.1830  1.7654
 1744SOL     H2 7421   2.769   1.897   0.829 -0.8602 -0.6551  2.7461
 1744SOL    EPW 7422   2.763   1.982   0.852  0.0399 -0.0158  0.6786
 1745SOL      O 7423   2.346   0.209   1.980  0.0126  0.5392 -0.1400
 1745SOL     H1 7424   2.336   0.202   1.885 -0.0929  0.8342 -0.1499
 1745SOL     H2 7425   2.399   0.287   1.993  1.5697 -0.5097 -0.0466
 1745SOL    EPW 7426   2.351   0.217   1.971  0.1674  0.4587 -0.1311
 1746SOL      O 7427   1.799   2.074   1.381 -0.3166 -0.3787  0.4848
 1746SOL     H1 7428   1.747   2.153   1.397 -1.4141 -1.1947  1.0679
 1746SOL     H2 7429   1.870   2.103   1.323 -0.7168  1.0182  0.6667
 1746SOL    EPW 7430   1.801   2.086   1.376 -0.4763 -0.3167  0.5664
 1747SOL      O 7431   3.092   5.228   0.325  0.1640 -0.0201 -0.3582
 1747SOL     H1 7432   3.186   5.236   0.307 -0.1506  0.9909 -1.5994
 1747SOL     H2 7433   3.051   5.291   0.266 -1.3661 -1.1119 -0.4965
 1747SOL    EPW 7434   3.098   5.235   0.317 -0.0328 -0.0287 -0.5054
 1748SOL      O 7435   5.026   2.021   1.965 -0.6225  0.4397 -0.4398
 1748SOL     H1 7436   5.031   2.050   1.874 -2.0659  0.8869 -0.3762
 1748SOL     H2 7437   5.089   2.076   2.011 -0.4643  0.7507 -1.0256
 1748SOL    EPW 7438   5.033   2.030   1.961 -0.7596  0.5206 -0.4955
 1749SOL      O 7439   0.805   2.203   3.676 -0.7156  0.2195 -0.1411
 1749SOL     H1 7440   0.758   2.172   3.754 -0.7562 -0.5483 -0.4703
 1749SOL     H2 7441   0.879   2.143   3.667 -0.5034  0.5347 -0.4814
 1749SOL    EPW 7442   0.808   2.193   3.683 -0.6973  0.1712 -0.2125
 1750SOL      O 7443   1.689   0.339   1.550 -0.0032 -0.2597  0.3128
 1750SOL     H1 7444   1.652   0.254   1.571 -1.5215  0.3599  0.2405
 1750SOL     H2 7445   1.614   0.391   1.519  0.5669  1.6130  1.9223
 1750SOL    EPW 7446   1.677   0.336   1.549 -0.1044  0.0062  0.4768
 1751SOL      O 7447   3.939   2.102   1.914 -0.1430 -0.5324  0.0796
 1751SOL     H1 7448   3.922   2.007   1.916  1.7177 -1.0752 -4.2498
 1751SOL     H2 7449   4.020   2.112   1.963  0.6562 -1.4763 -1.0191
 1751SOL    EPW 7450   3.946   2.093   1.919  0.1408 -0.6910 -0.4995
 1752SOL      O 7451   2.262   1.306   0.370  0.2067 -0.1515 -0.4013
 1752SOL     H1 7452   2.355   1.321   0.390 -0.3485  2.4682  0.5449
 1752SOL     H2 7453   2.226   1.395   0.362 -2.3793 -1.1344  0.0618
 1752SOL    EPW 7454   2.268   1.317   0.372 -0.1284  0.0231 -0.2510
 1753SOL      O 7455   2.611   2.158   1.362 -0.5890  0.1097 -0.3622
 1753SOL     H1 7456   2.553   2.120   1.297  1.0895 -1.6019 -0.9274
 1753SOL     H2 7457   2.690   2.103   1.358  0.2126  1.0455  1.8783
 1753SOL    EPW 7458   2.614   2.148   1.355 -0.3244  0.0269 -0.1835
 1754SOL      O 7459   4.659   0.286   2.035 -0.1226  0.5086 -0.1976
 1754SOL     H1 7460   4.690   0.198   2.057  1.0681  0.8853 -0.3147
 1754SOL     H2 7461   4.604   0.312   2.109  1.5937  0.6677  1.0699
 1754SOL    EPW 7462   4.656   0.280   2.045  0.1875  0.5658 -0.0749
 1755SOL      O 7463   3.879   4.899   2.993  0.5359  0.1774  0.2267
 1755SOL     H1 7464   3.866   4.855   2.909  0.6846 -0.7911  0.6970
 1755SOL     H2 7465   3.833   4.843   3.056 -1.2868  1.9434  0.5175
 1755SOL    EPW 7466   3.873   4.888   2.991  0.3573  0.2625  0.3079
 1756SOL      O 7467   1.139   1.306   1.219 -0.0856 -0.2393 -0.0514
 1756SOL     H1 7468   1.200   1.237   1.195 -1.6568 -1.7768  0.2573
 1756SOL     H2 7469   1.066   1.260   1.261 -0.5000  1.7552  1.4818
 1756SOL    EPW 7470   1.137   1.294   1.221 -0.2974 -0.1906  0.1451
 1757SOL      O 7471   1.194   1.309   0.755 -0.2606  0.0560 -0.1576
 1757SOL     H1 7472   1.251   1.309   0.679 -1.9360  2.0655 -1.4700
 1757SOL     H2 7473   1.253   1.323   0.829  1.1113  0.4762 -1.3175
 1757SOL    EPW 7474   1.207   1.311   0.755 -0.2929  0.3152 -0.4214
 1758SOL      O 7475   2.710   0.710   0.402  0.4738  0.2935 -0.1954
 1758SOL     H1 7476   2.723   0.803   0.421  1.2908  0.1373  0.0088
 1758SOL     H2 7477   2.790   0.683   0.357 -0.5653  0.1486 -2.0174
 1758SOL    EPW 7478   2.720   0.717   0.399  0.4501  0.2614 -0.3679
 1759SOL      O 7479   4.144   5.306   0.944 -0.2543  0.5691  0.5489
 1759SOL     H1 7480   4.083   5.287   0.873 -0.4732 -2.4547  1.4547
 1759SOL     H2 7481   4.217   5.352   0.902 -1.4924  1.0099 -1.1658
 1759SOL    EPW 7482   4.145   5.309   0.932 -0.4097  0.2936  0.4626
 1760SOL      O 7483   2.612   0.701   1.654 -0.0984  0.1654  0.1306
 1760SOL     H1 7484   2.589   0.608   1.647 -1.1883  0.3678  0.9157
 1760SOL     H2 7485   2.564   0.743   1.582 -0.1351  0.2244  0.1897
 1760SOL    EPW 7486   2.605   0.696   1.645 -0.2186  0.1933  0.2207
 1761SOL      O 7487   2.256   2.921   0.096 -0.0550  0.0334 -0.1318
 1761SOL     H1 7488   2.290   2.874   0.020 -2.5353  0.4436 -1.5395
 1761SOL     H2 7489   2.251   2.854   0.164  1.0521 -0.6144 -0.6710
 1761SOL    EPW 7490   2.259   2.909   0.095 -0.2015  0.0081 -0.3395
 1762SOL      O 7491   2.733   1.061   1.362 -0.0287  0.4383  0.3550
 1762SOL     H1 7492   2.783   0.987   1.328  0.0196  2.2671 -3.7679
 1762SOL     H2 7493   2.652   1.060   1.311 -0.5804  2.4500  1.1736
 1762SOL    EPW 7494   2.730   1.053   1.353 -0.0824  0.8480  0.0025
 1763SOL      O 7495   4.931   5.616   1.965  0.3623 -0.1231  0.1582
 1763SOL     H1 7496   4.943   5.696   1.915  0.0426 -0.0723  0.1682
 1763SOL     H2 7497   4.982   5.550   1.916 -1.4110 -0.4906 -1.2394
 1763SOL    EPW 7498   4.938   5.617   1.954  0.1390 -0.1569  0.0102
 1764SOL      O 7499   2.824   1.609   0.581 -0.2708 -0.3503 -0.1196
 1764SOL     H1 7500   2.808   1.649   0.666 -2.1879  0.5870 -0.8825
 1764SOL     H2 7501   2.916   1.625   0.563 -0.3866  1.3690  0.8051
 1764SOL    EPW 7502   2.832   1.615   0.588 -0.4877 -0.0669 -0.1023
 1765SOL      O 7503   4.121   1.257   1.513  0.4880  0.2603 -0.2540
 1765SOL     H1 7504   4.033   1.279   1.485  0.4598  1.1853  0.5388
 1765SOL     H2 7505   4.174   1.261   1.433  0.0486  0.9575 -0.5066
 1765SOL    EPW 7506   4.118   1.259   1.502  0.4381  0.4334 -0.1963
 1766SOL      O 7507   4.550   5.830   2.273 -0.2979 -0.0373  0.3246
 1766SOL     H1 7508   4.512   5.753   2.229  1.0540 -1.1203  1.0317
 1766SOL     H2 7509   4.611   5.866   2.209 -0.2882 -0.0544  0.3249
 1766SOL    EPW 7510   4.552   5.826   2.262 -0.1527 -0.1547  0.4000
 1767SOL      O 7511   4.951   5.767   1.318  0.0617 -0.2427  0.4347
 1767SOL     H1 7512   4.941   5.841   1.258 -0.2432 -1.3616 -0.9272
 1767SOL     H2 7513   4.949   5.806   1.405  0.6751  1.4276 -0.2919
 1767SOL    EPW 7514   4.949   5.779   1.321  0.0946 -0.1839  0.2119
 1768SOL      O 7515   0.256   5.228   3.038 -0.2189 -0.0810  0.1089
 1768SOL     H1 7516   0.338   5.273   3.019 -0.8799  1.3028  0.4386
 1768SOL     H2 7517   0.190   5.297   3.038 -1.1868 -0.9693  1.1674
 1768SOL    EPW 7518   0.258   5.240   3.036 -0.3926 -0.0281  0.2570
 1769SOL      O 7519   3.071   1.971   0.580  0.4033  0.1438  0.0786
 1769SOL     H1 7520   3.130   2.016   0.520  0.1387 -0.5634 -0.7068
 1769SOL     H2 7521   2.996   2.030   0.587  1.6253  1.5640  1.9135
 1769SOL    EPW 7522   3.070   1.982   0.575  0.5055  0.2199  0.1906
 1770SOL      O 7523   2.672   1.446   2.152 -0.0002  0.2338 -0.3147
 1770SOL     H1 7524   2.686   1.534   2.185  1.8362 -0.0789 -0.2015
 1770SOL     H2 7525   2.654   1.393   2.230 -2.1709  0.6736 -0.4801
 1770SOL    EPW 7526   2.671   1.449   2.164 -0.0359  0.2474 -0.3203
 1771SOL      O 7527   5.809   5.032   4.085 -0.1599  0.4834 -0.1959
 1771SOL     H1 7528   5.881   5.069   4.136  0.2195 -1.4126  0.6789
 1771SOL     H2 7529   5.781   5.104   4.028  2.7003  1.1156 -0.8669
 1771SOL    EPW 7530   5.814   5.044   4.084  0.1857  0.3486 -0.1741
 1772SOL      O 7531   4.339   1.653   2.014 -0.2821  0.8673 -0.1490
 1772SOL     H1 7532   4.309   1.744   2.016  0.7501  1.2399 -1.1373
 1772SOL     H2 7533   4.344   1.627   2.106 -0.1287  1.9643  0.1547
 1772SOL    EPW 7534   4.336   1.660   2.024 -0.1556  1.0241 -0.2220
 1773SOL      O 7535   1.679   1.805   0.983  0.2046 -0.3093 -0.0937
 1773SOL     H1 7536   1.697   1.755   1.062  2.3858 -0.1051 -0.4304
 1773SOL     H2 7537   1.679   1.740   0.912 -2.4906 -0.6091  0.1049
 1773SOL    EPW 7538   1.681   1.793   0.984  0.1498 -0.3195 -0.1084
 1774SOL      O 7539   1.992   0.426   0.165 -0.0654  0.7598  0.1362
 1774SOL     H1 7540   1.968   0.490   0.232 -1.5723 -2.9701  3.3053
 1774SOL     H2 7541   2.072   0.386   0.197 -0.1877 -0.3037 -0.8486
 1774SOL    EPW 7542   1.998   0.429   0.175 -0.2392  0.2484  0.3692
 1775SOL      O 7543   0.069   4.513   4.141 -0.0531 -0.1899  0.1944
 1775SOL     H1 7544   0.044   4.430   4.101 -1.4344  0.2165  0.1982
 1775SOL     H2 7545   0.054   4.500   4.235  0.3485 -0.1494  0.2650
 1775SOL    EPW 7546   0.065   4.503   4.147 -0.1576 -0.1422  0.2024
 1776SOL      O 7547   3.716   2.227   1.511  0.0100 -0.5721 -0.1089
 1776SOL     H1 7548   3.708   2.319   1.485  0.0822  0.0642  2.0044
 1776SOL     H2 7549   3.806   2.218   1.543 -0.0531 -1.3291 -0.1191
 1776SOL    EPW 7550   3.724   2.236   1.512  0.0110 -0.5850  0.1154
 1777SOL      O 7551   4.929   1.646   4.045 -0.4765 -0.1326 -0.2988
 1777SOL     H1 7552   4.968   1.703   3.978 -1.9615  0.3593 -0.7738
 1777SOL     H2 7553   4.930   1.700   4.124 -1.0734  0.2489 -0.5420
 1777SOL    EPW 7554   4.933   1.658   4.046 -0.6986 -0.0394 -0.3754
 1778SOL      O 7555   2.858   1.663   1.252  0.2235 -0.1530 -0.2986
 1778SOL     H1 7556   2.904   1.703   1.178  0.5114  0.1435  0.0422
 1778SOL     H2 7557   2.796   1.603   1.211  1.5467 -1.2565 -0.7341
 1778SOL    EPW 7558   2.856   1.661   1.239  0.3954 -0.2391 -0.3087
 1779SOL      O 7559   0.683   1.084   0.294 -0.4113  0.0099  0.3843
 1779SOL     H1 7560   0.714   1.173   0.313  1.9362 -1.0462  1.7679
 1779SOL     H2 7561   0.636   1.093   0.211  1.4849  2.2048 -0.5483
 1779SOL    EPW 7562   0.681   1.095   0.287  0.0414  0.1314  0.4324
 1780SOL      O 7563   0.852   4.033   4.096  0.2092  0.2905 -0.1018
 1780SOL     H1 7564   0.875   4.000   4.009 -0.7670  1.5152 -0.8443
 1780SOL     H2 7565   0.898   4.117   4.103  1.3466 -0.3999  1.1124
 1780SOL    EPW 7566   0.860   4.039   4.088  0.2264  0.3475 -0.0514
 1781SOL      O 7567   2.720   1.854   0.468 -0.8475  0.4185 -0.0126
 1781SOL     H1 7568   2.733   1.766   0.502  0.8487  1.2699  1.6136
 1781SOL     H2 7569   2.632   1.878   0.498 -0.1464  0.4014  2.1357
 1781SOL    EPW 7570   2.712   1.847   0.475 -0.5917  0.5075  0.3900
 1782SOL      O 7571   1.583   1.326   1.487 -0.0802 -0.3666 -0.5176
 1782SOL     H1 7572   1.565   1.416   1.515 -0.9089 -0.8358  0.5185
 1782SOL     H2 7573   1.588   1.331   1.392  1.2627  1.0155 -0.3898
 1782SOL    EPW 7574   1.582   1.336   1.480 -0.0253 -0.2692 -0.3935
 1783SOL      O 7575   4.037   0.877   1.086  0.4336 -0.1750 -0.5624
 1783SOL     H1 7576   4.009   0.968   1.095 -0.2329 -0.4562  0.2708
 1783SOL     H2 7577   4.027   0.858   0.992 -0.0352  0.4060 -0.6318
 1783SOL    EPW 7578   4.033   0.885   1.077  0.3125 -0.1430 -0.4809
 1784SOL      O 7579   0.412   3.929   3.540  0.2830  0.0290  0.2620
 1784SOL     H1 7580   0.350   3.862   3.512 -0.9403  0.8261  0.9946
 1784SOL     H2 7581   0.409   3.994   3.470  0.9140 -0.3273 -0.0966
 1784SOL    EPW 7582   0.405   3.929   3.529  0.2198  0.0760  0.3019
 1785SOL      O 7583   1.810   2.029   2.572 -0.0190  0.5703 -0.7425
 1785SOL     H1 7584   1.743   1.994   2.513 -0.0745  2.0478 -1.5961
 1785SOL     H2 7585   1.881   1.966   2.568 -2.2839 -2.2907  2.0755
 1785SOL    EPW 7586   1.811   2.019   2.565 -0.2665  0.4227 -0.5329
 1786SOL      O 7587   1.204   1.132   1.726 -0.2950 -0.3635 -0.2660
 1786SOL     H1 7588   1.211   1.221   1.692 -0.2286 -1.1814 -2.4704
 1786SOL     H2 7589   1.275   1.084   1.684  0.1367 -1.2953  1.4801
 1786SOL    EPW 7590   1.212   1.137   1.718 -0.2419 -0.5502 -0.3149
 1787SOL      O 7591   3.943   1.240   1.929 -0.3430  0.1724  0.2326
 1787SOL     H1 7592   3.915   1.311   1.871  0.2912 -0.1142 -0.4361
 1787SOL     H2 7593   3.867   1.222   1.984 -0.9509  0.4589 -0.5053
 1787SOL    EPW 7594   3.932   1.246   1.928 -0.3402  0.1724  0.0825
 1788SOL      O 7595   2.925   0.988   2.634  0.3797 -0.3976 -0.0383
 1788SOL     H1 7596   2.907   0.904   2.594  0.2083 -0.5431  0.3391
 1788SOL     H2 7597   2.907   1.052   2.565 -0.4741 -0.6100 -0.0181
 1788SOL    EPW 7598   2.922   0.986   2.623  0.2703 -0.4358  0.0041
 1789SOL      O 7599   3.396   1.244   0.869 -0.3292  0.0642 -0.0110
 1789SOL     H1 7600   3.327   1.277   0.812  0.5258 -0.6143 -1.4542
 1789SOL     H2 7601   3.363   1.260   0.958 -1.0709  2.3410 -0.6787
 1789SOL    EPW 7602   3.385   1.249   0.872 -0.3171  0.2347 -0.2362
 1790SOL      O 7603   1.813   3.193   1.437 -0.1295  0.2296  0.3433
 1790SOL     H1 7604   1.862   3.216   1.515  1.3321 -2.9567  0.4060
 1790SOL     H2 7605   1.721   3.193   1.465  0.0491  2.7169  1.0765
 1790SOL    EPW 7606   1.808   3.196   1.448  0.0454  0.1550  0.4282
 1791SOL      O 7607   2.600   4.087   0.131 -0.5453  0.2511  0.2293
 1791SOL     H1 7608   2.576   4.180   0.130  1.6912  0.8827  0.7742
 1791SOL     H2 7609   2.624   4.069   0.222  2.6233  0.1881 -0.5413
 1791SOL    EPW 7610   2.600   4.095   0.140  0.0313  0.3118  0.2052
 1792SOL      O 7611   0.295   3.266   3.612 -0.4362  0.2240  0.3341
 1792SOL     H1 7612   0.213   3.218   3.597 -0.7558  0.3669  1.5214
 1792SOL     H2 7613   0.301   3.271   3.708  0.9163  0.2958  0.2480
 1792SOL    EPW 7614   0.287   3.261   3.621 -0.3260  0.2469  0.4516
 1793SOL      O 7615   1.381   5.356   1.299 -0.0046 -0.1242  0.4572
 1793SOL     H1 7616   1.395   5.280   1.243  1.2073 -1.5697  2.6400
 1793SOL     H2 7617   1.469   5.393   1.309 -0.6884  2.0679 -1.2129
 1793SOL    EPW 7618   1.392   5.352   1.294  0.0518 -0.0445  0.5119
 1794SOL      O 7619   1.255   1.576   0.618  0.3355 -0.4430 -0.2820
 1794SOL     H1 7620   1.169   1.535   0.621  0.3413 -0.7527 -2.9823
 1794SOL     H2 7621   1.312   1.508   0.581  1.6631 -0.1172  1.1248
 1794SOL    EPW 7622   1.252   1.564   0.614  0.4777 -0.4413 -0.4200
 1795SOL      O 7623   0.565   4.863   3.235  0.1281 -0.0470  0.5528
 1795SOL     H1 7624   0.520   4.911   3.165 -1.9476 -1.1657  1.0727
 1795SOL     H2 7625   0.657   4.860   3.207 -0.2720  1.4450 -1.0212
 1795SOL    EPW 7626   0.570   4.868   3.224 -0.1360 -0.0072  0.4404
 1796SOL      O 7627   3.585   1.164   0.554 -0.1682 -0.3834 -0.0416
 1796SOL     H1 7628   3.619   1.168   0.643  0.3161 -1.6666 -0.1613
 1796SOL     H2 7629   3.651   1.115   0.505  0.2273  1.4697 -1.4260
 1796SOL    EPW 7630   3.595   1.159   0.558 -0.0743 -0.3226 -0.2020
 1797SOL      O 7631   3.167   0.034   0.533  0.2296 -0.5448 -0.2674
 1797SOL     H1 7632   3.233  -0.034   0.524 -0.7329 -1.8449  2.1998
 1797SOL     H2 7633   3.217   0.114   0.551  1.1415 -1.4763  1.3375
 1797SOL    EPW 7634   3.179   0.036   0.534  0.2242 -0.7828  0.1670
 1798SOL      O 7635   2.713   0.174   1.237  0.0033 -0.2767  0.2173
 1798SOL     H1 7636   2.674   0.248   1.190 -2.0980 -1.2869  0.3124
 1798SOL     H2 7637   2.725   0.106   1.170 -0.0505 -0.6006  0.5328
 1798SOL    EPW 7638   2.710   0.175   1.225 -0.2266 -0.4190  0.2611
 1799SOL      O 7639   2.789   1.626   2.725  0.1973  0.5951 -0.1048
 1799SOL     H1 7640   2.735   1.550   2.703  0.9919  0.1264 -0.4571
 1799SOL     H2 7641   2.846   1.637   2.649 -0.6638  2.2232 -0.5378
 1799SOL    EPW 7642   2.789   1.619   2.715  0.1902  0.7188 -0.1885
 1800SOL      O 7643   2.593   4.274   3.150  0.5870 -0.1667  0.4759
 1800SOL     H1 7644   2.507   4.236   3.137 -0.1018  0.6010  2.5989
 1800SOL     H2 7645   2.618   4.308   3.064 -1.7564  0.6842  0.1112
 1800SOL    EPW 7646   2.587   4.273   3.140  0.2636  0.0060  0.6635
 1801SOL      O 7647   2.442   5.770   1.893  0.3283  0.7213 -0.4321
 1801SOL     H1 7648   2.430   5.764   1.988 -1.4528  3.2263 -0.4445
 1801SOL     H2 7649   2.532   5.740   1.878 -0.6450 -3.6035  1.5372
 1801SOL    EPW 7650   2.451   5.766   1.902  0.0345  0.5271 -0.2233
 1802SOL      O 7651   2.191   0.375   1.042 -0.1024 -0.5209 -1.0527
 1802SOL     H1 7652   2.259   0.350   1.104 -1.3592  0.9867  0.9893
 1802SOL     H2 7653   2.173   0.296   0.992  2.7752 -1.0865 -1.3137
 1802SOL    EPW 7654   2.196   0.364   1.043  0.0705 -0.4204 -0.8627
 1803SOL      O 7655   5.038   4.495   3.891  0.2212  0.4983  0.3938
 1803SOL     H1 7656   5.011   4.423   3.834 -0.7286  1.4280 -0.3625
 1803SOL     H2 7657   5.125   4.470   3.922  0.3447 -0.4689 -0.6861
 1803SOL    EPW 7658   5.044   4.484   3.888  0.1331  0.4943  0.1979
 1804SOL      O 7659   3.862   0.200   0.344  0.1900 -0.1020 -0.5899
 1804SOL     H1 7660   3.870   0.245   0.429  0.4707 -2.1596  0.5068
 1804SOL     H2 7661   3.950   0.206   0.306  0.8347 -1.6111  0.5680
 1804SOL    EPW 7662   3.872   0.205   0.349  0.2887 -0.4824 -0.3494
 1805SOL      O 7663   0.966   0.441   0.156  0.1188 -0.9743  0.7171
 1805SOL     H1 7664   0.915   0.377   0.206 -0.3505 -0.1885  1.2429
 1805SOL     H2 7665   0.965   0.520   0.209 -0.5281 -0.0820 -0.5882
 1805SOL    EPW 7666   0.960   0.442   0.167 -0.0003 -0.7953  0.6340
 1806SOL      O 7667   2.816   2.062   1.730 -0.4160  0.3933 -0.1097
 1806SOL     H1 7668   2.723   2.067   1.710 -0.5752 -0.1055  0.4874
 1806SOL     H2 7669   2.820   2.038   1.823  0.3069  3.6865  0.7866
 1806SOL    EPW 7670   2.807   2.060   1.738 -0.3558  0.6914  0.0496
 1807SOL      O 7671   2.444   1.312   2.426 -0.2428  0.0218 -0.5867
 1807SOL     H1 7672   2.400   1.342   2.346  0.1444 -1.2234 -1.2816
 1807SOL     H2 7673   2.533   1.291   2.397 -0.1463 -0.5734  0.1496
 1807SOL    EPW 7674   2.449   1.313   2.414 -0.1912 -0.1745 -0.5823
 1808SOL      O 7675   2.652   1.129   0.973  0.8527  0.7926  0.4984
 1808SOL     H1 7676   2.603   1.071   1.032  1.0514  1.6919  1.5700
 1808SOL     H2 7677   2.591   1.148   0.902 -0.3813  1.9121  1.8264
 1808SOL    EPW 7678   2.640   1.125   0.972  0.7422  1.0080  0.7544
 1809SOL      O 7679   0.895   5.567   0.268  0.1066  0.2282 -0.5583
 1809SOL     H1 7680   0.811   5.603   0.295 -1.4548 -2.4994 -1.5543
 1809SOL     H2 7681   0.927   5.627   0.201 -1.7011  0.5957 -1.1151
 1809SOL    EPW 7682   0.890   5.577   0.264 -0.2528 -0.0235 -0.7240
 1810SOL      O 7683   3.610   1.523   1.140 -0.1409 -0.4069 -0.3090
 1810SOL     H1 7684   3.572   1.439   1.165 -1.5973  0.6561  1.0633
 1810SOL     H2 7685   3.682   1.536   1.201  3.2038 -2.8676 -3.4894
 1810SOL    EPW 7686   3.614   1.515   1.149  0.0605 -0.5560 -0.5019
 1811SOL      O 7687   3.046   1.106   0.369 -0.1166 -0.2836 -0.1449
 1811SOL     H1 7688   3.126   1.063   0.338  0.0130  1.4280 -2.2666
 1811SOL     H2 7689   2.989   1.110   0.291 -1.2473  0.8099  0.7206
 1811SOL    EPW 7690   3.048   1.102   0.357 -0.2234  0.0156 -0.2789
 1812SOL      O 7691   3.652   4.081   3.461  0.0425 -0.3729  0.2870
 1812SOL     H1 7692   3.589   4.033   3.514 -0.2419  0.5481  0.7990
 1812SOL     H2 7693   3.642   4.173   3.489  1.3578 -0.1723  0.1420
 1812SOL    EPW 7694   3.645   4.086   3.470  0.1525 -0.2533  0.3262
 1813SOL      O 7695   3.894   1.805   0.594  0.7946 -0.0706  0.4104
 1813SOL     H1 7696   3.822   1.743   0.582 -0.5436  0.8259  3.3228
 1813SOL     H2 7697   3.889   1.864   0.519 -0.0391 -1.4359 -0.6146
 1813SOL    EPW 7698   3.886   1.805   0.585  0.5629 -0.1206  0.6117
 1814SOL      O 7699   2.595   0.393   2.904 -0.2968  0.2093  0.1696
 1814SOL     H1 7700   2.531   0.450   2.947  0.6921 -1.1181  3.5612
 1814SOL     H2 7701   2.671   0.395   2.962  1.0480 -1.7766 -1.4835
 1814SOL    EPW 7702   2.596   0.399   2.915 -0.0478 -0.1442  0.3550
 1815SOL      O 7703   0.034   3.920   3.399  0.2346 -0.1256  0.3614
 1815SOL     H1 7704   0.117   3.874   3.389  0.7557  1.0333 -0.8389
 1815SOL     H2 7705  -0.033   3.853   3.380  0.8799 -1.0433  1.2833
 1815SOL    EPW 7706   0.035   3.908   3.396  0.3591 -0.0999  0.3317
 1816SOL      O 7707   3.476   0.326   0.383 -0.4306  0.0816 -0.5191
 1816SOL     H1 7708   3.408   0.319   0.316 -0.6047  0.4937 -0.3860
 1816SOL     H2 7709   3.532   0.250   0.368 -1.4817 -0.8124 -0.0173
 1816SOL    EPW 7710   3.475   0.317   0.375 -0.5613  0.0302 -0.4513
 1817SOL      O 7711   3.693   0.593   2.344  0.1714  0.2971 -0.9661
 1817SOL     H1 7712   3.645   0.540   2.280 -0.2390  0.6978 -0.9938
 1817SOL     H2 7713   3.704   0.535   2.419 -1.9133  0.7550 -0.2739
 1817SOL    EPW 7714   3.689   0.582   2.345 -0.0948  0.3887 -0.8952
 1818SOL      O 7715   2.272   1.151   0.134 -0.3590  0.2921  0.2690
 1818SOL     H1 7716   2.208   1.087   0.105 -0.3442  0.4638 -0.1409
 1818SOL     H2 7717   2.244   1.175   0.223 -1.4284  1.1245 -0.2955
 1818SOL    EPW 7718   2.263   1.147   0.141 -0.4715  0.3992  0.1651
 1819SOL      O 7719   5.205   3.692   3.783 -0.5615 -1.0010  0.0675
 1819SOL     H1 7720   5.205   3.767   3.842 -0.7198 -0.8420 -0.1350
 1819SOL     H2 7721   5.142   3.715   3.714 -1.0918 -1.5911  0.3486
 1819SOL    EPW 7722   5.198   3.702   3.782 -0.6350 -1.0470  0.0759
 1820SOL      O 7723   3.746   2.522   0.464 -0.1335  0.0717  0.8342
 1820SOL     H1 7724   3.681   2.590   0.448  1.9653  2.1148  0.5703
 1820SOL     H2 7725   3.745   2.510   0.559 -1.8209 -0.8963  0.7039
 1820SOL    EPW 7726   3.739   2.528   0.472 -0.0896  0.1864  0.7921
 1821SOL      O 7727   3.290   2.078   1.158  0.0642 -0.1887  0.5043
 1821SOL     H1 7728   3.195   2.072   1.160 -0.3505  1.9663 -4.6832
 1821SOL     H2 7729   3.320   1.987   1.164 -2.5548 -1.3469 -2.6722
 1821SOL    EPW 7730   3.283   2.068   1.159 -0.2594 -0.0824 -0.3880
 1822SOL      O 7731   2.208   1.686   0.981  0.3611 -0.3552  0.1315
 1822SOL     H1 7732   2.176   1.632   0.908 -0.7952 -1.5853  1.5202
 1822SOL     H2 7733   2.197   1.776   0.951 -0.3535 -0.8460 -1.1213
 1822SOL    EPW 7734   2.204   1.690   0.970  0.1615 -0.5388  0.1460
 1823SOL      O 7735   3.523   1.853   1.713  0.0082 -0.5247 -0.2887
 1823SOL     H1 7736   3.591   1.826   1.651 -0.7965 -0.9063 -1.0162
 1823SOL     H2 7737   3.442   1.852   1.662 -0.8852 -2.1706  1.1047
 1823SOL    EPW 7738   3.522   1.850   1.701 -0.1730 -0.7410 -0.2177
 1824SOL      O 7739   3.343   1.051   0.100 -0.6031  0.7421 -0.3195
 1824SOL     H1 7740   3.418   1.090   0.057 -0.8585  2.0637  0.4031
 1824SOL     H2 7741   3.349   1.081   0.191 -0.3549 -1.5732  0.4631
 1824SOL    EPW 7742   3.351   1.058   0.105 -0.6038  0.6361 -0.1589
 1825SOL      O 7743   1.792   4.996   1.771  0.4178  0.1737  0.0620
 1825SOL     H1 7744   1.858   5.045   1.820  1.3342 -1.0488  0.0830
 1825SOL     H2 7745   1.742   5.063   1.724  1.1383  1.1763  0.7034
 1825SOL    EPW 7746   1.794   5.009   1.771  0.5924  0.1502  0.1327
 1826SOL      O 7747   0.906   3.261   3.974 -0.3487  0.1722 -0.0447
 1826SOL     H1 7748   0.900   3.178   3.926 -1.7751  1.0876 -1.4823
 1826SOL     H2 7749   0.893   3.236   4.066 -1.7302 -1.0886 -0.5607
 1826SOL    EPW 7750   0.904   3.249   3.979 -0.6482  0.1354 -0.2531
 1827SOL      O 7751   5.098   4.604   3.420 -0.1381  0.2938  0.0032
 1827SOL     H1 7752   5.063   4.692   3.415 -1.6647 -0.3017  0.0170
 1827SOL     H2 7753   5.075   4.564   3.336 -0.0368 -0.3065  0.2533
 1827SOL    EPW 7754   5.092   4.609   3.410 -0.2902  0.1663  0.0313
 1828SOL      O 7755   2.882   4.745   0.556  0.0254 -0.7533 -0.2068
 1828SOL     H1 7756   2.818   4.753   0.485 -0.2679 -1.2870 -0.0016
 1828SOL     H2 7757   2.951   4.807   0.533 -0.0989 -0.8820 -0.9308
 1828SOL    EPW 7758   2.883   4.752   0.546 -0.0191 -0.8240 -0.2621
 1829SOL      O 7759   1.630   4.618   1.977  0.5884 -0.0456  0.5693
 1829SOL     H1 7760   1.639   4.712   1.994 -2.8825  0.2890  0.9375
 1829SOL     H2 7761   1.642   4.577   2.063 -0.6080  0.2936  0.9009
 1829SOL    EPW 7762   1.632   4.623   1.988  0.0905  0.0263  0.6440
 1830SOL      O 7763   3.173   0.354   0.986  0.4552  0.5271  0.2257
 1830SOL     H1 7764   3.249   0.321   0.938 -0.0367 -2.2437  1.2636
 1830SOL     H2 7765   3.197   0.444   1.009  2.1302  0.7262 -2.1151
 1830SOL    EPW 7766   3.184   0.360   0.983  0.5814  0.2527  0.0867
 1831SOL      O 7767   3.293   1.496   2.273  0.2467 -0.2798 -0.4890
 1831SOL     H1 7768   3.255   1.442   2.343 -2.9055  0.0282 -1.8946
 1831SOL     H2 7769   3.320   1.577   2.317 -1.6023 -0.1349  0.4108
 1831SOL    EPW 7770   3.292   1.499   2.285 -0.2869 -0.2315 -0.5430
 1832SOL      O 7771   1.925   0.503   0.735 -0.3347 -0.2011  0.0924
 1832SOL     H1 7772   1.967   0.521   0.818 -0.8524 -0.6882  0.4633
 1832SOL     H2 7773   1.991   0.457   0.683  0.3496  1.0471 -0.1677
 1832SOL    EPW 7774   1.936   0.500   0.738 -0.3170 -0.1199  0.1042
 1833SOL      O 7775   3.218   0.526   0.105 -1.2256  0.4928  0.3034
 1833SOL     H1 7776   3.269   0.452   0.136 -1.1718  0.0191 -0.9107
 1833SOL     H2 7777   3.282   0.596   0.093 -0.6867 -0.3794 -2.1287
 1833SOL    EPW 7778   3.230   0.526   0.107 -1.1623  0.3492 -0.0856
 1834SOL      O 7779   4.460   3.087   3.423  0.1452  0.0039  0.3859
 1834SOL     H1 7780   4.428   3.042   3.346  0.3978  0.1465  0.1941
 1834SOL     H2 7781   4.551   3.111   3.401  0.2466 -0.0327  0.7567
 1834SOL    EPW 7782   4.467   3.085   3.413  0.1830  0.0152  0.4050
 1835SOL      O 7783   1.360   0.666   0.443 -0.1882 -0.1226  0.5546
 1835SOL     H1 7784   1.272   0.645   0.473 -0.8465 -0.7634 -1.7200
 1835SOL     H2 7785   1.394   0.583   0.408  0.7123  0.4830 -0.0333
 1835SOL    EPW 7786   1.355   0.655   0.443 -0.1624 -0.1264  0.2492
 1836SOL      O 7787   3.777   0.363   2.518  0.1756  0.2473 -0.4502
 1836SOL     H1 7788   3.780   0.268   2.527  1.1318  0.2939 -0.2265
 1836SOL     H2 7789   3.740   0.394   2.601  1.1568  0.1503  0.0354
 1836SOL    EPW 7790   3.773   0.356   2.528  0.3823  0.2419 -0.3746
 1837SOL      O 7791   3.244   5.267   3.752 -0.3761  0.3318  0.2841
 1837SOL     H1 7792   3.311   5.247   3.818 -0.3938 -1.6221 -0.2375
 1837SOL     H2 7793   3.294   5.301   3.678  0.1718 -1.7058 -0.3399
 1837SOL    EPW 7794   3.257   5.268   3.751 -0.3195 -0.0940  0.1619
 1838SOL      O 7795   3.114   2.172   3.253  0.0889  0.1385 -0.0095
 1838SOL     H1 7796   3.204   2.204   3.258  0.1909 -0.1444 -0.0779
 1838SOL     H2 7797   3.117   2.083   3.288 -0.3370  0.4813  0.9335
 1838SOL    EPW 7798   3.124   2.166   3.257  0.0543  0.1449  0.0838
 1839SOL      O 7799   1.963   3.227   1.640  0.0182  0.1549 -0.0818
 1839SOL     H1 7800   1.947   3.261   1.728 -2.0338 -0.6643 -0.1165
 1839SOL     H2 7801   2.015   3.148   1.653 -0.8126 -0.3014  0.4302
 1839SOL    EPW 7802   1.967   3.222   1.650 -0.2893  0.0188 -0.0309
 1840SOL      O 7803   2.084   1.896   2.180 -0.1557  0.0445  0.0917
 1840SOL     H1 7804   2.161   1.842   2.200  0.6954  1.6311  1.2213
 1840SOL     H2 7805   2.015   1.861   2.238 -0.0214 -0.7469 -0.2157
 1840SOL    EPW 7806   2.085   1.886   2.189 -0.0506  0.1293  0.1794
 1841SOL      O 7807   2.604   0.496   2.647  0.2382 -0.0408 -0.1450
 1841SOL     H1 7808   2.602   0.450   2.731  1.0696  0.3191  0.0757
 1841SOL     H2 7809   2.538   0.451   2.594 -0.1896 -0.3616  0.6490
 1841SOL    EPW 7810   2.596   0.486   2.650  0.2812 -0.0366 -0.0368
 1842SOL      O 7811   1.544   4.402   4.063  0.2125 -0.0055  0.0114
 1842SOL     H1 7812   1.549   4.431   4.154  0.1792  0.0760 -0.0118
 1842SOL     H2 7813   1.482   4.464   4.022  0.6944  0.3299 -0.2116
 1842SOL    EPW 7814   1.538   4.412   4.068  0.2604  0.0389 -0.0149
 1843SOL      O 7815   2.655   0.754   1.938  0.4134  0.0149 -0.3699
 1843SOL     H1 7816   2.703   0.685   1.983  0.3380 -0.0889 -0.4470
 1843SOL     H2 7817   2.668   0.735   1.845 -0.2258 -0.3285 -0.3915
 1843SOL    EPW 7818   2.661   0.745   1.933  0.3372 -0.0328 -0.3804
 1844SOL      O 7819   1.955   1.932   1.782 -0.2938  0.4928  0.2268
 1844SOL     H1 7820   1.948   1.983   1.702  1.0542 -0.7353 -0.7123
 1844SOL     H2 7821   2.011   1.985   1.839  1.4586 -0.0849 -0.9047
 1844SOL    EPW 7822   1.960   1.943   1.780  0.0369  0.3001  0.0059
 1845SOL      O 7823   2.694   1.040   2.016 -0.0453 -0.3485 -0.1197
 1845SOL     H1 7824   2.768   1.041   2.076 -0.3007 -0.2799  0.1970
 1845SOL     H2 7825   2.711   1.111   1.954 -0.2864  0.2456  0.4886
 1845SOL    EPW 7826   2.703   1.048   2.016 -0.0983 -0.2778 -0.0210
 1846SOL      O 7827   1.635   0.073   1.608  0.1023 -0.1023  0.5192
 1846SOL     H1 7828   1.602   0.041   1.524  0.5217 -1.0451  0.7094
 1846SOL     H2 7829   1.557   0.076   1.664 -0.1525  0.3853  0.1465
 1846SOL    EPW 7830   1.623   0.070   1.605  0.1198 -0.1509  0.4998
 1847SOL      O 7831   1.794   2.667   1.242 -0.0488 -0.3438 -0.0897
 1847SOL     H1 7832   1.862   2.625   1.295 -0.6999 -0.5875  0.5692
 1847SOL     H2 7833   1.829   2.666   1.153  0.3735 -1.3995  0.0782
 1847SOL    EPW 7834   1.805   2.662   1.238 -0.0732 -0.4824 -0.0015
 1848SOL      O 7835   2.410   0.869   1.555  0.2666  0.0481 -0.1416
 1848SOL     H1 7836   2.328   0.862   1.604 -0.1002 -1.4159 -0.9325
 1848SOL     H2 7837   2.396   0.942   1.495 -0.9878 -1.0702 -1.2359
 1848SOL    EPW 7838   2.400   0.876   1.554  0.0937 -0.2274 -0.3427
 1849SOL      O 7839   3.510   0.732   1.743 -0.6166  0.0864 -0.0286
 1849SOL     H1 7840   3.445   0.801   1.754 -0.0811  0.5102  0.5749
 1849SOL     H2 7841   3.548   0.722   1.831 -0.5750 -0.8503 -0.1537
 1849SOL    EPW 7842   3.507   0.738   1.754 -0.5550  0.0317  0.0224
 1850SOL      O 7843   3.487   0.410   3.740  0.2195 -0.2716 -0.2656
 1850SOL     H1 7844   3.519   0.392   3.828  0.7983 -0.0791 -0.4383
 1850SOL     H2 7845   3.564   0.405   3.684 -0.1831 -0.6257 -0.8010
 1850SOL    EPW 7846   3.498   0.407   3.743  0.2383 -0.2888 -0.3411
 1851SOL      O 7847   1.891   1.340   2.112  0.1810 -0.2770  0.3470
 1851SOL     H1 7848   1.805   1.303   2.093  0.7617 -1.1938 -0.5359
 1851SOL     H2 7849   1.952   1.284   2.064  1.3098  0.0766  1.3579
 1851SOL    EPW 7850   1.888   1.330   2.105  0.3633 -0.3371  0.3606
 1852SOL      O 7851   2.192   1.248   1.248  0.3720 -0.5463  0.4764
 1852SOL     H1 7852   2.125   1.189   1.214 -2.1941  2.0320  0.8428
 1852SOL     H2 7853   2.168   1.334   1.213  2.7741  0.6658  1.6649
 1852SOL    EPW 7854   2.182   1.251   1.241  0.3545 -0.1419  0.6423
 1853SOL      O 7855   4.114   0.525   2.146  0.1842  0.1568 -0.0106
 1853SOL     H1 7856   4.150   0.601   2.191  0.1647 -0.4351  1.0167
 1853SOL     H2 7857   4.189   0.467   2.132  0.1188  0.1604 -0.3879
 1853SOL    EPW 7858   4.125   0.527   2.149  0.1751  0.0940  0.0588
 1854SOL      O 7859   1.702   2.270   3.002 -0.4756  0.3062  0.4236
 1854SOL     H1 7860   1.677   2.335   2.936 -0.3559  0.1457  0.2185
 1854SOL     H2 7861   1.793   2.250   2.982 -1.1125 -1.4644 -0.8084
 1854SOL    EPW 7862   1.709   2.275   2.993 -0.5308  0.1001  0.2703
 1855SOL      O 7863   3.023   0.687   1.826 -0.5190  0.3305  0.5063
 1855SOL     H1 7864   3.006   0.610   1.880 -1.1368  0.1678  0.0836
 1855SOL     H2 7865   3.020   0.760   1.888  0.2301 -0.0011  0.9336
 1855SOL    EPW 7866   3.021   0.687   1.839 -0.5050  0.2778  0.5068
 1856SOL      O 7867   2.770   2.044   3.388 -0.3980 -0.1796 -0.1385
 1856SOL     H1 7868   2.762   1.958   3.428 -0.6194 -0.4099 -0.6774
 1856SOL     H2 7869   2.793   2.103   3.461  1.7916 -1.0309 -0.0858
 1856SOL    EPW 7870   2.772   2.041   3.400 -0.1880 -0.2950 -0.1904
 1857SOL      O 7871   4.042   2.194   3.125 -0.2471 -0.1311  0.1340
 1857SOL     H1 7872   3.954   2.197   3.164 -0.3729  2.2889 -0.2427
 1857SOL     H2 7873   4.045   2.272   3.069  2.0732 -0.3363 -0.0395
 1857SOL    EPW 7874   4.033   2.203   3.123 -0.0130  0.1051  0.0753
 1858SOL      O 7875   4.239   5.595   1.936 -0.2136 -0.1942  0.0996
 1858SOL     H1 7876   4.277   5.513   1.903 -0.5772  0.5098 -2.0798
 1858SOL     H2 7877   4.198   5.569   2.019 -0.3933 -2.2462 -0.5820
 1858SOL    EPW 7878   4.239   5.583   1.942 -0.2716 -0.3380 -0.2056
 1859SOL      O 7879   2.549   0.960   1.777 -0.2707 -0.7621  0.4393
 1859SOL     H1 7880   2.603   1.020   1.726 -0.2380 -0.1753  1.1528
 1859SOL     H2 7881   2.500   0.910   1.712 -0.2751  0.0134 -0.1616
 1859SOL    EPW 7882   2.549   0.961   1.765 -0.2677 -0.6168  0.4513
 1860SOL      O 7883   2.245   1.043   2.422  0.2394 -0.5086  0.3010
 1860SOL     H1 7884   2.188   0.970   2.398 -0.1038  0.2040 -1.1286
 1860SOL     H2 7885   2.188   1.102   2.472  0.3222 -0.8628  0.8171
 1860SOL    EPW 7886   2.232   1.042   2.424  0.2116 -0.4704  0.2036
 1861SOL      O 7887   1.465   1.633   2.044 -0.3821  0.2624  0.6096
 1861SOL     H1 7888   1.520   1.700   2.003 -0.7644 -0.3376 -0.9441
 1861SOL     H2 7889   1.518   1.599   2.116  1.0175  0.1835 -0.4227
 1861SOL    EPW 7890   1.477   1.637   2.047 -0.2736  0.1900  0.3337
 1862SOL      O 7891   4.366   1.624   2.268  0.3945  0.0002  0.0646
 1862SOL     H1 7892   4.462   1.617   2.275  0.5041  1.7519  0.5246
 1862SOL     H2 7893   4.344   1.700   2.322 -0.9015  1.6670 -2.7164
 1862SOL    EPW 7894   4.374   1.631   2.275  0.2679  0.3649 -0.1830
 1863SOL      O 7895   2.564   2.236   2.558  0.0449  0.2309 -0.4175
 1863SOL     H1 7896   2.649   2.203   2.585 -0.2405 -1.4690 -1.5359
 1863SOL     H2 7897   2.575   2.261   2.466 -0.7904 -0.4703 -0.7188
 1863SOL    EPW 7898   2.574   2.235   2.551 -0.0746 -0.0253 -0.5689
 1864SOL      O 7899   4.034   1.227   3.961  0.6356  0.6776 -0.1809
 1864SOL     H1 7900   3.958   1.222   4.019  1.2651 -1.0526  0.5166
 1864SOL     H2 7901   4.109   1.233   4.020  1.1419  1.1607 -0.8578
 1864SOL    EPW 7902   4.034   1.227   3.974  0.7568  0.5445 -0.1787
 1865SOL      O 7903   2.102   3.563   1.747  0.0446 -0.5104  0.1551
 1865SOL     H1 7904   2.035   3.629   1.734  0.7184  0.0675 -0.4114
 1865SOL     H2 7905   2.057   3.492   1.794 -0.7760  0.1643  0.4024
 1865SOL    EPW 7906   2.090   3.562   1.751  0.0290 -0.3768  0.1210
 1866SOL      O 7907   3.468   2.961   2.407  0.0397 -0.1068 -0.3850
 1866SOL     H1 7908   3.412   2.897   2.452 -0.9596  1.1184  0.1258
 1866SOL     H2 7909   3.557   2.935   2.431 -0.3568 -1.1834 -0.0089
 1866SOL    EPW 7910   3.472   2.951   2.414 -0.1092 -0.0910 -0.2904
 1867SOL      O 7911   0.843   5.187   0.330 -0.0158 -0.2172 -0.2831
 1867SOL     H1 7912   0.908   5.255   0.346 -1.9549  1.6582 -0.0755
 1867SOL     H2 7913   0.776   5.202   0.397 -2.1456 -0.1238 -2.3419
 1867SOL    EPW 7914   0.843   5.196   0.339 -0.4498 -0.0071 -0.4806
 1868SOL      O 7915   0.405   2.299   0.534 -0.4457  0.2246  0.1677
 1868SOL     H1 7916   0.401   2.206   0.510 -0.0752  0.2876 -0.1338
 1868SOL     H2 7917   0.332   2.311   0.594 -2.2223  0.3708 -1.9575
 1868SOL    EPW 7918   0.397   2.290   0.538 -0.5957  0.2469 -0.0912
 1869SOL      O 7919   4.120   1.805   2.857 -0.3037 -0.5790  0.3037
 1869SOL     H1 7920   4.169   1.724   2.843  0.5940  0.0792 -0.3962
 1869SOL     H2 7921   4.181   1.874   2.835 -0.8363  0.3268  1.6348
 1869SOL    EPW 7922   4.132   1.803   2.853 -0.2648 -0.4122  0.3710
 1870SOL      O 7923   1.178   4.817   0.076  0.4442  0.0121  0.0701
 1870SOL     H1 7924   1.135   4.819  -0.009 -0.5931 -2.2147  0.5327
 1870SOL     H2 7925   1.150   4.898   0.119 -2.9181 -1.1756  0.1888
 1870SOL    EPW 7926   1.171   4.826   0.072 -0.0252 -0.3521  0.1321
 1871SOL      O 7927   2.716   1.713   3.783 -0.0262  0.9481  0.5241
 1871SOL     H1 7928   2.639   1.658   3.799  0.1945  0.4991  0.0673
 1871SOL     H2 7929   2.790   1.657   3.805  0.3653 -0.2699 -3.5490
 1871SOL    EPW 7930   2.716   1.701   3.787  0.0391  0.7703  0.0409
 1872SOL      O 7931   3.762   5.715   1.816 -1.3257 -0.3507 -0.6237
 1872SOL     H1 7932   3.723   5.688   1.899  0.8431 -1.3499  0.1064
 1872SOL     H2 7933   3.838   5.658   1.805  1.6961  3.4261 -0.5148
 1872SOL    EPW 7934   3.766   5.706   1.824 -0.7719 -0.0544 -0.5342
 1873SOL      O 7935   2.630   1.391   2.620 -0.4532  0.1708 -0.0082
 1873SOL     H1 7936   2.544   1.367   2.585 -0.4770  0.2408  0.0008
 1873SOL     H2 7937   2.643   1.333   2.695 -0.4077  0.0290 -0.1270
 1873SOL    EPW 7938   2.622   1.382   2.624 -0.4508  0.1631 -0.0199
 1874SOL      O 7939   1.977   0.455   3.427  0.3904  0.2913 -0.3857
 1874SOL     H1 7940   2.060   0.471   3.473  0.9814  0.7874 -1.5758
 1874SOL     H2 7941   1.909   0.483   3.488  1.0618 -1.0411  0.9862
 1874SOL    EPW 7942   1.979   0.460   3.438  0.5251  0.2021 -0.3663
 1875SOL      O 7943   4.521   0.391   2.314 -0.3544  0.4842  0.4786
 1875SOL     H1 7944   4.515   0.485   2.296  1.7387  0.6619  0.5275
 1875SOL     H2 7945   4.447   0.352   2.268  0.6760  1.7862 -2.3855
 1875SOL    EPW 7946   4.513   0.397   2.307 -0.0212  0.6420  0.1783
 1876SOL      O 7947   5.156   4.304   4.132 -0.4217 -0.9439 -0.0484
 1876SOL     H1 7948   5.172   4.225   4.183 -0.6378 -0.8348  0.1932
 1876SOL     H2 7949   5.062   4.302   4.114 -0.3325 -1.0315 -0.5302
 1876SOL    EPW 7950   5.147   4.296   4.135 -0.4352 -0.9416 -0.0740
 1877SOL      O 7951   3.286   0.438   1.651  0.9328  0.5055  0.0949
 1877SOL     H1 7952   3.266   0.530   1.633  0.3387  0.6527  1.4600
 1877SOL     H2 7953   3.307   0.435   1.744  0.2142 -0.8627  0.2410
 1877SOL    EPW 7954   3.286   0.447   1.659  0.7928  0.3753  0.2561
 1878SOL      O 7955   2.712   1.309   2.381 -0.6914  0.4403 -0.4595
 1878SOL     H1 7956   2.705   1.342   2.470 -2.0896 -0.5859 -0.1758
 1878SOL     H2 7957   2.788   1.354   2.345 -0.7183  1.6262  0.9160
 1878SOL    EPW 7958   2.719   1.317   2.387 -0.8434  0.4573 -0.2825
 1879SOL      O 7959   3.205   5.831   2.824 -0.3503 -0.3992 -0.6916
 1879SOL     H1 7960   3.259   5.752   2.821 -0.8318 -0.6899 -2.5231
 1879SOL     H2 7961   3.254   5.891   2.880  0.9474 -1.3136 -0.8098
 1879SOL    EPW 7962   3.216   5.829   2.830 -0.2632 -0.5278 -0.8996
 1880SOL      O 7963   3.256   0.335   3.884  0.1278  0.0716 -0.5127
 1880SOL     H1 7964   3.279   0.372   3.969 -1.6485  1.1821 -0.5133
 1880SOL     H2 7965   3.187   0.272   3.903  1.6488 -1.7254 -0.7954
 1880SOL    EPW 7966   3.251   0.332   3.895  0.1005 -0.0017 -0.5430
 1881SOL      O 7967   3.197   0.970   3.332 -0.2170 -0.3242 -0.2528
 1881SOL     H1 7968   3.146   0.890   3.321  1.2700 -1.5493  1.3799
 1881SOL     H2 7969   3.272   0.959   3.274 -0.8166  0.6036 -1.2090
 1881SOL    EPW 7970   3.199   0.960   3.325 -0.1223 -0.3559 -0.1807
 1882SOL      O 7971   4.675   0.517   3.445  0.4219  0.2007 -0.5374
 1882SOL     H1 7972   4.669   0.511   3.350 -0.1237 -1.5987 -0.4001
 1882SOL     H2 7973   4.602   0.574   3.470  0.3177  0.3402 -1.1501
 1882SOL    EPW 7974   4.666   0.522   3.437  0.3526  0.0236 -0.5881
 1883SOL      O 7975   5.877   2.276   0.460  0.1362 -0.8401  0.5642
 1883SOL     H1 7976   5.937   2.264   0.387 -0.7815 -0.2557 -0.2912
 1883SOL     H2 7977   5.790   2.284   0.420 -0.5417 -1.7957  1.7902
 1883SOL    EPW 7978   5.874   2.276   0.448 -0.0340 -0.8797  0.6037
 1884SOL      O 7979   2.999   0.848   3.826 -0.1805 -0.0844  0.0058
 1884SOL     H1 7980   3.010   0.923   3.886 -2.2041  0.3914 -0.2031
 1884SOL     H2 7981   2.912   0.815   3.845  0.9781 -2.9283  0.6481
 1884SOL    EPW 7982   2.991   0.853   3.835 -0.2728 -0.3370  0.0520
 1885SOL      O 7983   3.713   0.211   2.088  0.6358 -0.4919  0.2996
 1885SOL     H1 7984   3.766   0.242   2.161  0.2165  2.4794 -0.5759
 1885SOL     H2 7985   3.776   0.176   2.025  1.1963 -0.7942  1.0206
 1885SOL    EPW 7986   3.725   0.210   2.089  0.6508 -0.2072  0.2831
 1886SOL      O 7987   3.072   0.324   2.245  0.0475 -0.1284 -0.2204
 1886SOL     H1 7988   3.070   0.263   2.171  0.7322 -0.1284 -0.2360
 1886SOL     H2 7989   3.017   0.281   2.311 -0.1912 -0.3467 -0.5551
 1886SOL    EPW 7990   3.066   0.313   2.244  0.0951 -0.1517 -0.2578
 1887SOL      O 7991   4.006   1.187   1.115  0.1403  0.0976  0.7492
 1887SOL     H1 7992   3.953   1.215   1.041 -0.4886 -0.4316  0.9905
 1887SOL     H2 7993   3.970   1.235   1.190 -0.6292 -0.9707  1.0801
 1887SOL    EPW 7994   3.996   1.195   1.115 -0.0089 -0.0728  0.8102
 1888SOL      O 7995   2.607   1.823   2.521  0.1972 -0.0381 -0.4631
 1888SOL     H1 7996   2.533   1.817   2.462  0.2715 -2.4492 -0.3624
 1888SOL     H2 7997   2.569   1.813   2.609  0.5424 -0.6280 -0.3726
 1888SOL    EPW 7998   2.595   1.821   2.524  0.2420 -0.3582 -0.4427
 1889SOL      O 7999   3.194   0.870   1.277 -0.1924 -0.2554 -0.5484
 1889SOL     H1 8000   3.135   0.909   1.342  0.2141  0.3279 -0.5196
 1889SOL     H2 8001   3.190   0.776   1.294  1.1303  0.0041  1.4055
 1889SOL    EPW 8002   3.187   0.864   1.286 -0.0079 -0.1655 -0.3369
 1890SOL      O 8003   1.463   3.765   0.185 -0.0780  0.2365  0.1004
 1890SOL     H1 8004   1.381   3.804   0.155  1.2363  1.7211 -1.6317
 1890SOL     H2 8005   1.458   3.674   0.155 -1.5756 -0.0178  1.0239
 1890SOL    EPW 8006   1.453   3.760   0.179 -0.0976  0.3677  0.0141
 1891SOL      O 8007   2.092   1.587   2.440 -0.3801  0.3159  0.1979
 1891SOL     H1 8008   2.085   1.507   2.491 -1.4203  0.5462  0.4274
 1891SOL     H2 8009   2.073   1.560   2.350  1.1024 -0.0233 -0.0335
 1891SOL    EPW 8010   2.089   1.576   2.436 -0.3329  0.3043  0.1977
 1892SOL      O 8011   3.211   1.302   2.459 -0.1641 -0.0101 -0.1536
 1892SOL     H1 8012   3.190   1.322   2.551  1.3277  2.9010 -0.3794
 1892SOL     H2 8013   3.282   1.238   2.465  1.0640  1.3824  0.8014
 1892SOL    EPW 8014   3.216   1.297   2.470  0.1261  0.4490 -0.0758
 1893SOL      O 8015   1.077   4.414   0.584 -0.3417  0.1744 -0.5104
 1893SOL     H1 8016   1.049   4.435   0.673  0.4309 -1.4437  0.1356
 1893SOL     H2 8017   1.002   4.439   0.529 -1.8245 -1.1182  0.8597
 1893SOL    EPW 8018   1.066   4.419   0.588 -0.4175 -0.1361 -0.2953
 1894SOL      O 8019   3.316   3.644   2.302  0.0931  0.3047 -0.1170
 1894SOL     H1 8020   3.384   3.589   2.263  1.5420  0.6057  1.8514
 1894SOL     H2 8021   3.364   3.703   2.360 -1.7074  1.7323 -0.0202
 1894SOL    EPW 8022   3.329   3.645   2.304  0.0556  0.4891  0.1033
 1895SOL      O 8023   1.249   0.393   4.061  0.2914  0.3903  0.0591
 1895SOL     H1 8024   1.300   0.467   4.031  1.5212 -0.8608 -0.9934
 1895SOL     H2 8025   1.282   0.319   4.011 -1.7295 -0.6588  0.2331
 1895SOL    EPW 8026   1.258   0.393   4.053  0.2070  0.1449 -0.0346
 1896SOL      O 8027   2.405   1.850   1.155 -0.7393 -0.2951 -0.0395
 1896SOL     H1 8028   2.330   1.813   1.108 -2.1187 -0.0134  1.8960
 1896SOL     H2 8029   2.379   1.939   1.176  0.2219 -0.1322  0.4942
 1896SOL    EPW 8030   2.394   1.855   1.152 -0.7839 -0.2477  0.2239
 1897SOL      O 8031   3.328   1.901   2.134 -0.6048 -0.3059  0.0556
 1897SOL     H1 8032   3.328   1.989   2.171 -2.1385 -0.2549 -0.0203
 1897SOL     H2 8033   3.319   1.843   2.210  0.2367 -0.3891  0.0923
 1897SOL    EPW 8034   3.327   1.904   2.146 -0.6787 -0.3093  0.0514
 1898SOL      O 8035   1.558   0.343   3.601 -0.0068 -0.3473  0.1280
 1898SOL     H1 8036   1.634   0.401   3.594  0.9081 -1.4292  0.9931
 1898SOL     H2 8037   1.595   0.258   3.626 -1.3138 -1.3473 -1.2716
 1898SOL    EPW 8038   1.570   0.340   3.603 -0.0486 -0.5694  0.0710
 1899SOL      O 8039   2.844   2.454   2.454  0.5875 -0.0898  0.0366
 1899SOL     H1 8040   2.793   2.479   2.530  0.9499 -0.8699  0.5431
 1899SOL     H2 8041   2.862   2.536   2.408  0.1473  0.3459  0.6423
 1899SOL    EPW 8042   2.840   2.465   2.457  0.5792 -0.1265  0.1553
 1900SOL      O 8043   2.639   1.374   3.566 -0.6647  0.4098  0.5347
 1900SOL     H1 8044   2.665   1.448   3.512 -0.3679 -0.6217 -0.7482
 1900SOL     H2 8045   2.563   1.337   3.521 -0.1180 -0.7504  0.5476
 1900SOL    EPW 8046   2.633   1.378   3.555 -0.5747  0.1760  0.3992
 1901SOL      O 8047   2.965   1.777   2.518  0.1378  0.0502 -0.1460
 1901SOL     H1 8048   3.020   1.717   2.568 -0.4491 -0.6691 -0.3544
 1901SOL     H2 8049   2.965   1.858   2.569 -0.3644 -0.6441  0.9801
 1901SOL    EPW 8050   2.971   1.779   2.529  0.0216 -0.1006 -0.0481
 1902SOL      O 8051   2.265   0.309   3.795 -0.2321  0.4127  0.2930
 1902SOL     H1 8052   2.348   0.347   3.826  0.2757 -0.3050 -0.1764
 1902SOL     H2 8053   2.268   0.219   3.825 -0.7905  0.3517  0.1586
 1902SOL    EPW 8054   2.274   0.304   3.801 -0.2375  0.3296  0.2286
 1903SOL      O 8055   1.238   2.907   0.348 -0.8863  0.1324  0.2937
 1903SOL     H1 8056   1.181   2.903   0.271  1.0241 -1.9807 -1.0736
 1903SOL     H2 8057   1.233   2.999   0.376 -0.4326  1.3390 -3.2739
 1903SOL    EPW 8058   1.231   2.917   0.343 -0.6341  0.0357 -0.2327
 1904SOL      O 8059   2.478   5.192   2.794  0.1055  0.7984 -0.4585
 1904SOL     H1 8060   2.540   5.216   2.863  0.1022  0.6894 -0.4185
 1904SOL     H2 8061   2.458   5.275   2.750 -0.6093  1.0262  0.2674
 1904SOL    EPW 8062   2.482   5.204   2.797  0.0289  0.8111 -0.3768
 1905SOL      O 8063   4.537   0.360   1.256  0.1716  0.1436  0.1315
 1905SOL     H1 8064   4.468   0.370   1.322  0.9834  2.0149  0.7433
 1905SOL     H2 8065   4.493   0.377   1.173 -0.4977 -0.5173  0.3470
 1905SOL    EPW 8066   4.525   0.363   1.254  0.1868  0.2727  0.2198
 1906SOL      O 8067   5.619   3.782   0.262  1.1575  0.0003 -0.3711
 1906SOL     H1 8068   5.535   3.750   0.295  0.5168  1.6339 -0.4209
 1906SOL     H2 8069   5.657   3.830   0.336  0.5294  2.1392 -1.4181
 1906SOL    EPW 8070   5.614   3.783   0.274  1.0221  0.4027 -0.4881
 1907SOL      O 8071   2.399   0.565   3.297  0.6972  0.3079  0.2154
 1907SOL     H1 8072   2.304   0.572   3.311  0.5178 -1.5642 -0.0579
 1907SOL     H2 8073   2.435   0.637   3.350 -0.7799  0.2439  1.3595
 1907SOL    EPW 8074   2.393   0.574   3.304  0.5205  0.1014  0.3083
 1908SOL      O 8075   3.199   0.992   2.673  0.0870  0.3175  0.0543
 1908SOL     H1 8076   3.215   0.897   2.666 -0.8536  0.0427  1.4607
 1908SOL     H2 8077   3.105   1.001   2.660 -0.2473  0.7697  2.5223
 1908SOL    EPW 8078   3.191   0.982   2.671 -0.0490  0.3365  0.4676
 1909SOL      O 8079   4.817   1.205   3.162  0.3249 -0.0072 -0.3045
 1909SOL     H1 8080   4.763   1.129   3.187 -0.0702  0.8904  1.6712
 1909SOL     H2 8081   4.789   1.226   3.074 -0.3816 -1.4558 -0.4441
 1909SOL    EPW 8082   4.808   1.199   3.156  0.2074 -0.0660 -0.1086
 1910SOL      O 8083   3.916   4.380   3.277 -0.6704 -0.5144 -0.2448
 1910SOL     H1 8084   3.955   4.337   3.353  0.3585  1.1084  0.1731
 1910SOL     H2 8085   3.947   4.328   3.202 -0.2674 -1.1011  0.3226
 1910SOL    EPW 8086   3.924   4.370   3.277 -0.5177 -0.4039 -0.1397
 1911SOL      O 8087   3.322   0.936   1.614 -0.1931  0.1105  0.0123
 1911SOL     H1 8088   3.278   1.018   1.636 -0.4312 -0.4495  1.7063
 1911SOL     H2 8089   3.359   0.951   1.527 -3.1970  0.7912 -1.2068
 1911SOL    EPW 8090   3.321   0.946   1.607 -0.5390  0.1233  0.0630
 1912SOL      O 8091   2.119   0.408   1.874 -0.3405 -0.1931  0.1512
 1912SOL     H1 8092   2.135   0.457   1.793 -3.8073 -1.0773 -1.1669
 1912SOL     H2 8093   2.096   0.320   1.844 -1.9102 -0.4633  2.0869
 1912SOL    EPW 8094   2.119   0.404   1.862 -0.8778 -0.3163  0.2171
 1913SOL      O 8095   3.277   0.242   3.609 -0.9053  0.5044 -0.4729
 1913SOL     H1 8096   3.292   0.166   3.666 -1.2389  1.8592  1.4728
 1913SOL     H2 8097   3.224   0.207   3.537  0.5740 -1.5110 -0.6394
 1913SOL    EPW 8098   3.273   0.230   3.607 -0.7831  0.4339 -0.2831
 1914SOL      O 8099   3.607   1.089   1.905  0.0087  0.8544  0.0081
 1914SOL     H1 8100   3.650   1.140   1.973  1.8573 -0.2258 -0.2953
 1914SOL     H2 8101   3.527   1.056   1.946  2.4516 -2.1642  2.6954
 1914SOL    EPW 8102   3.603   1.091   1.917  0.4665  0.4172  0.2624
 1915SOL      O 8103   1.326   0.873   0.953 -0.1963  0.0467 -0.8195
 1915SOL     H1 8104   1.351   0.827   0.873  0.0905  0.3288 -0.8940
 1915SOL     H2 8105   1.390   0.845   1.018  1.4765  2.1933 -1.4824
 1915SOL    EPW 8106   1.335   0.865   0.951  0.0128  0.3058 -0.8981
 1916SOL      O 8107   4.493   0.033   1.603 -0.0881  0.0752 -0.1559
 1916SOL     H1 8108   4.405   0.054   1.573 -0.4271 -0.2791  0.5880
 1916SOL     H2 8109   4.550   0.091   1.553 -0.7088  0.0376 -0.9157
 1916SOL    EPW 8110   4.490   0.041   1.595 -0.1905  0.0334 -0.1576
 1917SOL      O 8111   1.820   5.046   3.898  0.4849 -0.6327  0.0075
 1917SOL     H1 8112   1.741   5.040   3.952  1.7322 -0.7566  1.8544
 1917SOL     H2 8113   1.864   4.962   3.910  1.6825  0.0213  0.2432
 1917SOL    EPW 8114   1.816   5.037   3.905  0.7457 -0.5761  0.2296
 1918SOL      O 8115   4.162   2.186   2.075 -0.6323  0.6539  0.5415
 1918SOL     H1 8116   4.178   2.277   2.050 -0.8390  0.6805  0.5126
 1918SOL     H2 8117   4.096   2.190   2.143  0.5293  0.6417  1.6968
 1918SOL    EPW 8118   4.157   2.196   2.080 -0.5304  0.6555  0.6617
 1919SOL      O 8119   0.660   2.328   0.261 -0.1686 -0.4860  0.0166
 1919SOL     H1 8120   0.701   2.411   0.236 -0.3305 -0.2161  0.6206
 1919SOL     H2 8121   0.607   2.351   0.338 -2.1511 -0.6220 -1.2680
 1919SOL    EPW 8122   0.658   2.339   0.267 -0.3974 -0.4717 -0.0560
 1920SOL      O 8123   3.616   0.575   1.554 -0.0092  0.2359  0.0228
 1920SOL     H1 8124   3.568   0.640   1.606  0.7738  0.6996  0.1696
 1920SOL     H2 8125   3.708   0.593   1.571  0.2329 -0.4477 -0.5128
 1920SOL    EPW 8126   3.620   0.584   1.561  0.1002  0.2124 -0.0187
 1921SOL      O 8127   4.238   2.038   2.808 -0.3451  0.1653 -0.3072
 1921SOL     H1 8128   4.190   2.074   2.734  1.7435  1.4891 -1.0580
 1921SOL     H2 8129   4.300   2.107   2.833  0.9792 -1.3663  0.7977
 1921SOL    EPW 8130   4.240   2.050   2.803  0.0190  0.1432 -0.2694
 1922SOL      O 8131   2.689   3.114   2.869 -0.1421  0.3596 -0.3019
 1922SOL     H1 8132   2.600   3.123   2.902 -0.7591 -1.0563 -1.5237
 1922SOL     H2 8133   2.741   3.173   2.924 -1.8506  1.3654  0.2794
 1922SOL    EPW 8134   2.686   3.121   2.878 -0.3902  0.3158 -0.3703
 1923SOL      O 8135   3.352   0.329   2.164  0.4795  0.0538  0.5215
 1923SOL     H1 8136   3.273   0.349   2.214 -0.0432 -0.7734  0.0323
 1923SOL     H2 8137   3.374   0.239   2.189  1.4794  0.4019  0.9292
 1923SOL    EPW 8138   3.346   0.322   2.172  0.5304  0.0027  0.5128
 1924SOL      O 8139   1.748   0.594   3.547 -0.1250 -0.2047 -0.1332
 1924SOL     H1 8140   1.708   0.568   3.464  0.9666 -0.5708 -0.5632
 1924SOL     H2 8141   1.764   0.688   3.537 -2.4017  0.3110  0.7096
 1924SOL    EPW 8142   1.746   0.601   3.537 -0.2514 -0.1887 -0.0892
 1925SOL      O 8143   1.875   1.024   2.874  0.3079 -0.4133 -0.1817
 1925SOL     H1 8144   1.954   1.012   2.927 -1.0297  1.0155  2.2472
 1925SOL     H2 8145   1.871   1.118   2.859 -0.2888 -0.6181 -1.3433
 1925SOL    EPW 8146   1.883   1.033   2.878  0.1015 -0.2827 -0.0465
 1926SOL      O 8147   3.846   5.021   0.629  0.1367  0.5080  0.1431
 1926SOL     H1 8148   3.879   4.945   0.676  1.0102  0.6438 -0.2409
 1926SOL     H2 8149   3.756   5.031   0.660 -0.1159 -0.9198 -0.1234
 1926SOL    EPW 8150   3.840   5.014   0.638  0.2029  0.3702  0.0737
 1927SOL      O 8151   3.369   0.120   1.404 -0.0615  0.0563 -0.7621
 1927SOL     H1 8152   3.296   0.057   1.403 -1.2863  1.4370 -0.4899
 1927SOL     H2 8153   3.425   0.093   1.331 -1.7644  0.0155 -2.0858
 1927SOL    EPW 8154   3.367   0.110   1.396 -0.3739  0.1992 -0.8743
 1928SOL      O 8155   2.917   0.261   1.739  0.1572 -0.2585 -0.3983
 1928SOL     H1 8156   2.871   0.194   1.788  0.9031  0.5134  1.3848
 1928SOL     H2 8157   2.858   0.284   1.668 -0.8826 -1.4628  0.0695
 1928SOL    EPW 8158   2.906   0.256   1.736  0.1258 -0.3046 -0.1582
 1929SOL      O 8159   2.190   1.566   3.493 -0.6907  0.1023  0.6278
 1929SOL     H1 8160   2.196   1.603   3.581  0.3623 -0.8785  0.9766
 1929SOL     H2 8161   2.264   1.605   3.445 -0.1348 -0.8011  0.7305
 1929SOL    EPW 8162   2.199   1.574   3.497 -0.5191 -0.0987  0.6760
 1930SOL      O 8163   2.953   2.333   0.623  0.3623  0.2732  0.6420
 1930SOL     H1 8164   2.893   2.402   0.594 -0.7049 -0.1454  1.7754
 1930SOL     H2 8165   2.908   2.252   0.601  0.8485 -0.0458  0.8285
 1930SOL    EPW 8166   2.942   2.332   0.618  0.3003  0.1945  0.7828
 1931SOL      O 8167   5.869   2.180   0.886 -0.3628  0.1175  0.1214
 1931SOL     H1 8168   5.927   2.194   0.961  0.0207  1.2701 -0.3867
 1931SOL     H2 8169   5.781   2.197   0.921 -0.2484 -0.0554  0.4925
 1931SOL    EPW 8170   5.865   2.184   0.898 -0.3097  0.2220  0.1068
 1932SOL      O 8171   1.954   2.783   1.528 -0.1672 -0.8486 -0.1496
 1932SOL     H1 8172   1.991   2.866   1.556 -0.4363 -1.1127  1.0049
 1932SOL     H2 8173   1.865   2.784   1.564 -0.4208 -1.3213 -0.7560
 1932SOL    EPW 8174   1.948   2.792   1.535 -0.2230 -0.9272 -0.0911
 1933SOL      O 8175   4.802   5.125   3.119 -0.0403  0.7810 -0.0224
 1933SOL     H1 8176   4.752   5.043   3.115  0.2147  0.6182  0.1428
 1933SOL     H2 8177   4.801   5.156   3.028  1.7005 -0.5158 -0.5144
 1933SOL    EPW 8178   4.796   5.119   3.109  0.1726  0.6253 -0.0573
 1934SOL      O 8179   3.765   0.888   0.898 -0.2531 -0.3186  0.6782
 1934SOL     H1 8180   3.728   0.950   0.835  0.6317  1.2005  1.6325
 1934SOL     H2 8181   3.763   0.804   0.852  1.6701  0.9807 -1.9597
 1934SOL    EPW 8182   3.761   0.885   0.887  0.0464 -0.0180  0.4986
 1935SOL      O 8183   3.358   1.044   2.025 -0.0369 -0.0213 -0.0011
 1935SOL     H1 8184   3.372   0.955   2.059 -1.5998 -0.3963 -0.3380
 1935SOL     H2 8185   3.390   1.101   2.095  2.0703 -0.8266 -0.2462
 1935SOL    EPW 8186   3.363   1.040   2.036  0.0211 -0.1472 -0.0632
 1936SOL      O 8187   3.367   1.435   0.215 -0.1212  0.0687  0.4072
 1936SOL     H1 8188   3.345   1.438   0.122  0.5064  0.4553  0.2664
 1936SOL     H2 8189   3.283   1.432   0.259 -0.4327  0.3135 -0.1581
 1936SOL    EPW 8190   3.356   1.435   0.209 -0.0874  0.1361  0.3319
 1937SOL      O 8191   4.100   1.300   2.498  0.1273 -0.0498  0.1569
 1937SOL     H1 8192   4.005   1.311   2.499  0.2016  0.5756  0.6620
 1937SOL     H2 8193   4.120   1.254   2.580  0.2986  0.1476  0.2265
 1937SOL    EPW 8194   4.092   1.296   2.507  0.1535  0.0380  0.2182
 1938SOL      O 8195   3.067   0.254   2.957  0.3587  0.1211 -0.8378
 1938SOL     H1 8196   3.092   0.308   3.032 -0.9330  0.1726 -0.4379
 1938SOL     H2 8197   3.044   0.169   2.995  2.2463 -0.6982 -1.4466
 1938SOL    EPW 8198   3.068   0.251   2.969  0.4223  0.0392 -0.8601
 1939SOL      O 8199   0.491   2.962   0.700  0.3650  0.3188 -0.1976
 1939SOL     H1 8200   0.550   3.036   0.683  1.7197 -0.5298  0.7354
 1939SOL     H2 8201   0.527   2.921   0.779 -0.7867 -0.9246 -0.3092
 1939SOL    EPW 8202   0.501   2.966   0.707  0.3866  0.0956 -0.1100
 1940SOL      O 8203   0.043   1.003   3.675 -0.1402  0.5895  0.1764
 1940SOL     H1 8204   0.075   1.014   3.765  0.9097 -0.2579 -0.0720
 1940SOL     H2 8205   0.078   1.079   3.628  2.4851 -0.8408 -0.3267
 1940SOL    EPW 8206   0.050   1.012   3.680  0.2519  0.3465  0.0963
 1941SOL      O 8207   2.329   0.651   0.940 -0.2100 -0.1343 -0.4859
 1941SOL     H1 8208   2.418   0.617   0.951 -0.2161 -0.8101 -2.1968
 1941SOL     H2 8209   2.285   0.631   1.023  1.2541  0.2887  0.4059
 1941SOL    EPW 8210   2.334   0.645   0.950 -0.0544 -0.1613 -0.5733
 1942SOL      O 8211   3.324   1.526   1.302 -0.1430  0.2536 -0.4200
 1942SOL     H1 8212   3.395   1.584   1.329 -1.0012  1.0776  0.0919
 1942SOL     H2 8213   3.331   1.523   1.206 -0.4133  1.6398 -0.4981
 1942SOL    EPW 8214   3.332   1.532   1.295 -0.2634  0.4894 -0.3737
 1943SOL      O 8215   4.122   1.133   2.740  0.2204 -0.3690  0.1062
 1943SOL     H1 8216   4.129   1.043   2.709  1.2223 -0.6765  1.2053
 1943SOL     H2 8217   4.027   1.150   2.741 -0.0649 -1.9150  1.3144
 1943SOL    EPW 8218   4.112   1.125   2.737  0.2968 -0.5667  0.3523
 1944SOL      O 8219   3.354   0.743   2.746 -0.0996  0.3114 -0.5174
 1944SOL     H1 8220   3.449   0.750   2.753  0.0888 -0.5665 -2.1122
 1944SOL     H2 8221   3.325   0.727   2.836  1.2387  0.7794  0.0094
 1944SOL    EPW 8222   3.361   0.742   2.757  0.0633  0.2677 -0.6313
 1945SOL      O 8223   3.263   0.554   2.524 -0.3864 -0.1352 -0.9390
 1945SOL     H1 8224   3.195   0.572   2.459 -0.0070  0.9121 -1.0573
 1945SOL     H2 8225   3.223   0.580   2.607  0.3700  1.8706 -1.1784
 1945SOL    EPW 8226   3.251   0.559   2.526 -0.2652  0.1905 -0.9772
 1946SOL      O 8227   0.710   1.166   3.519  0.2548  0.2984  0.6382
 1946SOL     H1 8228   0.671   1.214   3.592  1.9200  0.0693  1.7054
 1946SOL     H2 8229   0.672   1.207   3.441 -1.2955  0.7583  1.6073
 1946SOL    EPW 8230   0.702   1.176   3.518  0.2670  0.3230  0.8554
 1947SOL      O 8231   1.522   4.326   0.905  0.3041 -0.7393  0.4625
 1947SOL     H1 8232   1.571   4.349   0.984  0.0712  0.5563  0.2432
 1947SOL     H2 8233   1.431   4.329   0.932  0.2563 -1.1033  0.3459
 1947SOL    EPW 8234   1.518   4.329   0.916  0.2741 -0.6399  0.4267
 1948SOL      O 8235   2.469   5.592   3.561  0.0072  0.1185  0.5230
 1948SOL     H1 8236   2.461   5.499   3.580  1.3573  0.1912  1.5202
 1948SOL     H2 8237   2.559   5.614   3.587 -0.6227  1.9031  1.2469
 1948SOL    EPW 8238   2.478   5.585   3.566  0.0841  0.3166  0.7066
 1949SOL      O 8239   3.553   0.515   2.135  0.5319  0.0469  0.2852
 1949SOL     H1 8240   3.484   0.454   2.160  0.0607  1.1042  1.6697
 1949SOL     H2 8241   3.608   0.466   2.074 -0.3668 -1.4357  0.6394
 1949SOL    EPW 8242   3.552   0.504   2.131  0.3858  0.0016  0.4706
 1950SOL      O 8243   2.960   5.824   2.356 -0.0634  0.1406 -0.2422
 1950SOL     H1 8244   2.906   5.748   2.335 -2.2535  1.8180 -0.8568
 1950SOL     H2 8245   2.974   5.818   2.451 -0.8692 -0.6160 -0.1688
 1950SOL    EPW 8246   2.955   5.816   2.364 -0.3830  0.2388 -0.2999
 1951SOL      O 8247   3.318   0.122   1.699 -0.7922  0.2969 -0.1806
 1951SOL     H1 8248   3.326   0.031   1.668  1.3677  1.0333 -1.8518
 1951SOL     H2 8249   3.332   0.116   1.793 -0.0523 -1.0414 -0.3643
 1951SOL    EPW 8250   3.320   0.111   1.706 -0.4828  0.2327 -0.3784
 1952SOL      O 8251   3.974   2.129   3.534  0.2801  0.3499 -0.2691
 1952SOL     H1 8252   3.996   2.046   3.493  2.6209  1.6911 -1.8605
 1952SOL     H2 8253   3.988   2.114   3.628  0.9623 -0.9574 -0.5724
 1952SOL    EPW 8254   3.978   2.119   3.540  0.6026  0.3535 -0.4712
 1953SOL      O 8255   1.070   1.019   3.306 -0.2702 -0.5911 -0.1045
 1953SOL     H1 8256   1.005   1.077   3.266 -1.3330 -2.0085 -0.4668
 1953SOL     H2 8257   1.149   1.031   3.252 -0.4759  0.4967 -0.1768
 1953SOL    EPW 8258   1.072   1.027   3.296 -0.4055 -0.6263 -0.1509
 1954SOL      O 8259   3.305   0.508   3.518  0.1254  0.2425 -0.2556
 1954SOL     H1 8260   3.327   0.476   3.431  3.0392 -0.7425  0.7533
 1954SOL     H2 8261   3.350   0.593   3.524 -0.7047  0.6628  0.0044
 1954SOL    EPW 8262   3.312   0.514   3.510  0.3477  0.1822 -0.1202
 1955SOL      O 8263   3.518   0.307   1.559  0.3490 -0.0611  0.0546
 1955SOL     H1 8264   3.550   0.397   1.556  0.3099  0.0109  1.5579
 1955SOL     H2 8265   3.597   0.254   1.575  0.1709 -0.1525  0.6575
 1955SOL    EPW 8266   3.530   0.311   1.560  0.3259 -0.0631  0.2793
 1956SOL      O 8267   2.187   1.998   1.594 -0.2936 -0.5020 -0.0295
 1956SOL     H1 8268   2.185   1.903   1.595  2.9822 -0.6351 -0.3003
 1956SOL     H2 8269   2.231   2.022   1.676  0.4516  0.6746 -0.7556
 1956SOL    EPW 8270   2.192   1.991   1.603  0.1353 -0.3907 -0.1359
 1957SOL      O 8271   3.120   0.255   1.525  0.1691  0.6395 -0.1905
 1957SOL     H1 8272   3.049   0.252   1.589 -0.5260  1.2047 -0.9209
 1957SOL     H2 8273   3.076   0.253   1.440  1.1045 -0.6934 -0.6737
 1957SOL    EPW 8274   3.108   0.254   1.523  0.1948  0.5576 -0.3200
 1958SOL      O 8275   3.269   1.197   1.766 -0.3098  0.5388  0.1599
 1958SOL     H1 8276   3.217   1.277   1.775 -0.2593  0.6181 -0.2305
 1958SOL     H2 8277   3.317   1.191   1.849 -1.1236  0.3281  0.6231
 1958SOL    EPW 8278   3.269   1.205   1.776 -0.3912  0.5248  0.1677
 1959SOL      O 8279   3.772   1.444   2.259 -0.2897 -0.2284 -0.3401
 1959SOL     H1 8280   3.778   1.429   2.353 -1.1657  0.4475 -0.1703
 1959SOL     H2 8281   3.727   1.528   2.250 -1.6494 -1.0358 -1.3725
 1959SOL    EPW 8282   3.768   1.451   2.268 -0.5282 -0.2424 -0.4321
 1960SOL      O 8283   3.232   1.274   2.774 -0.2937 -0.2571  0.1316
 1960SOL     H1 8284   3.237   1.183   2.745 -0.0837  0.0829 -0.9116
 1960SOL     H2 8285   3.315   1.290   2.817 -0.8162 -0.9267  1.4222
 1960SOL    EPW 8286   3.241   1.266   2.775 -0.3271 -0.2923  0.1580
 1961SOL      O 8287   2.257   1.139   2.186 -0.2589  0.2704  0.0322
 1961SOL     H1 8288   2.277   1.107   2.274  0.5746  0.8877  0.0767
 1961SOL     H2 8289   2.277   1.233   2.190  0.1931  0.2217 -0.9361
 1961SOL    EPW 8290   2.261   1.146   2.196 -0.1218  0.3310 -0.0664
 1962SOL      O 8291   0.972   1.445   2.045  0.2140 -0.4073 -0.1714
 1962SOL     H1 8292   0.892   1.485   2.011  0.5636 -1.7060 -2.5989
 1962SOL     H2 8293   1.006   1.510   2.107 -1.1389  1.4844 -1.3504
 1962SOL    EPW 8294   0.967   1.456   2.048  0.1070 -0.3440 -0.5561
 1963SOL      O 8295   4.251   2.734   2.368 -0.0135  0.0154  0.0892
 1963SOL     H1 8296   4.202   2.757   2.289 -1.0968  1.1406  1.0729
 1963SOL     H2 8297   4.237   2.640   2.378 -0.6902  0.0479 -0.5076
 1963SOL    EPW 8298   4.244   2.727   2.361 -0.2013  0.1389  0.1305
 1964SOL      O 8299   3.451   1.112   2.543  0.1533  0.0994 -0.1280
 1964SOL     H1 8300   3.519   1.049   2.519 -0.0427 -0.2875  0.3256
 1964SOL     H2 8301   3.402   1.068   2.613  0.7895  1.2728  1.0666
 1964SOL    EPW 8302   3.453   1.100   2.548  0.2003  0.1833  0.0478
 1965SOL      O 8303   2.480   0.443   1.636  0.6499  0.4910 -0.7298
 1965SOL     H1 8304   2.430   0.467   1.558  2.0667  1.0194 -1.4997
 1965SOL     H2 8305   2.450   0.355   1.658  0.3740  0.2637 -1.9918
 1965SOL    EPW 8306   2.472   0.436   1.630  0.7716  0.5231 -0.9466
 1966SOL      O 8307   2.886   3.780   0.061  0.2127  0.3206  0.1847
 1966SOL     H1 8308   2.966   3.741   0.026 -0.4545  0.2332 -1.2531
 1966SOL     H2 8309   2.833   3.802  -0.016 -1.0195  0.6570  1.1036
 1966SOL    EPW 8310   2.889   3.778   0.049  0.0100  0.3471  0.1293
 1967SOL      O 8311   4.892   5.612   3.246 -0.3507 -0.3644 -0.2808
 1967SOL     H1 8312   4.963   5.558   3.212 -2.3877 -1.2569 -3.3981
 1967SOL     H2 8313   4.909   5.699   3.210 -1.1201 -0.7270 -1.5791
 1967SOL    EPW 8314   4.901   5.615   3.238 -0.6501 -0.4983 -0.7519
 1968SOL      O 8315   0.727   1.331   1.426  0.0182 -0.0753 -0.5376
 1968SOL     H1 8316   0.775   1.413   1.414  0.0554 -0.1214 -0.6997
 1968SOL     H2 8317   0.638   1.351   1.399 -0.1598  0.1318  0.1755
 1968SOL    EPW 8318   0.723   1.342   1.422  0.0032 -0.0581 -0.4788
 1969SOL      O 8319   2.421   0.024   0.538 -0.7813  0.1782  0.0250
 1969SOL     H1 8320   2.460   0.061   0.459  1.9231 -0.1659  1.1616
 1969SOL     H2 8321   2.405  -0.068   0.515 -1.7773  0.5289 -0.7340
 1969SOL    EPW 8322   2.423   0.018   0.527 -0.5991  0.1789  0.0653
 1970SOL      O 8323   3.030   2.335   2.598 -0.4863 -0.6927  0.3157
 1970SOL     H1 8324   3.009   2.334   2.692 -0.5948  0.4675  0.3038
 1970SOL     H2 8325   2.959   2.384   2.558 -0.4153 -1.1536 -0.3722
 1970SOL    EPW 8326   3.021   2.340   2.604 -0.4903 -0.6181  0.2411
 1971SOL      O 8327   3.436   1.304   2.958  0.2924  0.4350 -0.2865
 1971SOL     H1 8328   3.361   1.331   3.011 -2.4116 -1.6599 -2.9558
 1971SOL     H2 8329   3.486   1.246   3.016  0.2621  2.3352  1.7275
 1971SOL    EPW 8330   3.434   1.301   2.970  0.0007  0.4142 -0.3564
 1972SOL      O 8331   4.862   0.270   3.812 -0.5784 -0.3943  0.4574
 1972SOL     H1 8332   4.852   0.215   3.890  0.4682  0.1331  0.9829
 1972SOL     H2 8333   4.800   0.341   3.826  1.0905  0.8534  1.8821
 1972SOL    EPW 8334   4.854   0.272   3.822 -0.2887 -0.2050  0.6655
 1973SOL      O 8335   2.647   2.312   2.322  1.2522 -0.3443 -0.1642
 1973SOL     H1 8336   2.715   2.369   2.359  1.5931 -0.6076 -0.3730
 1973SOL     H2 8337   2.633   2.347   2.234 -1.1873  1.6800  0.9859
 1973SOL    EPW 8338   2.653   2.322   2.317  1.0283 -0.1565 -0.0638
 1974SOL      O 8339   2.668   5.555   3.131 -0.1044  0.4987 -0.2982
 1974SOL     H1 8340   2.586   5.601   3.150 -0.0176  0.6084 -0.1845
 1974SOL     H2 8341   2.644   5.463   3.126 -0.0362  0.4025  0.9232
 1974SOL    EPW 8342   2.657   5.550   3.132 -0.0879  0.5002 -0.1558
 1975SOL      O 8343   4.264   5.752   3.603 -0.0454 -0.0225 -0.5092
 1975SOL     H1 8344   4.268   5.692   3.529  1.9009 -0.3330 -0.1663
 1975SOL     H2 8345   4.293   5.836   3.568  1.0613 -0.2127 -0.0597
 1975SOL    EPW 8346   4.267   5.755   3.592  0.2803 -0.0759 -0.4246
 1976SOL      O 8347   2.272   1.659   3.723 -0.7386 -0.1178  0.3001
 1976SOL     H1 8348   2.191   1.674   3.771 -1.5908  0.7562 -1.3686
 1976SOL     H2 8349   2.313   1.584   3.767 -2.9919 -1.2806  0.4741
 1976SOL    EPW 8350   2.268   1.652   3.733 -1.0699 -0.1486  0.1406
 1977SOL      O 8351   2.375   5.674   2.995 -0.0919 -0.3533  0.4309
 1977SOL     H1 8352   2.370   5.720   3.079  1.0547 -0.6650  0.6883
 1977SOL     H2 8353   2.363   5.582   3.018  0.8807 -0.5060  0.3430
 1977SOL    EPW 8354   2.373   5.669   3.007  0.1342 -0.4028  0.4490
 1978SOL      O 8355   2.789   0.430   3.117  0.2159  0.8689 -0.1010
 1978SOL     H1 8356   2.750   0.351   3.154  1.2240 -0.7212 -2.3643
 1978SOL     H2 8357   2.848   0.462   3.185  0.4832 -0.8307  0.4878
 1978SOL    EPW 8358   2.791   0.425   3.128  0.3519  0.5179 -0.2796
 1979SOL      O 8359   4.127   0.477   3.140  0.2859 -0.2547 -0.4209
 1979SOL     H1 8360   4.093   0.388   3.125  0.6108 -0.3633 -0.5070
 1979SOL     H2 8361   4.189   0.491   3.069  0.7342 -0.2124 -0.0217
 1979SOL    EPW 8362   4.130   0.469   3.131  0.3684 -0.2618 -0.3875
 1980SOL      O 8363   3.662   0.920   2.472  0.4177  0.2672  0.2762
 1980SOL     H1 8364   3.590   0.860   2.456 -0.3080  0.5687  2.2276
 1980SOL     H2 8365   3.716   0.877   2.539  0.4856  1.2901  0.8980
 1980SOL    EPW 8366   3.660   0.909   2.478  0.3475  0.4085  0.5507
 1981SOL      O 8367   3.283   2.389   3.070  0.2052  0.0671  0.6531
 1981SOL     H1 8368   3.198   2.386   3.112  0.0835 -2.0723  0.2978
 1981SOL     H2 8369   3.264   2.416   2.980 -0.0898 -0.2452  0.6196
 1981SOL    EPW 8370   3.272   2.392   3.065  0.1608 -0.1945  0.6116
 1982SOL      O 8371   4.105   1.907   3.131 -0.4398 -0.1360 -0.0028
 1982SOL     H1 8372   4.103   1.999   3.104 -0.2778 -0.3176 -0.6500
 1982SOL     H2 8373   4.068   1.860   3.056 -1.5881 -0.4963  0.7694
 1982SOL    EPW 8374   4.101   1.912   3.120 -0.5450 -0.1938  0.0106
 1983SOL      O 8375   2.868   0.834   1.292  0.5691  0.5266  0.1729
 1983SOL     H1 8376   2.869   0.766   1.360 -0.4812 -0.1141 -0.4256
 1983SOL     H2 8377   2.910   0.792   1.216 -2.1460 -0.3043 -0.9394
 1983SOL    EPW 8378   2.873   0.822   1.291  0.1674  0.3696 -0.0096
 1984SOL      O 8379   3.329   0.042   1.965  0.3359 -0.0144  0.2404
 1984SOL     H1 8380   3.292  -0.042   1.992  0.1379  0.3515  1.1276
 1984SOL     H2 8381   3.402   0.056   2.025 -0.5771  1.1700  1.0684
 1984SOL    EPW 8382   3.333   0.034   1.974  0.2174  0.1510  0.4233
 1985SOL      O 8383   2.389   1.062   1.979  0.0135  0.3875 -0.4046
 1985SOL     H1 8384   2.362   1.116   1.905 -1.1491 -0.6746 -0.7682
 1985SOL     H2 8385   2.335   1.092   2.052 -1.4624 -1.0389 -0.8844
 1985SOL    EPW 8386   2.380   1.071   1.979 -0.2680  0.1220 -0.4946
 1986SOL      O 8387   4.116   3.148   2.380 -0.4275  0.1596  0.0573
 1986SOL     H1 8388   4.209   3.131   2.364 -0.2263  1.2050  0.1051
 1986SOL     H2 8389   4.109   3.243   2.383 -1.3735  0.0740  0.8377
 1986SOL    EPW 8390   4.125   3.156   2.378 -0.5069  0.2620  0.1457
 1987SOL      O 8391   1.828   1.337   2.815  0.0533  0.4962 -0.4704
 1987SOL     H1 8392   1.747   1.337   2.764 -0.2478  2.0968 -0.0224
 1987SOL     H2 8393   1.800   1.316   2.904  0.3549 -0.5893 -0.6273
 1987SOL    EPW 8394   1.816   1.335   2.819  0.0533  0.5511 -0.4393
 1988SOL      O 8395   2.997   2.418   3.083 -0.0566  0.1101 -0.1979
 1988SOL     H1 8396   2.932   2.354   3.114  2.2172 -0.8768  2.7110
 1988SOL     H2 8397   2.946   2.497   3.066 -2.2709 -1.1192  0.5063
 1988SOL    EPW 8398   2.984   2.420   3.085 -0.0502 -0.1263  0.1876
 1989SOL      O 8399   2.499   2.102   0.863 -0.0359 -0.6401 -0.3211
 1989SOL     H1 8400   2.530   2.190   0.844 -0.0718 -0.6605 -0.4784
 1989SOL     H2 8401   2.578   2.052   0.885 -0.1139 -0.3683  0.5646
 1989SOL    EPW 8402   2.511   2.106   0.863 -0.0481 -0.6133 -0.2434
 1990SOL      O 8403   2.304   3.742   2.655 -1.1382 -0.0328  0.2834
 1990SOL     H1 8404   2.350   3.707   2.579 -0.4942  1.0284  0.1793
 1990SOL     H2 8405   2.327   3.682   2.727 -0.2225  0.0431  0.0611
 1990SOL    EPW 8406   2.311   3.732   2.655 -0.9718  0.0885  0.2486
 1991SOL      O 8407   2.315   1.930   3.297  0.4060  0.3403 -0.1542
 1991SOL     H1 8408   2.223   1.917   3.276  0.1348 -0.0707  1.2139
 1991SOL     H2 8409   2.342   2.004   3.243 -0.4952 -0.0885 -1.2021
 1991SOL    EPW 8410   2.308   1.937   3.289  0.2809  0.2507 -0.1200
 1992SOL      O 8411   2.671   0.206   3.225 -0.7122  0.4377 -0.4051
 1992SOL     H1 8412   2.691   0.127   3.174 -0.6856  0.4122 -0.3564
 1992SOL     H2 8413   2.730   0.200   3.300  0.5763  1.4208 -1.3190
 1992SOL    EPW 8414   2.680   0.197   3.228 -0.5719  0.5398 -0.4974
 1993SOL      O 8415   1.314   1.029   3.866 -0.0108  0.2109  0.0470
 1993SOL     H1 8416   1.268   1.006   3.786  1.9989 -0.0929 -1.0631
 1993SOL     H2 8417   1.326   0.946   3.912 -0.8798  0.3426  0.5290
 1993SOL    EPW 8418   1.310   1.018   3.863  0.1109  0.1926 -0.0200
 1994SOL      O 8419   2.018   1.051   3.924  0.4053  0.2156 -0.0656
 1994SOL     H1 8420   1.955   1.112   3.886 -0.8260 -0.0864  1.4192
 1994SOL     H2 8421   2.037   1.088   4.011  0.2765 -1.0613  0.5188
 1994SOL    EPW 8422   2.013   1.061   3.929  0.2602  0.0472  0.1551
 1995SOL      O 8423   2.505   0.334   3.392  0.0746  0.2080  0.1123
 1995SOL     H1 8424   2.584   0.309   3.343 -1.3062 -0.9479 -1.5786
 1995SOL     H2 8425   2.474   0.413   3.348 -2.5354 -2.1824 -2.5438
 1995SOL    EPW 8426   2.510   0.340   3.382 -0.3512 -0.1703 -0.3514
 1996SOL      O 8427   3.138   1.632   2.663 -0.4355  0.0849  0.1392
 1996SOL     H1 8428   3.117   1.595   2.749 -1.7781 -2.4768 -1.2355
 1996SOL     H2 8429   3.226   1.600   2.644  0.3471  1.6556  1.0725
 1996SOL    EPW 8430   3.145   1.624   2.670 -0.4953 -0.0208  0.0921
 1997SOL      O 8431   3.510   0.074   2.150 -0.0799  0.4790  0.3964
 1997SOL     H1 8432   3.586   0.131   2.141  0.4630 -0.1480  1.0335
 1997SOL     H2 8433   3.528   0.021   2.227 -0.0310 -1.4014 -0.8782
 1997SOL    EPW 8434   3.520   0.075   2.157 -0.0168  0.2115  0.3284
 1998SOL      O 8435   4.373   1.926   3.152 -0.3280  0.3752  0.4303
 1998SOL     H1 8436   4.288   1.886   3.135 -0.8897  1.1130  1.4458
 1998SOL     H2 8437   4.352   2.016   3.177  0.7013  0.3799  1.3193
 1998SOL    EPW 8438   4.361   1.931   3.153 -0.2781  0.4544  0.6335
 1999SOL      O 8439   2.145   0.117   0.596  0.0496 -0.2031 -0.0172
 1999SOL     H1 8440   2.237   0.111   0.570 -0.1237 -1.6745 -0.3468
 1999SOL     H2 8441   2.100   0.057   0.537 -0.7367 -1.5614  1.9043
 1999SOL    EPW 8442   2.150   0.110   0.587 -0.0527 -0.5050  0.1526
 2000SOL      O 8443   1.610   3.289   3.878 -0.0560  0.4824  0.4323
 2000SOL     H1 8444   1.560   3.368   3.891 -1.5213 -0.7380  2.3948
 2000SOL     H2 8445   1.594   3.236   3.956  1.2558 -1.5516 -0.6104
 2000SOL    EPW 8446   1.603   3.291   3.887 -0.0724  0.1352  0.5305
 2001SOL      O 8447   3.668   1.614   1.950 -0.2310  0.0691 -0.2420
 2001SOL     H1 8448   3.728   1.684   1.925 -0.3477  0.5129  0.6809
 2001SOL     H2 8449   3.589   1.660   1.978  0.3667 -0.3119  2.2039
 2001SOL    EPW 8450   3.666   1.627   1.950 -0.1797  0.0758  0.1174
 2002SOL      O 8451   3.341   0.395   1.355  0.6664 -0.1897  0.5785
 2002SOL     H1 8452   3.407   0.385   1.287  1.1833  1.1959  0.8590
 2002SOL     H2 8453   3.282   0.462   1.322  0.5157 -0.0233  1.1706
 2002SOL    EPW 8454   3.342   0.401   1.344  0.7054 -0.0241  0.6716
 2003SOL      O 8455   2.134   5.372   0.967 -0.6219  0.0851 -0.5607
 2003SOL     H1 8456   2.097   5.334   1.047  0.5581 -1.8012 -0.8902
 2003SOL     H2 8457   2.228   5.379   0.985 -0.1609 -1.5357 -2.2310
 2003SOL    EPW 8458   2.140   5.369   0.978 -0.4469 -0.2890 -0.7740
 2004SOL      O 8459   2.675   1.033   2.362 -0.1614 -0.4776  0.2992
 2004SOL     H1 8460   2.725   1.115   2.368  1.7053 -1.3971 -1.8993
 2004SOL     H2 8461   2.605   1.043   2.427  1.4609  1.8467  1.7801
 2004SOL    EPW 8462   2.673   1.043   2.370  0.2108 -0.3277  0.2227
 2005SOL      O 8463   3.629   1.673   2.305  0.6592 -0.3856 -0.6423
 2005SOL     H1 8464   3.660   1.675   2.395 -1.2493 -1.2002  0.0612
 2005SOL     H2 8465   3.547   1.623   2.309  0.9995 -1.2062 -2.9576
 2005SOL    EPW 8466   3.623   1.668   2.315  0.4919 -0.5600 -0.8142
 2006SOL      O 8467   5.614   1.443   0.858 -0.2204 -0.4481 -0.1807
 2006SOL     H1 8468   5.627   1.366   0.803  0.0564 -1.6873  1.5771
 2006SOL     H2 8469   5.631   1.412   0.947  0.3148  1.7426  0.5111
 2006SOL    EPW 8470   5.617   1.432   0.862 -0.1338 -0.3466  0.0807
 2007SOL      O 8471   2.599   0.949   0.668  0.2323 -0.4699 -0.0463
 2007SOL     H1 8472   2.539   0.889   0.625 -0.2660  0.0652 -0.1122
 2007SOL     H2 8473   2.674   0.955   0.610 -0.9369  1.1748 -1.4629
 2007SOL    EPW 8474   2.600   0.944   0.658  0.0544 -0.2374 -0.2044
 2008SOL      O 8475   3.469   0.767   2.101 -0.2503 -0.4030 -0.0140
 2008SOL     H1 8476   3.513   0.788   2.184  1.4541 -2.5174 -0.3400
 2008SOL     H2 8477   3.494   0.676   2.083 -3.2160 -1.0368 -1.2352
 2008SOL    EPW 8478   3.477   0.759   2.108 -0.3849 -0.6961 -0.1791
 2009SOL      O 8479   1.047   1.820   3.534  0.5417  0.2757  0.5045
 2009SOL     H1 8480   1.093   1.740   3.508  2.4420  1.5162 -0.0571
 2009SOL     H2 8481   1.017   1.803   3.623  2.0679 -0.5977  0.8669
 2009SOL    EPW 8482   1.049   1.810   3.540  0.9072  0.3148  0.4832
 2010SOL      O 8483   3.810   5.549   0.766 -0.0678  0.0314  0.7335
 2010SOL     H1 8484   3.796   5.578   0.676 -0.1990  2.2034  1.4254
 2010SOL     H2 8485   3.905   5.536   0.773 -0.1511 -0.9047  0.0499
 2010SOL    EPW 8486   3.819   5.551   0.757 -0.0907  0.1633  0.7344
 2011SOL      O 8487   4.561   4.456   0.390 -0.4899 -0.4553 -0.2854
 2011SOL     H1 8488   4.516   4.372   0.376 -1.8006  0.3681 -1.1308
 2011SOL     H2 8489   4.542   4.479   0.481 -2.6388  0.3673 -0.9238
 2011SOL    EPW 8490   4.554   4.449   0.398 -0.8590 -0.2797 -0.4437
 2012SOL      O 8491   2.536   0.382   3.776  0.1983  0.7760  0.8184
 2012SOL     H1 8492   2.622   0.388   3.818  0.1714  2.0395  0.7209
 2012SOL     H2 8493   2.534   0.456   3.716  0.0921 -0.8147 -1.1864
 2012SOL    EPW 8494   2.545   0.390   3.774  0.1841  0.7411  0.5941
 2013SOL      O 8495   2.507   0.890   2.183 -0.1378 -0.3570 -0.1561
 2013SOL     H1 8496   2.452   0.833   2.236 -0.2546 -0.5334 -0.4636
 2013SOL     H2 8497   2.566   0.932   2.245 -1.0340  0.3001  0.2562
 2013SOL    EPW 8498   2.507   0.888   2.195 -0.2459 -0.3058 -0.1449
 2014SOL      O 8499   3.079   0.441   3.696 -0.2538  0.2426  0.5056
 2014SOL     H1 8500   3.047   0.468   3.782  1.2551  1.8698  0.5825
 2014SOL     H2 8501   3.003   0.447   3.639 -1.4803 -1.6814  1.8698
 2014SOL    EPW 8502   3.068   0.444   3.699 -0.2237  0.2109  0.6593
 2015SOL      O 8503   1.517   1.293   0.872 -0.0767 -0.3160 -0.0560
 2015SOL     H1 8504   1.507   1.252   0.786 -0.6582 -0.8405  0.2581
 2015SOL     H2 8505   1.597   1.254   0.908  0.5733  0.4456 -0.6537
 2015SOL    EPW 8506   1.525   1.284   0.867 -0.0694 -0.2907 -0.0863
 2016SOL      O 8507   3.200   2.449   2.383 -0.1705  0.1586  0.2896
 2016SOL     H1 8508   3.293   2.428   2.395  0.1818  1.3235 -0.3737
 2016SOL     H2 8509   3.156   2.399   2.452  0.9378 -0.4382  0.5870
 2016SOL    EPW 8510   3.205   2.441   2.392 -0.0147  0.2192  0.2505
 2017SOL      O 8511   3.206   2.605   3.458 -0.2550 -0.0019 -0.5233
 2017SOL     H1 8512   3.203   2.643   3.546  1.7112 -0.4296 -0.2421
 2017SOL     H2 8513   3.256   2.668   3.406 -1.0201  0.0295 -1.2305
 2017SOL    EPW 8514   3.211   2.616   3.462 -0.1268 -0.0442 -0.5687
 2018SOL      O 8515   2.737   1.572   3.396  0.0883  0.0445 -0.8458
 2018SOL     H1 8516   2.720   1.595   3.304  1.9305  0.9574 -0.9863
 2018SOL     H2 8517   2.831   1.552   3.398 -0.4780 -2.6740  0.3004
 2018SOL    EPW 8518   2.745   1.572   3.386  0.2244 -0.1481 -0.7385
 2019SOL      O 8519   2.201   0.699   2.959  0.3264  0.2050  0.9375
 2019SOL     H1 8520   2.210   0.760   2.885  1.0043  0.5023  1.2640
 2019SOL     H2 8521   2.291   0.681   2.987  0.0897 -0.2233  1.4362
 2019SOL    EPW 8522   2.211   0.704   2.954  0.3735  0.1910  1.0255
 2020SOL      O 8523   2.850   5.298   1.776 -0.2376 -1.1623 -0.0818
 2020SOL     H1 8524   2.916   5.249   1.824 -0.3081 -1.2732 -0.0968
 2020SOL     H2 8525   2.878   5.389   1.782 -0.8286 -1.0441  1.1069
 2020SOL    EPW 8526   2.860   5.302   1.782 -0.3082 -1.1615  0.0434
 2021SOL      O 8527   3.665   5.747   2.069 -0.3609 -0.0122  0.0319
 2021SOL     H1 8528   3.622   5.832   2.079  1.2562  0.9402 -0.7824
 2021SOL     H2 8529   3.631   5.693   2.140 -1.7703  1.1697  0.2633
 2021SOL    EPW 8530   3.657   5.750   2.077 -0.3387  0.2155 -0.0303
 2022SOL      O 8531   4.036   2.490   2.590  0.3184 -0.0973  0.6673
 2022SOL     H1 8532   4.066   2.500   2.500 -0.3844  0.2915  0.4728
 2022SOL     H2 8533   4.060   2.572   2.632 -1.4588  0.6826  0.2184
 2022SOL    EPW 8534   4.042   2.500   2.585  0.0539  0.0273  0.5987
 2023SOL      O 8535   3.290   0.602   3.789  0.7316 -0.6390 -0.3071
 2023SOL     H1 8536   3.320   0.645   3.869  0.3143 -1.4269  0.2826
 2023SOL     H2 8537   3.292   0.671   3.723  2.1994 -0.2565  0.1019
 2023SOL    EPW 8538   3.294   0.614   3.791  0.8437 -0.6822 -0.2006
 2024SOL      O 8539   2.967   1.558   3.872 -0.8243 -0.4619  0.0454
 2024SOL     H1 8540   3.054   1.593   3.856 -0.0575 -1.7415  1.2826
 2024SOL     H2 8541   2.968   1.472   3.829 -0.6944 -1.4370  1.9482
 2024SOL    EPW 8542   2.976   1.553   3.866 -0.7287 -0.7025  0.3803
 2025SOL      O 8543   3.566   1.256   1.691  0.6291  0.3700 -0.6172
 2025SOL     H1 8544   3.599   1.190   1.752 -0.6880  0.0860 -0.2079
 2025SOL     H2 8545   3.514   1.315   1.745  1.7559  1.7430 -0.9876
 2025SOL    EPW 8546   3.564   1.255   1.703  0.6088  0.4862 -0.6131
 2026SOL      O 8547   3.391   1.554   2.606 -0.1510 -0.5241 -0.2485
 2026SOL     H1 8548   3.436   1.470   2.608  1.7066  0.4414 -0.3615
 2026SOL     H2 8549   3.461   1.619   2.603 -1.5348  1.0878  1.1897
 2026SOL    EPW 8550   3.403   1.552   2.606 -0.1005 -0.2492 -0.1071
 2027SOL      O 8551   1.564   1.764   1.705 -0.3083  0.8374 -0.1758
 2027SOL     H1 8552   1.589   1.842   1.753  1.1377  0.0677  0.3725
 2027SOL     H2 8553   1.578   1.787   1.613  0.5877  1.0793  0.0117
 2027SOL    EPW 8554   1.568   1.774   1.700 -0.0584  0.7811 -0.0973
 2028SOL      O 8555   4.307   1.587   2.881  0.4915 -0.2533  0.5009
 2028SOL     H1 8556   4.395   1.592   2.919  0.7140 -0.6274  0.0273
 2028SOL     H2 8557   4.273   1.503   2.911  0.8298 -0.7462 -0.4761
 2028SOL    EPW 8558   4.313   1.579   2.889  0.5513 -0.3458  0.3462
 2029SOL      O 8559   4.707   1.794   2.080  0.4669 -0.0271 -0.5406
 2029SOL     H1 8560   4.802   1.787   2.076  0.7502  1.4544  2.4080
 2029SOL     H2 8561   4.683   1.751   2.163 -1.1064  2.2566  0.2417
 2029SOL    EPW 8562   4.714   1.788   2.089  0.3293  0.3746 -0.1426
 2030SOL      O 8563   3.227   0.624   2.057  0.0827 -0.2177 -0.2887
 2030SOL     H1 8564   3.304   0.672   2.088 -1.1532  1.7697 -0.2193
 2030SOL     H2 8565   3.259   0.573   1.982  1.7278 -0.3909  0.5029
 2030SOL    EPW 8566   3.239   0.623   2.052  0.1263 -0.0241 -0.1969
 2031SOL      O 8567   3.865   0.756   2.181 -0.1178  0.3795 -0.1793
 2031SOL     H1 8568   3.808   0.697   2.230  0.8396 -0.1365  0.3420
 2031SOL     H2 8569   3.831   0.754   2.091  0.5193 -1.7863 -0.4059
 2031SOL    EPW 8570   3.856   0.750   2.176  0.0523  0.0934 -0.1478
 2032SOL      O 8571   3.432   1.737   1.948 -0.2394 -0.0871  0.3723
 2032SOL     H1 8572   3.477   1.784   1.877  2.5223 -0.5264  1.7803
 2032SOL     H2 8573   3.441   1.795   2.024 -1.0997 -0.7083  0.9496
 2032SOL    EPW 8574   3.438   1.748   1.948 -0.0365 -0.2002  0.5841
 2033SOL      O 8575   2.026   1.479   2.965  0.5259 -0.7717  0.3370
 2033SOL     H1 8576   2.076   1.541   2.912  1.5742 -0.2922  1.8553
 2033SOL     H2 8577   1.963   1.440   2.904 -0.4038  2.0522 -0.5600
 2033SOL    EPW 8578   2.025   1.481   2.953  0.5386 -0.4193  0.4033
 2034SOL      O 8579   5.648   3.816   0.667  0.2100  0.1006  0.0204
 2034SOL     H1 8580   5.687   3.858   0.744 -0.6880 -0.4826  0.8145
 2034SOL     H2 8581   5.596   3.744   0.704  0.5262 -0.7665 -1.2055
 2034SOL    EPW 8582   5.647   3.813   0.679  0.1480 -0.0541 -0.0256
 2035SOL      O 8583   3.185   0.699   2.977 -0.2577  0.4364 -0.0884
 2035SOL     H1 8584   3.145   0.650   2.904 -0.7187  0.4783  0.1348
 2035SOL     H2 8585   3.114   0.753   3.011 -0.1213  0.1830  0.5945
 2035SOL    EPW 8586   3.173   0.699   2.973 -0.2924  0.4139  0.0083
 2036SOL      O 8587   4.517   1.170   1.300  0.1184  0.6852 -0.5129
 2036SOL     H1 8588   4.426   1.194   1.282 -0.1068 -0.6312 -1.1720
 2036SOL     H2 8589   4.563   1.187   1.218 -0.2203 -1.8920 -1.3019
 2036SOL    EPW 8590   4.512   1.174   1.289  0.0582  0.2698 -0.6674
 2037SOL      O 8591   2.192   0.855   1.708  0.5302  0.2826 -0.3156
 2037SOL     H1 8592   2.107   0.897   1.723  0.1771 -0.4660 -0.1811
 2037SOL     H2 8593   2.171   0.781   1.650  1.3013  0.9361 -1.4348
 2037SOL    EPW 8594   2.180   0.851   1.703  0.5748  0.2725 -0.4207
 2038SOL      O 8595   5.150   2.342   3.088  0.0307 -0.2132  0.4754
 2038SOL     H1 8596   5.105   2.257   3.089  1.1559 -0.8477 -0.7994
 2038SOL     H2 8597   5.100   2.396   3.027 -0.9735  0.2143  1.6617
 2038SOL    EPW 8598   5.140   2.338   3.082  0.0436 -0.2353  0.4660
 2039SOL      O 8599   2.819   2.635   2.956  0.0693 -0.1899 -0.2805
 2039SOL     H1 8600   2.750   2.632   3.023 -0.9345 -0.5712 -1.3136
 2039SOL     H2 8601   2.772   2.621   2.873  1.2456  0.6322 -1.0943
 2039SOL    EPW 8602   2.806   2.633   2.954  0.0877 -0.1428 -0.4775
 2040SOL      O 8603   4.563   5.481   2.875 -0.2701 -0.0172 -0.8966
 2040SOL     H1 8604   4.548   5.564   2.919 -1.3218 -0.2830 -0.7447
 2040SOL     H2 8605   4.658   5.471   2.875 -0.2864 -0.8719  2.9105
 2040SOL    EPW 8606   4.572   5.489   2.879 -0.3840 -0.1368 -0.4743
 2041SOL      O 8607   2.327   4.964   3.395 -0.1930 -0.0524  0.3399
 2041SOL     H1 8608   2.301   4.887   3.344  0.8883 -0.6384  0.6641
 2041SOL     H2 8609   2.245   5.000   3.428 -0.6990 -1.1143  0.2550
 2041SOL    EPW 8610   2.315   4.960   3.393 -0.1316 -0.2282  0.3654
 2042SOL      O 8611   3.819   1.599   1.293 -0.3836 -0.0578  0.1338
 2042SOL     H1 8612   3.832   1.665   1.361 -0.4637 -0.0192  0.1109
 2042SOL     H2 8613   3.879   1.623   1.223  0.9852 -1.0864  0.9254
 2042SOL    EPW 8614   3.827   1.608   1.293 -0.2461 -0.1634  0.2158
 2043SOL      O 8615   1.685   1.052   3.996  0.7925  0.4574  0.0223
 2043SOL     H1 8616   1.753   1.110   3.963 -0.3420  1.3748 -0.7553
 2043SOL     H2 8617   1.613   1.111   4.020  1.4458 -0.1706  3.9350
 2043SOL    EPW 8618   1.684   1.065   3.995  0.7412  0.4883  0.3568
 2044SOL      O 8619   1.512   5.707   3.636  0.1261 -0.3908  0.5916
 2044SOL     H1 8620   1.566   5.631   3.659 -1.2336 -1.6668 -0.2900
 2044SOL     H2 8621   1.569   5.761   3.582  1.3721 -0.3818  1.9044
 2044SOL    EPW 8622   1.524   5.705   3.633  0.1139 -0.5259  0.6376
 2045SOL      O 8623   3.744   0.210   3.174 -0.7451 -0.6015 -0.5535
 2045SOL     H1 8624   3.839   0.195   3.171 -0.8499 -1.1872 -0.9711
 2045SOL     H2 8625   3.712   0.176   3.091 -1.2655  0.0222 -0.6095
 2045SOL    EPW 8626   3.751   0.205   3.165 -0.8118 -0.5974 -0.6040
 2046SOL      O 8627   2.937   5.833   2.013 -0.2718 -0.4632  0.2913
 2046SOL     H1 8628   2.889   5.761   2.055 -1.6634 -0.8447 -1.8549
 2046SOL     H2 8629   3.018   5.794   1.982  0.8199 -0.1559  2.6378
 2046SOL    EPW 8630   2.940   5.821   2.014 -0.3038 -0.4711  0.3127
 2047SOL      O 8631   2.073   1.279   2.523  0.5904  0.7919  0.0350
 2047SOL     H1 8632   2.051   1.201   2.575  0.7767  0.0942 -0.9125
 2047SOL     H2 8633   1.999   1.288   2.463  1.4362  0.2262 -1.1214
 2047SOL    EPW 8634   2.063   1.271   2.522  0.7005  0.6571 -0.1895
 2048SOL      O 8635   4.326   1.842   2.427  0.0815  0.0098 -0.3574
 2048SOL     H1 8636   4.355   1.921   2.382 -0.3395  0.4746  0.1865
 2048SOL     H2 8637   4.383   1.836   2.504 -0.6140  0.3879  0.1894
 2048SOL    EPW 8638   4.335   1.850   2.431 -0.0376  0.0997 -0.2411
 2049SOL      O 8639   5.758   4.503   0.454 -0.5033  0.9099  0.2424
 2049SOL     H1 8640   5.738   4.422   0.501 -1.3431  0.9261 -0.0816
 2049SOL     H2 8641   5.705   4.570   0.498 -2.5850  0.6268 -1.7669
 2049SOL    EPW 8642   5.750   4.502   0.464 -0.8149  0.8815 -0.0065
 2050SOL      O 8643   5.713   3.594   1.478 -0.2575 -0.6606 -0.0225
 2050SOL     H1 8644   5.701   3.668   1.538  1.9915 -0.6591  0.4778
 2050SOL     H2 8645   5.663   3.617   1.400 -1.5639  0.2705  1.0792
 2050SOL    EPW 8646   5.707   3.604   1.476 -0.1569 -0.5611  0.1484
 2051SOL      O 8647   3.936   3.856   3.378  0.2648  0.4649 -0.1082
 2051SOL     H1 8648   3.906   3.917   3.311 -0.2576 -0.4742 -0.7402
 2051SOL     H2 8649   4.017   3.820   3.343 -0.2067 -0.3096 -0.4108
 2051SOL    EPW 8650   3.942   3.858   3.367  0.1588  0.2821 -0.2079
 2052SOL      O 8651   2.205   0.947   2.785 -0.1225  0.4394  0.5417
 2052SOL     H1 8652   2.151   0.944   2.864 -1.0912 -0.4928 -0.1540
 2052SOL     H2 8653   2.143   0.965   2.714  0.3374 -1.4645 -0.3752
 2052SOL    EPW 8654   2.192   0.949   2.786 -0.1768  0.1369  0.3696
 2053SOL      O 8655   5.064   2.895   0.233  0.3927  0.0429  0.3325
 2053SOL     H1 8656   4.973   2.917   0.209  0.9192  1.2027 -0.7015
 2053SOL     H2 8657   5.115   2.969   0.200  1.5746  0.0224  2.0648
 2053SOL    EPW 8658   5.060   2.905   0.227  0.5749  0.1644  0.4070
 2054SOL      O 8659   5.180   3.788   1.543  0.5225  0.5454  0.1992
 2054SOL     H1 8660   5.133   3.848   1.601  1.0861  1.4228 -0.2405
 2054SOL     H2 8661   5.237   3.738   1.601  0.1315  0.5049  0.5531
 2054SOL    EPW 8662   5.181   3.789   1.555  0.5409  0.6347  0.1900
 2055SOL      O 8663   0.112   4.019   0.776 -0.1582 -0.3353 -0.2668
 2055SOL     H1 8664   0.118   4.106   0.737  0.7520  0.8869  2.4194
 2055SOL     H2 8665   0.025   4.016   0.816  0.3038 -0.0968  0.7950
 2055SOL    EPW 8666   0.103   4.028   0.776 -0.0118 -0.1795  0.1330
 2056SOL      O 8667   5.758   2.614   0.712 -0.1099 -0.0901 -0.2590
 2056SOL     H1 8668   5.803   2.696   0.690  1.1118 -1.2497 -2.2558
 2056SOL     H2 8669   5.679   2.615   0.657 -1.5288  0.9574  1.7039
 2056SOL    EPW 8670   5.754   2.623   0.704 -0.1309 -0.1020 -0.2626
 2057SOL      O 8671   3.066   1.811   2.061 -0.0607  0.1686 -0.6130
 2057SOL     H1 8672   3.154   1.826   2.097  1.9151  0.3606 -5.1624
 2057SOL     H2 8673   3.072   1.725   2.019 -2.3024 -0.1368 -0.3839
 2057SOL    EPW 8674   3.076   1.803   2.061 -0.0890  0.1565 -1.0739
 2058SOL      O 8675   1.621   5.848   3.431  0.3031  0.2391 -0.8333
 2058SOL     H1 8676   1.535   5.866   3.392 -1.2147 -1.4081  1.6349
 2058SOL     H2 8677   1.661   5.785   3.370  0.1565  1.6699 -2.4557
 2058SOL    EPW 8678   1.616   5.843   3.420  0.1255  0.2160 -0.7430
 2059SOL      O 8679   0.510   3.703   0.526  0.0920 -0.3657 -0.3892
 2059SOL     H1 8680   0.453   3.758   0.580  0.7320 -0.9822  0.9492
 2059SOL     H2 8681   0.451   3.660   0.464 -0.8050 -0.4636  0.5179
 2059SOL    EPW 8682   0.498   3.704   0.525  0.0646 -0.4419 -0.1496
 2060SOL      O 8683   2.180   1.252   3.254 -0.0355  0.4605 -0.4753
 2060SOL     H1 8684   2.095   1.295   3.257 -0.2046  0.0261  1.0950
 2060SOL     H2 8685   2.199   1.243   3.160 -0.3429  3.2145 -0.8442
 2060SOL    EPW 8686   2.173   1.255   3.244 -0.0863  0.7080 -0.3471
 2061SOL      O 8687   3.153   5.244   3.269 -0.4129 -0.3268  0.2465
 2061SOL     H1 8688   3.139   5.258   3.175 -0.5586  0.4460  0.3817
 2061SOL     H2 8689   3.123   5.154   3.284  0.1329 -0.6514 -0.5484
 2061SOL    EPW 8690   3.148   5.236   3.261 -0.3702 -0.2790  0.1761
 2062SOL      O 8691   0.990   4.366   0.986  0.1212 -0.1804 -0.6992
 2062SOL     H1 8692   1.028   4.404   1.065  0.8452  0.1931 -1.2307
 2062SOL     H2 8693   0.990   4.437   0.922 -0.5221 -0.4642 -1.0211
 2062SOL    EPW 8694   0.994   4.377   0.987  0.1298 -0.1709 -0.7902
 2063SOL      O 8695   3.478   2.099   2.852  0.5141  0.0066 -0.1351
 2063SOL     H1 8696   3.382   2.100   2.856  0.3925  1.4649 -2.2278
 2063SOL     H2 8697   3.505   2.152   2.927 -0.2467 -1.8766  1.4892
 2063SOL    EPW 8698   3.471   2.105   2.860  0.4199 -0.0387 -0.1850
 2064SOL      O 8699   4.309   3.354   1.752 -0.2972  0.3903 -0.4547
 2064SOL     H1 8700   4.301   3.381   1.844  0.0871 -0.4554 -0.1660
 2064SOL     H2 8701   4.324   3.260   1.756  0.9305  0.5426 -1.3447
 2064SOL    EPW 8702   4.309   3.347   1.762 -0.1252  0.3164 -0.5188
 2065SOL      O 8703   0.692   1.765   3.825 -0.0423  0.3669 -0.6110
 2065SOL     H1 8704   0.663   1.741   3.737 -0.0067  0.5417 -0.6722
 2065SOL     H2 8705   0.641   1.710   3.883  0.4959 -0.3076 -0.7744
 2065SOL    EPW 8706   0.683   1.757   3.821  0.0189  0.3136 -0.6350
 2066SOL      O 8707   3.761   1.675   2.553  0.8248  0.3925  0.0556
 2066SOL     H1 8708   3.838   1.722   2.521  0.4401  0.6421 -0.5020
 2066SOL     H2 8709   3.734   1.723   2.631 -0.2322  1.7664 -1.1342
 2066SOL    EPW 8710   3.766   1.685   2.558  0.6710  0.5657 -0.1308
 2067SOL      O 8711   3.828   0.479   3.801 -0.0942 -0.1299  0.1049
 2067SOL     H1 8712   3.765   0.530   3.852  0.8585  0.7265  0.4449
 2067SOL     H2 8713   3.842   0.400   3.852 -0.3930 -0.0210  0.3541
 2067SOL    EPW 8714   3.823   0.476   3.812 -0.0245 -0.0270  0.1678
 2068SOL      O 8715   1.581   1.746   4.097  0.1793 -0.0217  0.0177
 2068SOL     H1 8716   1.618   1.832   4.117 -0.1311  0.7974 -2.7162
 2068SOL     H2 8717   1.541   1.717   4.179  1.3629  1.8811  1.3012
 2068SOL    EPW 8718   1.580   1.752   4.108  0.2724  0.2686 -0.1370
 2069SOL      O 8719   5.613   4.439   0.200 -0.0647  0.5654  0.5657
 2069SOL     H1 8720   5.602   4.521   0.151 -0.0872  1.3215  1.8229
 2069SOL     H2 8721   5.675   4.461   0.270  2.2539 -1.2747 -0.8543
 2069SOL    EPW 8722   5.618   4.450   0.202  0.1802  0.4497  0.5483
 2070SOL      O 8723   2.198   0.822   3.973 -0.1427  0.5989  0.3008
 2070SOL     H1 8724   2.183   0.791   3.884 -1.1598 -0.6402  0.8776
 2070SOL     H2 8725   2.178   0.915   3.970 -2.4482  0.1126 -0.2743
 2070SOL    EPW 8726   2.194   0.828   3.963 -0.4971  0.4148  0.3010
 2071SOL      O 8727   2.165   0.083   2.626  0.7039  0.1319  0.1152
 2071SOL     H1 8728   2.202   0.010   2.576 -2.9775  0.7491 -3.7296
 2071SOL     H2 8729   2.199   0.162   2.583 -0.6846  0.6765 -0.0034
 2071SOL    EPW 8730   2.173   0.084   2.616  0.1630  0.2558 -0.3076
 2072SOL      O 8731   3.541   3.655   3.281 -0.2620 -0.2176  0.6913
 2072SOL     H1 8732   3.532   3.750   3.270 -1.5567 -0.5557 -1.4264
 2072SOL     H2 8733   3.467   3.619   3.232  0.3134 -2.3329  1.3680
 2072SOL    EPW 8734   3.532   3.662   3.275 -0.3387 -0.4793  0.5376
 2073SOL      O 8735   3.671   1.415   3.708  0.2163  0.2488  0.1834
 2073SOL     H1 8736   3.711   1.333   3.735  1.6584 -0.0709 -2.7136
 2073SOL     H2 8737   3.577   1.395   3.701  0.4283 -0.8620  0.4965
 2073SOL    EPW 8738   3.665   1.404   3.710  0.3928  0.0962 -0.0923
 2074SOL      O 8739   1.868   1.621   3.133 -0.0371  0.5011  0.2910
 2074SOL     H1 8740   1.903   1.577   3.055 -2.6604  2.0050 -1.8279
 2074SOL     H2 8741   1.914   1.705   3.136  1.1657 -0.1711  1.2966
 2074SOL    EPW 8742   1.877   1.625   3.125 -0.1887  0.5898  0.1722
 2075SOL      O 8743   4.113   3.252   1.411 -0.4530  0.0393 -0.3134
 2075SOL     H1 8744   4.207   3.241   1.405 -0.1285  2.0600  0.7466
 2075SOL     H2 8745   4.100   3.315   1.482 -2.5864 -0.0784 -0.5504
 2075SOL    EPW 8746   4.121   3.257   1.418 -0.6460  0.2423 -0.2256
 2076SOL      O 8747   1.824   1.234   3.851 -0.0793 -0.0388  0.1275
 2076SOL     H1 8748   1.741   1.280   3.853 -0.3032 -0.4542  0.6550
 2076SOL     H2 8749   1.852   1.237   3.760 -0.6474  0.1510 -0.0397
 2076SOL    EPW 8750   1.818   1.239   3.842 -0.1638 -0.0629  0.1659
 2077SOL      O 8751   1.352   1.281   3.628 -0.1155 -0.1807 -0.5327
 2077SOL     H1 8752   1.347   1.190   3.656  1.0450 -0.6156 -1.6974
 2077SOL     H2 8753   1.273   1.321   3.664 -0.4931 -1.5704  0.2379
 2077SOL    EPW 8754   1.343   1.276   3.635 -0.0320 -0.3753 -0.5747
 2078SOL      O 8755   4.554   1.773   2.576 -0.1872 -0.1087 -0.8270
 2078SOL     H1 8756   4.532   1.712   2.506 -0.9781 -1.8897  0.9216
 2078SOL     H2 8757   4.594   1.718   2.643  0.3147  1.5250  0.2393
 2078SOL    EPW 8758   4.556   1.760   2.576 -0.2180 -0.1244 -0.5267
 2079SOL      O 8759   3.944   0.941   4.112 -0.4935 -0.3170 -0.0803
 2079SOL     H1 8760   4.003   0.966   4.183 -0.7978  0.6861 -0.1769
 2079SOL     H2 8761   3.998   0.943   4.033 -0.6840  0.7524 -0.1904
 2079SOL    EPW 8762   3.956   0.944   4.111 -0.5463 -0.0959 -0.1023
 2080SOL      O 8763   1.705   1.546   3.954  0.0524  0.1670  0.5723
 2080SOL     H1 8764   1.655   1.609   4.007 -1.5931  0.7849 -1.6414
 2080SOL     H2 8765   1.640   1.480   3.929  0.7997 -0.0773 -0.7170
 2080SOL    EPW 8766   1.693   1.546   3.957 -0.0434  0.2069  0.1986
 2081SOL      O 8767   3.925   2.868   3.742 -0.1937 -0.5767 -0.1622
 2081SOL     H1 8768   3.980   2.896   3.669  0.9593  0.3927  1.0526
 2081SOL     H2 8769   3.852   2.930   3.742 -0.4021 -0.8188 -0.7287
 2081SOL    EPW 8770   3.923   2.878   3.734 -0.0930 -0.4991 -0.0930
 2082SOL      O 8771   3.368   0.742   4.002 -0.1604  0.0420  0.1128
 2082SOL     H1 8772   3.356   0.829   3.964  1.7530  0.1633 -0.2960
 2082SOL     H2 8773   3.458   0.744   4.036 -0.4521 -1.4414  0.9874
 2082SOL    EPW 8774   3.377   0.752   4.001  0.0126 -0.1033  0.1625
 2083SOL      O 8775   5.830   3.577   0.474  0.6384 -0.6380 -0.2688
 2083SOL     H1 8776   5.767   3.513   0.510 -0.7161  1.1260  0.6013
 2083SOL     H2 8777   5.804   3.587   0.383 -0.9114  0.6613  0.2746
 2083SOL    EPW 8778   5.820   3.571   0.468  0.3286 -0.3112 -0.1180
 2084SOL      O 8779   3.157   5.502   3.493 -0.4440 -0.6634  0.5138
 2084SOL     H1 8780   3.234   5.446   3.509  0.1579 -0.0656 -0.2517
 2084SOL     H2 8781   3.084   5.441   3.485 -0.1693 -1.2028  1.9134
 2084SOL    EPW 8782   3.158   5.490   3.494 -0.3505 -0.6572  0.5815
 2085SOL      O 8783   2.798   1.245   4.036 -0.0605 -0.5630 -0.4028
 2085SOL     H1 8784   2.845   1.290   4.106 -0.0669 -1.0107 -0.1103
 2085SOL     H2 8785   2.789   1.155   4.066  0.7352 -0.9832 -1.3797
 2085SOL    EPW 8786   2.802   1.240   4.046  0.0237 -0.6556 -0.4758
 2086SOL      O 8787   2.495   1.037   2.581 -0.0262 -0.3627 -0.7415
 2086SOL     H1 8788   2.480   0.944   2.602 -1.2001 -0.3750 -1.6331
 2086SOL     H2 8789   2.408   1.073   2.568  0.4121  0.9663 -0.0405
 2086SOL    EPW 8790   2.484   1.031   2.582 -0.1047 -0.2223 -0.7619
 2087SOL      O 8791   3.114   1.901   3.338  0.0930  0.8142 -0.6119
 2087SOL     H1 8792   3.116   1.869   3.428 -1.2631  1.5631 -0.2989
 2087SOL     H2 8793   3.203   1.886   3.305  0.1832 -0.8558  0.3553
 2087SOL    EPW 8794   3.124   1.896   3.344 -0.0420  0.7159 -0.4753
 2088SOL      O 8795   4.876   3.948   0.155 -0.7190  0.7500  0.1371
 2088SOL     H1 8796   4.813   3.987   0.215 -1.9747 -2.4688  1.0333
 2088SOL     H2 8797   4.825   3.886   0.103  1.2336 -0.0275 -0.9217
 2088SOL    EPW 8798   4.864   3.946   0.156 -0.6447  0.3237  0.1198
 2089SOL      O 8799   1.991   1.713   3.885  0.4662 -0.7358 -0.5543
 2089SOL     H1 8800   1.942   1.675   3.958  1.8131  2.0584  1.9082
 2089SOL     H2 8801   1.932   1.779   3.848 -0.2706 -2.2429 -2.1669
 2089SOL    EPW 8802   1.980   1.716   3.888  0.5313 -0.5985 -0.4637
 2090SOL      O 8803   3.159   5.840   4.113  0.8720 -0.4356  0.3714
 2090SOL     H1 8804   3.142   5.823   4.206 -1.4976  0.9302  0.2284
 2090SOL     H2 8805   3.116   5.768   4.067 -0.1112  0.2391  0.2279
 2090SOL    EPW 8806   3.153   5.831   4.118  0.5143 -0.2179  0.3408
 2091SOL      O 8807   4.928   2.508   2.089  0.3526  0.3379 -0.0766
 2091SOL     H1 8808   4.900   2.431   2.140  0.5189 -0.2007 -0.7850
 2091SOL     H2 8809   4.916   2.582   2.149 -2.4063  0.1023 -0.2873
 2091SOL    EPW 8810   4.924   2.507   2.101  0.0760  0.2553 -0.1746
 2092SOL      O 8811   0.238   2.930   0.845 -0.2033 -0.0467  0.1450
 2092SOL     H1 8812   0.212   3.019   0.869 -2.2607 -0.5255 -0.2228
 2092SOL     H2 8813   0.321   2.941   0.798  0.1628  1.5543  1.1273
 2092SOL    EPW 8814   0.244   2.941   0.842 -0.3837  0.0730  0.2106
 2093SOL      O 8815   3.861   2.788   0.229  0.0385 -0.1143 -0.2631
 2093SOL     H1 8816   3.880   2.828   0.144  0.5865  0.8007  0.2947
 2093SOL     H2 8817   3.946   2.774   0.269 -0.1812 -1.1812 -0.1365
 2093SOL    EPW 8818   3.872   2.791   0.224  0.0736 -0.1305 -0.1901
 2094SOL      O 8819   3.345   2.733   3.258 -0.4797  0.0674  0.6673
 2094SOL     H1 8820   3.393   2.705   3.180  1.3955 -0.6089  2.0371
 2094SOL     H2 8821   3.313   2.820   3.235 -0.3698 -0.3161 -1.0390
 2094SOL    EPW 8822   3.347   2.740   3.247 -0.2679 -0.0457  0.6314
 2095SOL      O 8823   4.818   2.956   0.164 -0.0130 -0.4480 -0.0428
 2095SOL     H1 8824   4.816   2.871   0.122  0.6339 -0.7240  0.4866
 2095SOL     H2 8825   4.737   2.959   0.215 -0.4236 -0.4195 -0.6831
 2095SOL    EPW 8826   4.809   2.948   0.165  0.0122 -0.4744 -0.0546
 2096SOL      O 8827   1.821   5.363   4.062  0.3408  0.5590  0.4793
 2096SOL     H1 8828   1.800   5.273   4.035  0.7085  0.3860  0.7593
 2096SOL     H2 8829   1.831   5.411   3.980  0.4146  0.2777  0.3243
 2096SOL    EPW 8830   1.820   5.358   4.050  0.3879  0.5106  0.4926
 2097SOL      O 8831   0.165   2.233   0.236 -0.2798 -0.3814  0.3386
 2097SOL     H1 8832   0.206   2.318   0.217 -1.3399 -0.3509 -1.9783
 2097SOL     H2 8833   0.235   2.169   0.219 -0.6329 -0.2152 -1.9910
 2097SOL    EPW 8834   0.177   2.235   0.232 -0.4305 -0.3604 -0.1571
 2098SOL      O 8835   2.020   0.313   3.953 -0.4044  0.5405 -0.1086
 2098SOL     H1 8836   2.103   0.355   3.930 -0.1461 -0.1369 -0.4343
 2098SOL     H2 8837   2.012   0.325   4.047  0.4678 -0.1062  0.0566
 2098SOL    EPW 8838   2.028   0.319   3.960 -0.2838  0.3993 -0.1257
 2099SOL      O 8839   0.039   2.623   1.423  0.2874  0.0608  0.3367
 2099SOL     H1 8840   0.119   2.617   1.372  0.2676  2.1957  0.0149
 2099SOL     H2 8841   0.068   2.620   1.514  0.5897 -0.6612  0.2171
 2099SOL    EPW 8842   0.050   2.622   1.428  0.3176  0.2115  0.2896
 2100SOL      O 8843   2.786   2.413   3.743 -0.1146  0.3943 -0.2597
 2100SOL     H1 8844   2.705   2.457   3.719 -0.4209  1.3911  2.4452
 2100SOL     H2 8845   2.845   2.482   3.773  1.1376 -0.4932 -0.5970
 2100SOL    EPW 8846   2.784   2.425   3.744 -0.0137  0.4059 -0.0071
 2101SOL      O 8847   1.663   0.445   4.148 -0.3738  0.3696 -0.4040
 2101SOL     H1 8848   1.727   0.429   4.216 -1.7044 -0.3340  0.6912
 2101SOL     H2 8849   1.692   0.392   4.074 -0.3293 -0.8400  0.4757
 2101SOL    EPW 8850   1.673   0.438   4.147 -0.5110  0.1655 -0.1933
 2102SOL      O 8851   5.689   5.029   0.028  0.1565 -0.8192 -0.0282
 2102SOL     H1 8852   5.769   5.054   0.074 -0.4998 -1.5591  1.5629
 2102SOL     H2 8853   5.713   4.948  -0.018  0.5385 -0.6196 -0.1821
 2102SOL    EPW 8854   5.700   5.023   0.028  0.1273 -0.8769  0.1251
 2103SOL      O 8855   4.255   2.384   1.410  0.0050  0.3525 -0.1211
 2103SOL     H1 8856   4.330   2.366   1.467 -0.7253 -0.6372  0.5583
 2103SOL     H2 8857   4.294   2.403   1.325  0.9904 -1.5751 -0.1467
 2103SOL    EPW 8858   4.267   2.384   1.407  0.0322  0.0413 -0.0513
 2104SOL      O 8859   2.540   0.864   3.674 -0.1800 -0.4948 -0.2436
 2104SOL     H1 8860   2.509   0.815   3.750 -1.1168  1.2980  0.5621
 2104SOL     H2 8861   2.635   0.864   3.682 -0.3353  1.5820  2.1940
 2104SOL    EPW 8862   2.547   0.859   3.683 -0.2965 -0.0820  0.1024
 2105SOL      O 8863   3.239   2.650   1.723  0.1510 -0.0747  0.1965
 2105SOL     H1 8864   3.254   2.642   1.817 -2.3067 -0.4361  0.5752
 2105SOL     H2 8865   3.316   2.696   1.690  0.8451  0.3882  2.4328
 2105SOL    EPW 8866   3.249   2.654   1.729 -0.0371 -0.0639  0.4755
 2106SOL      O 8867   0.052   0.668   3.240 -0.2804  1.1002  0.2845
 2106SOL     H1 8868   0.062   0.683   3.334  0.0476  0.5667  0.3380
 2106SOL     H2 8869   0.114   0.598   3.220 -1.2763  0.3258 -0.0929
 2106SOL    EPW 8870   0.060   0.662   3.248 -0.3517  0.9607  0.2499
 2107SOL      O 8871   3.907   1.877   4.051 -0.2723 -0.4145 -0.0589
 2107SOL     H1 8872   3.891   1.833   3.967 -0.7183  1.1952 -0.8559
 2107SOL     H2 8873   3.859   1.825   4.115 -0.4785 -1.2947 -0.9118
 2107SOL    EPW 8874   3.900   1.867   4.049 -0.3419 -0.3367 -0.2349
 2108SOL      O 8875   2.408   1.263   3.446 -0.4906  0.4882 -0.3755
 2108SOL     H1 8876   2.318   1.267   3.413 -0.4786 -0.5145 -0.5395
 2108SOL     H2 8877   2.399   1.275   3.541 -0.7666  0.6253 -0.4181
 2108SOL    EPW 8878   2.397   1.265   3.453 -0.5187  0.3959 -0.3975
 2109SOL      O 8879   5.294   4.605   0.275 -0.0804 -0.0623  0.9581
 2109SOL     H1 8880   5.306   4.523   0.227  0.3916  0.5453  0.0182
 2109SOL     H2 8881   5.201   4.625   0.267  0.1834  0.5989 -0.6584
 2109SOL    EPW 8882   5.286   4.598   0.269 -0.0019  0.0730  0.6854
 2110SOL      O 8883   3.004   0.601   3.904  0.3730  0.1858 -0.3172
 2110SOL     H1 8884   2.977   0.601   3.996 -0.1008  1.5190 -0.4539
 2110SOL     H2 8885   3.025   0.692   3.885 -0.0418  0.0003 -1.6945
 2110SOL    EPW 8886   3.003   0.610   3.912  0.2782  0.3082 -0.4787
 2111SOL      O 8887   2.614   0.526   3.545  0.4816 -0.5528  0.5302
 2111SOL     H1 8888   2.552   0.471   3.497  0.6098  0.1201 -0.4241
 2111SOL     H2 8889   2.622   0.605   3.491  0.6854  0.1840  1.6254
 2111SOL    EPW 8890   2.608   0.529   3.534  0.5170 -0.4024  0.5452
 2112SOL      O 8891   2.594   0.113   2.863  0.0126  0.2743  0.3628
 2112SOL     H1 8892   2.504   0.083   2.871  0.4877 -0.9730  1.1547
 2112SOL     H2 8893   2.589   0.208   2.878 -1.1860  0.2465  0.1642
 2112SOL    EPW 8894   2.584   0.120   2.865 -0.0645  0.1383  0.4261
 2113SOL      O 8895   3.563   2.265   3.052 -0.1378  0.2738  0.3833
 2113SOL     H1 8896   3.617   2.340   3.027  0.7626 -0.4385  0.1368
 2113SOL     H2 8897   3.476   2.301   3.065  0.1740  1.2740 -0.2424
 2113SOL    EPW 8898   3.560   2.277   3.051 -0.0085  0.3045  0.2903
 2114SOL      O 8899   4.924   3.313   0.055 -0.0056  0.8463 -0.1484
 2114SOL     H1 8900   4.881   3.275   0.131 -0.5100 -1.0970 -1.3796
 2114SOL     H2 8901   5.000   3.358   0.091 -0.6397  0.5658  1.5768
 2114SOL    EPW 8902   4.928   3.314   0.067 -0.1271  0.6091 -0.0957
 2115SOL      O 8903   2.515   1.263   3.192 -0.3307  0.0326  0.2323
 2115SOL     H1 8904   2.478   1.254   3.280  1.5017 -2.3266  0.8158
 2115SOL     H2 8905   2.461   1.206   3.137  0.0876 -0.4658  0.3363
 2115SOL    EPW 8906   2.506   1.256   3.196 -0.0906 -0.2723  0.3057
 2116SOL      O 8907   3.441   3.125   3.170 -0.3148 -0.0383 -0.2615
 2116SOL     H1 8908   3.504   3.187   3.206 -0.2563 -0.2263 -0.0392
 2116SOL     H2 8909   3.491   3.074   3.106  0.4435 -1.9700  1.8033
 2116SOL    EPW 8910   3.453   3.126   3.167 -0.2276 -0.2644 -0.0175
 2117SOL      O 8911   5.001   2.033   3.602  0.4282 -0.4978 -0.1996
 2117SOL     H1 8912   4.927   1.973   3.614 -0.1520  0.4206  0.9074
 2117SOL     H2 8913   4.961   2.114   3.571  0.8354  0.3262  1.3554
 2117SOL    EPW 8914   4.989   2.035   3.600  0.4098 -0.3119  0.0843
 2118SOL      O 8915   3.430   1.843   0.883  0.2109  0.6043  0.4418
 2118SOL     H1 8916   3.471   1.833   0.797 -0.3640 -1.8407  0.4058
 2118SOL     H2 8917   3.499   1.879   0.938  1.5891 -0.8120 -0.2914
 2118SOL    EPW 8918   3.442   1.846   0.879  0.2966  0.1924  0.3597
 2119SOL      O 8919   4.737   2.024   0.992 -0.2312 -0.2123  0.4491
 2119SOL     H1 8920   4.759   2.019   0.899 -0.4534  1.1540  0.3035
 2119SOL     H2 8921   4.791   1.957   1.033 -0.9115 -1.5505 -0.7920
 2119SOL    EPW 8922   4.745   2.017   0.986 -0.3275 -0.2093  0.3011
 2120SOL      O 8923   3.936   2.503   1.813  0.9474 -0.1031  0.4135
 2120SOL     H1 8924   4.001   2.574   1.808  0.8731 -0.2088 -2.6836
 2120SOL     H2 8925   3.975   2.432   1.763  1.1641 -2.4762  3.7842
 2120SOL    EPW 8926   3.947   2.503   1.807  0.9626 -0.3676  0.4427
 2121SOL      O 8927   3.724   2.519   1.434  0.0423  0.0818  0.0925
 2121SOL     H1 8928   3.808   2.521   1.388  0.0961  1.9183  0.2506
 2121SOL     H2 8929   3.701   2.611   1.446 -1.0570 -0.3980  1.7791
 2121SOL    EPW 8930   3.731   2.529   1.430 -0.0692  0.2265  0.2893
 2122SOL      O 8931   4.627   3.116   1.234 -0.0662  0.3450  0.1549
 2122SOL     H1 8932   4.677   3.163   1.300  0.8860 -0.9144  0.3497
 2122SOL     H2 8933   4.540   3.105   1.273  0.6808 -0.9893  1.4937
 2122SOL    EPW 8934   4.623   3.120   1.245  0.1151  0.0683  0.3185
 2123SOL      O 8935   5.758   5.178   3.430 -0.1565  0.2170 -0.0469
 2123SOL     H1 8936   5.794   5.266   3.415 -1.1163  0.3075 -1.9691
 2123SOL     H2 8937   5.695   5.165   3.359  2.4724 -3.4105 -1.8671
 2123SOL    EPW 8938   5.755   5.186   3.421  0.0215 -0.1603 -0.4461
 2124SOL      O 8939   2.521   3.568   2.005 -0.2170  0.5183  0.1830
 2124SOL     H1 8940   2.566   3.498   1.958  0.1780  1.2865 -0.5885
 2124SOL     H2 8941   2.440   3.527   2.037 -0.1772 -0.1809 -0.5990
 2124SOL    EPW 8942   2.517   3.556   2.004 -0.1706  0.5257  0.0173
 2125SOL      O 8943   1.671   2.563   0.405  0.6044 -0.5896 -0.0884
 2125SOL     H1 8944   1.630   2.625   0.344  1.0165  0.5834  0.8116
 2125SOL     H2 8945   1.599   2.535   0.462  0.7921  0.4639  0.6628
 2125SOL    EPW 8946   1.659   2.566   0.404  0.6684 -0.3521  0.0877
 2126SOL      O 8947   5.060   4.803   4.084 -0.2203 -0.0474 -0.1386
 2126SOL     H1 8948   4.997   4.736   4.056 -0.9880  0.4103  0.4763
 2126SOL     H2 8949   5.143   4.775   4.045 -0.3272 -1.8757  0.8675
 2126SOL    EPW 8950   5.062   4.792   4.077 -0.3136 -0.1936  0.0343
 2127SOL      O 8951   2.774   2.320   0.344 -0.2624  0.6628  0.2532
 2127SOL     H1 8952   2.804   2.407   0.317 -0.6423  0.5546 -0.5322
 2127SOL     H2 8953   2.852   2.265   0.337 -0.0621  0.9036  0.5869
 2127SOL    EPW 8954   2.786   2.323   0.340 -0.2816  0.6769  0.2050
 2128SOL      O 8955   2.548   3.968   1.228 -0.6493 -0.1572  0.5681
 2128SOL     H1 8956   2.603   4.020   1.169  0.2336  0.6117  2.0327
 2128SOL     H2 8957   2.474   3.942   1.174  0.2476  0.3386 -0.9439
 2128SOL    EPW 8958   2.546   3.971   1.216 -0.4594 -0.0223  0.5631
 2129SOL      O 8959   2.975   1.597   0.273 -0.3466 -0.1082 -0.1866
 2129SOL     H1 8960   3.040   1.528   0.286 -0.8830 -0.6019 -0.1038
 2129SOL     H2 8961   2.978   1.649   0.354 -3.5708 -3.0819  2.0149
 2129SOL    EPW 8962   2.982   1.595   0.283 -0.7477 -0.4781  0.0571
 2130SOL      O 8963   4.129   1.503   1.868 -0.2341 -0.1656 -0.0391
 2130SOL     H1 8964   4.194   1.550   1.920 -0.4550  0.2264 -0.1127
 2130SOL     H2 8965   4.172   1.420   1.846  0.8442  0.7118 -1.3740
 2130SOL    EPW 8966   4.141   1.499   1.871 -0.1426 -0.0302 -0.1894
 2131SOL      O 8967   4.880   3.073   3.685  0.3293  0.1461  0.2493
 2131SOL     H1 8968   4.941   3.074   3.611  0.1961  0.0846  0.1387
 2131SOL     H2 8969   4.843   3.161   3.687  1.6655  0.7124  1.3539
 2131SOL    EPW 8970   4.883   3.082   3.677  0.4576  0.1999  0.3554
 2132SOL      O 8971   2.060   4.793   2.344  0.0970 -0.1596 -0.3815
 2132SOL     H1 8972   2.092   4.703   2.335 -1.0776 -0.7072  0.7875
 2132SOL     H2 8973   2.033   4.799   2.435 -0.6759  1.1030 -0.6942
 2132SOL    EPW 8974   2.061   4.784   2.353 -0.1107 -0.0833 -0.2902
 2133SOL      O 8975   5.718   3.041   1.865  0.2787  0.5223  0.5763
 2133SOL     H1 8976   5.664   3.090   1.802 -0.3632 -0.1091  0.6308
 2133SOL     H2 8977   5.722   2.952   1.830  1.4126  0.5972  0.5027
 2133SOL    EPW 8978   5.712   3.037   1.855  0.3312  0.4629  0.5743
 2134SOL      O 8979   2.345   3.167   0.031 -0.1786  0.3547  0.4683
 2134SOL     H1 8980   2.286   3.208  -0.032  0.2838 -1.3332 -1.1107
 2134SOL     H2 8981   2.311   3.078   0.040  0.7650  0.0764  1.3085
 2134SOL    EPW 8982   2.335   3.162   0.025 -0.0286  0.1450  0.3895
 2135SOL      O 8983   2.587   4.614   0.211  0.3584 -0.4735  0.3834
 2135SOL     H1 8984   2.560   4.623   0.302 -2.4294 -1.2722 -0.3158
 2135SOL     H2 8985   2.581   4.703   0.175 -0.6199 -0.5166  0.4369
 2135SOL    EPW 8986   2.584   4.625   0.217 -0.0433 -0.5633  0.3145
 2136SOL      O 8987   2.842   3.462   2.734 -0.1518  0.3793 -0.0795
 2136SOL     H1 8988   2.869   3.554   2.738 -0.5941  0.5076 -0.0277
 2136SOL     H2 8989   2.883   3.421   2.809 -0.3140  0.6336  0.1497
 2136SOL    EPW 8990   2.849   3.468   2.742 -0.2163  0.4201 -0.0496
 2137SOL      O 8991   2.533   2.596   0.277  0.5801  0.5995 -1.1348
 2137SOL     H1 8992   2.457   2.654   0.281  0.6841  0.5867  2.0209
 2137SOL     H2 8993   2.607   2.653   0.300  1.0531 -0.1685 -0.7658
 2137SOL    EPW 8994   2.533   2.609   0.280  0.6417  0.5162 -0.7588
 2138SOL      O 8995   5.149   0.784   1.411 -0.0820 -0.3493 -0.1377
 2138SOL     H1 8996   5.238   0.815   1.430  0.1826 -0.7981 -0.6271
 2138SOL     H2 8997   5.106   0.858   1.367  0.0148 -0.0914  0.2058
 2138SOL    EPW 8998   5.154   0.796   1.408 -0.0434 -0.3697 -0.1532
 2139SOL      O 8999   4.824   4.819   3.769  0.1674 -0.2863 -0.6228
 2139SOL     H1 9000   4.912   4.781   3.761  0.5614 -0.0179  2.1227
 2139SOL     H2 9001   4.770   4.748   3.802  0.1618  0.5421  1.2003
 2139SOL    EPW 9002   4.828   4.807   3.772  0.2088 -0.1693 -0.1354
 2140SOL      O 9003   4.779   5.338   3.691  0.0587  0.1491 -0.5191
 2140SOL     H1 9004   4.825   5.376   3.616 -1.0879  1.4112 -0.6167
 2140SOL     H2 9005   4.694   5.310   3.655  0.5833 -1.7867 -0.2642
 2140SOL    EPW 9006   4.775   5.339   3.679 -0.0077  0.0772 -0.5023
 2141SOL      O 9007   4.231   3.284   0.384 -0.4134 -0.5218  0.6322
 2141SOL     H1 9008   4.248   3.369   0.426 -1.1333 -0.5637  1.0206
 2141SOL     H2 9009   4.317   3.242   0.379 -0.1474 -0.0279  1.0177
 2141SOL    EPW 9010   4.242   3.289   0.388 -0.4619 -0.4736  0.7148
 2142SOL      O 9011   1.313   5.815   3.805  0.8926 -0.7334 -0.4883
 2142SOL     H1 9012   1.379   5.770   3.752  0.5967 -0.2257 -1.2913
 2142SOL     H2 9013   1.277   5.746   3.861  1.3869 -1.2237 -0.7611
 2142SOL    EPW 9014   1.316   5.803   3.805  0.9137 -0.7315 -0.6030
 2143SOL      O 9015   1.057   4.944   3.073 -0.1707 -0.2012 -0.3128
 2143SOL     H1 9016   1.109   4.895   3.010  0.1471 -1.3576  0.8208
 2143SOL     H2 9017   1.113   4.950   3.151 -0.9354  0.3354  0.2068
 2143SOL    EPW 9018   1.068   4.939   3.075 -0.2184 -0.2674 -0.1364
 2144SOL      O 9019   2.015   2.177   1.251  0.2453 -0.0498 -0.3859
 2144SOL     H1 9020   2.037   2.264   1.217 -0.7564  0.7500  0.9507
 2144SOL     H2 9021   2.070   2.167   1.329  0.1034 -0.4450 -0.3360
 2144SOL    EPW 9022   2.023   2.185   1.256  0.1233 -0.0067 -0.2380
 2145SOL      O 9023   2.996   2.978   2.738  0.0252 -0.0850 -0.3269
 2145SOL     H1 9024   3.039   3.063   2.743 -1.1307  0.6592 -2.4739
 2145SOL     H2 9025   3.031   2.939   2.657 -1.0312 -0.7615 -0.4607
 2145SOL    EPW 9026   3.005   2.983   2.730 -0.2108 -0.0777 -0.5702
 2146SOL      O 9027   2.629   2.673   2.173  0.8155  0.0597 -0.1521
 2146SOL     H1 9028   2.626   2.737   2.101 -1.2902 -0.3512 -0.4740
 2146SOL     H2 9029   2.663   2.593   2.132 -0.7516 -0.2893 -0.8181
 2146SOL    EPW 9030   2.632   2.672   2.161  0.4237 -0.0214 -0.2575
 2147SOL      O 9031   3.137   2.594   0.157  0.1245 -0.4821 -0.3721
 2147SOL     H1 9032   3.151   2.656   0.086  1.6874 -0.4228 -0.0142
 2147SOL     H2 9033   3.162   2.510   0.121  1.6256 -0.3446  0.3378
 2147SOL    EPW 9034   3.141   2.592   0.146  0.4514 -0.4611 -0.2582
 2148SOL      O 9035   4.879   2.222   1.110  0.2309  0.0737  0.0937
 2148SOL     H1 9036   4.840   2.151   1.059 -0.2528  0.0544  0.4852
 2148SOL     H2 9037   4.921   2.278   1.045 -1.1294  0.5213 -0.4169
 2148SOL    EPW 9038   4.880   2.221   1.098  0.0342  0.1194  0.0810
 2149SOL      O 9039   0.148   4.744   4.002 -0.3504  0.2188  0.0848
 2149SOL     H1 9040   0.197   4.818   4.038 -0.8351  0.8485 -0.5304
 2149SOL     H2 9041   0.124   4.691   4.078 -0.1597  0.7906  0.5457
 2149SOL    EPW 9042   0.151   4.746   4.014 -0.3818  0.3470  0.0684
 2150SOL      O 9043   0.881   3.963   1.423 -0.4304  0.2988 -0.4327
 2150SOL     H1 9044   0.972   3.938   1.443 -1.1945 -1.0070  1.5043
 2150SOL     H2 9045   0.845   3.886   1.379 -1.0488  0.2390  0.1762
 2150SOL    EPW 9046   0.887   3.952   1.420 -0.5779  0.1531 -0.1611
 2151SOL      O 9047   4.265   1.190   0.122  0.3568 -0.1228 -0.2995
 2151SOL     H1 9048   4.230   1.204   0.210 -0.0402 -0.0922 -0.4600
 2151SOL     H2 9049   4.351   1.149   0.136  0.8612  1.0582  0.1346
 2151SOL    EPW 9050   4.271   1.187   0.133  0.3683  0.0064 -0.2703
 2152SOL      O 9051   1.925   4.095   0.536 -0.4005  0.1844  0.2569
 2152SOL     H1 9052   1.852   4.147   0.570 -1.5054 -0.0956 -1.6000
 2152SOL     H2 9053   1.896   4.068   0.449  2.2197  0.6314 -0.7936
 2152SOL    EPW 9054   1.914   4.098   0.531 -0.2388  0.2022 -0.0533
 2153SOL      O 9055   2.566   1.972   2.164 -0.0471 -0.6138  0.4273
 2153SOL     H1 9056   2.582   1.998   2.073 -1.2033 -0.9192  0.1328
 2153SOL     H2 9057   2.646   1.998   2.210  0.7424 -0.8924 -0.7566
 2153SOL    EPW 9058   2.577   1.978   2.159 -0.0862 -0.6761  0.2696
 2154SOL      O 9059   2.334   4.263   1.181  0.0228  0.4569 -0.0047
 2154SOL     H1 9060   2.359   4.327   1.248  1.2896 -0.6681  0.6175
 2154SOL     H2 9061   2.399   4.274   1.112 -1.0142  1.2959 -0.8633
 2154SOL    EPW 9062   2.344   4.271   1.181  0.0473  0.4264 -0.0299
 2155SOL      O 9063   2.567   2.502   1.095 -0.6305  0.2640 -0.0739
 2155SOL     H1 9064   2.632   2.547   1.040 -0.2204 -1.1075 -0.7338
 2155SOL     H2 9065   2.491   2.492   1.038 -0.1234 -1.3620 -0.4954
 2155SOL    EPW 9066   2.566   2.506   1.083 -0.5327 -0.0558 -0.1893
 2156SOL      O 9067   4.527   1.544   0.171  0.0484  0.3285 -0.2301
 2156SOL     H1 9068   4.450   1.558   0.226  0.8828  2.0123  0.5364
 2156SOL     H2 9069   4.571   1.468   0.211 -1.4567 -0.9517 -0.9722
 2156SOL    EPW 9070   4.524   1.537   0.181 -0.0231  0.3716 -0.2275
 2157SOL      O 9071   1.728   4.268   0.582  0.6587  0.1935  0.1427
 2157SOL     H1 9072   1.680   4.230   0.656  1.3511  0.9073  0.9623
 2157SOL     H2 9073   1.665   4.328   0.542 -0.1131 -1.0617 -0.5687
 2157SOL    EPW 9074   1.716   4.270   0.586  0.6503  0.1358  0.1542
 2158SOL      O 9075   3.716   1.609   0.703 -0.3813 -0.0539 -0.0935
 2158SOL     H1 9076   3.778   1.538   0.688 -0.9921 -0.3101 -1.5463
 2158SOL     H2 9077   3.659   1.577   0.773  1.4866  0.4348  1.6806
 2158SOL    EPW 9078   3.717   1.598   0.709 -0.2472 -0.0291 -0.0592
 2159SOL      O 9079   5.122   0.283   3.774  0.3106 -0.1564  0.5267
 2159SOL     H1 9080   5.183   0.351   3.744  1.5254 -1.2771  0.4110
 2159SOL     H2 9081   5.036   0.321   3.759  0.9169  0.3167 -2.0637
 2159SOL    EPW 9082   5.120   0.295   3.769  0.5049 -0.2255  0.2380
 2160SOL      O 9083   2.965   2.489   0.969 -0.5522  0.3421  0.3178
 2160SOL     H1 9084   2.881   2.518   0.933  0.3062  0.9531 -1.2092
 2160SOL     H2 9085   2.991   2.415   0.914  1.4234  2.1421 -1.2332
 2160SOL    EPW 9086   2.958   2.484   0.959 -0.2499  0.5993 -0.0106
 2161SOL      O 9087   3.379   3.760   1.491  0.3451 -0.6583 -0.4041
 2161SOL     H1 9088   3.474   3.757   1.500  0.3643 -1.1299 -0.7229
 2161SOL     H2 9089   3.364   3.770   1.397  0.1016  1.0315 -0.1949
 2161SOL    EPW 9090   3.388   3.760   1.482  0.3212 -0.5284 -0.4158
 2162SOL      O 9091   2.238   2.201   1.396 -0.5986 -0.2284  0.0258
 2162SOL     H1 9092   2.248   2.125   1.453 -2.2327 -0.4043  0.0899
 2162SOL     H2 9093   2.235   2.276   1.457 -1.0843 -0.2983  0.0837
 2162SOL    EPW 9094   2.239   2.201   1.409 -0.8247 -0.2546  0.0388
 2163SOL      O 9095   2.808   3.648   0.269 -0.3929  0.9476 -0.0147
 2163SOL     H1 9096   2.850   3.689   0.193 -0.3543  0.4863 -0.2389
 2163SOL     H2 9097   2.776   3.564   0.237 -0.8464  0.9814  0.3444
 2163SOL    EPW 9098   2.809   3.644   0.258 -0.4371  0.9020 -0.0003
 2164SOL      O 9099   5.340   1.624   0.699 -0.1554  0.3206  0.4443
 2164SOL     H1 9100   5.274   1.597   0.635 -1.0017 -2.6534  2.4719
 2164SOL     H2 9101   5.419   1.576   0.674 -0.1974 -0.0371  0.9750
 2164SOL    EPW 9102   5.341   1.616   0.690 -0.2502 -0.0348  0.7172
 2165SOL      O 9103   1.585   2.141   0.002 -0.2151 -0.0327 -0.2163
 2165SOL     H1 9104   1.520   2.170   0.065  2.0222  3.2349  0.7814
 2165SOL     H2 9105   1.611   2.054   0.031 -1.3142  0.2423  1.6339
 2165SOL    EPW 9106   1.581   2.135   0.012 -0.0936  0.3452  0.0875
 2166SOL      O 9107   0.151   2.279   1.109  0.5381  0.0314 -0.0678
 2166SOL     H1 9108   0.167   2.373   1.097 -0.8244  0.5111  1.4927
 2166SOL     H2 9109   0.229   2.247   1.154  0.2364  0.8180  1.0455
 2166SOL    EPW 9110   0.161   2.286   1.113  0.3606  0.1665  0.2174
 2167SOL      O 9111   1.987   4.983   0.541  0.4348  0.2732 -0.5311
 2167SOL     H1 9112   1.893   4.986   0.558  0.1217 -0.8435 -2.0126
 2167SOL     H2 9113   2.013   4.894   0.564  1.2123  0.6827  0.2208
 2167SOL    EPW 9114   1.980   4.974   0.545  0.4844  0.1978 -0.6089
 2168SOL      O 9115   4.557   2.451   0.798 -0.6475  0.4319 -0.4893
 2168SOL     H1 9116   4.523   2.414   0.880 -2.7180  0.4229 -1.3150
 2168SOL     H2 9117   4.586   2.374   0.748  1.1114  0.4811  0.4370
 2168SOL    EPW 9118   4.556   2.439   0.802 -0.6807  0.4362 -0.4786
 2169SOL      O 9119   1.777   3.394   0.331  0.0043  0.1725 -0.6211
 2169SOL     H1 9120   1.818   3.476   0.305 -0.2416  0.8673  1.1056
 2169SOL     H2 9121   1.832   3.361   0.402  1.2001 -2.1586 -2.5532
 2169SOL    EPW 9122   1.787   3.399   0.336  0.1056 -0.0021 -0.6430
 2170SOL      O 9123   3.988   3.763   1.494 -0.2497  0.2438  0.8082
 2170SOL     H1 9124   4.062   3.702   1.482 -0.3407 -0.0299  1.6076
 2170SOL     H2 9125   4.024   3.849   1.471  0.3355  0.1202  1.2485
 2170SOL    EPW 9126   4.000   3.765   1.490 -0.1970  0.2014  0.9404
 2171SOL      O 9127   2.681   2.830   1.945 -0.0848  0.0664  0.3440
 2171SOL     H1 9128   2.646   2.838   1.857 -0.1776 -0.2960  0.3498
 2171SOL     H2 9129   2.775   2.841   1.935 -0.3504  3.0952  0.5674
 2171SOL    EPW 9130   2.687   2.832   1.935 -0.1230  0.3508  0.3684
 2172SOL      O 9131   0.742   2.571   0.169  0.3534  0.4091  0.6776
 2172SOL     H1 9132   0.679   2.643   0.168 -0.2203 -0.0934  0.6169
 2172SOL     H2 9133   0.798   2.589   0.245  1.1344  1.7053 -0.1782
 2172SOL    EPW 9134   0.742   2.581   0.177  0.3755  0.4938  0.5798
 2173SOL      O 9135   1.330   2.075   1.149 -0.2266  0.4530  0.1780
 2173SOL     H1 9136   1.365   2.089   1.237  0.6820  0.3140 -0.1644
 2173SOL     H2 9137   1.352   1.984   1.129 -0.1718  0.5747 -0.3175
 2173SOL    EPW 9138   1.336   2.066   1.157 -0.1238  0.4512  0.0886
 2174SOL      O 9139   1.561   2.933   2.880  0.2032  0.4368  0.6316
 2174SOL     H1 9140   1.539   2.990   2.954 -1.2372  2.1164 -1.0301
 2174SOL     H2 9141   1.511   2.853   2.895 -1.7566  1.5819  0.4399
 2174SOL    EPW 9142   1.553   2.931   2.889 -0.1596  0.7382  0.4339
 2175SOL      O 9143   3.050   4.561   2.904  0.3772 -0.3322 -0.2354
 2175SOL     H1 9144   3.141   4.539   2.924 -0.3336 -2.5315  0.5954
 2175SOL     H2 9145   3.014   4.591   2.987 -0.4701 -2.3077  0.1301
 2175SOL    EPW 9146   3.056   4.562   2.915  0.2110 -0.7775 -0.1078
 2176SOL      O 9147   0.639   5.330   3.691  0.0111  0.2585 -0.0038
 2176SOL     H1 9148   0.611   5.239   3.684  0.7098  0.0124  0.2985
 2176SOL     H2 9149   0.718   5.334   3.636 -0.5567  0.9135 -0.7815
 2176SOL    EPW 9150   0.645   5.321   3.684  0.0250  0.3021 -0.0545
 2177SOL      O 9151   2.614   2.315   0.752 -0.0999 -0.5534 -0.2887
 2177SOL     H1 9152   2.695   2.295   0.705 -0.0182  0.8968 -0.8043
 2177SOL     H2 9153   2.552   2.339   0.683 -0.6377 -0.5735  0.1872
 2177SOL    EPW 9154   2.616   2.316   0.739 -0.1485 -0.4009 -0.2929
 2178SOL      O 9155   2.695   1.476   1.622  0.1535 -0.3961  0.0487
 2178SOL     H1 9156   2.741   1.393   1.620  0.3221 -0.3021  0.0141
 2178SOL     H2 9157   2.760   1.541   1.595 -0.7701 -0.6186 -2.8868
 2178SOL    EPW 9158   2.706   1.474   1.619  0.0730 -0.4098 -0.2681
 2179SOL      O 9159   4.234   4.149   4.071 -0.4736 -0.1411  0.5485
 2179SOL     H1 9160   4.266   4.060   4.060 -1.5384 -0.4546 -0.0673
 2179SOL     H2 9161   4.157   4.155   4.015  0.8970  1.8647 -1.2016
 2179SOL    EPW 9162   4.229   4.140   4.064 -0.4410  0.0394  0.2961
 2180SOL      O 9163   4.385   2.221   3.061  0.1208  0.8923 -0.1002
 2180SOL     H1 9164   4.355   2.294   3.006 -0.7544  1.6834  1.3893
 2180SOL     H2 9165   4.393   2.259   3.148 -1.7219 -1.1447  0.9966
 2180SOL    EPW 9166   4.382   2.233   3.064 -0.1691  0.7594  0.1757
 2181SOL      O 9167   2.596   3.112   0.126 -0.4385 -0.4997 -0.2409
 2181SOL     H1 9168   2.616   3.202   0.154 -0.2396 -1.2366  2.0390
 2181SOL     H2 9169   2.511   3.120   0.083 -1.8441  0.3442  2.5617
 2181SOL    EPW 9170   2.589   3.123   0.124 -0.5672 -0.4883  0.3013
 2182SOL      O 9171   3.409   2.174   1.388  0.0873  0.5917 -0.2761
 2182SOL     H1 9172   3.357   2.136   1.317  0.3090  1.0631 -0.6943
 2182SOL     H2 9173   3.496   2.188   1.349  0.5709 -0.3025  0.4462
 2182SOL    EPW 9174   3.413   2.171   1.376  0.1625  0.5466 -0.2437
 2183SOL      O 9175   1.237   4.028   0.784  0.1131  0.3338  0.3419
 2183SOL     H1 9176   1.150   4.035   0.745 -0.5204 -2.9584  1.0507
 2183SOL     H2 9177   1.221   3.998   0.873  2.0023 -0.9667  0.2749
 2183SOL    EPW 9178   1.226   4.026   0.789  0.2470 -0.1561  0.4103
 2184SOL      O 9179   2.688   3.172   1.682  0.0856  0.4130  0.3704
 2184SOL     H1 9180   2.769   3.125   1.663 -0.0517  0.6026 -0.6717
 2184SOL     H2 9181   2.625   3.104   1.701  0.3227  0.2409  0.5469
 2184SOL    EPW 9182   2.690   3.160   1.682  0.0962  0.4149  0.2780
 2185SOL      O 9183   2.868   2.998   1.033  0.0876 -0.3443  0.2389
 2185SOL     H1 9184   2.963   3.012   1.043 -0.0667  0.3385  0.7982
 2185SOL     H2 9185   2.843   3.055   0.960 -0.3604  1.5835  1.8541
 2185SOL    EPW 9186   2.876   3.006   1.026  0.0233 -0.0658  0.4708
 2186SOL      O 9187   4.767   2.905   1.481 -0.0944  0.1545 -0.1367
 2186SOL     H1 9188   4.799   2.895   1.391  1.1797  0.3187  0.3028
 2186SOL     H2 9189   4.813   2.837   1.530 -0.2922  0.5055  0.5290
 2186SOL    EPW 9190   4.775   2.897   1.477  0.0204  0.2095 -0.0188
 2187SOL      O 9191   2.038   4.697   0.624 -0.1735 -0.3111 -0.0279
 2187SOL     H1 9192   1.976   4.640   0.669 -1.2293  1.1327  0.3877
 2187SOL     H2 9193   2.056   4.652   0.541 -1.2525 -1.0827  0.1423
 2187SOL    EPW 9194   2.033   4.686   0.620 -0.4012 -0.2394  0.0346
 2188SOL      O 9195   2.621   2.829   1.489 -0.6248  0.0025 -0.3331
 2188SOL     H1 9196   2.586   2.882   1.561  0.2175  1.1999 -0.7874
 2188SOL     H2 9197   2.714   2.854   1.484 -0.2748 -1.3630 -0.6968
 2188SOL    EPW 9198   2.627   2.838   1.496 -0.4976 -0.0154 -0.4204
 2189SOL      O 9199   4.750   5.135   2.788 -1.0434  0.1617 -0.2639
 2189SOL     H1 9200   4.800   5.053   2.794 -1.0568  0.2237  0.7490
 2189SOL     H2 9201   4.658   5.106   2.788 -1.0391  0.1223 -0.9619
 2189SOL    EPW 9202   4.745   5.123   2.788 -1.0444  0.1641 -0.2303
 2190SOL      O 9203   0.966   5.227   3.055  0.3894 -0.3817 -0.6966
 2190SOL     H1 9204   0.893   5.277   3.092  0.5412  0.5117 -1.6085
 2190SOL     H2 9205   0.946   5.136   3.077 -2.3353 -0.4441 -3.1791
 2190SOL    EPW 9206   0.956   5.222   3.062  0.1149 -0.2931 -1.0587
 2191SOL      O 9207   4.003   1.983   0.806  0.1326  0.1375 -0.1275
 2191SOL     H1 9208   3.939   1.951   0.742  0.6918  0.2551 -0.7516
 2191SOL     H2 9209   4.007   1.915   0.873  0.6480 -0.6813 -0.9850
 2191SOL    EPW 9210   3.996   1.972   0.807  0.2472  0.0627 -0.2855
 2192SOL      O 9211   1.904   2.546   1.007 -0.1695  0.4663  0.5521
 2192SOL     H1 9212   1.835   2.485   1.032 -0.2063  0.5702  0.7042
 2192SOL     H2 9213   1.973   2.533   1.073 -1.2546  2.4449  2.1397
 2192SOL    EPW 9214   1.904   2.538   1.017 -0.2892  0.6885  0.7377
 2193SOL      O 9215   1.921   2.890   1.957  0.2226  0.2623  0.8283
 2193SOL     H1 9216   1.911   2.798   1.935  0.0143  0.5311 -0.2346
 2193SOL     H2 9217   1.924   2.892   2.053  1.4438 -0.9674  0.8240
 2193SOL    EPW 9218   1.920   2.881   1.965  0.3307  0.1598  0.7144
 2194SOL      O 9219   0.585   1.565   0.055 -0.3145  0.0791  0.4812
 2194SOL     H1 9220   0.596   1.491   0.115 -1.6541 -0.7120 -0.2314
 2194SOL     H2 9221   0.509   1.612   0.089  0.3111  0.9221  0.7170
 2194SOL    EPW 9222   0.578   1.562   0.065 -0.3906  0.0847  0.4304
 2195SOL      O 9223   0.091   5.135   3.814 -0.5438  0.0690 -0.1680
 2195SOL     H1 9224   0.138   5.169   3.890 -0.9245  0.0814  0.0613
 2195SOL     H2 9225   0.160   5.107   3.754 -0.2317 -2.4794  1.3169
 2195SOL    EPW 9226   0.103   5.136   3.815 -0.5511 -0.2015  0.0148
 2196SOL      O 9227   2.513   3.588   1.519  0.2216 -0.0693  0.6059
 2196SOL     H1 9228   2.596   3.551   1.550 -0.1957 -1.7429 -0.2230
 2196SOL     H2 9229   2.492   3.656   1.583  0.5358 -1.8979  2.7265
 2196SOL    EPW 9230   2.519   3.591   1.529  0.2106 -0.4429  0.7437
 2197SOL      O 9231   3.581   3.358   0.924  0.0813 -0.1093 -0.1048
 2197SOL     H1 9232   3.488   3.349   0.942 -0.0798  0.4420 -0.6706
 2197SOL     H2 9233   3.619   3.384   1.008 -0.1986 -0.7813  0.2411
 2197SOL    EPW 9234   3.576   3.360   0.935  0.0343 -0.1222 -0.1282
 2198SOL      O 9235   1.318   4.908   3.675  0.3042 -0.3790 -0.1782
 2198SOL     H1 9236   1.275   4.889   3.759  0.8090 -2.1776 -0.3169
 2198SOL     H2 9237   1.356   4.995   3.687 -3.1150  1.1739  0.0385
 2198SOL    EPW 9238   1.318   4.915   3.685 -0.0067 -0.4052 -0.1699
 2199SOL      O 9239   2.299   2.519   0.109  0.0441  0.0529  0.0162
 2199SOL     H1 9240   2.234   2.462   0.069  0.9371 -0.4332 -0.7678
 2199SOL     H2 9241   2.381   2.470   0.103  0.6608  1.0527  0.1152
 2199SOL    EPW 9242   2.301   2.508   0.104  0.2051  0.1077 -0.0569
 2200SOL      O 9243   3.933   1.455   0.660  0.2035 -0.1944 -0.0533
 2200SOL     H1 9244   3.963   1.483   0.574  0.8572 -3.4548 -0.9601
 2200SOL     H2 9245   3.936   1.359   0.657  1.8087 -0.4124  4.1157
 2200SOL    EPW 9246   3.937   1.448   0.651  0.4444 -0.5654  0.2947
 2201SOL      O 9247   2.011   4.070   2.222 -0.1576  0.6958 -0.0128
 2201SOL     H1 9248   1.964   4.032   2.147  0.6856  0.4879 -0.4382
 2201SOL     H2 9249   1.957   4.047   2.298 -2.1410  2.6734 -0.7313
 2201SOL    EPW 9250   2.000   4.064   2.222 -0.2792  0.8846 -0.1348
 2202SOL      O 9251   5.583   4.548   3.685  1.1593 -0.1077  0.0560
 2202SOL     H1 9252   5.530   4.521   3.609 -0.5377  1.8800  0.5007
 2202SOL     H2 9253   5.592   4.642   3.675  1.7225  0.0327  1.8522
 2202SOL    EPW 9254   5.578   4.555   3.676  1.0383  0.1193  0.2951
 2203SOL      O 9255   2.302   2.626   1.087 -0.2931  0.0327  0.0112
 2203SOL     H1 9256   2.372   2.661   1.142  0.3118 -3.4639  1.6322
 2203SOL     H2 9257   2.222   2.669   1.118  0.6314  1.2665  0.7141
 2203SOL    EPW 9258   2.301   2.634   1.096 -0.1300 -0.2087  0.2591
 2204SOL      O 9259   1.352   2.650   1.815  0.3888 -0.4535  0.6491
 2204SOL     H1 9260   1.276   2.601   1.848  1.4024 -2.2246  0.4255
 2204SOL     H2 9261   1.342   2.646   1.719 -0.2472  0.9720  0.6417
 2204SOL    EPW 9262   1.342   2.644   1.808  0.4291 -0.4904  0.6244
 2205SOL      O 9263   2.472   2.196   0.029 -0.3104  0.0761 -0.1099
 2205SOL     H1 9264   2.542   2.171   0.089  0.2996 -1.7169 -1.5409
 2205SOL     H2 9265   2.509   2.269  -0.021 -0.1296  0.3300  0.3898
 2205SOL    EPW 9266   2.484   2.201   0.030 -0.2260 -0.0881 -0.2093
 2206SOL      O 9267   3.699   1.183   0.833  0.7060  0.2699 -0.0475
 2206SOL     H1 9268   3.612   1.208   0.866  0.8176  0.6946 -0.0728
 2206SOL     H2 9269   3.754   1.259   0.850  1.3810 -0.4617  1.1218
 2206SOL    EPW 9270   3.696   1.194   0.838  0.7899  0.2371  0.0745
 2207SOL      O 9271   2.101   2.957   1.323 -0.2011  0.2957 -0.4770
 2207SOL     H1 9272   2.156   2.945   1.400  0.0609 -0.1568 -0.7358
 2207SOL     H2 9273   2.014   2.928   1.351  0.0750 -0.6859 -0.6022
 2207SOL    EPW 9274   2.097   2.953   1.334 -0.1437  0.1427 -0.5179
 2208SOL      O 9275   3.261   2.141   0.419  0.5336  0.6645 -0.2443
 2208SOL     H1 9276   3.309   2.213   0.461 -0.3667  1.8900 -1.3046
 2208SOL     H2 9277   3.306   2.128   0.336  0.1538  0.5742 -0.4319
 2208SOL    EPW 9278   3.271   2.147   0.415  0.3971  0.7856 -0.3774
 2209SOL      O 9279   2.177   3.553   1.259 -0.0870 -0.0203 -0.2632
 2209SOL     H1 9280   2.134   3.507   1.331  1.5427 -1.3220 -0.0960
 2209SOL     H2 9281   2.266   3.519   1.258  1.0421  2.7379 -0.4852
 2209SOL    EPW 9282   2.182   3.545   1.266  0.2073  0.1351 -0.2690
 2210SOL      O 9283   2.284   2.441   0.866 -0.0295 -0.4450  0.3691
 2210SOL     H1 9284   2.284   2.508   0.935  2.3761 -0.9392  0.8801
 2210SOL     H2 9285   2.283   2.491   0.785 -2.0429  0.1473  0.7256
 2210SOL    EPW 9286   2.284   2.454   0.865  0.0123 -0.4345  0.4616
 2211SOL      O 9287   4.138   1.450   0.034  0.6248  0.0579 -0.4128
 2211SOL     H1 9288   4.199   1.399   0.088  0.4720  1.2727  0.9401
 2211SOL     H2 9289   4.088   1.502   0.096 -2.2883 -1.3726 -1.4477
 2211SOL    EPW 9290   4.139   1.450   0.046  0.2978  0.0349 -0.3788
 2212SOL      O 9291   2.404   3.819   4.114  0.1725  0.1912  0.5284
 2212SOL     H1 9292   2.366   3.805   4.027 -1.0417  0.5655  0.9828
 2212SOL     H2 9293   2.497   3.798   4.104  0.1445  0.7314 -0.9873
 2212SOL    EPW 9294   2.410   3.816   4.104  0.0400  0.2888  0.4152
 2213SOL      O 9295   1.433   5.120   0.209 -0.3651  0.4985 -0.3383
 2213SOL     H1 9296   1.480   5.187   0.159  1.7363 -0.3137  0.4876
 2213SOL     H2 9297   1.436   5.042   0.153 -1.4525  0.6675 -0.6334
 2213SOL    EPW 9298   1.439   5.119   0.198 -0.2569  0.4299 -0.2817
 2214SOL      O 9299   2.436   3.475   1.280  0.2409  0.6249  0.1787
 2214SOL     H1 9300   2.452   3.382   1.297 -1.0956  0.2764 -0.3957
 2214SOL     H2 9301   2.480   3.520   1.352 -0.3605 -0.5280  1.2955
 2214SOL    EPW 9302   2.442   3.470   1.289  0.0341  0.4647  0.2366
 2215SOL      O 9303   2.514   2.932   1.703 -0.6058 -0.3682 -0.4103
 2215SOL     H1 9304   2.453   2.858   1.709 -0.7797 -0.2267 -0.4519
 2215SOL     H2 9305   2.464   3.001   1.659  0.0792 -0.7874 -1.8715
 2215SOL    EPW 9306   2.502   2.931   1.699 -0.5512 -0.3978 -0.5706
 2216SOL      O 9307   3.118   2.804   0.792  0.1021 -0.1317 -0.5718
 2216SOL     H1 9308   3.117   2.724   0.738  0.5447 -0.4304 -0.1417
 2216SOL     H2 9309   3.163   2.869   0.738 -2.9810  0.7418 -2.1976
 2216SOL    EPW 9310   3.122   2.802   0.780 -0.1796 -0.0704 -0.6993
 2217SOL      O 9311   3.324   3.475   1.750 -0.2082  0.2266  0.2567
 2217SOL     H1 9312   3.363   3.445   1.832 -2.6332 -1.1220  0.9725
 2217SOL     H2 9313   3.326   3.571   1.757  4.2387  0.2688 -0.4254
 2217SOL    EPW 9314   3.329   3.482   1.760  0.0075  0.0872  0.2603
 2218SOL      O 9315   2.796   2.593   1.475  0.6270 -0.3454  0.1097
 2218SOL     H1 9316   2.785   2.535   1.399 -0.7073 -0.3067  0.2663
 2218SOL     H2 9317   2.707   2.616   1.501  1.0909  0.1188  1.3324
 2218SOL    EPW 9318   2.785   2.589   1.470  0.5341 -0.2917  0.2568
 2219SOL      O 9319   1.723   1.904   2.839 -0.3770 -0.0266 -0.4442
 2219SOL     H1 9320   1.683   1.825   2.804 -1.3118  0.7072 -1.0415
 2219SOL     H2 9321   1.744   1.956   2.762  0.6183  0.1322 -0.0733
 2219SOL    EPW 9322   1.721   1.901   2.827 -0.3706  0.0686 -0.4684
 2220SOL      O 9323   3.274   1.862   1.539  0.2226  0.3799 -0.1870
 2220SOL     H1 9324   3.270   1.780   1.588 -0.3169  1.6684  1.9889
 2220SOL     H2 9325   3.267   1.836   1.448  0.5331 -2.0295  0.4481
 2220SOL    EPW 9326   3.273   1.850   1.535  0.1982  0.2603  0.1129
 2221SOL      O 9327   1.698   2.288   0.523  0.7169 -0.1942  0.5896
 2221SOL     H1 9328   1.737   2.355   0.466  1.4461 -1.0630  0.0509
 2221SOL     H2 9329   1.726   2.205   0.485  0.2887 -0.8071  1.5873
 2221SOL    EPW 9330   1.705   2.287   0.513  0.7490 -0.3523  0.6385
 2222SOL      O 9331   3.502   3.394   1.342  0.1552 -0.6171  0.7983
 2222SOL     H1 9332   3.530   3.305   1.320  1.1475 -0.5354  1.6880
 2222SOL     H2 9333   3.575   3.431   1.392 -0.3682  0.5995  0.6994
 2222SOL    EPW 9334   3.513   3.389   1.345  0.2053 -0.4786  0.8827
 2223SOL      O 9335   5.085   4.457   3.188  0.2884 -0.3412  1.1188
 2223SOL     H1 9336   5.042   4.457   3.102  0.5310 -0.4342  0.9983
 2223SOL     H2 9337   5.175   4.431   3.170  0.4712  0.1339  1.3348
 2223SOL    EPW 9338   5.090   4.455   3.177  0.3338 -0.3004  1.1290
 2224SOL      O 9339   1.910   2.378   0.657  0.2181 -0.1842 -0.1389
 2224SOL     H1 9340   1.835   2.324   0.631  0.4788 -0.9685  0.6854
 2224SOL     H2 9341   1.935   2.343   0.742  1.1800  0.4366 -0.1664
 2224SOL    EPW 9342   1.905   2.368   0.663  0.3485 -0.2017 -0.0539
 2225SOL      O 9343   2.785   2.532   1.772 -0.1555 -0.2727  0.0971
 2225SOL     H1 9344   2.826   2.619   1.773  0.6878 -0.6611  1.0347
 2225SOL     H2 9345   2.839   2.482   1.711 -0.5581 -0.1845 -0.3353
 2225SOL    EPW 9346   2.795   2.536   1.766 -0.1085 -0.3047  0.1510
 2226SOL      O 9347   4.338   1.713   0.894  0.3107 -0.3795 -1.5171
 2226SOL     H1 9348   4.293   1.634   0.864  2.0965 -0.5239 -3.9511
 2226SOL     H2 9349   4.296   1.784   0.846 -0.0720 -0.0537 -0.6999
 2226SOL    EPW 9350   4.329   1.712   0.886  0.4604 -0.3602 -1.6896
 2227SOL      O 9351   0.735   0.039   3.937 -0.1393  0.5705  0.4216
 2227SOL     H1 9352   0.716  -0.053   3.956  0.2687 -0.3673 -3.2521
 2227SOL     H2 9353   0.830   0.045   3.935 -0.1484  1.3780  1.8915
 2227SOL    EPW 9354   0.743   0.030   3.939 -0.0967  0.5566  0.1865
 2228SOL      O 9355   0.669   3.845   3.529 -0.2686  0.6408 -0.2800
 2228SOL     H1 9356   0.579   3.854   3.500 -0.3291  0.5577 -0.1216
 2228SOL     H2 9357   0.665   3.779   3.599 -0.2992  1.6416  0.6849
 2228SOL    EPW 9358   0.659   3.839   3.534 -0.2783  0.7387 -0.1602
 2229SOL      O 9359   4.941   4.403   2.972  0.0174 -0.2534 -0.5198
 2229SOL     H1 9360   4.854   4.439   2.957  0.1861  0.2241 -0.3801
 2229SOL     H2 9361   4.928   4.336   3.040  0.1014  1.4026  1.1671
 2229SOL    EPW 9362   4.930   4.400   2.978  0.0443 -0.0258 -0.3249
 2230SOL      O 9363   2.174   4.590   0.381  0.3159  0.1152  0.0124
 2230SOL     H1 9364   2.186   4.503   0.344  0.2543 -0.9541  2.4065
 2230SOL     H2 9365   2.256   4.607   0.428 -0.6125  0.2836  1.6033
 2230SOL    EPW 9366   2.184   4.583   0.382  0.2103  0.0191  0.4375
 2231SOL      O 9367   4.810   1.264   2.877 -0.3859  0.2871 -0.0900
 2231SOL     H1 9368   4.813   1.359   2.882  0.7782  0.3531 -1.5543
 2231SOL     H2 9369   4.807   1.245   2.783 -0.6126 -1.1138  0.1908
 2231SOL    EPW 9370   4.810   1.272   2.868 -0.2859  0.1447 -0.2163
 2232SOL      O 9371   1.075   2.114   0.971 -0.1484  0.1283 -0.2552
 2232SOL     H1 9372   0.988   2.088   0.999  0.1398  0.2454  0.8139
 2232SOL     H2 9373   1.134   2.067   1.031  0.5422 -0.3506 -1.2917
 2232SOL    EPW 9374   1.072   2.106   0.981 -0.0440  0.0897 -0.2517
 2233SOL      O 9375   4.298   3.913   3.981  0.0913  0.0139 -0.3176
 2233SOL     H1 9376   4.340   3.845   4.035  0.1632 -0.0449 -0.4478
 2233SOL     H2 9377   4.213   3.875   3.958 -0.1678  0.2623  0.2119
 2233SOL    EPW 9378   4.293   3.901   3.984  0.0713  0.0342 -0.2750
 2234SOL      O 9379   2.412   2.681   1.670 -0.1588  0.0465 -0.2384
 2234SOL     H1 9380   2.344   2.691   1.603  0.6503  1.0935 -0.9074
 2234SOL     H2 9381   2.410   2.587   1.691 -1.5069 -0.0155 -0.5652
 2234SOL    EPW 9382   2.405   2.672   1.665 -0.2163  0.1516 -0.3446
 2235SOL      O 9383   1.847   3.551   1.101  0.2637  0.3699 -0.3655
 2235SOL     H1 9384   1.934   3.569   1.066  0.0956  0.2140 -0.8674
 2235SOL     H2 9385   1.796   3.629   1.078  0.2795  0.4769 -0.0398
 2235SOL    EPW 9386   1.851   3.561   1.095  0.2475  0.3647 -0.3843
 2236SOL      O 9387   2.018   2.800   0.325 -0.3768  0.2680 -0.0413
 2236SOL     H1 9388   1.980   2.751   0.399 -0.2600 -0.2661 -0.3302
 2236SOL     H2 9389   2.112   2.784   0.332 -0.4526 -0.6012 -0.8778
 2236SOL    EPW 9390   2.024   2.793   0.334 -0.3725  0.1183 -0.1613
 2237SOL      O 9391   0.545   1.656   0.848  0.4327  0.6255  0.2046
 2237SOL     H1 9392   0.458   1.634   0.881  0.8260 -3.3940 -1.2517
 2237SOL     H2 9393   0.527   1.713   0.773 -0.9415  0.1910  0.1793
 2237SOL    EPW 9394   0.534   1.660   0.843  0.3281  0.1504  0.0466
 2238SOL      O 9395   2.298   2.073   1.857 -0.3493 -0.0636  0.0509
 2238SOL     H1 9396   2.234   2.099   1.922  2.1286  0.8453  2.1902
 2238SOL     H2 9397   2.382   2.096   1.895  1.1353  1.6982 -4.0282
 2238SOL    EPW 9398   2.300   2.078   1.868  0.0734  0.2213 -0.1560
 2239SOL      O 9399   3.771   1.398   1.777 -0.7871  0.2377  0.8524
 2239SOL     H1 9400   3.720   1.471   1.812 -0.7549  0.4092  0.5491
 2239SOL     H2 9401   3.707   1.344   1.731 -0.7313  0.3294  0.6683
 2239SOL    EPW 9402   3.759   1.400   1.776 -0.7777  0.2658  0.8004
 2240SOL      O 9403   0.213   5.379   3.579 -0.5876  0.1565  0.6205
 2240SOL     H1 9404   0.261   5.363   3.661 -0.8645 -0.9700  0.5653
 2240SOL     H2 9405   0.246   5.313   3.518 -0.2274  1.1292 -0.2582
 2240SOL    EPW 9406   0.222   5.370   3.582 -0.5787  0.1401  0.5209
 2241SOL      O 9407   3.035   5.623   0.963 -0.2520 -0.3563 -0.3329
 2241SOL     H1 9408   3.045   5.704   0.914 -0.3381  0.3752  0.8475
 2241SOL     H2 9409   3.001   5.560   0.899  2.6157 -0.2870 -1.9854
 2241SOL    EPW 9410   3.032   5.625   0.951  0.0447 -0.2709 -0.3833
 2242SOL      O 9411   0.996   5.005   3.902  0.0892 -0.4759 -0.2969
 2242SOL     H1 9412   1.006   5.002   3.807 -0.7511  1.0102 -0.4425
 2242SOL     H2 9413   0.994   4.913   3.929  1.0182 -0.8976 -1.6337
 2242SOL    EPW 9414   0.997   4.994   3.895  0.0987 -0.3623 -0.4551
 2243SOL      O 9415   2.210   4.879   4.022 -0.0658 -0.3725 -0.5922
 2243SOL     H1 9416   2.268   4.953   4.037  0.4576 -0.7907 -0.5313
 2243SOL     H2 9417   2.137   4.893   4.081  0.9943 -0.9488  0.8728
 2243SOL    EPW 9418   2.208   4.888   4.030  0.1032 -0.4786 -0.4294
 2244SOL      O 9419   0.695   5.658   4.024  0.2375 -0.0470  0.4099
 2244SOL     H1 9420   0.734   5.576   3.992  0.1632  0.0344  0.1074
 2244SOL     H2 9421   0.675   5.641   4.115 -1.0970 -0.8474 -0.0252
 2244SOL    EPW 9422   0.697   5.647   4.030  0.0872 -0.1237  0.3312
 2245SOL      O 9423   2.556   2.076   1.632  0.1127  0.2386 -0.2506
 2245SOL     H1 9424   2.550   1.983   1.609 -1.3519 -0.1050  1.4185
 2245SOL     H2 9425   2.576   2.119   1.549  0.5952 -1.5406 -1.0969
 2245SOL    EPW 9426   2.557   2.070   1.620  0.0079  0.0122 -0.1628
 2246SOL      O 9427   4.856   1.335   1.985 -0.1578 -0.4909 -0.8107
 2246SOL     H1 9428   4.780   1.391   2.000  0.9065  0.4792  1.2528
 2246SOL     H2 9429   4.919   1.391   1.940  0.5824 -0.2655  0.4792
 2246SOL    EPW 9430   4.855   1.347   1.982  0.0347 -0.3633 -0.4530
 2247SOL      O 9431   1.437   1.597   1.472 -0.9359 -0.2670  0.0840
 2247SOL     H1 9432   1.395   1.666   1.523  1.9838  2.8614 -1.5504
 2247SOL     H2 9433   1.389   1.594   1.389 -0.3715  0.6091 -0.2784
 2247SOL    EPW 9434   1.428   1.604   1.469 -0.5642  0.1602 -0.1290
 2248SOL      O 9435   3.998   2.350   1.083 -0.5714 -0.6954  0.0995
 2248SOL     H1 9436   4.045   2.399   1.016 -1.0193  1.2115  1.1224
 2248SOL     H2 9437   3.905   2.360   1.059 -0.8335  1.2312  1.7397
 2248SOL    EPW 9438   3.993   2.356   1.074 -0.6472 -0.2864  0.3836
 2249SOL      O 9439   1.904   3.640   0.236 -0.1166 -0.2979  0.0547
 2249SOL     H1 9440   1.884   3.677   0.150  0.2328  0.4370  0.2860
 2249SOL     H2 9441   1.944   3.712   0.284 -0.2331 -0.7334  0.8062
 2249SOL    EPW 9442   1.906   3.652   0.232 -0.0918 -0.2659  0.1595
 2250SOL      O 9443   0.909   2.322   0.536  1.2135  0.3059  0.0417
 2250SOL     H1 9444   0.894   2.276   0.453  2.5940  0.4453 -0.3008
 2250SOL     H2 9445   0.982   2.381   0.518  0.4793  1.4979  0.9290
 2250SOL    EPW 9446   0.915   2.323   0.525  1.2824  0.4479  0.0998
 2251SOL      O 9447   5.162   0.017   3.858 -0.0977 -0.4260 -0.1481
 2251SOL     H1 9448   5.221  -0.006   3.930 -1.0885  0.4871  0.9758
 2251SOL     H2 9449   5.181   0.109   3.841 -1.7356  0.1037  0.7665
 2251SOL    EPW 9450   5.171   0.025   3.864 -0.3781 -0.2721  0.0694
 2252SOL      O 9451   1.766   5.561   1.549  0.0693  0.6206 -0.4299
 2252SOL     H1 9452   1.748   5.609   1.630  1.8776  1.3135 -0.4270
 2252SOL     H2 9453   1.858   5.536   1.556 -0.2888 -1.0016 -1.4076
 2252SOL    EPW 9454   1.774   5.564   1.558  0.2240  0.5215 -0.5339
 2253SOL      O 9455   2.622   3.246   2.285  0.5977 -0.1483  0.1298
 2253SOL     H1 9456   2.700   3.254   2.340  1.7389  0.5350 -1.5371
 2253SOL     H2 9457   2.657   3.228   2.197 -1.1086  0.3734 -0.6702
 2253SOL    EPW 9458   2.634   3.245   2.281  0.5374 -0.0197 -0.1334
 2254SOL      O 9459   2.751   2.397   1.290  0.6433  0.5919  0.2842
 2254SOL     H1 9460   2.697   2.420   1.214 -0.0363 -0.1143  0.5472
 2254SOL     H2 9461   2.701   2.329   1.335  2.6223 -1.4304 -0.4910
 2254SOL    EPW 9462   2.740   2.392   1.286  0.7819  0.3009  0.2296
 2255SOL      O 9463   5.112   4.129   3.563  0.1521  0.3262 -0.1526
 2255SOL     H1 9464   5.056   4.114   3.487  0.8523 -1.4186 -0.3472
 2255SOL     H2 9465   5.176   4.058   3.561  1.1769  1.1692  1.1681
 2255SOL    EPW 9466   5.113   4.120   3.555  0.3361  0.2300 -0.0325
 2256SOL      O 9467   3.149   2.664   1.039 -0.2333  0.6598 -0.3981
 2256SOL     H1 9468   3.143   2.697   0.949 -1.7352  0.7842 -0.2552
 2256SOL     H2 9469   3.094   2.586   1.040  0.6323  0.0413  0.1511
 2256SOL    EPW 9470   3.143   2.659   1.029 -0.3012  0.6071 -0.3242
 2257SOL      O 9471   3.729   1.212   2.118 -0.3422  0.3402  0.2141
 2257SOL     H1 9472   3.759   1.289   2.166  3.2136 -0.3856 -0.7607
 2257SOL     H2 9473   3.763   1.137   2.168 -4.6896 -0.7602  1.7902
 2257SOL    EPW 9474   3.736   1.212   2.128 -0.4267  0.1454  0.2783
 2258SOL      O 9475   2.233   2.052   0.113 -0.7954  0.3279 -0.5570
 2258SOL     H1 9476   2.215   1.996   0.037 -1.1941 -1.2300  0.6538
 2258SOL     H2 9477   2.307   2.106   0.086 -1.6106  0.5430 -2.4401
 2258SOL    EPW 9478   2.239   2.051   0.102 -0.9249  0.1846 -0.6287
 2259SOL      O 9479   3.998   3.449   1.073  0.1689 -0.3912 -0.0842
 2259SOL     H1 9480   3.912   3.428   1.111  0.1688  1.6427  1.1316
 2259SOL     H2 9481   4.036   3.513   1.134  1.8860 -0.0836 -1.4341
 2259SOL    EPW 9482   3.993   3.454   1.083  0.3521 -0.1414 -0.0985
 2260SOL      O 9483   2.192   2.222   0.985 -0.7820 -0.1285 -0.5342
 2260SOL     H1 9484   2.238   2.304   0.965  0.2011 -0.7261 -0.7702
 2260SOL     H2 9485   2.100   2.242   0.970 -0.4967  0.7770 -1.1326
 2260SOL    EPW 9486   2.187   2.233   0.981 -0.6467 -0.0956 -0.6232
 2261SOL      O 9487   2.384   3.463   0.339 -0.2612  0.6513  0.1817
 2261SOL     H1 9488   2.368   3.375   0.372 -1.1602  0.8492  0.3005
 2261SOL     H2 9489   2.319   3.474   0.269  0.2432  1.0027 -0.2407
 2261SOL    EPW 9490   2.375   3.455   0.335 -0.3033  0.7099  0.1493
 2262SOL      O 9491   0.577   3.094   1.194 -0.3417 -0.4188  0.4684
 2262SOL     H1 9492   0.512   3.025   1.207 -1.5082  0.5532 -0.1088
 2262SOL     H2 9493   0.588   3.099   1.099  0.7484 -0.7223  0.5663
 2262SOL    EPW 9494   0.572   3.087   1.185 -0.3499 -0.3475  0.4173
 2263SOL      O 9495   1.818   2.058   0.533 -0.2613 -0.0652 -0.3333
 2263SOL     H1 9496   1.878   2.020   0.598  0.4128 -1.2765 -1.6294
 2263SOL     H2 9497   1.760   1.986   0.509 -0.9694  0.5728 -0.5422
 2263SOL    EPW 9498   1.818   2.046   0.537 -0.2649 -0.1264 -0.4939
 2264SOL      O 9499   0.326   1.299   3.739  0.3337  0.3805 -0.5340
 2264SOL     H1 9500   0.293   1.242   3.670 -1.0819 -1.9528  1.9296
 2264SOL     H2 9501   0.250   1.348   3.769  0.0869 -1.2471  1.6944
 2264SOL    EPW 9502   0.314   1.298   3.735  0.1564 -0.0421 -0.0335
 2265SOL      O 9503   3.261   3.169   2.973 -0.3618  0.5012 -0.2501
 2265SOL     H1 9504   3.349   3.179   3.010 -0.5514  0.8524  0.1100
 2265SOL     H2 9505   3.207   3.231   3.022 -1.0410 -0.4820  0.2740
 2265SOL    EPW 9506   3.265   3.177   2.982 -0.4545  0.4338 -0.1558
 2266SOL      O 9507   4.073   0.746   1.459 -0.5423 -0.4407  0.0993
 2266SOL     H1 9508   4.051   0.838   1.472  3.0901  0.5506 -0.1580
 2266SOL     H2 9509   4.045   0.727   1.369 -1.2176  0.4197  0.1183
 2266SOL    EPW 9510   4.068   0.754   1.451 -0.2268 -0.2431  0.0739
 2267SOL      O 9511   5.458   0.273   1.159  0.6347 -0.5787 -0.1116
 2267SOL     H1 9512   5.384   0.320   1.121  0.2776 -0.0834  1.1486
 2267SOL     H2 9513   5.524   0.271   1.090  0.3275  1.0329 -0.4751
 2267SOL    EPW 9514   5.457   0.278   1.148  0.5638 -0.3540 -0.0159
 2268SOL      O 9515   2.036   1.204   0.558 -0.2063  0.1484  0.1992
 2268SOL     H1 9516   2.058   1.244   0.474  3.2118 -0.6661  0.6138
 2268SOL     H2 9517   2.058   1.111   0.547 -0.0748 -0.0413  1.8698
 2268SOL    EPW 9518   2.041   1.198   0.548  0.1724  0.0413  0.4216
 2269SOL      O 9519   0.727   3.497   2.421  0.1389 -0.2968 -0.0056
 2269SOL     H1 9520   0.734   3.433   2.492  0.0838 -0.6167 -0.2834
 2269SOL     H2 9521   0.669   3.565   2.455  1.1905  0.2254  0.7413
 2269SOL    EPW 9522   0.722   3.497   2.432  0.2452 -0.2752  0.0444
 2270SOL      O 9523   2.833   2.792   0.727 -0.1277 -0.2757  0.0261
 2270SOL     H1 9524   2.894   2.852   0.771  2.4089 -0.0760 -3.5198
 2270SOL     H2 9525   2.779   2.849   0.673  0.7897 -0.9174 -1.6271
 2270SOL    EPW 9526   2.834   2.805   0.726  0.2408 -0.3228 -0.5285
 2271SOL      O 9527   0.123   5.146   2.367 -0.1206  0.4443 -0.3354
 2271SOL     H1 9528   0.037   5.160   2.404 -0.0216  0.5114 -0.1323
 2271SOL     H2 9529   0.155   5.233   2.345 -0.8310  0.2949 -2.0523
 2271SOL    EPW 9530   0.118   5.156   2.368 -0.1858  0.4355 -0.4969
 2272SOL      O 9531   0.596   3.741   3.909 -0.8542  0.4946  0.3482
 2272SOL     H1 9532   0.639   3.764   3.992  1.9269  1.6100 -1.3238
 2272SOL     H2 9533   0.536   3.814   3.893 -0.0618  1.1881  0.4881
 2272SOL    EPW 9534   0.594   3.751   3.916 -0.4730  0.6876  0.1848
 2273SOL      O 9535   2.230   2.421   1.804 -0.3531 -0.1857  0.5958
 2273SOL     H1 9536   2.287   2.472   1.862 -0.7695  2.3178 -1.1161
 2273SOL     H2 9537   2.157   2.394   1.860  0.4448  0.1054  1.8035
 2273SOL    EPW 9538   2.229   2.424   1.816 -0.3124  0.1124  0.5420
 2274SOL      O 9539   3.735   1.657   0.344  0.4385 -0.7998 -0.3295
 2274SOL     H1 9540   3.751   1.652   0.250 -1.8809  2.7552 -0.9923
 2274SOL     H2 9541   3.673   1.585   0.361 -0.7114 -0.2099 -1.9198
 2274SOL    EPW 9542   3.730   1.649   0.336  0.0684 -0.3576 -0.5698
 2275SOL      O 9543   2.748   3.138   1.250 -0.1739 -0.1383 -0.1791
 2275SOL     H1 9544   2.766   3.089   1.330  2.7852 -0.7918 -1.1966
 2275SOL     H2 9545   2.772   3.079   1.179  0.5915  1.6784 -1.4742
 2275SOL    EPW 9546   2.752   3.127   1.251  0.2234 -0.0142 -0.4258
 2276SOL      O 9547   3.343   2.483   1.147  0.7824  0.1559  0.1430
 2276SOL     H1 9548   3.433   2.452   1.155  1.1112  1.4317  1.6011
 2276SOL     H2 9549   3.351   2.570   1.109  0.1124  0.0466 -0.2650
 2276SOL    EPW 9550   3.353   2.489   1.143  0.7460  0.2803  0.2550
 2277SOL      O 9551   1.197   0.070   2.181 -0.3368  0.0602  0.2818
 2277SOL     H1 9552   1.164  -0.019   2.168 -0.5238  0.2820 -0.7856
 2277SOL     H2 9553   1.289   0.066   2.156 -0.4972  0.3020 -0.3607
 2277SOL    EPW 9554   1.203   0.060   2.177 -0.3738  0.1096  0.0994
 2278SOL      O 9555   2.411   2.950   1.192 -0.4608 -0.3343  0.9595
 2278SOL     H1 9556   2.496   2.918   1.162  0.9245  1.3890  2.8675
 2278SOL     H2 9557   2.351   2.933   1.119  1.6036 -1.2129 -0.5705
 2278SOL    EPW 9558   2.414   2.945   1.181 -0.0928 -0.2442  0.9998
 2279SOL      O 9559   4.391   2.264   0.181  0.2407 -0.2141  0.3349
 2279SOL     H1 9560   4.470   2.224   0.216  0.2485  0.2090  0.8268
 2279SOL     H2 9561   4.419   2.351   0.152 -0.4231  0.7185  2.3713
 2279SOL    EPW 9562   4.402   2.269   0.182  0.1707 -0.0695  0.6046
 2280SOL      O 9563   2.872   2.001   1.989  0.0900 -0.5564  0.2827
 2280SOL     H1 9564   2.925   1.926   2.015  2.0429  0.7355  0.1528
 2280SOL     H2 9565   2.857   2.049   2.071  0.6050 -0.0004  0.0548
 2280SOL    EPW 9566   2.876   1.998   2.001  0.3532 -0.3593  0.2445
 2281SOL      O 9567   3.222   2.744   0.379 -0.4705 -0.0210 -0.2605
 2281SOL     H1 9568   3.218   2.680   0.308 -2.0603  1.6294 -1.7051
 2281SOL     H2 9569   3.200   2.694   0.458  0.4042 -1.6702 -1.0386
 2281SOL    EPW 9570   3.219   2.732   0.380 -0.5468 -0.0209 -0.4976
 2282SOL      O 9571   3.617   1.939   1.040  0.0563  0.3014  0.0259
 2282SOL     H1 9572   3.695   1.894   1.006 -0.2745  0.0718 -0.4310
 2282SOL     H2 9573   3.644   1.970   1.127  1.1578  1.5480 -0.7431
 2282SOL    EPW 9574   3.628   1.937   1.046  0.1385  0.4099 -0.1049
 2283SOL      O 9575   3.353   2.242   0.921 -0.6089  0.0409 -0.4326
 2283SOL     H1 9576   3.447   2.230   0.928 -0.3660  2.3233  0.7419
 2283SOL     H2 9577   3.317   2.201   0.999 -0.5630 -0.4738 -0.6791
 2283SOL    EPW 9578   3.359   2.236   0.930 -0.5781  0.2295 -0.3336
 2284SOL      O 9579   2.280   1.596   0.097 -0.1438 -0.0446  0.3557
 2284SOL     H1 9580   2.308   1.654   0.027  1.5652 -0.7850  0.4185
 2284SOL     H2 9581   2.278   1.509   0.058  0.2394 -0.3801  1.0739
 2284SOL    EPW 9582   2.282   1.593   0.086  0.0794 -0.1594  0.4390
 2285SOL      O 9583   2.338   3.726   0.377  0.2906 -0.2887 -0.6386
 2285SOL     H1 9584   2.321   3.724   0.283 -1.4283 -0.3555 -0.3501
 2285SOL     H2 9585   2.366   3.637   0.398  0.0434 -0.4487 -0.9805
 2285SOL    EPW 9586   2.339   3.717   0.369  0.0808 -0.3129 -0.6443
 2286SOL      O 9587   2.807   2.102   0.596  0.5055 -0.0144 -0.4703
 2286SOL     H1 9588   2.774   2.034   0.537  3.6320 -1.2775 -0.8750
 2286SOL     H2 9589   2.778   2.074   0.683 -0.6064 -0.3577 -0.9401
 2286SOL    EPW 9590   2.800   2.092   0.599  0.7204 -0.1857 -0.5636
 2287SOL      O 9591   3.643   2.684   2.725 -0.2859  0.2201 -0.3866
 2287SOL     H1 9592   3.706   2.740   2.770  0.7889 -0.5728 -0.8846
 2287SOL     H2 9593   3.567   2.740   2.711 -0.3155  0.7357  1.6266
 2287SOL    EPW 9594   3.642   2.696   2.728 -0.1744  0.1905 -0.2249
 2288SOL      O 9595   1.601   2.577   1.819  0.0851 -0.1759 -0.9343
 2288SOL     H1 9596   1.607   2.482   1.806  0.0964 -0.4488  0.8829
 2288SOL     H2 9597   1.509   2.593   1.838  0.1794  0.1002 -0.7078
 2288SOL    EPW 9598   1.592   2.568   1.819  0.0964 -0.1756 -0.7163
 2289SOL      O 9599   3.384   0.951   0.871 -0.7001 -0.0727  0.5672
 2289SOL     H1 9600   3.305   0.923   0.917 -1.0742  0.0373 -0.0021
 2289SOL     H2 9601   3.371   1.044   0.855 -1.0534 -0.3165 -0.6875
 2289SOL    EPW 9602   3.374   0.958   0.874 -0.7777 -0.0870  0.3726
 2290SOL      O 9603   3.364   1.574   0.545 -0.5032  0.2163  0.1505
 2290SOL     H1 9604   3.429   1.524   0.494  0.9667  1.8782  0.3341
 2290SOL     H2 9605   3.325   1.510   0.604 -2.3972 -1.8253 -3.1783
 2290SOL    EPW 9606   3.367   1.562   0.546 -0.5485  0.1758 -0.1850
 2291SOL      O 9607   2.666   5.545   0.133 -0.3146  0.0279  0.1398
 2291SOL     H1 9608   2.689   5.638   0.129  1.9639 -0.5375 -0.6897
 2291SOL     H2 9609   2.585   5.538   0.083  0.5671  1.2755 -1.5082
 2291SOL    EPW 9610   2.660   5.554   0.127  0.0226  0.1007 -0.1245
 2292SOL      O 9611   4.220   3.030   0.525 -0.2190 -0.2043  0.2632
 2292SOL     H1 9612   4.249   2.973   0.454 -0.4769 -1.6717  1.3173
 2292SOL     H2 9613   4.289   3.095   0.533 -0.3807  0.2223 -1.5987
 2292SOL    EPW 9614   4.230   3.031   0.518 -0.2637 -0.3153  0.1770
 2293SOL      O 9615   3.108   3.645   1.378  0.0122  0.3655 -0.0640
 2293SOL     H1 9616   3.156   3.568   1.410  1.0994  0.6813 -0.9001
 2293SOL     H2 9617   3.133   3.716   1.437  1.3591  0.7544 -1.0794
 2293SOL    EPW 9618   3.116   3.644   1.387  0.2718  0.4407 -0.2615
 2294SOL      O 9619   2.705   3.967   0.908 -0.3281 -0.2710  0.2051
 2294SOL     H1 9620   2.779   3.953   0.967 -0.9451 -1.3760  0.7320
 2294SOL     H2 9621   2.693   4.062   0.906 -0.7960 -0.2770  2.4755
 2294SOL    EPW 9622   2.712   3.976   0.914 -0.4438 -0.3895  0.5035
 2295SOL      O 9623   0.731   3.242   0.680 -0.3137 -0.0250 -0.3999
 2295SOL     H1 9624   0.728   3.338   0.684  3.0682  0.0746  1.4791
 2295SOL     H2 9625   0.821   3.222   0.654 -1.3418 -2.7037 -2.0496
 2295SOL    EPW 9626   0.740   3.250   0.678 -0.0626 -0.3002 -0.3754
 2296SOL      O 9627   4.586   0.886   2.002  0.2010  0.6346 -0.2002
 2296SOL     H1 9628   4.656   0.867   1.939  0.3932  1.2091 -0.1577
 2296SOL     H2 9629   4.602   0.976   2.029 -0.0910  0.5037  0.4083
 2296SOL    EPW 9630   4.596   0.893   1.998  0.1903  0.6819 -0.1308
 2297SOL      O 9631   3.576   2.376   1.243  0.1697  0.2325  0.2117
 2297SOL     H1 9632   3.643   2.377   1.175 -0.2900  0.5140 -0.2472
 2297SOL     H2 9633   3.609   2.434   1.311  0.0839  0.9156 -0.3205
 2297SOL    EPW 9634   3.587   2.382   1.243  0.1115  0.3354  0.1059
 2298SOL      O 9635   1.171   5.258   3.245 -0.3095 -0.1444 -0.5648
 2298SOL     H1 9636   1.242   5.319   3.223 -0.5433 -0.0106 -0.9594
 2298SOL     H2 9637   1.107   5.270   3.175 -0.3854 -0.7997 -0.6115
 2298SOL    EPW 9638   1.172   5.266   3.235 -0.3425 -0.2000 -0.6119
 2299SOL      O 9639   2.327   3.364   1.718 -0.7513 -0.3101  0.2040
 2299SOL     H1 9640   2.291   3.453   1.717 -1.1448 -0.4636 -1.1809
 2299SOL     H2 9641   2.312   3.333   1.807 -3.0982  0.0318 -0.0487
 2299SOL    EPW 9642   2.321   3.370   1.727 -1.0436 -0.2900  0.0293
 2300SOL      O 9643   3.253   2.331   2.047 -0.0166  0.2545 -0.0226
 2300SOL     H1 9644   3.322   2.397   2.038  0.5564 -0.0984  1.6148
 2300SOL     H2 9645   3.278   2.262   1.985 -0.4679  1.4341 -1.5413
 2300SOL    EPW 9646   3.263   2.331   2.039 -0.0036  0.3427 -0.0099
 2301SOL      O 9647   1.380   2.472   0.470  0.3343  0.2473  0.4028
 2301SOL     H1 9648   1.357   2.431   0.387 -0.7829  1.5600  0.0495
 2301SOL     H2 9649   1.372   2.402   0.535 -0.9511 -0.2463 -0.2825
 2301SOL    EPW 9650   1.377   2.460   0.468  0.0780  0.3347  0.2920
 2302SOL      O 9651   3.870   3.565   1.685  0.3135 -0.3485  0.1299
 2302SOL     H1 9652   3.888   3.636   1.624  0.3512  0.3863  0.9917
 2302SOL     H2 9653   3.934   3.498   1.663  0.0914 -0.2286 -0.8732
 2302SOL    EPW 9654   3.879   3.565   1.677  0.2939 -0.2573  0.1148
 2303SOL      O 9655   4.387   2.073   1.847  0.0986 -0.7108 -0.2192
 2303SOL     H1 9656   4.347   2.157   1.869  0.6793 -0.6564  0.6616
 2303SOL     H2 9657   4.481   2.086   1.865  0.6181 -0.6549 -2.7509
 2303SOL    EPW 9658   4.393   2.083   1.852  0.2159 -0.6990 -0.3953
 2304SOL      O 9659   2.342   2.192   2.185  0.1263  0.0601 -0.1672
 2304SOL     H1 9660   2.373   2.260   2.125  0.3195 -0.7212 -0.9779
 2304SOL     H2 9661   2.391   2.114   2.159 -0.9958 -0.6825 -0.0829
 2304SOL    EPW 9662   2.351   2.191   2.176  0.0272 -0.1024 -0.2447
 2305SOL      O 9663   2.079   2.759   1.145 -0.2796  0.5250 -0.5133
 2305SOL     H1 9664   2.106   2.828   1.207  1.9821 -0.7576 -0.0176
 2305SOL     H2 9665   2.051   2.807   1.067  0.6546  2.0465  0.0546
 2305SOL    EPW 9666   2.079   2.772   1.144  0.0613  0.5505 -0.3999
 2306SOL      O 9667   3.299   2.923   1.367  0.5434  0.2399 -0.0194
 2306SOL     H1 9668   3.319   2.943   1.275 -0.7912  0.9221 -0.1693
 2306SOL     H2 9669   3.286   3.008   1.407  2.8637  0.0355  1.2314
 2306SOL    EPW 9670   3.300   2.934   1.361  0.6485  0.2909  0.0981
 2307SOL      O 9671   4.718   1.911   0.333 -0.5307  0.7388  0.8751
 2307SOL     H1 9672   4.803   1.908   0.378 -1.3895  0.3407  2.5035
 2307SOL     H2 9673   4.726   1.847   0.262 -0.4539 -1.4326  2.8136
 2307SOL    EPW 9674   4.728   1.904   0.330 -0.6141  0.4647  1.2556
 2308SOL      O 9675   1.114   1.735   1.054  0.2611 -0.0760  0.5765
 2308SOL     H1 9676   1.021   1.743   1.079  0.0867  1.4025 -0.4623
 2308SOL     H2 9677   1.117   1.659   0.997 -0.2562 -0.3104  0.8485
 2308SOL    EPW 9678   1.104   1.728   1.051  0.1873  0.0567  0.4947
 2309SOL      O 9679   4.863   2.583   1.368  0.3621  0.1749 -0.9173
 2309SOL     H1 9680   4.860   2.499   1.413 -1.7177  1.5730  1.6828
 2309SOL     H2 9681   4.899   2.644   1.432 -2.2089  2.1058 -1.1952
 2309SOL    EPW 9682   4.866   2.581   1.379 -0.1341  0.5300 -0.6696
 2310SOL      O 9683   3.635   3.617   2.078  0.3761  0.4685 -0.2847
 2310SOL     H1 9684   3.688   3.689   2.114  0.0504  0.1396  0.8626
 2310SOL     H2 9685   3.612   3.564   2.154 -0.1820 -0.3330 -1.0097
 2310SOL    EPW 9686   3.638   3.619   2.090  0.2818  0.3479 -0.2396
 2311SOL      O 9687   4.570   4.195   3.437 -0.5350 -0.0578  0.3327
 2311SOL     H1 9688   4.517   4.170   3.362 -0.8381 -0.9530  0.8438
 2311SOL     H2 9689   4.648   4.139   3.431  0.2831  1.1214 -0.3145
 2311SOL    EPW 9690   4.573   4.187   3.428 -0.4801 -0.0275  0.3182
 2312SOL      O 9691   4.064   3.381   1.634  0.3921  0.7573  0.1867
 2312SOL     H1 9692   4.146   3.377   1.684 -0.1364 -0.2656  0.9884
 2312SOL     H2 9693   4.003   3.328   1.685 -0.4046  0.4312 -1.1042
 2312SOL    EPW 9694   4.066   3.375   1.645  0.2507  0.6134  0.1345
 2313SOL      O 9695   0.153   4.653   3.425 -0.0309 -0.1372  0.0679
 2313SOL     H1 9696   0.175   4.699   3.344 -0.4019 -0.9103 -0.4909
 2313SOL     H2 9697   0.057   4.659   3.430 -0.1516 -1.4150 -0.3799
 2313SOL    EPW 9698   0.145   4.658   3.417 -0.0833 -0.3560 -0.0395
 2314SOL      O 9699   3.907   2.037   0.412  0.2636  0.6123 -0.4847
 2314SOL     H1 9700   3.894   2.099   0.340  0.6338  1.1617 -0.0796
 2314SOL     H2 9701   3.943   2.090   0.483  1.6782 -0.2770 -0.5205
 2314SOL    EPW 9702   3.910   2.049   0.412  0.4540  0.5760 -0.4453
 2315SOL      O 9703   3.607   2.349   2.199  0.7378 -0.2134 -0.2357
 2315SOL     H1 9704   3.628   2.442   2.187  0.9540 -0.0382  1.3067
 2315SOL     H2 9705   3.640   2.307   2.120  0.9778  0.9719 -0.7864
 2315SOL    EPW 9706   3.613   2.355   2.190  0.7865 -0.0683 -0.1299
 2316SOL      O 9707   3.610   3.340   3.231 -0.0615 -0.4598  0.3934
 2316SOL     H1 9708   3.540   3.399   3.202 -0.5809 -1.4797 -0.4585
 2316SOL     H2 9709   3.603   3.340   3.326 -0.7668 -0.0106  0.3463
 2316SOL    EPW 9710   3.602   3.347   3.238 -0.1921 -0.5207  0.2975
 2317SOL      O 9711   3.904   3.144   2.863  0.1716  0.1144  1.0562
 2317SOL     H1 9712   3.848   3.209   2.905 -0.8972  0.5299 -0.9284
 2317SOL     H2 9713   3.937   3.189   2.785 -2.1615 -2.3073 -1.4348
 2317SOL    EPW 9714   3.901   3.156   2.859 -0.1913 -0.0996  0.5788
 2318SOL      O 9715   4.217   3.939   2.094  0.2530  0.2442 -0.3213
 2318SOL     H1 9716   4.301   3.905   2.065 -0.3049 -2.0195  0.5742
 2318SOL     H2 9717   4.234   3.973   2.182  0.5842  1.3533 -0.8067
 2318SOL    EPW 9718   4.228   3.939   2.101  0.2288  0.1210 -0.2776
 2319SOL      O 9719   3.367   3.872   3.950 -0.2570 -0.2767  0.3091
 2319SOL     H1 9720   3.422   3.943   3.916  0.5872 -1.2697 -0.3897
 2319SOL     H2 9721   3.289   3.874   3.894 -0.5933  0.5908  0.7825
 2319SOL    EPW 9722   3.364   3.880   3.940 -0.2028 -0.2901  0.2851
 2320SOL      O 9723   3.709   4.502   2.421  0.0241  0.3029 -0.1518
 2320SOL     H1 9724   3.686   4.550   2.500 -0.5448 -0.1521 -0.0424
 2320SOL     H2 9725   3.653   4.539   2.353 -1.4464 -1.2012  0.2364
 2320SOL    EPW 9726   3.701   4.511   2.422 -0.1935  0.0939 -0.0987
 2321SOL      O 9727   2.364   3.113   1.595  0.0435 -0.0577  0.5438
 2321SOL     H1 9728   2.362   3.194   1.645  0.5844 -0.2141  0.8314
 2321SOL     H2 9729   2.405   3.138   1.512 -2.5546  0.5898 -0.5651
 2321SOL    EPW 9730   2.368   3.124   1.592 -0.1760 -0.0053  0.4562
 2322SOL      O 9731   3.700   2.706   2.292 -0.1693 -0.4734 -0.3955
 2322SOL     H1 9732   3.688   2.646   2.366 -0.7201 -0.1548 -0.2283
 2322SOL     H2 9733   3.732   2.787   2.331  1.7055 -1.0176 -0.7395
 2322SOL    EPW 9734   3.702   2.708   2.304 -0.0281 -0.4975 -0.4143
 2323SOL      O 9735   1.531   3.496   3.166 -0.1279  0.0725  0.0302
 2323SOL     H1 9736   1.572   3.452   3.091 -0.5546 -0.7343  0.2650
 2323SOL     H2 9737   1.477   3.429   3.207  0.9315  0.2134  1.7037
 2323SOL    EPW 9738   1.529   3.484   3.162 -0.0604  0.0015  0.2338
 2324SOL      O 9739   4.336   2.408   2.882  0.1532  0.3403  0.0850
 2324SOL     H1 9740   4.249   2.447   2.891 -0.6912 -1.3840 -0.3708
 2324SOL     H2 9741   4.338   2.377   2.791  0.5538 -1.2452  0.6312
 2324SOL    EPW 9742   4.327   2.409   2.873  0.1058 -0.0128  0.0946
 2325SOL      O 9743   2.095   2.999   2.373 -0.4058 -1.0354 -0.8111
 2325SOL     H1 9744   2.016   2.959   2.338 -1.4753  0.5494 -0.2306
 2325SOL     H2 9745   2.113   2.949   2.453 -1.6588 -0.4788 -0.1618
 2325SOL    EPW 9746   2.089   2.989   2.378 -0.6535 -0.8070 -0.6799
 2326SOL      O 9747   0.241   5.311   0.112  0.2064  0.2899 -0.2991
 2326SOL     H1 9748   0.294   5.236   0.139 -0.3576  0.0477  0.1581
 2326SOL     H2 9749   0.269   5.330   0.023  0.6535 -0.1970 -0.2609
 2326SOL    EPW 9750   0.249   5.305   0.106  0.1940  0.2121 -0.2463
 2327SOL      O 9751   3.122   3.212   2.750 -0.2834  0.5030  0.3489
 2327SOL     H1 9752   3.073   3.262   2.815 -0.2047  1.3941 -0.2543
 2327SOL     H2 9753   3.188   3.165   2.800 -0.6181  0.7009  0.9771
 2327SOL    EPW 9754   3.124   3.213   2.762 -0.3107  0.6192  0.3516
 2328SOL      O 9755   1.828   3.842   2.035 -0.1394  0.4466 -0.4468
 2328SOL     H1 9756   1.770   3.769   2.059 -0.7207  1.6275  1.8999
 2328SOL     H2 9757   1.904   3.831   2.092  0.3186  0.9778 -0.9607
 2328SOL    EPW 9758   1.830   3.833   2.044 -0.1525  0.6293 -0.2513
 2329SOL      O 9759   3.693   3.741   2.857 -0.1407 -0.0980 -0.0343
 2329SOL     H1 9760   3.713   3.774   2.769 -0.4164  0.1822  0.0081
 2329SOL     H2 9761   3.764   3.680   2.876  1.0767  1.4326  0.4030
 2329SOL    EPW 9762   3.703   3.738   2.850 -0.0402  0.0952  0.0168
 2330SOL      O 9763   3.617   1.546   1.525  0.1820  0.0456  0.1703
 2330SOL     H1 9764   3.707   1.568   1.548  0.2714 -0.5538  0.3992
 2330SOL     H2 9765   3.599   1.464   1.572 -0.4350  0.0882  0.0197
 2330SOL    EPW 9766   3.624   1.540   1.533  0.1257 -0.0138  0.1787
 2331SOL      O 9767   0.840   2.777   3.378  0.1757 -0.3792 -0.3006
 2331SOL     H1 9768   0.804   2.694   3.347  1.5025 -0.2720 -2.2234
 2331SOL     H2 9769   0.859   2.826   3.298  0.5558  1.2908  0.7835
 2331SOL    EPW 9770   0.838   2.774   3.366  0.3578 -0.1896 -0.3901
 2332SOL      O 9771   3.090   1.678   0.508  0.2450  0.1671  0.4188
 2332SOL     H1 9772   3.185   1.675   0.523  0.0904  0.8686  1.6458
 2332SOL     H2 9773   3.068   1.771   0.514 -0.3076  0.1597 -1.3361
 2332SOL    EPW 9774   3.098   1.688   0.510  0.1695  0.2411  0.3625
 2333SOL      O 9775   2.021   2.755   3.542 -0.6195  0.3216 -0.1240
 2333SOL     H1 9776   2.007   2.738   3.449  1.1036 -0.9672 -0.1740
 2333SOL     H2 9777   2.010   2.670   3.584  2.3148  0.1426  0.3722
 2333SOL    EPW 9778   2.019   2.744   3.537 -0.1226  0.1650 -0.0764
 2334SOL      O 9779   2.405   3.540   3.535  0.0136  0.4303 -0.0823
 2334SOL     H1 9780   2.405   3.451   3.573 -0.7157  0.1043 -0.8226
 2334SOL     H2 9781   2.459   3.533   3.457  0.0043  0.6482 -0.1066
 2334SOL    EPW 9782   2.410   3.530   3.531 -0.0652  0.4188 -0.1639
 2335SOL      O 9783   2.322   5.039   2.040  0.0125  0.4826  0.4061
 2335SOL     H1 9784   2.402   5.007   2.082 -0.1124  1.8165  1.6961
 2335SOL     H2 9785   2.278   4.960   2.008  2.2626 -0.2234 -1.1197
 2335SOL    EPW 9786   2.326   5.027   2.041  0.2392  0.5496  0.3810
 2336SOL      O 9787   3.345   2.496   0.833  0.4204  0.2031  0.5488
 2336SOL     H1 9788   3.346   2.558   0.906 -1.9457  1.9664 -0.8758
 2336SOL     H2 9789   3.348   2.410   0.875  1.7185  1.2312  2.6160
 2336SOL    EPW 9790   3.345   2.493   0.845  0.3064  0.5008  0.6173
 2337SOL      O 9791   5.153   1.347   2.522  0.3466 -0.5190 -0.1303
 2337SOL     H1 9792   5.189   1.420   2.471  2.4289 -1.6946 -0.3776
 2337SOL     H2 9793   5.196   1.269   2.486 -0.8334 -1.7337  1.0546
 2337SOL    EPW 9794   5.162   1.347   2.512  0.4428 -0.7740 -0.0303
 2338SOL      O 9795   2.883   4.434   2.369 -0.6148 -0.1796  0.2392
 2338SOL     H1 9796   2.840   4.514   2.338  0.2537  0.7987  1.5161
 2338SOL     H2 9797   2.926   4.460   2.450  2.3544 -1.1528 -0.9817
 2338SOL    EPW 9798   2.883   4.445   2.374 -0.2054 -0.1791  0.2452
 2339SOL      O 9799   2.233   2.790   1.849 -0.1966  0.0599 -0.3476
 2339SOL     H1 9800   2.180   2.800   1.928  0.8651  0.5937  0.3161
 2339SOL     H2 9801   2.298   2.723   1.872  0.3269  0.4574 -0.6416
 2339SOL    EPW 9802   2.235   2.784   1.860 -0.0275  0.1593 -0.3082
 2340SOL      O 9803   2.810   3.112   2.609  0.1553  0.2155  0.4344
 2340SOL     H1 9804   2.882   3.059   2.646  0.8610  1.6330  1.1121
 2340SOL     H2 9805   2.753   3.129   2.684 -0.4229 -0.1225  0.0781
 2340SOL    EPW 9806   2.812   3.108   2.621  0.1689  0.3306  0.4687
 2341SOL      O 9807   4.680   1.235   1.578  0.4093 -0.3519 -0.3835
 2341SOL     H1 9808   4.720   1.315   1.614  0.6712 -0.1158 -1.1848
 2341SOL     H2 9809   4.596   1.265   1.543 -0.1579 -0.7127  0.6493
 2341SOL    EPW 9810   4.675   1.247   1.578  0.3767 -0.3652 -0.3588
 2342SOL      O 9811   2.263   4.132   2.214 -0.4710  0.1951  0.7694
 2342SOL     H1 9812   2.318   4.060   2.184 -0.4334  0.1369  0.9745
 2342SOL     H2 9813   2.173   4.100   2.202 -0.4722  0.5637 -0.2288
 2342SOL    EPW 9814   2.259   4.121   2.210 -0.4671  0.2282  0.6848
 2343SOL      O 9815   2.983   2.987   3.096  0.1140  0.0395  0.0825
 2343SOL     H1 9816   2.938   2.911   3.133 -0.0507  0.5392  0.9226
 2343SOL     H2 9817   2.943   3.000   3.010  0.0718 -0.7542 -0.0183
 2343SOL    EPW 9818   2.974   2.980   3.091  0.0919  0.0082  0.1613
 2344SOL      O 9819   1.327   3.814   2.544  0.5214  0.3049  0.0448
 2344SOL     H1 9820   1.313   3.735   2.492  0.9439  1.4888 -1.9206
 2344SOL     H2 9821   1.368   3.783   2.625 -0.3479 -1.5888 -0.2102
 2344SOL    EPW 9822   1.329   3.802   2.547  0.4737  0.2292 -0.1920
 2345SOL      O 9823   2.543   3.637   3.212 -0.3979 -0.4412  0.0839
 2345SOL     H1 9824   2.593   3.595   3.142  0.4263 -0.6149  0.7744
 2345SOL     H2 9825   2.467   3.580   3.225 -0.2830 -0.6842 -0.3095
 2345SOL    EPW 9826   2.540   3.626   3.206 -0.2977 -0.4856  0.1156
 2346SOL      O 9827   2.237   2.995   3.490  0.2968 -0.3746 -0.4950
 2346SOL     H1 9828   2.210   2.907   3.517 -1.9702  0.2840 -0.5190
 2346SOL     H2 9829   2.291   3.026   3.562 -0.1543 -1.2158  0.2267
 2346SOL    EPW 9830   2.240   2.989   3.501  0.0068 -0.3941 -0.4206
 2347SOL      O 9831   3.442   4.174   2.698  0.2445  0.2438  0.0947
 2347SOL     H1 9832   3.395   4.097   2.666  0.0674 -0.5468  2.2025
 2347SOL     H2 9833   3.532   4.143   2.711  0.5067  0.7793 -0.4375
 2347SOL    EPW 9834   3.447   4.162   2.696  0.2536  0.2166  0.2628
 2348SOL      O 9835   2.866   3.192   2.055  0.1004  0.1963 -0.2828
 2348SOL     H1 9836   2.781   3.217   2.019  0.2156 -0.1280 -0.7878
 2348SOL     H2 9837   2.899   3.125   1.995  0.6509  0.2219 -0.0164
 2348SOL    EPW 9838   2.861   3.187   2.045  0.1714  0.1644 -0.3082
 2349SOL      O 9839   3.171   4.490   1.658 -0.5292 -0.1755 -0.3645
 2349SOL     H1 9840   3.221   4.559   1.616 -1.9939  0.9768 -0.2563
 2349SOL     H2 9841   3.234   4.443   1.713  0.9044 -0.2412 -2.0444
 2349SOL    EPW 9842   3.183   4.492   1.659 -0.5325 -0.0596 -0.5322
 2350SOL      O 9843   5.428   3.394   0.345 -0.1905 -0.1556  0.3429
 2350SOL     H1 9844   5.387   3.324   0.396  1.0979 -1.3965 -0.2618
 2350SOL     H2 9845   5.415   3.473   0.397 -2.5168 -0.6721  0.5769
 2350SOL    EPW 9846   5.422   3.395   0.356 -0.3012 -0.3431  0.3033
 2351SOL      O 9847   1.991   2.923   2.796 -0.1092  0.2348 -1.0452
 2351SOL     H1 9848   1.911   2.970   2.771  1.0252  1.7298 -2.0260
 2351SOL     H2 9849   2.034   2.982   2.857  0.6316 -0.1891 -1.1584
 2351SOL    EPW 9850   1.987   2.935   2.800  0.0909  0.3490 -1.1619
 2352SOL      O 9851   2.560   2.393   1.779 -0.4859 -0.4785  0.2638
 2352SOL     H1 9852   2.634   2.453   1.769  0.0135 -1.0554  0.4979
 2352SOL     H2 9853   2.521   2.388   1.691  0.5012 -1.1422 -0.1428
 2352SOL    EPW 9854   2.564   2.399   1.768 -0.3273 -0.6108  0.2454
 2353SOL      O 9855   1.169   3.933   1.031  0.6997 -0.4143 -0.1330
 2353SOL     H1 9856   1.241   3.900   1.084  2.0273 -1.5751 -2.6196
 2353SOL     H2 9857   1.094   3.879   1.056  1.0926 -0.3874  1.1546
 2353SOL    EPW 9858   1.168   3.924   1.040  0.8833 -0.5353 -0.2609
 2354SOL      O 9859   2.505   0.755   2.653  0.5019  0.2151 -0.0068
 2354SOL     H1 9860   2.489   0.762   2.747  0.1615  1.2716 -0.1442
 2354SOL     H2 9861   2.533   0.664   2.641  2.5685  0.6159  1.4240
 2354SOL    EPW 9862   2.507   0.746   2.662  0.6861  0.3705  0.1311
 2355SOL      O 9863   3.509   3.960   1.980  0.0321  0.1569 -0.3195
 2355SOL     H1 9864   3.601   3.979   1.959 -0.7415  3.1326 -1.2421
 2355SOL     H2 9865   3.501   3.982   2.073  0.3521 -0.6750 -0.0821
 2355SOL    EPW 9866   3.518   3.964   1.988 -0.0163  0.3856 -0.3926
 2356SOL      O 9867   2.217   2.991   0.884 -0.3619  0.3752  0.4198
 2356SOL     H1 9868   2.269   2.916   0.911 -2.1366 -0.3908  1.8375
 2356SOL     H2 9869   2.261   3.067   0.921  1.9809  0.1784 -1.8150
 2356SOL    EPW 9870   2.227   2.991   0.891 -0.3013  0.2725  0.3327
 2357SOL      O 9871   3.989   0.903   3.301  0.6227  0.5790 -0.3859
 2357SOL     H1 9872   3.905   0.903   3.348  1.3565  0.6397  0.9642
 2357SOL     H2 9873   4.055   0.900   3.371  1.7800  2.3688 -1.3748
 2357SOL    EPW 9874   3.987   0.903   3.314  0.8245  0.7764 -0.3474
 2358SOL      O 9875   3.755   1.923   3.270  0.1493  0.1758 -0.1223
 2358SOL     H1 9876   3.767   2.018   3.269 -2.7148  0.6117  1.4179
 2358SOL     H2 9877   3.827   1.890   3.323 -0.0168  1.7181  1.1177
 2358SOL    EPW 9878   3.764   1.930   3.275 -0.1739  0.3868  0.1743
 2359SOL      O 9879   2.419   3.690   2.375  0.5744  0.0808 -0.3784
 2359SOL     H1 9880   2.411   3.773   2.328 -0.9524 -0.5209 -1.2228
 2359SOL     H2 9881   2.471   3.635   2.317 -1.1263 -0.5901 -1.3001
 2359SOL    EPW 9882   2.423   3.693   2.364  0.2301 -0.0550 -0.5668
 2360SOL      O 9883   4.050   2.929   2.545 -0.0472  0.1106 -0.3598
 2360SOL     H1 9884   4.109   2.894   2.478  1.4669  0.8919  0.5158
 2360SOL     H2 9885   4.034   3.019   2.519  0.1919  0.2856  0.0842
 2360SOL    EPW 9886   4.055   2.935   2.535  0.1398  0.2127 -0.2190
 2361SOL      O 9887   4.607   2.221   2.727 -0.1940  0.0409  0.9921
 2361SOL     H1 9888   4.524   2.268   2.729 -1.1166 -1.5413  0.6788
 2361SOL     H2 9889   4.631   2.212   2.819 -1.2967 -1.0728  1.1848
 2361SOL    EPW 9890   4.601   2.225   2.737 -0.4101 -0.2467  0.9792
 2362SOL      O 9891   2.083   4.573   2.706  0.1122 -0.1473 -0.2257
 2362SOL     H1 9892   2.139   4.627   2.651 -0.6491  1.5627  0.6330
 2362SOL     H2 9893   2.002   4.624   2.714 -0.6678 -1.4789  0.5058
 2362SOL    EPW 9894   2.080   4.585   2.701 -0.0522 -0.1070 -0.0561
 2363SOL      O 9895   3.698   1.919   2.179  0.1128 -0.3557  0.7964
 2363SOL     H1 9896   3.682   1.978   2.253  0.6410  0.3120  0.3847
 2363SOL     H2 9897   3.687   1.831   2.216  0.0745 -0.0183  1.5957
 2363SOL    EPW 9898   3.695   1.916   2.191  0.1650 -0.2484  0.8377
 2364SOL      O 9899   3.242   2.754   3.756  0.5976  0.5630 -0.3541
 2364SOL     H1 9900   3.275   2.714   3.837  2.0463 -0.8989 -1.6563
 2364SOL     H2 9901   3.262   2.847   3.766  0.6778  0.4193  1.0075
 2364SOL    EPW 9902   3.247   2.760   3.766  0.7607  0.3917 -0.3477
 2365SOL      O 9903   4.628   2.615   3.100  0.7573  0.3625  0.0293
 2365SOL     H1 9904   4.536   2.641   3.109  0.9476  0.6955  1.0450
 2365SOL     H2 9905   4.677   2.680   3.150  1.3469 -1.1575  1.4766
 2365SOL    EPW 9906   4.623   2.625   3.106  0.8405  0.2358  0.2920
 2366SOL      O 9907   2.657   1.521   1.125  0.3339 -0.3267 -0.2444
 2366SOL     H1 9908   2.612   1.578   1.063 -0.8454 -0.6426  0.2979
 2366SOL     H2 9909   2.707   1.461   1.070  0.1944  0.1089 -0.8606
 2366SOL    EPW 9910   2.657   1.521   1.112  0.1932 -0.3139 -0.2523
 2367SOL      O 9911   3.704   3.404   1.151  0.0410  0.0952 -0.1639
 2367SOL     H1 9912   3.717   3.312   1.177  2.1719  0.3250 -0.2774
 2367SOL     H2 9913   3.650   3.441   1.220  2.3414 -0.3055  1.9210
 2367SOL    EPW 9914   3.700   3.398   1.161  0.5137  0.0770  0.0464
 2368SOL      O 9915   2.210   2.477   3.273  0.2411  0.2788 -0.0006
 2368SOL     H1 9916   2.279   2.492   3.209 -1.1997  2.8497 -1.0370
 2368SOL     H2 9917   2.256   2.444   3.350  2.5806  1.4686 -0.8364
 2368SOL    EPW 9918   2.223   2.475   3.275  0.3370  0.6800 -0.2004
 2369SOL      O 9919   2.586   3.819   1.682 -0.3017  0.3591  0.3274
 2369SOL     H1 9920   2.581   3.788   1.773 -0.6885  1.3162  0.6343
 2369SOL     H2 9921   2.667   3.781   1.648  0.6807  1.3061  1.5651
 2369SOL    EPW 9922   2.594   3.811   1.688 -0.2382  0.5623  0.4922
 2370SOL      O 9923   1.668   4.342   2.957 -0.3654  0.1784 -0.1691
 2370SOL     H1 9924   1.762   4.340   2.938 -0.7405  0.4965 -2.1569
 2370SOL     H2 9925   1.663   4.371   3.048  1.3817  2.6122 -0.7789
 2370SOL    EPW 9926   1.678   4.345   2.964 -0.2190  0.4720 -0.4462
 2371SOL      O 9927   2.899   3.283   3.430 -0.2495  0.6781  0.0058
 2371SOL     H1 9928   2.972   3.342   3.412  0.2083 -0.0137 -0.3991
 2371SOL     H2 9929   2.927   3.234   3.508 -0.2591  0.3744 -0.1830
 2371SOL    EPW 9930   2.910   3.284   3.436 -0.2017  0.5719 -0.0576
 2372SOL      O 9931   3.378   4.144   3.113 -0.0051 -0.0154 -0.5066
 2372SOL     H1 9932   3.346   4.183   3.031 -0.4470  0.6910  0.0005
 2372SOL     H2 9933   3.446   4.083   3.085  0.7761  1.1955 -1.3101
 2372SOL    EPW 9934   3.382   4.142   3.101  0.0311  0.1892 -0.5382
 2373SOL      O 9935   2.295   3.259   2.124  0.4162 -0.5453 -0.7437
 2373SOL     H1 9936   2.361   3.192   2.104  1.9366  1.0766 -1.2589
 2373SOL     H2 9937   2.297   3.265   2.219  0.6347 -0.8909 -0.7222
 2373SOL    EPW 9938   2.303   3.252   2.132  0.6017 -0.4092 -0.7963
 2374SOL      O 9939   5.203   2.405   0.519 -0.3976 -0.1636 -0.0082
 2374SOL     H1 9940   5.250   2.441   0.443 -1.2516  1.6545  0.2912
 2374SOL     H2 9941   5.252   2.437   0.595  0.5199 -2.0746  0.2282
 2374SOL    EPW 9942   5.213   2.412   0.519 -0.3908 -0.1735  0.0489
 2375SOL      O 9943   4.413   4.592   0.179 -0.1945  0.4281 -0.1541
 2375SOL     H1 9944   4.330   4.545   0.179  0.4723 -0.7853 -0.4075
 2375SOL     H2 9945   4.459   4.560   0.257  0.8009 -0.3091 -1.0396
 2375SOL    EPW 9946   4.409   4.584   0.188 -0.0172  0.2200 -0.2756
 2376SOL      O 9947   2.623   3.917   2.992  0.4748 -0.4697  0.2627
 2376SOL     H1 9948   2.653   3.918   2.901  0.2225 -0.0389  0.1845
 2376SOL     H2 9949   2.675   3.986   3.035 -0.7131  0.5825  0.0280
 2376SOL    EPW 9950   2.632   3.925   2.987  0.3212 -0.3115  0.2293
 2377SOL      O 9951   2.458   1.326   1.195  0.0340 -0.0583 -0.2131
 2377SOL     H1 9952   2.492   1.401   1.147  1.0899 -0.0154  0.5822
 2377SOL     H2 9953   2.364   1.326   1.176  0.4401 -0.1121 -2.3648
 2377SOL    EPW 9954   2.451   1.334   1.187  0.1899 -0.0595 -0.3578
 2378SOL      O 9955   1.458   1.831   3.067 -0.0289  0.3110  0.6543
 2378SOL     H1 9956   1.493   1.760   3.120 -0.2918 -0.9711 -0.8739
 2378SOL     H2 9957   1.530   1.895   3.063  1.6526 -1.6544 -1.2581
 2378SOL    EPW 9958   1.469   1.831   3.072  0.1224 -0.0354  0.2872
 2379SOL      O 9959   2.251   2.887   2.999 -0.1660  0.0397 -0.2958
 2379SOL     H1 9960   2.232   2.881   3.092  0.9118 -0.3248 -0.0870
 2379SOL     H2 9961   2.336   2.931   2.995 -0.0776 -0.1998 -1.0959
 2379SOL    EPW 9962   2.258   2.891   3.008 -0.0416 -0.0247 -0.3589
 2380SOL      O 9963   5.849   1.124   0.402 -0.4507  0.1524  0.1500
 2380SOL     H1 9964   5.941   1.149   0.407 -0.3675 -0.0682 -0.2904
 2380SOL     H2 9965   5.840   1.081   0.317 -0.8481 -0.2806  0.4055
 2380SOL    EPW 9966   5.858   1.122   0.393 -0.4842  0.0826  0.1303
 2381SOL      O 9967   3.671   2.470   1.748  0.8468  0.4406 -0.8200
 2381SOL     H1 9968   3.765   2.482   1.760  1.0046 -1.1434 -0.3367
 2381SOL     H2 9969   3.636   2.559   1.747  2.3616  1.0576 -1.1546
 2381SOL    EPW 9970   3.677   2.481   1.749  1.0252  0.3374 -0.8041
 2382SOL      O 9971   1.299   2.063   3.608  0.2082  0.1941  0.2940
 2382SOL     H1 9972   1.325   1.971   3.613  1.1515  0.3530 -1.3568
 2382SOL     H2 9973   1.344   2.105   3.681  0.8461 -0.3990  0.2428
 2382SOL    EPW 9974   1.307   2.058   3.617  0.3769  0.1478  0.1124
 2383SOL      O 9975   4.463   3.563   0.194 -0.1136 -0.5045  0.0529
 2383SOL     H1 9976   4.497   3.532   0.110 -2.2762 -0.3166 -0.9296
 2383SOL     H2 9977   4.499   3.502   0.258  0.2756 -1.6192 -1.1935
 2383SOL    EPW 9978   4.471   3.553   0.191 -0.3028 -0.6033 -0.1848
 2384SOL      O 9979   5.547   5.215   0.315  0.0541 -0.8675  0.0519
 2384SOL     H1 9980   5.462   5.253   0.295  0.7401  0.2461 -0.8338
 2384SOL     H2 9981   5.567   5.159   0.240  0.4621 -0.4757 -0.1386
 2384SOL    EPW 9982   5.540   5.213   0.305  0.1708 -0.7069 -0.0629
 2385SOL      O 9983   1.307   3.816   3.277  0.8527  0.5172 -0.4931
 2385SOL     H1 9984   1.294   3.736   3.328  0.5898  0.4654 -0.6421
 2385SOL     H2 9985   1.401   3.817   3.258  0.8622  0.2643 -0.4592
 2385SOL    EPW 9986   1.316   3.808   3.280  0.8257  0.4847 -0.5054
 2386SOL      O 9987   4.392   3.359   3.511  0.6180 -0.1165  0.2085
 2386SOL     H1 9988   4.476   3.405   3.507  0.2875  0.6436  1.7474
 2386SOL     H2 9989   4.405   3.281   3.457  1.1175  1.8386 -2.6467
 2386SOL    EPW 9990   4.402   3.356   3.505  0.6360  0.1732  0.0681
 2387SOL      O 9991   0.863   4.144   1.989 -0.1122 -0.2495 -0.5738
 2387SOL     H1 9992   0.806   4.221   1.990  1.3186  0.8427 -1.5093
 2387SOL     H2 9993   0.841   4.099   1.907  0.8590  0.5632 -1.2933
 2387SOL    EPW 9994   0.854   4.147   1.980  0.1440 -0.0463 -0.7503
 2388SOL      O 9995   2.882   5.243   2.956 -0.0969 -0.2431  0.0170
 2388SOL     H1 9996   2.797   5.243   3.002 -0.3225 -1.9871 -0.3927
 2388SOL     H2 9997   2.862   5.208   2.869  1.0671 -0.7283 -0.0518
 2388SOL    EPW 9998   2.871   5.239   2.952  0.0032 -0.4809 -0.0341
 2389SOL      O 9999   3.623   3.117   2.117 -0.2497 -0.3963  0.2839
 2389SOL     H110000   3.714   3.115   2.148  0.3012  2.3221 -1.0123
 2389SOL     H210001   3.622   3.056   2.043  0.3398 -0.9284  0.7055
 2389SOL    EPW10002   3.633   3.110   2.113 -0.1281 -0.1630  0.1906
 2390SOL      O10003   0.579   5.796   0.089 -0.4152  0.1709 -0.1978
 2390SOL     H110004   0.646   5.739   0.053 -1.3265 -0.6091 -0.6618
 2390SOL     H210005   0.593   5.881   0.046  0.9870  0.3338  0.5628
 2390SOL    EPW10006   0.587   5.799   0.081 -0.3629  0.1050 -0.1662
 2391SOL      O10007   4.121   0.177   3.738 -0.6845 -0.1515 -0.6991
 2391SOL     H110008   4.206   0.156   3.778 -0.2938 -0.8450 -1.8712
 2391SOL     H210009   4.063   0.108   3.768 -0.6513 -0.0896 -0.4896
 2391SOL    EPW10010   4.124   0.168   3.745 -0.6393 -0.2189 -0.8018
 2392SOL      O10011   3.240   2.107   1.639 -0.1523 -0.2358  0.1336
 2392SOL     H110012   3.237   2.018   1.605 -1.3963 -0.3288  0.4533
 2392SOL     H210013   3.200   2.100   1.726  0.4801  0.4902  0.4896
 2392SOL    EPW10014   3.236   2.097   1.645 -0.2176 -0.1683  0.2057
 2393SOL      O10015   3.967   2.620   3.121 -0.0952  0.0615 -0.1580
 2393SOL     H110016   3.990   2.688   3.185  0.5747  0.3738 -0.7310
 2393SOL     H210017   3.887   2.580   3.157  1.0671 -0.7278  1.6176
 2393SOL    EPW10018   3.961   2.623   3.132  0.1002  0.0106 -0.0297
 2394SOL      O10019   5.072   1.268   2.144  0.2012  0.0613 -0.6246
 2394SOL     H110020   5.000   1.303   2.092  0.0981 -0.1186 -0.6042
 2394SOL     H210021   5.036   1.188   2.184  0.7225 -0.5684 -1.4080
 2394SOL    EPW10022   5.060   1.263   2.143  0.2458 -0.0251 -0.7060
 2395SOL      O10023   3.627   3.999   3.006 -0.3473  0.1250  0.4278
 2395SOL     H110024   3.640   4.076   2.951  1.3457 -1.0907 -0.8930
 2395SOL     H210025   3.654   3.925   2.952 -0.5812 -1.2851  2.1849
 2395SOL    EPW10026   3.631   3.999   2.995 -0.1917 -0.1551  0.4743
 2396SOL      O10027   4.659   1.519   1.702 -0.1247 -0.2127  0.4592
 2396SOL     H110028   4.657   1.506   1.797  2.0796 -1.7656  0.3125
 2396SOL     H210029   4.670   1.614   1.692  0.2982 -0.1089  1.7651
 2396SOL    EPW10030   4.660   1.528   1.711  0.1556 -0.3673  0.5828
 2397SOL      O10031   2.475   2.771   2.388  0.0462 -0.6274  0.3546
 2397SOL     H110032   2.408   2.801   2.326  0.5222  0.4027  0.3339
 2397SOL     H210033   2.539   2.726   2.333  1.0635  1.2956 -0.0867
 2397SOL    EPW10034   2.475   2.769   2.375  0.2055 -0.3124  0.3053
 2398SOL      O10035   3.311   2.350   3.514  0.2278  0.0617  0.0556
 2398SOL     H110036   3.238   2.315   3.563  0.3877 -2.6234 -1.5418
 2398SOL     H210037   3.284   2.439   3.491 -2.9037 -1.1585 -1.2147
 2398SOL    EPW10038   3.300   2.356   3.516 -0.0892 -0.3549 -0.2503
 2399SOL      O10039   2.989   3.354   2.951 -0.7160  0.0415  0.4798
 2399SOL     H110040   3.063   3.412   2.934  0.6479 -1.2838  1.7467
 2399SOL     H210041   2.963   3.374   3.041 -1.7844  0.3778  0.0999
 2399SOL    EPW10042   2.994   3.362   2.959 -0.6845 -0.0640  0.5744
 2400SOL      O10043   3.805   2.968   1.276 -0.7696  0.5781 -0.0980
 2400SOL     H110044   3.829   3.060   1.289 -0.9337  0.7938 -1.2139
 2400SOL     H210045   3.815   2.955   1.181 -0.8357 -0.5288  0.0470
 2400SOL    EPW10046   3.809   2.977   1.267 -0.7941  0.4830 -0.2016
 2401SOL      O10047   2.707   4.222   2.305  0.2161  0.5013  0.0343
 2401SOL     H110048   2.777   4.284   2.328  2.2145 -1.3199 -0.9525
 2401SOL     H210049   2.748   4.162   2.243 -1.7707 -1.6664  0.7681
 2401SOL    EPW10050   2.719   4.222   2.301  0.2174  0.0758  0.0073
 2402SOL      O10051   0.071   0.166   0.275 -0.8288 -0.1313  0.0911
 2402SOL     H110052   0.152   0.196   0.233 -0.7155  0.3069  0.6255
 2402SOL     H210053   0.086   0.072   0.290 -0.6437 -0.1684 -0.3184
 2402SOL    EPW10054   0.081   0.159   0.272 -0.7970 -0.0885  0.1044
 2403SOL      O10055   1.299   3.564   2.044 -0.3581  0.1496  0.1809
 2403SOL     H110056   1.206   3.588   2.048 -0.0887  1.1567  0.6420
 2403SOL     H210057   1.313   3.536   1.954 -0.7315  1.5730 -0.3295
 2403SOL    EPW10058   1.291   3.564   2.035 -0.3692  0.4088  0.1756
 2404SOL      O10059   1.896   2.471   4.093  0.4763 -0.7313 -0.2711
 2404SOL     H110060   1.971   2.413   4.080  2.0761  1.1368  0.4074
 2404SOL     H210061   1.872   2.459   4.185  0.1167 -1.0810 -0.4046
 2404SOL    EPW10062   1.901   2.463   4.101  0.6086 -0.5693 -0.2129
 2405SOL      O10063   0.907   1.427   3.877 -0.3192 -0.0911 -0.4737
 2405SOL     H110064   0.868   1.385   3.953 -1.8690 -0.1429 -1.2873
 2405SOL     H210065   0.982   1.475   3.912 -0.3891 -0.9794  0.9209
 2405SOL    EPW10066   0.911   1.428   3.889 -0.4920 -0.1914 -0.4117
 2406SOL      O10067   3.155   2.226   1.395 -0.2565 -0.5031  0.0849
 2406SOL     H110068   3.120   2.266   1.316 -1.3314 -1.2741  0.1573
 2406SOL     H210069   3.083   2.172   1.429 -0.4431  1.2452  2.5976
 2406SOL    EPW10070   3.144   2.224   1.390 -0.3911 -0.3989  0.3606
 2407SOL      O10071   1.924   2.429   3.212  0.2822 -0.2042  0.2846
 2407SOL     H110072   1.881   2.363   3.266  1.1905 -0.4332  0.7370
 2407SOL     H210073   2.018   2.418   3.230  0.4287  1.4378  0.6448
 2407SOL    EPW10074   1.930   2.421   3.220  0.3948 -0.0535  0.3713
 2408SOL      O10075   3.776   1.953   1.580  1.1271  0.5314 -0.0599
 2408SOL     H110076   3.732   2.036   1.566 -0.5403 -0.6001 -1.9039
 2408SOL     H210077   3.812   1.930   1.494  2.6000 -0.0786  0.7028
 2408SOL    EPW10078   3.775   1.959   1.569  1.1064  0.3457 -0.1752
 2409SOL      O10079   5.715   3.413   0.004 -0.1107  0.4139  0.3526
 2409SOL     H110080   5.719   3.359  -0.075  0.3156  0.9094  0.0306
 2409SOL     H210081   5.758   3.361   0.071  0.2953  0.3452  0.0429
 2409SOL    EPW10082   5.720   3.402   0.003 -0.0219  0.4594  0.2852
 2410SOL      O10083   1.943   0.431   2.347 -0.1290 -0.0956 -0.1456
 2410SOL     H110084   1.923   0.337   2.355 -1.9168  0.3506  0.9942
 2410SOL     H210085   2.000   0.449   2.421 -0.9147 -0.0129  0.4516
 2410SOL    EPW10086   1.947   0.423   2.356 -0.4036 -0.0392  0.0397
 2411SOL      O10087   2.512   4.304   2.622  0.2176 -0.1650  0.2081
 2411SOL     H110088   2.497   4.296   2.716 -1.4986 -0.4096 -0.0688
 2411SOL     H210089   2.441   4.255   2.582  1.1009 -0.3097 -1.2261
 2411SOL    EPW10090   2.503   4.298   2.628  0.1287 -0.2065  0.0255
 2412SOL      O10091   4.139   4.624   3.623 -0.5430  0.0530 -0.1030
 2412SOL     H110092   4.121   4.653   3.534 -0.2646  1.4248  0.2837
 2412SOL     H210093   4.096   4.688   3.679  0.2642 -0.1395  0.7560
 2412SOL    EPW10094   4.133   4.634   3.620 -0.4272  0.1788  0.0299
 2413SOL      O10095   3.159   2.789   2.035  0.6981 -0.5376  0.2779
 2413SOL     H110096   3.190   2.840   2.110 -0.9833  1.5635 -0.3754
 2413SOL     H210097   3.115   2.713   2.074  1.4519 -0.4242  1.3646
 2413SOL    EPW10098   3.157   2.786   2.048  0.5992 -0.3014  0.3242
 2414SOL      O10099   1.493   2.028   2.142  0.6591  0.1191  0.2563
 2414SOL     H110100   1.398   2.036   2.143  0.6373  0.0111 -0.8947
 2414SOL     H210101   1.525   2.116   2.161  0.3347  0.2369  0.2489
 2414SOL    EPW10102   1.487   2.038   2.144  0.6221  0.1202  0.1328
 2415SOL      O10103   3.249   3.202   2.070 -0.5089 -0.7529  0.0211
 2415SOL     H110104   3.330   3.248   2.048 -1.1612 -0.2211 -1.2937
 2415SOL     H210105   3.195   3.268   2.114 -0.5676 -0.8845  0.1499
 2415SOL    EPW10106   3.252   3.214   2.073 -0.5848 -0.7102 -0.1054
 2416SOL      O10107   1.033   1.639   2.202 -0.0632 -0.2512 -0.0885
 2416SOL     H110108   1.120   1.660   2.238 -0.3150  1.1805 -0.2802
 2416SOL     H210109   1.005   1.720   2.160 -1.8782 -0.4347  0.7224
 2416SOL    EPW10110   1.039   1.650   2.202 -0.2837 -0.1180 -0.0225
 2417SOL      O10111   5.457   1.555   2.904  0.1431  0.0957  0.0129
 2417SOL     H110112   5.531   1.613   2.891  0.6836 -0.3942  0.8649
 2417SOL     H210113   5.463   1.492   2.832  0.1573  0.4715 -0.3120
 2417SOL    EPW10114   5.465   1.554   2.895  0.2023  0.0836  0.0691
 2418SOL      O10115   4.243   3.576   3.567  0.3712  0.5386 -0.6662
 2418SOL     H110116   4.242   3.620   3.482 -0.9564  0.5711 -0.6378
 2418SOL     H210117   4.299   3.499   3.552  2.1487  1.8510 -0.8879
 2418SOL    EPW10118   4.249   3.572   3.556  0.4192  0.6821 -0.6868
 2419SOL      O10119   2.277   3.526   2.118  0.2473  0.0226 -0.2142
 2419SOL     H110120   2.264   3.431   2.109  0.2679 -0.0408  0.4542
 2419SOL     H210121   2.191   3.559   2.143  0.3455  0.1283 -0.0174
 2419SOL    EPW10122   2.266   3.519   2.119  0.2600  0.0271 -0.1219
 2420SOL      O10123   3.322   2.494   2.801 -0.1093  0.1161 -0.2961
 2420SOL     H110124   3.363   2.564   2.853 -1.7874 -0.0886  1.3765
 2420SOL     H210125   3.283   2.539   2.726 -0.5913  0.8931  0.4150
 2420SOL    EPW10126   3.322   2.506   2.799 -0.3398  0.1771 -0.0418
 2421SOL      O10127   1.528   4.132   2.611 -0.2352 -0.2576  0.3308
 2421SOL     H110128   1.615   4.163   2.636  0.2671 -2.0085  0.8443
 2421SOL     H210129   1.544   4.062   2.548 -1.2500 -0.7160  0.5628
 2421SOL    EPW10130   1.539   4.128   2.607 -0.2899 -0.4933  0.4103
 2422SOL      O10131   3.905   3.574   2.925  0.1810  0.2496  0.1022
 2422SOL     H110132   3.929   3.586   2.834 -0.6607 -0.5334 -0.2317
 2422SOL     H210133   3.857   3.491   2.926 -0.6722  0.7522  1.0900
 2422SOL    EPW10134   3.903   3.566   2.916  0.0002  0.2197  0.1719
 2423SOL      O10135   2.718   4.641   2.339 -0.5660  0.6187  0.0948
 2423SOL     H110136   2.712   4.725   2.385 -2.0382  0.7678 -0.3340
 2423SOL     H210137   2.644   4.590   2.372  1.5325 -1.3230  1.9166
 2423SOL    EPW10138   2.709   4.645   2.347 -0.4992  0.4275  0.2434
 2424SOL      O10139   2.937   3.882   2.375  0.4793  0.0020 -0.2082
 2424SOL     H110140   3.000   3.932   2.323  0.2361  0.6914  0.1541
 2424SOL     H210141   2.905   3.945   2.440  1.8486 -1.2247  1.7053
 2424SOL    EPW10142   2.940   3.894   2.377  0.5995 -0.0554  0.0346
 2425SOL      O10143   3.744   2.937   2.486  0.1160  0.2201 -0.4188
 2425SOL     H110144   3.716   3.012   2.538  3.4718  0.3896  1.3294
 2425SOL     H210145   3.750   2.865   2.549  3.8402  0.3305 -0.5160
 2425SOL    EPW10146   3.742   2.937   2.498  0.8713  0.2500 -0.2427
 2426SOL      O10147   2.169   3.783   3.419  0.4849 -0.4527 -0.0885
 2426SOL     H110148   2.252   3.831   3.413 -1.0462  2.4309  0.9578
 2426SOL     H210149   2.176   3.734   3.501  1.4351 -0.7525 -0.3419
 2426SOL    EPW10150   2.179   3.783   3.427  0.4229 -0.1770 -0.0040
 2427SOL      O10151   3.254   1.594   3.840  0.8979 -0.4129 -0.1115
 2427SOL     H110152   3.317   1.657   3.805  2.0954 -2.0904 -1.0650
 2427SOL     H210153   3.282   1.510   3.804 -0.1245 -1.6310  1.8470
 2427SOL    EPW10154   3.264   1.592   3.832  0.9165 -0.7218 -0.0043
 2428SOL      O10155   2.942   1.444   2.305 -0.2531  0.3147 -0.3450
 2428SOL     H110156   3.032   1.464   2.329 -0.1039  1.2760 -1.6418
 2428SOL     H210157   2.900   1.530   2.296 -1.2403 -0.1202  0.0697
 2428SOL    EPW10158   2.947   1.455   2.306 -0.3425  0.3708 -0.4391
 2429SOL      O10159   3.789   3.619   3.400 -0.2339 -0.3715 -0.1346
 2429SOL     H110160   3.703   3.640   3.365  0.6149 -0.8816 -2.6546
 2429SOL     H210161   3.838   3.701   3.393 -0.2568 -0.2986  0.5193
 2429SOL    EPW10162   3.785   3.630   3.395 -0.1458 -0.4182 -0.3337
 2430SOL      O10163   3.751   1.797   3.021  0.6941 -0.1079  0.1970
 2430SOL     H110164   3.694   1.722   3.011  2.1143 -1.2330  0.3574
 2430SOL     H210165   3.739   1.824   3.112  0.4386 -0.3531  0.2363
 2430SOL    EPW10166   3.744   1.792   3.030  0.8183 -0.2541  0.2183
 2431SOL      O10167   3.358   2.451   1.422  0.4586 -0.3361  0.7645
 2431SOL     H110168   3.349   2.455   1.327  1.6414  1.2467  0.6939
 2431SOL     H210169   3.340   2.541   1.451 -0.4245 -0.9252  2.0941
 2431SOL    EPW10170   3.355   2.461   1.415  0.4906 -0.2301  0.8988
 2432SOL      O10171   1.460   2.078   1.406 -0.1893  0.5980  0.5089
 2432SOL     H110172   1.520   2.146   1.375  0.7578 -0.5947 -0.2886
 2432SOL     H210173   1.513   1.998   1.409 -0.9961  0.1116  2.5367
 2432SOL    EPW10174   1.472   2.077   1.403 -0.1744  0.4189  0.6401
 2433SOL      O10175   3.420   3.041   3.605  0.5733  0.1714  0.2705
 2433SOL     H110176   3.397   2.995   3.524 -2.5450  1.3711  0.3951
 2433SOL     H210177   3.446   3.128   3.576  0.2423  0.3511  0.5214
 2433SOL    EPW10178   3.420   3.045   3.594  0.2054  0.3186  0.3105
 2434SOL      O10179   1.323   2.917   1.877 -0.0237  0.3902  0.0452
 2434SOL     H110180   1.412   2.953   1.877  0.1781 -0.0922 -0.3726
 2434SOL     H210181   1.335   2.826   1.849 -1.0211  1.2608 -3.4396
 2434SOL    EPW10182   1.334   2.911   1.874 -0.1086  0.4316 -0.3711
 2435SOL      O10183   3.063   2.933   2.449  0.1878  0.2641 -0.3282
 2435SOL     H110184   3.075   3.026   2.430  3.4575  0.5879  2.7368
 2435SOL     H210185   3.139   2.890   2.410 -0.5834 -0.9416 -0.5332
 2435SOL    EPW10186   3.072   2.938   2.443  0.4543  0.1700 -0.0231
 2436SOL      O10187   2.641   3.532   2.270 -0.1375 -0.2262  0.4946
 2436SOL     H110188   2.626   3.539   2.176  0.2818 -0.3083  0.4180
 2436SOL     H210189   2.623   3.440   2.290  0.2550 -0.3218  0.4057
 2436SOL    EPW10190   2.638   3.523   2.262 -0.0509 -0.2452  0.4770
 2437SOL      O10191   3.177   2.412   1.628  0.3941 -0.4208 -0.2707
 2437SOL     H110192   3.082   2.413   1.632  0.3217  0.7877 -1.8134
 2437SOL     H210193   3.203   2.492   1.674  0.6454 -0.5514 -0.1843
 2437SOL    EPW10194   3.170   2.421   1.634  0.4132 -0.3059 -0.4261
 2438SOL      O10195   4.239   3.303   2.824  0.1095 -0.5444  0.0094
 2438SOL     H110196   4.171   3.301   2.757  0.2256 -0.8458 -0.1007
 2438SOL     H210197   4.219   3.228   2.880 -0.5270  0.2421  0.8521
 2438SOL    EPW10198   4.230   3.295   2.822  0.0540 -0.4927  0.0876
 2439SOL      O10199   2.150   3.859   2.419 -0.7489  0.0855  0.5213
 2439SOL     H110200   2.127   3.918   2.491  0.2608  1.0516  0.0543
 2439SOL     H210201   2.195   3.786   2.462  0.8481  1.1886  0.7684
 2439SOL    EPW10202   2.152   3.858   2.432 -0.4709  0.3062  0.4979
 2440SOL      O10203   3.671   3.365   3.808  0.3687 -0.1289  0.1102
 2440SOL     H110204   3.634   3.453   3.815  0.3746 -0.1600  0.5779
 2440SOL     H210205   3.656   3.326   3.894  3.6823  0.7330  1.1616
 2440SOL    EPW10206   3.666   3.370   3.818  0.7228 -0.0403  0.2723
 2441SOL      O10207   2.299   4.664   2.542  0.2861 -0.1664  0.4765
 2441SOL     H110208   2.349   4.593   2.501 -0.3392 -1.0213  1.1592
 2441SOL     H210209   2.325   4.743   2.494 -0.5841 -1.1574 -1.7131
 2441SOL    EPW10210   2.307   4.665   2.533  0.1265 -0.3633  0.3158
 2442SOL      O10211   2.046   0.824   2.398 -0.1258 -0.0860  0.1358
 2442SOL     H110212   1.976   0.771   2.437  0.1764 -1.1175 -0.6848
 2442SOL     H210213   2.029   0.820   2.304  0.1346  0.9692  0.0437
 2442SOL    EPW10214   2.037   0.818   2.392 -0.0658 -0.0834  0.0384
 2443SOL      O10215   2.343   1.944   3.753 -0.0237 -0.0285 -0.4145
 2443SOL     H110216   2.363   2.009   3.685  3.3817 -0.6814 -0.1429
 2443SOL     H210217   2.341   1.861   3.706 -1.1431 -0.0964 -0.2495
 2443SOL    EPW10218   2.345   1.942   3.741  0.2202 -0.1054 -0.3679
 2444SOL      O10219   3.792   1.766   0.912  0.4795  0.2138  0.6983
 2444SOL     H110220   3.869   1.716   0.940  1.2127  0.6494 -0.5268
 2444SOL     H210221   3.769   1.729   0.827 -0.6505  0.1063  1.0532
 2444SOL    EPW10222   3.798   1.757   0.906  0.4371  0.2488  0.6055
 2445SOL      O10223   3.269   1.772   2.388 -0.2449 -0.1225  0.4006
 2445SOL     H110224   3.189   1.816   2.360  0.2256  0.9980  0.8114
 2445SOL     H210225   3.290   1.812   2.473  0.9688 -0.1316  0.1095
 2445SOL    EPW10226   3.263   1.781   2.394 -0.0653 -0.0040  0.4134
 2446SOL      O10227   2.810   2.830   3.743  0.2154  0.4654 -0.1591
 2446SOL     H110228   2.866   2.826   3.666  0.3095 -0.3956 -0.0506
 2446SOL     H210229   2.839   2.757   3.798  1.1559  1.9644  1.3833
 2446SOL    EPW10230   2.819   2.822   3.741  0.3257  0.5335  0.0170
 2447SOL      O10231   2.811   3.175   3.180 -0.2341  0.1904  0.1354
 2447SOL     H110232   2.826   3.185   3.274  1.2794  0.3322 -0.1009
 2447SOL     H210233   2.882   3.119   3.150  0.3006  1.5354 -1.2087
 2447SOL    EPW10234   2.820   3.170   3.187 -0.0156  0.3490 -0.0332
 2448SOL      O10235   2.954   4.217   3.636  0.1696 -0.5750  0.2885
 2448SOL     H110236   3.017   4.147   3.621  1.4561  0.0751  2.5156
 2448SOL     H210237   3.006   4.297   3.644 -1.0199  0.1838  0.7727
 2448SOL    EPW10238   2.966   4.218   3.635  0.1799 -0.4247  0.5778
 2449SOL      O10239   2.506   1.568   3.877  0.1174 -0.0962  0.0124
 2449SOL     H110240   2.517   1.484   3.921  0.0526 -0.3673 -0.4857
 2449SOL     H210241   2.525   1.633   3.945 -1.3376 -0.4923  0.8071
 2449SOL    EPW10242   2.509   1.566   3.889 -0.0447 -0.1674  0.0441
 2450SOL      O10243   2.054   4.023   2.923  0.2326 -0.0504  0.0859
 2450SOL     H110244   2.088   3.990   3.006  0.2681  0.0366  0.1061
 2450SOL     H210245   1.987   3.960   2.897  0.3957 -0.2124  0.0560
 2450SOL    EPW10246   2.051   4.013   2.929  0.2538 -0.0584  0.0849
 2451SOL      O10247   4.023   1.729   2.472 -0.2405 -0.7367  0.5993
 2451SOL     H110248   4.019   1.746   2.377 -0.8281 -2.8653  0.2254
 2451SOL     H210249   4.106   1.770   2.499  0.5448 -1.1664 -1.0611
 2451SOL    EPW10250   4.032   1.735   2.464 -0.2194 -1.0096  0.3823
 2452SOL      O10251   4.471   3.689   4.052  0.2509 -0.4241 -0.7642
 2452SOL     H110252   4.544   3.740   4.086  0.2032  0.9305 -2.6389
 2452SOL     H210253   4.420   3.665   4.129  1.2902  0.7873  0.3059
 2452SOL    EPW10254   4.474   3.692   4.064  0.3567 -0.1504 -0.8500
 2453SOL      O10255   3.331   2.898   2.853  0.0844  0.2432  0.3632
 2453SOL     H110256   3.308   2.984   2.889 -0.9831 -0.5351  1.6105
 2453SOL     H210257   3.254   2.844   2.871  1.3307 -1.3679  0.9505
 2453SOL    EPW10258   3.320   2.902   2.859  0.1035 -0.0117  0.5589
 2454SOL      O10259   3.208   3.725   3.409  0.0460 -0.4296 -0.0032
 2454SOL     H110260   3.193   3.809   3.452  1.3799 -1.0875  1.8147
 2454SOL     H210261   3.289   3.692   3.449  1.0423 -1.3229 -2.6352
 2454SOL    EPW10262   3.215   3.731   3.418  0.2946 -0.5951 -0.0901
 2455SOL      O10263   2.347   1.843   4.010  0.0243  0.1575  0.5271
 2455SOL     H110264   2.438   1.851   4.038  0.1413  1.7799 -0.2427
 2455SOL     H210265   2.351   1.846   3.915 -0.8247  0.0719  0.4828
 2455SOL    EPW10266   2.357   1.844   4.003 -0.0538  0.3214  0.4403
 2456SOL      O10267   3.528   2.667   3.642  0.4436  0.1709  0.6296
 2456SOL     H110268   3.590   2.644   3.710 -0.7030 -0.0585  1.6114
 2456SOL     H210269   3.445   2.678   3.688 -0.1058  1.1330 -0.5658
 2456SOL    EPW10270   3.526   2.666   3.654  0.2627  0.2491  0.6068
 2457SOL      O10271   3.566   2.759   1.712 -0.3187  0.1777 -0.2642
 2457SOL     H110272   3.598   2.810   1.637 -1.3871  1.2846 -0.0064
 2457SOL     H210273   3.572   2.820   1.786 -1.2038 -0.2029  0.1354
 2457SOL    EPW10274   3.570   2.771   1.712 -0.5271  0.2552 -0.1941
 2458SOL      O10275   3.058   3.375   2.215 -0.2258  0.2487 -0.4414
 2458SOL     H110276   2.973   3.336   2.237  1.6812 -2.4132  2.6346
 2458SOL     H210277   3.093   3.407   2.298  1.0503  3.0119 -1.9439
 2458SOL    EPW10278   3.053   3.374   2.226  0.1138  0.2595 -0.2735
 2459SOL      O10279   1.790   2.156   1.993  0.1361 -0.2832  0.3855
 2459SOL     H110280   1.776   2.188   2.082 -0.5110  0.7781 -0.0784
 2459SOL     H210281   1.884   2.141   1.987  0.4883  1.6208  0.6198
 2459SOL    EPW10282   1.798   2.158   2.002  0.1046  0.0331  0.3610
 2460SOL      O10283   2.375   4.331   3.914  0.4947 -0.0191 -0.0928
 2460SOL     H110284   2.315   4.263   3.884  0.4627 -0.1519  0.2675
 2460SOL     H210285   2.445   4.284   3.958  0.2294  0.2050  0.5773
 2460SOL    EPW10286   2.376   4.319   3.916  0.4629 -0.0093  0.0171
 2461SOL      O10287   2.329   4.068   3.395 -0.2620 -0.4124  0.3713
 2461SOL     H110288   2.415   4.028   3.385 -0.6053 -0.8066 -1.1754
 2461SOL     H210289   2.346   4.162   3.383  0.2813 -0.2493  2.3095
 2461SOL    EPW10290   2.340   4.074   3.393 -0.2406 -0.4371  0.4131
 2462SOL      O10291   5.087   5.334   1.003 -0.0487  0.5530 -0.2544
 2462SOL     H110292   4.999   5.310   1.032  0.9402 -2.9570  0.1059
 2462SOL     H210293   5.140   5.331   1.083  0.9637 -0.3526 -0.9377
 2462SOL    EPW10294   5.083   5.331   1.015  0.1648  0.0820 -0.2888
 2463SOL      O10295   3.073   3.493   3.929  0.2727  0.6393 -0.3783
 2463SOL     H110296   3.035   3.581   3.937  2.5748  1.5230  1.0885
 2463SOL     H210297   3.124   3.496   3.848 -0.5989  0.2586 -0.9551
 2463SOL    EPW10298   3.074   3.503   3.921  0.4253  0.6930 -0.2833
 2464SOL      O10299   4.678   2.349   1.267  0.2201  0.6112 -0.8192
 2464SOL     H110300   4.680   2.432   1.220 -0.1323  0.6949 -0.6874
 2464SOL     H210301   4.743   2.294   1.222  0.6149  1.0318 -0.7650
 2464SOL    EPW10302   4.685   2.352   1.257  0.2247  0.6650 -0.7994
 2465SOL      O10303   2.325   1.806   2.303  0.6799  0.0227  0.3933
 2465SOL     H110304   2.408   1.768   2.277 -0.3670 -1.0609 -1.4648
 2465SOL     H210305   2.290   1.746   2.369 -0.1889 -1.3864 -1.3106
 2465SOL    EPW10306   2.330   1.796   2.308  0.4756 -0.2432  0.0133
 2466SOL      O10307   3.264   1.889   2.633 -0.2571 -0.1796  0.4922
 2466SOL     H110308   3.347   1.887   2.681  1.2717 -0.3297 -2.0658
 2466SOL     H210309   3.211   1.821   2.673  1.3493 -0.9488  1.3266
 2466SOL    EPW10310   3.267   1.882   2.642  0.0773 -0.2777  0.3083
 2467SOL      O10311   2.700   1.639   3.125  0.1823  0.0171 -0.5399
 2467SOL     H110312   2.697   1.734   3.114 -0.5979  0.2027  1.0990
 2467SOL     H210313   2.609   1.613   3.137  0.4689 -0.8195 -0.1050
 2467SOL    EPW10314   2.690   1.647   3.125  0.1297 -0.0523 -0.3187
 2468SOL      O10315   2.943   2.724   2.645  0.0184  0.2757 -0.3989
 2468SOL     H110316   2.933   2.776   2.725 -0.8565 -0.4463 -0.0268
 2468SOL     H210317   2.892   2.771   2.579  0.1214  0.4707 -0.3394
 2468SOL    EPW10318   2.937   2.734   2.647 -0.0639  0.2195 -0.3528
 2469SOL      O10319   3.086   2.535   2.129 -0.9650 -0.3641  0.0357
 2469SOL     H110320   3.134   2.455   2.106  0.7202  0.1273  1.7516
 2469SOL     H210321   3.092   2.540   2.224  0.6583  2.8120 -0.1654
 2469SOL    EPW10322   3.092   2.527   2.136 -0.6121  0.0271  0.1973
 2470SOL      O10323   1.903   2.905   2.232  0.1426 -0.0452 -0.0873
 2470SOL     H110324   1.832   2.842   2.243  0.7548 -0.2702  3.0712
 2470SOL     H210325   1.860   2.991   2.238 -0.2149 -0.1592 -0.9282
 2470SOL    EPW10326   1.891   2.908   2.234  0.1698 -0.0814  0.1599
 2471SOL      O10327   3.631   2.910   1.929 -0.8219  0.2455  0.1081
 2471SOL     H110328   3.714   2.880   1.968  0.0886  3.2593  0.6584
 2471SOL     H210329   3.563   2.869   1.983  0.2763 -1.9510 -0.1011
 2471SOL    EPW10330   3.633   2.902   1.939 -0.6077  0.3327  0.1445
 2472SOL      O10331   0.934   4.524   2.671 -0.1340  0.3371 -0.2883
 2472SOL     H110332   0.964   4.615   2.667 -1.6973  0.8155 -3.0960
 2472SOL     H210333   0.854   4.527   2.724  1.1617  0.1588  1.7032
 2472SOL    EPW10334   0.929   4.534   2.676 -0.1625  0.3691 -0.3753
 2473SOL      O10335   4.620   2.409   1.925  0.0011 -0.3313  0.3876
 2473SOL     H110336   4.655   2.497   1.915  1.4692 -0.8510  0.9171
 2473SOL     H210337   4.621   2.393   2.020 -0.7782 -0.7200  0.3396
 2473SOL    EPW10338   4.624   2.417   1.934  0.0745 -0.4282  0.4390
 2474SOL      O10339   5.658   4.969   1.721  0.4516 -0.7472  0.2408
 2474SOL     H110340   5.573   4.929   1.703  0.0284  1.0671 -2.1347
 2474SOL     H210341   5.641   5.031   1.792 -0.2878 -0.2472 -0.3576
 2474SOL    EPW10342   5.647   4.971   1.726  0.3276 -0.5003 -0.0765
 2475SOL      O10343   4.463   0.903   0.458  0.1016 -0.0030 -0.3664
 2475SOL     H110344   4.505   0.877   0.376  0.1237  0.6594 -0.5692
 2475SOL     H210345   4.382   0.947   0.431 -0.9938 -1.7064  0.0281
 2475SOL    EPW10346   4.459   0.905   0.447 -0.0129 -0.1140 -0.3459
 2476SOL      O10347   3.437   2.167   1.886 -0.1940 -0.0473 -0.2359
 2476SOL     H110348   3.446   2.079   1.850 -3.1152 -1.0609  1.3153
 2476SOL     H210349   3.523   2.187   1.923  0.2395 -2.6290  0.2304
 2476SOL    EPW10350   3.447   2.160   1.886 -0.4594 -0.4308 -0.0207
 2477SOL      O10351   0.629   1.876   1.024  0.3670  0.4477 -0.5198
 2477SOL     H110352   0.542   1.917   1.030 -0.0359 -0.6304  1.4677
 2477SOL     H210353   0.611   1.786   0.999  0.7463 -0.2459  1.5873
 2477SOL    EPW10354   0.617   1.871   1.022  0.3644  0.2587 -0.0830
 2478SOL      O10355   2.324   3.668   2.921 -0.7165 -0.2420  0.1976
 2478SOL     H110356   2.347   3.727   2.993 -0.4630 -0.4173  0.2572
 2478SOL     H210357   2.228   3.670   2.919 -0.7269 -0.3033  0.5942
 2478SOL    EPW10358   2.316   3.675   2.928 -0.6905 -0.2672  0.2463
 2479SOL      O10359   1.417   2.123   3.377 -0.5681 -0.0754  0.3738
 2479SOL     H110360   1.374   2.086   3.454 -0.5895 -0.4713  0.1759
 2479SOL     H210361   1.452   2.207   3.406  0.7659 -0.9005  1.2542
 2479SOL    EPW10362   1.416   2.128   3.388 -0.4281 -0.2057  0.4466
 2480SOL      O10363   2.832   3.331   2.442 -0.0153 -0.2741  0.0771
 2480SOL     H110364   2.848   3.254   2.498 -2.3017 -0.6716  0.2392
 2480SOL     H210365   2.837   3.405   2.502  0.3904 -0.4440  0.2603
 2480SOL    EPW10366   2.834   3.330   2.454 -0.2159 -0.3347  0.1139
 2481SOL      O10367   3.694   2.499   2.486  0.3821  0.0376  0.2479
 2481SOL     H110368   3.742   2.417   2.497  1.7969  0.8895  0.5908
 2481SOL     H210369   3.667   2.524   2.574  2.0248  1.1396  0.4642
 2481SOL    EPW10370   3.696   2.493   2.496  0.7082  0.2460  0.3075
 2482SOL      O10371   2.846   0.587   2.613  0.1799  0.5567  0.3826
 2482SOL     H110372   2.756   0.557   2.600  1.4903 -3.8912  0.5928
 2482SOL     H210373   2.862   0.645   2.539 -2.1949 -0.2756 -0.8575
 2482SOL    EPW10374   2.838   0.590   2.604  0.0663 -0.0066  0.2727
 2483SOL      O10375   1.848   2.234   2.393 -0.1294 -0.0519 -0.4578
 2483SOL     H110376   1.918   2.208   2.333 -1.3504 -3.0303 -0.7020
 2483SOL     H210377   1.854   2.171   2.465 -1.3344  0.8852  0.4873
 2483SOL    EPW10378   1.856   2.224   2.394 -0.3882 -0.2696 -0.3830
 2484SOL      O10379   4.166   3.670   1.147  0.4596 -0.3325 -0.1639
 2484SOL     H110380   4.132   3.759   1.147  0.6185 -0.2366  2.1139
 2484SOL     H210381   4.242   3.673   1.089  1.6795  1.5091  1.4810
 2484SOL    EPW10382   4.170   3.679   1.141  0.6067 -0.1258  0.2546
 2485SOL      O10383   3.812   2.245   2.497  0.5712 -0.1282 -0.1912
 2485SOL     H110384   3.757   2.202   2.431 -0.5896  0.5497  0.3418
 2485SOL     H210385   3.784   2.208   2.580 -0.4835  1.6976  0.2845
 2485SOL    EPW10386   3.803   2.236   2.498  0.3349  0.1389 -0.0836
 2486SOL      O10387   3.857   0.810   2.916  0.2032 -0.4575  0.2962
 2486SOL     H110388   3.775   0.766   2.892 -0.2055 -0.1005  1.0135
 2486SOL     H210389   3.889   0.761   2.991  0.9639 -0.9583 -0.3434
 2486SOL    EPW10390   3.851   0.800   2.921  0.2407 -0.4729  0.3045
 2487SOL      O10391   4.290   2.721   3.570 -0.3625  0.1614 -0.1247
 2487SOL     H110392   4.271   2.652   3.633  0.3548  0.4910  0.4658
 2487SOL     H210393   4.347   2.679   3.505 -1.3463 -0.2576 -0.7293
 2487SOL    EPW10394   4.294   2.709   3.569 -0.3909  0.1518 -0.1262
 2488SOL      O10395   5.689   3.959   0.457 -0.2636  0.3569  0.2608
 2488SOL     H110396   5.683   3.908   0.538 -0.9802  1.1794  0.7384
 2488SOL     H210397   5.780   3.948   0.429 -0.0759 -0.1424  1.0449
 2488SOL    EPW10398   5.698   3.953   0.463 -0.3200  0.3914  0.3954
 2489SOL      O10399   3.494   2.747   2.104  0.5506  0.0078 -0.6696
 2489SOL     H110400   3.568   2.751   2.164  1.0072 -0.8032 -1.1768
 2489SOL     H210401   3.438   2.821   2.130 -0.1620 -1.4088  1.9075
 2489SOL    EPW10402   3.496   2.756   2.113  0.5233 -0.2299 -0.4488
 2490SOL      O10403   5.135   5.423   0.094 -0.5683  0.1383  0.1745
 2490SOL     H110404   5.057   5.431   0.150 -1.2112 -1.0696 -0.5306
 2490SOL     H210405   5.145   5.510   0.055  0.8428  1.5134  3.3615
 2490SOL    EPW10406   5.128   5.433   0.096 -0.4863  0.1561  0.4393
 2491SOL      O10407   1.996   1.817   2.563 -0.3081 -0.6479 -0.2899
 2491SOL     H110408   2.048   1.767   2.501  1.8156  1.4051 -0.2444
 2491SOL     H210409   2.030   1.791   2.649 -3.0211 -3.2457  0.0820
 2491SOL    EPW10410   2.005   1.809   2.566 -0.3710 -0.7060 -0.2453
 2492SOL      O10411   2.486   2.636   2.858 -0.6967  0.0702  0.4710
 2492SOL     H110412   2.541   2.714   2.849 -0.3657 -0.3487 -1.3544
 2492SOL     H210413   2.422   2.643   2.788 -0.4752 -1.4591  0.0923
 2492SOL    EPW10414   2.485   2.645   2.850 -0.6377 -0.1376  0.2359
 2493SOL      O10415   1.982   3.223   3.306 -0.2413 -0.2713 -0.3269
 2493SOL     H110416   1.963   3.297   3.249  1.1180  0.9897  0.8008
 2493SOL     H210417   2.069   3.194   3.280  0.1421 -0.0618  0.6938
 2493SOL    EPW10418   1.989   3.227   3.298 -0.0554 -0.1144 -0.0977
 2494SOL      O10419   2.188   3.485   2.378 -0.6593 -0.2677 -0.1938
 2494SOL     H110420   2.216   3.398   2.408 -2.1702 -0.9336 -0.6808
 2494SOL     H210421   2.269   3.531   2.359  0.2781 -0.7026  2.4611
 2494SOL    EPW10422   2.199   3.480   2.379 -0.7205 -0.3852  0.0374
 2495SOL      O10423   2.196   2.571   2.222  0.5709  0.6693 -0.1397
 2495SOL     H110424   2.169   2.644   2.278 -1.4265 -1.4892  1.8429
 2495SOL     H210425   2.232   2.507   2.283  2.3279 -0.0069 -1.8574
 2495SOL    EPW10426   2.197   2.572   2.235  0.5453  0.3669 -0.1115
 2496SOL      O10427   4.411   4.639   3.699 -0.4106  0.1260  0.0182
 2496SOL     H110428   4.361   4.585   3.637  1.0152 -0.9429 -0.2243
 2496SOL     H210429   4.374   4.617   3.784 -0.7916 -0.1700 -0.2186
 2496SOL    EPW10430   4.401   4.631   3.701 -0.2992 -0.0196 -0.0329
 2497SOL      O10431   1.805   3.552   3.825  0.7096 -0.0884 -0.5142
 2497SOL     H110432   1.883   3.500   3.805 -0.2884 -1.7774 -0.1389
 2497SOL     H210433   1.778   3.522   3.912  1.2685  2.5379  0.6163
 2497SOL    EPW10434   1.811   3.543   3.832  0.6628  0.0116 -0.3536
 2498SOL      O10435   2.503   2.302   3.075 -0.4181  0.3117  0.1529
 2498SOL     H110436   2.491   2.336   3.164 -0.1456  0.1300  0.2604
 2498SOL     H210437   2.424   2.329   3.028 -1.1199 -0.6408  0.7721
 2498SOL    EPW10438   2.493   2.309   3.080 -0.4639  0.1907  0.2304
 2499SOL      O10439   1.218   1.380   2.335 -0.0677 -0.7882 -0.0210
 2499SOL     H110440   1.150   1.314   2.317 -0.8770  0.0803 -0.1517
 2499SOL     H210441   1.254   1.400   2.249  1.2940 -2.2333  0.1872
 2499SOL    EPW10442   1.214   1.375   2.324 -0.0088 -0.8497 -0.0127
 2500SOL      O10443   2.868   3.624   2.439  0.0100 -0.5304 -0.2287
 2500SOL     H110444   2.807   3.606   2.367  2.0830  0.4050 -2.2821
 2500SOL     H210445   2.899   3.713   2.423 -1.4496  0.6969  3.3419
 2500SOL    EPW10446   2.865   3.631   2.430  0.0754 -0.2997 -0.0669
 2501SOL      O10447   2.943   2.770   3.516  0.4395  0.2161  0.1937
 2501SOL     H110448   3.013   2.832   3.494  1.1990 -0.9412 -0.7531
 2501SOL     H210449   2.887   2.769   3.439 -0.5379  1.0026  0.8808
 2501SOL    EPW10450   2.944   2.777   3.506  0.4163  0.1766  0.1660
 2502SOL      O10451   2.891   4.526   3.135  0.6094  0.5001  0.4625
 2502SOL     H110452   2.924   4.456   3.191 -1.2871 -1.5358 -0.8508
 2502SOL     H210453   2.849   4.587   3.195 -0.4310 -1.0905  1.3877
 2502SOL    EPW10454   2.890   4.525   3.147  0.2961  0.1132  0.4211
 2503SOL      O10455   2.827   3.606   3.638 -0.6073 -0.1980  0.3451
 2503SOL     H110456   2.833   3.700   3.624  3.3150 -0.4107  0.0040
 2503SOL     H210457   2.802   3.571   3.553  1.0296  0.3019 -0.3545
 2503SOL    EPW10458   2.825   3.612   3.627 -0.0143 -0.1674  0.2341
 2504SOL      O10459   2.718   2.863   2.521 -0.0656  0.3611 -0.4847
 2504SOL     H110460   2.742   2.956   2.523 -0.1372  0.3731  0.9206
 2504SOL     H210461   2.628   2.862   2.490  0.5839  0.5982 -2.4043
 2504SOL    EPW10462   2.711   2.873   2.518 -0.0040  0.3877 -0.5396
 2505SOL      O10463   4.000   1.494   0.396 -0.3158 -0.3452  0.2034
 2505SOL     H110464   3.932   1.429   0.379 -0.0906 -0.5800  0.1994
 2505SOL     H210465   3.978   1.567   0.337 -0.1591 -0.7085 -0.3126
 2505SOL    EPW10466   3.990   1.495   0.388 -0.2751 -0.4090  0.1480
 2506SOL      O10467   3.077   4.269   2.673 -0.3541 -0.3261 -0.1394
 2506SOL     H110468   3.154   4.281   2.619 -0.4818 -0.8944 -0.4454
 2506SOL     H210469   3.112   4.248   2.760 -0.1542  0.4122 -0.0386
 2506SOL    EPW10470   3.089   4.268   2.677 -0.3464 -0.3080 -0.1613
 2507SOL      O10471   4.707   1.349   2.477 -0.0732 -0.1261 -0.0489
 2507SOL     H110472   4.659   1.274   2.443 -1.8572 -0.3613  2.8181
 2507SOL     H210473   4.795   1.315   2.494 -1.1473 -1.9326  2.2278
 2507SOL    EPW10474   4.711   1.337   2.475 -0.3781 -0.3439  0.4998
 2508SOL      O10475   4.056   2.837   3.275  0.3947 -0.1768 -0.0039
 2508SOL     H110476   4.036   2.924   3.241 -1.0117 -0.8945 -1.0813
 2508SOL     H210477   4.144   2.818   3.243  0.1985  0.3241 -0.8557
 2508SOL    EPW10478   4.063   2.844   3.268  0.2237 -0.1999 -0.2097
 2509SOL      O10479   4.061   3.186   3.500  0.2090  0.5868  0.3376
 2509SOL     H110480   4.057   3.091   3.491  0.2700  0.7009 -1.1142
 2509SOL     H210481   4.116   3.214   3.427  2.0413  1.5595  2.0493
 2509SOL    EPW10482   4.066   3.179   3.491  0.4110  0.7027  0.3653
 2510SOL      O10483   3.700   2.488   2.983 -0.1191  0.4189  0.3069
 2510SOL     H110484   3.722   2.515   3.073  0.8293  1.0876 -0.1177
 2510SOL     H210485   3.780   2.505   2.933 -1.0104  1.1161 -0.8975
 2510SOL    EPW10486   3.711   2.493   2.988 -0.1130  0.5646  0.1331
 2511SOL      O10487   3.618   3.189   2.571 -0.2106  0.1328  0.1496
 2511SOL     H110488   3.550   3.218   2.510 -0.8522 -2.6264 -0.5241
 2511SOL     H210489   3.700   3.200   2.522 -0.4037  1.1147  0.0400
 2511SOL    EPW10490   3.620   3.193   2.559 -0.2996 -0.0568  0.0661
 2512SOL      O10491   3.471   4.357   3.309  0.0232  0.4173  0.4633
 2512SOL     H110492   3.535   4.326   3.245  1.6332  2.1609  1.1832
 2512SOL     H210493   3.395   4.299   3.297  0.6622  0.0928 -2.3051
 2512SOL    EPW10494   3.470   4.347   3.301  0.2631  0.5687  0.2448
 2513SOL      O10495   2.959   3.198   3.673  0.4835 -0.6509 -0.5951
 2513SOL     H110496   3.041   3.234   3.640  0.0913  0.6764 -0.1473
 2513SOL     H210497   2.938   3.252   3.750 -0.6025 -1.2252 -0.4748
 2513SOL    EPW10498   2.965   3.208   3.678  0.3258 -0.5705 -0.5345
 2514SOL      O10499   0.100   5.234   1.027 -0.3564 -0.7203  0.0298
 2514SOL     H110500   0.081   5.224   1.120 -1.5792  0.7197 -0.0411
 2514SOL     H210501   0.142   5.320   1.020  2.8753 -2.2599 -0.3236
 2514SOL    EPW10502   0.102   5.242   1.036 -0.1421 -0.7310 -0.0155
 2515SOL      O10503   3.464   2.297   1.654  0.0302 -0.2563  0.3076
 2515SOL     H110504   3.551   2.338   1.651 -0.4197  0.7573  0.8650
 2515SOL     H210505   3.466   2.245   1.735  0.2277 -0.5095  0.1442
 2515SOL    EPW10506   3.474   2.296   1.663  0.0033 -0.1752  0.3497
 2516SOL      O10507   2.596   2.381   2.061 -0.0550  0.3634 -0.2114
 2516SOL     H110508   2.548   2.408   1.983 -0.9003  1.2748  0.6004
 2516SOL     H210509   2.688   2.396   2.040 -0.2138 -0.2689 -1.3595
 2516SOL    EPW10510   2.600   2.386   2.051 -0.1621  0.3932 -0.2473
 2517SOL      O10511   4.769   4.111   0.346  0.2505  0.1225  0.2245
 2517SOL     H110512   4.844   4.156   0.384 -2.5651  1.5646  4.4962
 2517SOL     H210513   4.741   4.050   0.415 -3.9200  1.3992 -0.2066
 2517SOL    EPW10514   4.774   4.109   0.357 -0.4948  0.4125  0.6342
 2518SOL      O10515   3.122   3.551   3.633  0.2278  0.2473 -0.3734
 2518SOL     H110516   3.029   3.569   3.643  0.5885  1.3772  1.1521
 2518SOL     H210517   3.142   3.574   3.543 -1.1103 -0.6859 -0.9240
 2518SOL    EPW10518   3.115   3.555   3.625  0.1235  0.2682 -0.2694
 2519SOL      O10519   2.288   4.173   2.483  0.1781 -0.0730  1.0691
 2519SOL     H110520   2.268   4.132   2.399  0.5365 -0.1521  1.0179
 2519SOL     H210521   2.223   4.242   2.493 -0.4263 -0.6449  1.1474
 2519SOL    EPW10522   2.279   4.176   2.475  0.1519 -0.1425  1.0720
 2520SOL      O10523   4.384   0.183   1.854  0.3133 -0.0200 -0.3858
 2520SOL     H110524   4.469   0.139   1.859 -0.0731 -0.6449  1.0492
 2520SOL     H210525   4.321   0.112   1.859 -0.3018  0.5373 -0.2586
 2520SOL    EPW10526   4.387   0.170   1.855  0.2064 -0.0272 -0.2192
 2521SOL      O10527   2.855   2.692   2.332 -0.1020  0.2437 -0.1675
 2521SOL     H110528   2.795   2.680   2.258 -0.1845  3.7892 -0.7379
 2521SOL     H210529   2.806   2.743   2.395  0.8523 -0.5843  1.2816
 2521SOL    EPW10530   2.844   2.696   2.331 -0.0090  0.5336 -0.0737
 2522SOL      O10531   3.289   2.959   2.207 -0.7351  0.2667  0.0535
 2522SOL     H110532   3.358   2.991   2.264  0.9415 -2.3536 -0.4663
 2522SOL     H210533   3.266   3.036   2.154  0.8503  1.5165  1.1137
 2522SOL    EPW10534   3.294   2.971   2.207 -0.3871  0.1205  0.1111
 2523SOL      O10535   1.817   2.071   3.893 -0.5627 -0.3010  0.5933
 2523SOL     H110536   1.817   2.080   3.988 -1.7874 -2.7213  0.8443
 2523SOL     H210537   1.735   2.028   3.872 -0.6700  0.8966 -1.6685
 2523SOL    EPW10538   1.808   2.068   3.901 -0.7048 -0.4315  0.3788
 2524SOL      O10539   2.129   1.618   2.141  0.0149 -0.8736 -0.1301
 2524SOL     H110540   2.202   1.663   2.099  0.1247 -0.9331 -0.0021
 2524SOL     H210541   2.052   1.646   2.091  0.1746 -1.1388 -0.5287
 2524SOL    EPW10542   2.128   1.626   2.131  0.0436 -0.9083 -0.1590
 2525SOL      O10543   2.838   4.053   4.085 -0.0025 -0.7896  0.4829
 2525SOL     H110544   2.875   4.140   4.071 -0.5414 -0.1473  2.8071
 2525SOL     H210545   2.744   4.063   4.069  0.1908 -1.4043 -1.1205
 2525SOL    EPW10546   2.832   4.063   4.082 -0.0394 -0.7867  0.5598
 2526SOL      O10547   2.340   4.222   1.687  0.2255  0.4797 -0.5500
 2526SOL     H110548   2.342   4.218   1.591 -2.0248  0.2676 -0.6210
 2526SOL     H210549   2.320   4.132   1.714 -1.2876  0.9795  0.0126
 2526SOL    EPW10550   2.338   4.212   1.680 -0.1760  0.5104 -0.4975
 2527SOL      O10551   1.965   4.363   3.176 -0.1748 -0.3342 -0.2135
 2527SOL     H110552   2.011   4.327   3.100 -1.7392 -1.7505 -0.5209
 2527SOL     H210553   1.927   4.445   3.144 -1.7973 -1.4823 -1.3446
 2527SOL    EPW10554   1.966   4.368   3.164 -0.5148 -0.6078 -0.3670
 2528SOL      O10555   4.804   2.371   1.506  0.2209  0.4301  0.1318
 2528SOL     H110556   4.745   2.366   1.430 -0.1950 -0.5379  0.5129
 2528SOL     H210557   4.754   2.417   1.573 -0.2669 -0.7409  0.5908
 2528SOL    EPW10558   4.793   2.375   1.505  0.1245  0.2019  0.2214
 2529SOL      O10559   4.947   0.222   0.533 -0.6175 -0.2114  0.3634
 2529SOL     H110560   4.854   0.213   0.514 -0.4419 -1.8788  0.2915
 2529SOL     H210561   4.961   0.317   0.537 -2.2016  0.0563 -0.1558
 2529SOL    EPW10562   4.939   0.232   0.531 -0.7677 -0.3607  0.3003
 2530SOL      O10563   5.059   0.494   0.463 -0.2811  0.5019 -0.7931
 2530SOL     H110564   5.127   0.553   0.431  1.3282 -1.2132 -0.5942
 2530SOL     H210565   4.986   0.552   0.486  1.6001  2.5114  0.2995
 2530SOL    EPW10566   5.058   0.507   0.462  0.0913  0.5333 -0.6553
 2531SOL      O10567   3.842   2.332   3.423  0.2280  0.1922 -0.1388
 2531SOL     H110568   3.896   2.263   3.463  0.0114  0.5830  0.8303
 2531SOL     H210569   3.883   2.414   3.452  0.1041  0.4801 -0.7720
 2531SOL    EPW10570   3.852   2.333   3.430  0.1917  0.2646 -0.1029
 2532SOL      O10571   4.801   5.675   0.216 -0.1060 -0.4729 -0.2566
 2532SOL     H110572   4.738   5.686   0.145 -1.1025 -1.7704  0.3919
 2532SOL     H210573   4.749   5.688   0.296  1.2586  2.2517  0.2563
 2532SOL    EPW10574   4.789   5.677   0.217 -0.0667 -0.3207 -0.1327
 2533SOL      O10575   2.891   2.196   3.643  0.2479  0.4744 -0.0472
 2533SOL     H110576   2.942   2.250   3.582 -0.2437 -0.4113 -1.2488
 2533SOL     H210577   2.836   2.259   3.689  0.9532  1.2092 -0.1950
 2533SOL    EPW10578   2.890   2.209   3.641  0.2707  0.4583 -0.1912
 2534SOL      O10579   0.007   0.052   1.391  0.0939 -0.0884 -0.7491
 2534SOL     H110580  -0.062   0.025   1.331 -0.7832  1.2535 -0.3767
 2534SOL     H210581  -0.017   0.012   1.475  0.3804 -0.5425 -0.8828
 2534SOL    EPW10582  -0.003   0.045   1.394  0.0309  0.0063 -0.7237
 2535SOL      O10583   5.129   1.531   0.547  0.3009  0.2091 -0.0602
 2535SOL     H110584   5.039   1.499   0.545  0.0284  1.0216 -2.3615
 2535SOL     H210585   5.163   1.513   0.459  2.0048  0.9695  0.4120
 2535SOL    EPW10586   5.123   1.526   0.537  0.4536  0.3769 -0.2553
 2536SOL      O10587   1.837   2.711   2.918 -0.0550 -0.3897 -0.1221
 2536SOL     H110588   1.781   2.757   2.981  0.9669 -0.9004  1.1622
 2536SOL     H210589   1.883   2.781   2.872 -0.9889 -0.0044 -0.4876
 2536SOL    EPW10590   1.836   2.724   2.920 -0.0456 -0.4031 -0.0241
 2537SOL      O10591   5.139   3.406   0.228  0.0393 -0.0866 -0.2004
 2537SOL     H110592   5.124   3.487   0.180 -0.0625  0.7221  1.1715
 2537SOL     H210593   5.187   3.433   0.306  1.1361 -1.5200 -0.3616
 2537SOL    EPW10594   5.142   3.418   0.231  0.1455 -0.1533 -0.0712
 2538SOL      O10595   0.636   0.250   1.447  0.0723  0.2908 -0.1782
 2538SOL     H110596   0.669   0.188   1.512  2.3190  0.5799 -0.9992
 2538SOL     H210597   0.558   0.207   1.411 -1.1154  0.0629  2.5397
 2538SOL    EPW10598   0.631   0.239   1.450  0.1853  0.2974  0.0242
 2539SOL      O10599   5.354   1.298   0.133  0.1792 -0.2772 -0.7026
 2539SOL     H110600   5.275   1.268   0.089 -1.0877  0.5792  0.8845
 2539SOL     H210601   5.371   1.232   0.200 -0.7334  0.8361  0.6633
 2539SOL    EPW10602   5.347   1.288   0.136 -0.0533 -0.0671 -0.3876
 2540SOL      O10603   3.233   2.971   3.225 -0.4422 -0.1235 -0.0749
 2540SOL     H110604   3.296   3.041   3.208 -1.1462  0.7541  0.8533
 2540SOL     H210605   3.162   2.987   3.163  0.2109 -1.0863 -1.0909
 2540SOL    EPW10606   3.232   2.981   3.217 -0.4477 -0.1326 -0.0843
 2541SOL      O10607   0.804   5.632   1.122 -0.0922  0.2543 -0.3078
 2541SOL     H110608   0.828   5.715   1.081 -1.8198  1.5102  1.1329
 2541SOL     H210609   0.710   5.637   1.134 -0.2747 -2.0737 -0.4771
 2541SOL    EPW10610   0.797   5.641   1.119 -0.2960  0.1399 -0.1722
 2542SOL      O10611   1.956   3.921   3.309 -0.1083  0.1161 -0.0288
 2542SOL     H110612   1.988   3.884   3.391 -1.3705  0.0407  0.4401
 2542SOL     H210613   2.034   3.928   3.254  0.7005 -0.1236  1.0597
 2542SOL    EPW10614   1.968   3.918   3.312 -0.1567  0.0825  0.1373
 2543SOL      O10615   1.510   4.328   3.734  0.0958  0.0247  0.6170
 2543SOL     H110616   1.458   4.308   3.656 -0.1577  2.5849  0.0831
 2543SOL     H210617   1.468   4.277   3.804 -1.1128 -0.4643 -0.4435
 2543SOL    EPW10618   1.500   4.320   3.733 -0.0602  0.2456  0.4469
 2544SOL      O10619   0.569   1.882   0.671 -1.0155 -0.0754 -1.1630
 2544SOL     H110620   0.604   1.970   0.654  0.4152 -0.2943  0.5354
 2544SOL     H210621   0.548   1.848   0.584 -0.2170  1.4020 -1.9579
 2544SOL    EPW10622   0.571   1.888   0.660 -0.7777  0.0589 -1.0666
 2545SOL      O10623   3.061   2.839   1.260  0.2557 -0.5255  0.1241
 2545SOL     H110624   3.082   2.772   1.195  0.4498 -0.0799 -0.2712
 2545SOL     H210625   3.143   2.853   1.308  0.1002 -0.8903  0.5067
 2545SOL    EPW10626   3.072   2.833   1.258  0.2598 -0.5169  0.1228
 2546SOL      O10627   0.966   1.356   3.018  0.1750 -0.1818 -0.3040
 2546SOL     H110628   0.896   1.412   2.984 -0.2288 -1.5938 -1.8583
 2546SOL     H210629   1.021   1.415   3.071 -1.8031  1.0685  0.4029
 2546SOL    EPW10630   0.965   1.368   3.020 -0.0791 -0.1991 -0.3944
 2547SOL      O10631   1.707   2.835   3.121 -0.3897 -0.8846 -0.1648
 2547SOL     H110632   1.615   2.818   3.143 -0.6005  1.0471  0.5602
 2547SOL     H210633   1.730   2.912   3.174  1.8725 -1.8036  0.2204
 2547SOL    EPW10634   1.699   2.842   3.129 -0.1709 -0.7766 -0.0464
 2548SOL      O10635   4.815   0.197   0.121  0.7410 -0.4262 -0.1329
 2548SOL     H110636   4.884   0.259   0.145 -0.3529  0.8023 -0.0885
 2548SOL     H210637   4.841   0.164   0.035  1.3205  0.1190 -0.1719
 2548SOL    EPW10638   4.825   0.200   0.115  0.6861 -0.2370 -0.1323
 2549SOL      O10639   2.606   2.964   3.423  0.6167 -0.3238 -0.0207
 2549SOL     H110640   2.629   3.034   3.485  0.4738 -0.3278  0.0373
 2549SOL     H210641   2.551   3.007   3.358 -0.1463 -0.5555  0.4633
 2549SOL    EPW10642   2.602   2.976   3.423  0.5201 -0.3490  0.0371
 2550SOL      O10643   0.136   4.740   1.131 -0.4932 -0.5804  0.1771
 2550SOL     H110644   0.158   4.820   1.178  0.2702 -1.2411  0.9858
 2550SOL     H210645   0.100   4.682   1.198 -1.6103 -0.7043 -0.5177
 2550SOL    EPW10646   0.135   4.742   1.143 -0.5309 -0.6641  0.1893
 2551SOL      O10647   1.812   5.215   0.459 -0.3928 -0.1176  0.0672
 2551SOL     H110648   1.860   5.272   0.399  3.3200 -1.0788  1.9971
 2551SOL     H210649   1.830   5.251   0.546 -1.3757 -1.8405  1.0089
 2551SOL    EPW10650   1.819   5.225   0.461 -0.1016 -0.4040  0.3735
 2552SOL      O10651   1.616   2.544   2.867 -0.5828  0.6216 -0.1486
 2552SOL     H110652   1.702   2.577   2.894 -0.9269  1.6719 -0.2813
 2552SOL     H210653   1.620   2.545   2.771 -0.3201 -0.4823 -0.1486
 2552SOL    EPW10654   1.625   2.548   2.860 -0.5915  0.6159 -0.1628
 2553SOL      O10655   2.392   2.102   3.542 -0.2653 -0.9203  0.0949
 2553SOL     H110656   2.309   2.147   3.526  0.4180  0.2704 -0.1904
 2553SOL     H210657   2.399   2.037   3.472 -0.6747 -0.6119 -0.2288
 2553SOL    EPW10658   2.384   2.100   3.533 -0.2361 -0.7604  0.0299
 2554SOL      O10659   5.627   1.320   1.143 -0.4633  0.1608 -0.1676
 2554SOL     H110660   5.548   1.310   1.195 -0.2458  0.1124  0.1540
 2554SOL     H210661   5.685   1.374   1.196 -0.1298 -0.1247 -0.2335
 2554SOL    EPW10662   5.625   1.324   1.154 -0.4045  0.1252 -0.1403
 2555SOL      O10663   0.421   5.432   0.533 -0.1609 -0.5318 -0.1535
 2555SOL     H110664   0.394   5.473   0.616  0.0626 -2.3062  0.8321
 2555SOL     H210665   0.338   5.409   0.490 -0.2784  0.3953 -0.4202
 2555SOL    EPW10666   0.409   5.434   0.538 -0.1496 -0.6222 -0.0768
 2556SOL      O10667   0.191   5.487   0.982  0.1294 -0.1848 -0.0605
 2556SOL     H110668   0.269   5.475   1.037  0.1777 -1.3022 -0.3657
 2556SOL     H210669   0.170   5.580   0.991  1.0766 -0.0235  0.5933
 2556SOL    EPW10670   0.197   5.496   0.989  0.2356 -0.2868 -0.0233
 2557SOL      O10671   5.767   1.041   1.670  0.4981 -0.0701 -0.4382
 2557SOL     H110672   5.777   1.130   1.635 -1.8630 -0.4959 -2.2943
 2557SOL     H210673   5.777   0.984   1.594  0.3007 -1.3232  0.4534
 2557SOL    EPW10674   5.769   1.044   1.658  0.2252 -0.2492 -0.5411
 2558SOL      O10675   2.697   2.516   2.709 -0.3411  0.3385  0.1129
 2558SOL     H110676   2.689   2.440   2.767 -0.7680 -0.2454 -0.6939
 2558SOL     H210677   2.624   2.573   2.735  0.2233  0.6597  0.9913
 2558SOL    EPW10678   2.688   2.514   2.718 -0.3265  0.3104  0.1205
 2559SOL      O10679   5.393   0.421   0.624 -0.4717 -0.4496  0.3673
 2559SOL     H110680   5.449   0.483   0.575  0.3490 -1.2442  0.2898
 2559SOL     H210681   5.364   0.358   0.558 -0.5115 -0.7089  0.6316
 2559SOL    EPW10682   5.396   0.421   0.612 -0.3884 -0.5621  0.3872
 2560SOL      O10683   5.518   0.295   0.844  0.3316 -0.3955  0.4278
 2560SOL     H110684   5.469   0.288   0.762  1.6717  0.0093 -0.4316
 2560SOL     H210685   5.504   0.211   0.887  1.5321 -1.5263 -1.3255
 2560SOL    EPW10686   5.511   0.286   0.840  0.6026 -0.4730  0.1491
 2561SOL      O10687   2.980   2.311   2.851  1.2237 -0.2957 -0.4353
 2561SOL     H110688   2.986   2.345   2.941  2.3162  0.8870 -0.9460
 2561SOL     H210689   2.886   2.307   2.834  1.0218  0.1104  0.5350
 2561SOL    EPW10690   2.970   2.314   2.859  1.3187 -0.1262 -0.3862
 2562SOL      O10691   4.011   2.739   2.738 -1.0723 -0.8800 -0.1036
 2562SOL     H110692   3.942   2.787   2.784  0.4930  1.3785 -0.0055
 2562SOL     H210693   4.030   2.792   2.661  0.4372 -1.5598 -0.2189
 2562SOL    EPW10694   4.006   2.750   2.735 -0.7443 -0.7116 -0.1055
 2563SOL      O10695   0.129   0.678   0.690  0.2040 -0.5203  0.0541
 2563SOL     H110696   0.168   0.592   0.709  0.4610 -0.3370  0.3725
 2563SOL     H210697   0.185   0.716   0.623 -1.0079 -1.3860 -1.4742
 2563SOL    EPW10698   0.139   0.673   0.685  0.1021 -0.5931 -0.0750
 2564SOL      O10699   2.429   1.688   3.345  0.6361  0.1881 -0.1213
 2564SOL     H110700   2.505   1.690   3.403  0.1840 -0.2075  0.4986
 2564SOL     H210701   2.406   1.780   3.332  0.6497  0.2752  0.4555
 2564SOL    EPW10702   2.435   1.698   3.350  0.5893  0.1552  0.0064
 2565SOL      O10703   5.361   5.326   0.755  0.0227 -0.0098 -0.0919
 2565SOL     H110704   5.353   5.270   0.678  1.6327 -0.2934 -0.0549
 2565SOL     H210705   5.306   5.402   0.735  0.1064 -0.2709 -1.3401
 2565SOL    EPW10706   5.354   5.328   0.745  0.2034 -0.0679 -0.2211
 2566SOL      O10707   5.201   0.452   0.819 -0.4362 -0.5169 -0.6081
 2566SOL     H110708   5.246   0.403   0.750  0.8056 -0.2419 -0.0023
 2566SOL     H210709   5.271   0.482   0.877 -1.2352  1.4446 -0.6238
 2566SOL    EPW10710   5.213   0.450   0.818 -0.3890 -0.2783 -0.5452
 2567SOL      O10711   3.404   1.399   3.698  0.3923 -0.2087 -0.1002
 2567SOL     H110712   3.364   1.312   3.696  0.5108 -0.2800  0.5978
 2567SOL     H210713   3.375   1.441   3.616 -0.8310 -0.3825  0.2391
 2567SOL    EPW10714   3.396   1.394   3.689  0.2744 -0.2348  0.0105
 2568SOL      O10715   2.331   2.718   3.596  0.0659  0.4906 -0.8980
 2568SOL     H110716   2.313   2.703   3.503  0.4247 -0.6764 -0.7845
 2568SOL     H210717   2.426   2.729   3.601  0.0071  0.9386 -0.7174
 2568SOL    EPW10718   2.339   2.718   3.587  0.0979  0.4139 -0.8666
 2569SOL      O10719   0.794   4.181   0.281  0.0684  0.2825 -0.3796
 2569SOL     H110720   0.844   4.175   0.362  1.9382  2.3346 -1.3319
 2569SOL     H210721   0.734   4.254   0.296 -0.0792  0.2059 -0.5968
 2569SOL    EPW10722   0.793   4.188   0.291  0.2522  0.4932 -0.5044
 2570SOL      O10723   5.217   5.793   0.758  0.2388  0.5928 -0.1036
 2570SOL     H110724   5.168   5.711   0.764 -0.2811  0.9243  0.2260
 2570SOL     H210725   5.197   5.826   0.670  0.2454  0.4929 -0.1428
 2570SOL    EPW10726   5.209   5.788   0.749  0.1841  0.6175 -0.0726
 2571SOL      O10727   3.519   5.072   0.486 -0.2731  0.4067  0.4901
 2571SOL     H110728   3.446   5.084   0.546  0.6170  0.7757  1.5221
 2571SOL     H210729   3.541   4.979   0.494 -0.8921  0.2048 -0.1361
 2571SOL    EPW10730   3.514   5.063   0.493 -0.2442  0.4245  0.5334
 2572SOL      O10731   5.194   0.068   0.109 -0.1534 -0.3067  0.1487
 2572SOL     H110732   5.272   0.106   0.148  0.0079 -0.3339 -0.1475
 2572SOL     H210733   5.124   0.085   0.173  0.0912 -0.2718  0.4037
 2572SOL    EPW10734   5.195   0.074   0.120 -0.1101 -0.3059  0.1443
 2573SOL      O10735   2.128   2.152   3.516  0.5462 -0.0129  0.7065
 2573SOL     H110736   2.077   2.087   3.563  0.0916  0.8869  1.4790
 2573SOL     H210737   2.126   2.230   3.573 -0.1806  1.1541 -0.8861
 2573SOL    EPW10738   2.123   2.154   3.527  0.4202  0.2076  0.6190
 2574SOL      O10739   5.854   4.307   0.107 -1.1322 -0.0336  0.0442
 2574SOL     H110740   5.778   4.319   0.164 -0.3571  1.6672  0.7509
 2574SOL     H210741   5.920   4.265   0.163 -1.1947 -0.5677 -0.2795
 2574SOL    EPW10742   5.853   4.303   0.119 -1.0562  0.0908  0.0851
 2575SOL      O10743   2.271   2.866   2.234  0.2796  0.1392 -0.0538
 2575SOL     H110744   2.201   2.912   2.280 -1.0209  0.2780 -2.0961
 2575SOL     H210745   2.298   2.927   2.165  3.9270  0.9920  1.9670
 2575SOL    EPW10746   2.267   2.878   2.231  0.5299  0.2450 -0.0561
 2576SOL      O10747   4.081   0.065   0.806 -0.2956 -0.7422  0.2459
 2576SOL     H110748   4.164   0.112   0.800  0.0999 -1.6554 -1.7332
 2576SOL     H210749   4.029   0.116   0.868  1.1720  0.6795  0.3370
 2576SOL    EPW10750   4.084   0.075   0.812 -0.0969 -0.6880  0.0445
 2577SOL      O10751   5.077   0.768   0.059  0.0383  0.1962  0.3414
 2577SOL     H110752   5.022   0.760  -0.018  0.3386 -1.9039  0.2949
 2577SOL     H210753   5.148   0.826   0.032  0.1042 -0.4617 -0.9613
 2577SOL    EPW10754   5.079   0.773   0.048  0.0774 -0.0980  0.1975
 2578SOL      O10755   3.162   3.265   2.494 -1.2037  0.1894 -0.4517
 2578SOL     H110756   3.143   3.248   2.587  2.2062 -0.4103  0.1793
 2578SOL     H210757   3.150   3.360   2.485 -0.4091  0.4248  0.8852
 2578SOL    EPW10758   3.159   3.273   2.503 -0.7552  0.1505 -0.2417
 2579SOL      O10759   4.425   4.314   0.647  0.0544 -1.0843 -0.0722
 2579SOL     H110760   4.451   4.382   0.709 -2.7577  0.5376 -0.6226
 2579SOL     H210761   4.506   4.265   0.631  1.4449  0.1882  2.6917
 2579SOL    EPW10762   4.437   4.316   0.652 -0.0973 -0.7755  0.1639
 2580SOL      O10763   2.235   3.155   3.258  0.0907 -0.3987  0.1341
 2580SOL     H110764   2.230   3.120   3.346 -0.3478  1.6226  0.9452
 2580SOL     H210765   2.301   3.224   3.262  1.8484 -1.9138 -1.7227
 2580SOL    EPW10766   2.241   3.158   3.268  0.2314 -0.3447  0.0225
 2581SOL      O10767   2.664   2.595   3.194  0.0008 -0.0555 -0.0472
 2581SOL     H110768   2.569   2.594   3.180 -0.0482  1.8433  0.0257
 2581SOL     H210769   2.680   2.519   3.251 -1.6630  0.3927  1.0697
 2581SOL    EPW10770   2.655   2.586   3.199 -0.1819  0.1949  0.0797
 2582SOL      O10771   3.756   4.262   4.119  0.2721  0.1434 -0.2808
 2582SOL     H110772   3.670   4.230   4.094 -0.2653 -0.3407  2.0743
 2582SOL     H210773   3.817   4.194   4.087 -0.2086  0.3653 -1.7161
 2582SOL    EPW10774   3.753   4.251   4.113  0.1635  0.1154 -0.1827
 2583SOL      O10775   3.105   5.093   0.855  0.3599 -0.2194  0.0263
 2583SOL     H110776   3.189   5.073   0.813 -0.6307  0.0601 -2.1719
 2583SOL     H210777   3.061   5.008   0.861 -0.4509  0.0584 -1.6890
 2583SOL    EPW10778   3.109   5.081   0.851  0.1677 -0.1599 -0.3911
 2584SOL      O10779   0.032   0.980   0.676 -0.6300  0.6088 -0.0696
 2584SOL     H110780   0.022   1.027   0.593  0.4811 -0.2477 -0.7008
 2584SOL     H210781  -0.018   0.900   0.664  1.0853 -0.3899 -0.6169
 2584SOL    EPW10782   0.025   0.977   0.666 -0.3285  0.4109 -0.1953
 2585SOL      O10783   1.447   2.730   3.226  0.4534 -0.0526 -0.3495
 2585SOL     H110784   1.497   2.761   3.302  0.2006  1.3049 -0.7280
 2585SOL     H210785   1.491   2.649   3.201  1.6948  0.4553  0.1135
 2585SOL    EPW10786   1.457   2.725   3.231  0.5588  0.1464 -0.3405
 2586SOL      O10787   2.035   3.425   3.778 -0.1594  0.2780  0.2450
 2586SOL     H110788   2.028   3.364   3.704  1.1702  0.6931 -0.2558
 2586SOL     H210789   2.096   3.382   3.838 -0.3473  0.4603  0.5634
 2586SOL    EPW10790   2.041   3.414   3.776 -0.0376  0.3417  0.2255
 2587SOL      O10791   2.999   2.421   3.454  0.7574  0.0237 -0.1427
 2587SOL     H110792   3.040   2.374   3.381 -0.9267  0.5248 -1.4389
 2587SOL     H210793   3.055   2.497   3.468  1.4491 -0.4189 -0.4851
 2587SOL    EPW10794   3.009   2.424   3.447  0.6515  0.0299 -0.3175
 2588SOL      O10795   0.273   0.146   0.041 -0.3211  0.0410  0.2306
 2588SOL     H110796   0.300   0.230   0.005  0.7309 -0.0865  0.7230
 2588SOL     H210797   0.355   0.103   0.066 -0.7042 -1.7787 -1.4606
 2588SOL    EPW10798   0.285   0.150   0.040 -0.2498 -0.1667  0.1027
 2589SOL      O10799   4.197   0.451   3.757 -0.3845  0.1868 -0.4830
 2589SOL     H110800   4.138   0.376   3.751 -1.1488  0.5788  1.5457
 2589SOL     H210801   4.148   0.523   3.716 -0.4360  0.0026 -0.7412
 2589SOL    EPW10802   4.186   0.451   3.752 -0.4715  0.2089 -0.2941
 2590SOL      O10803   2.368   2.572   1.991  0.1561  0.2123 -0.1127
 2590SOL     H110804   2.449   2.613   2.023 -0.1914  0.6387  0.2121
 2590SOL     H210805   2.306   2.581   2.062  0.0739 -0.8999 -0.0266
 2590SOL    EPW10806   2.370   2.577   2.002  0.1103  0.1391 -0.0689
 2591SOL      O10807   5.628   1.353   3.522 -0.3723 -0.2117  0.2451
 2591SOL     H110808   5.683   1.405   3.464  0.4643  0.6779  1.8149
 2591SOL     H210809   5.570   1.416   3.565 -0.0596 -0.6833  1.3860
 2591SOL    EPW10810   5.628   1.365   3.520 -0.2497 -0.1671  0.5342
 2592SOL      O10811   2.473   2.043   3.071  0.2541 -0.3525 -0.4170
 2592SOL     H110812   2.498   2.135   3.060 -0.7455 -0.0197  0.0263
 2592SOL     H210813   2.405   2.029   3.005  1.5550 -1.2516 -1.6130
 2592SOL    EPW10814   2.469   2.051   3.063  0.2862 -0.4129 -0.4973
 2593SOL      O10815   4.605   1.405   0.823  0.2871  0.0617 -0.2169
 2593SOL     H110816   4.547   1.424   0.750  0.2174  2.3196  0.3843
 2593SOL     H210817   4.690   1.438   0.795  0.5843 -0.3732  0.1584
 2593SOL    EPW10818   4.608   1.410   0.812  0.3113  0.2562 -0.1128
 2594SOL      O10819   5.769   1.681   0.868 -0.4663 -0.1189 -0.4800
 2594SOL     H110820   5.850   1.672   0.818 -0.0633  0.6483  0.0278
 2594SOL     H210821   5.734   1.592   0.873 -1.5173  0.0120 -3.7653
 2594SOL    EPW10822   5.774   1.671   0.863 -0.5354 -0.0231 -0.7763
 2595SOL      O10823   3.022   5.417   0.765  0.4110 -0.4527  0.0697
 2595SOL     H110824   3.082   5.432   0.693  0.4143 -0.4096  0.0814
 2595SOL     H210825   2.964   5.348   0.734 -1.0165  1.1306 -0.8250
 2595SOL    EPW10826   3.022   5.411   0.754  0.2591 -0.2792 -0.0245
 2596SOL      O10827   4.624   2.105   3.759 -0.0116 -0.0728 -0.6057
 2596SOL     H110828   4.590   2.160   3.829  1.5119  0.5507 -0.3239
 2596SOL     H210829   4.719   2.106   3.772  0.4075  1.1232 -3.4563
 2596SOL    EPW10830   4.631   2.111   3.768  0.1956  0.1213 -0.8797
 2597SOL      O10831   3.474   5.637   1.181 -0.3431 -0.6042  0.5350
 2597SOL     H110832   3.398   5.587   1.150 -0.2371 -0.3758 -0.1112
 2597SOL     H210833   3.545   5.573   1.184 -0.3911 -0.6616  0.4568
 2597SOL    EPW10834   3.473   5.625   1.178 -0.3369 -0.5860  0.4577
 2598SOL      O10835   1.153   0.116   1.330  0.3329 -0.5158  0.2723
 2598SOL     H110836   1.094   0.041   1.341 -0.3811 -0.0337 -0.1850
 2598SOL     H210837   1.098   0.192   1.348  1.5260 -0.1706  2.5825
 2598SOL    EPW10838   1.141   0.116   1.333  0.3840 -0.4276  0.4700
 2599SOL      O10839   2.435   5.168   0.587 -1.1623  0.5941  0.1564
 2599SOL     H110840   2.372   5.201   0.651 -1.1037  0.9187  0.0472
 2599SOL     H210841   2.425   5.225   0.511 -1.4808 -0.0075 -0.2677
 2599SOL    EPW10842   2.427   5.177   0.586 -1.1900  0.5646  0.0995
 2600SOL      O10843   2.385   5.598   0.519 -0.4059 -0.7690 -0.2240
 2600SOL     H110844   2.474   5.597   0.483  0.0167 -0.9569  0.7938
 2600SOL     H210845   2.398   5.583   0.613 -1.5029 -0.6076 -0.0458
 2600SOL    EPW10846   2.396   5.597   0.525 -0.4778 -0.7718 -0.0964
 2601SOL      O10847   3.428   4.805   0.866 -0.4070 -0.6408 -0.3157
 2601SOL     H110848   3.350   4.784   0.916 -0.3864 -0.8679 -0.3789
 2601SOL     H210849   3.404   4.789   0.775 -1.0062  1.4719 -0.5578
 2601SOL    EPW10850   3.417   4.801   0.862 -0.4687 -0.4396 -0.3483
 2602SOL      O10851   3.566   3.140   1.262 -0.3684  0.2916 -0.6891
 2602SOL     H110852   3.514   3.082   1.207 -0.8157 -0.6859  0.7332
 2602SOL     H210853   3.626   3.082   1.309  0.2754  1.1501 -0.4211
 2602SOL    EPW10854   3.567   3.128   1.262 -0.3474  0.2789 -0.5088
 2603SOL      O10855   2.073   5.408   0.549  0.2913  0.1948 -0.1492
 2603SOL     H110856   2.126   5.343   0.596  0.3627  0.3945  0.0450
 2603SOL     H210857   2.104   5.402   0.459 -0.0788 -0.4251 -0.2356
 2603SOL    EPW10858   2.082   5.400   0.545  0.2594  0.1500 -0.1377
 2604SOL      O10859   2.699   1.158   1.616  0.4368  0.1902 -0.0895
 2604SOL     H110860   2.608   1.186   1.622  0.6521  1.2005 -1.4047
 2604SOL     H210861   2.708   1.124   1.527  1.2825 -0.1511  0.1203
 2604SOL    EPW10862   2.690   1.157   1.607  0.5500  0.2615 -0.2074
 2605SOL      O10863   2.853   4.164   1.278 -0.3043  0.0775 -0.3926
 2605SOL     H110864   2.836   4.230   1.210 -0.5212  0.8527  0.4027
 2605SOL     H210865   2.942   4.134   1.261 -0.2800  0.4304 -0.8852
 2605SOL    EPW10866   2.861   4.168   1.269 -0.3249  0.1978 -0.3603
 2606SOL      O10867   1.649   5.474   1.315 -0.0500 -0.0891  0.2898
 2606SOL     H110868   1.621   5.560   1.281 -2.2066 -0.6162  0.6232
 2606SOL     H210869   1.688   5.494   1.400  1.5068  0.7784 -0.5916
 2606SOL    EPW10870   1.650   5.486   1.321 -0.1140 -0.0528  0.2313
 2607SOL      O10871   1.264   4.149   1.294 -0.8738 -0.3120  0.4188
 2607SOL     H110872   1.328   4.115   1.231 -2.3717 -0.4234 -1.1129
 2607SOL     H210873   1.211   4.072   1.317 -2.1314  0.2846 -0.4215
 2607SOL    EPW10874   1.265   4.137   1.289 -1.1678 -0.2602  0.1658
 2608SOL      O10875   1.426   0.372   1.442  0.3642 -0.6658  0.2375
 2608SOL     H110876   1.341   0.338   1.468 -0.2868  2.4609  2.4709
 2608SOL     H210877   1.444   0.329   1.358 -4.8335  0.8939 -1.8838
 2608SOL    EPW10878   1.419   0.364   1.435 -0.2597 -0.1658  0.2495
 2609SOL      O10879   1.637   4.659   0.368  0.4604 -0.8427  0.1777
 2609SOL     H110880   1.684   4.680   0.288 -0.4904 -0.1884 -0.2080
 2609SOL     H210881   1.561   4.717   0.368  0.9502 -0.1610  2.0275
 2609SOL    EPW10882   1.634   4.667   0.360  0.4112 -0.7002  0.3339
 2610SOL      O10883   2.773   4.511   2.069 -0.6354 -0.5424 -0.0234
 2610SOL     H110884   2.859   4.469   2.079 -1.2507 -1.6287  0.8288
 2610SOL     H210885   2.763   4.565   2.148 -0.5241 -0.0267 -0.3609
 2610SOL    EPW10886   2.781   4.512   2.079 -0.6892 -0.6033  0.0315
 2611SOL      O10887   2.636   0.457   1.235  0.1360  0.1491  0.7369
 2611SOL     H110888   2.620   0.484   1.145 -1.0632  0.8265  1.1511
 2611SOL     H210889   2.726   0.486   1.253  0.5274 -0.3562 -0.3583
 2611SOL    EPW10890   2.644   0.463   1.228  0.0498  0.1674  0.6642
 2612SOL      O10891   3.188   0.490   0.500 -0.0983  0.5019  0.1639
 2612SOL     H110892   3.246   0.422   0.534 -0.5042  0.3907  0.6523
 2612SOL     H210893   3.100   0.457   0.517 -0.2977  1.5697  1.2799
 2612SOL    EPW10894   3.185   0.479   0.506 -0.1629  0.6040  0.3351
 2613SOL      O10895   2.182   4.505   1.639  0.2933  0.0883  0.3212
 2613SOL     H110896   2.242   4.450   1.588  0.0749 -0.7531  0.9704
 2613SOL     H210897   2.215   4.594   1.625  0.4676 -0.1607 -0.9862
 2613SOL    EPW10898   2.192   4.509   1.632  0.2886 -0.0280  0.2510
 2614SOL      O10899   4.248   1.194   4.146  0.2264  0.7268  0.6030
 2614SOL     H110900   4.237   1.254   4.220  0.5516 -0.6979  1.8324
 2614SOL     H210901   4.273   1.111   4.186 -0.0287 -0.1886 -1.0879
 2614SOL    EPW10902   4.250   1.192   4.158  0.2339  0.4772  0.5538
 2615SOL      O10903   3.027   5.355   0.047  0.0447 -0.1980 -0.0982
 2615SOL     H110904   2.988   5.435   0.013  0.0615 -0.0072  0.3195
 2615SOL     H210905   3.081   5.322  -0.024 -1.0550 -0.5906 -0.7602
 2615SOL    EPW10906   3.029   5.360   0.036 -0.0708 -0.2195 -0.1242
 2616SOL      O10907   0.367   0.819   3.743 -0.6475 -0.4629  0.3290
 2616SOL     H110908   0.451   0.789   3.779  0.5073  0.9395 -1.1016
 2616SOL     H210909   0.332   0.877   3.809  0.5490  0.6094  0.0383
 2616SOL    EPW10910   0.372   0.822   3.754 -0.3967 -0.1989  0.1454
 2617SOL      O10911   2.999   5.659   1.430 -0.0138 -0.1248  0.2268
 2617SOL     H110912   2.958   5.641   1.345  2.4207 -0.0057 -1.0003
 2617SOL     H210913   3.083   5.700   1.408  0.5244  0.1571  2.7066
 2617SOL    EPW10914   3.003   5.661   1.418  0.3033 -0.0821  0.3604
 2618SOL      O10915   3.827   4.333   1.785 -0.2789 -0.1480 -0.1343
 2618SOL     H110916   3.859   4.380   1.862 -0.6939 -0.1051  0.0141
 2618SOL     H210917   3.808   4.401   1.720  1.0246 -0.2526 -0.6371
 2618SOL    EPW10918   3.828   4.345   1.786 -0.1841 -0.1546 -0.1721
 2619SOL      O10919   1.575   3.151   2.052  0.4261 -0.3718 -0.0516
 2619SOL     H110920   1.486   3.145   2.087 -0.2857  1.3010 -1.5196
 2619SOL     H210921   1.575   3.093   1.976  1.2661 -2.1120  1.2405
 2619SOL    EPW10922   1.566   3.144   2.047  0.4398 -0.3790 -0.0704
 2620SOL      O10923   3.212   3.023   0.403  0.4091  0.4499  0.0275
 2620SOL     H110924   3.118   3.023   0.384  0.6099  1.7118 -0.9767
 2620SOL     H210925   3.237   2.931   0.395 -0.6719  0.1533 -0.0607
 2620SOL    EPW10926   3.204   3.013   0.400  0.3152  0.5529 -0.0890
 2621SOL      O10927   2.970   3.112   1.587  0.4515 -0.4861  0.0820
 2621SOL     H110928   3.064   3.102   1.570  1.1132  0.3463  2.8992
 2621SOL     H210929   2.958   3.206   1.602 -1.4017 -0.1509 -3.0646
 2621SOL    EPW10930   2.979   3.121   1.587  0.3244 -0.3616  0.0469
 2622SOL      O10931   2.150   5.354   0.288 -0.2505 -0.0607 -0.0088
 2622SOL     H110932   2.243   5.367   0.306 -0.6839 -0.1276  2.3965
 2622SOL     H210933   2.143   5.261   0.265 -0.0637 -0.6528  2.2333
 2622SOL    EPW10934   2.159   5.346   0.287 -0.2768 -0.1310  0.4869
 2623SOL      O10935   1.631   0.070   3.759  0.0271 -0.2636  0.0760
 2623SOL     H110936   1.583  -0.013   3.767 -0.6515  0.1934  0.7830
 2623SOL     H210937   1.698   0.052   3.693 -0.7869 -1.0618 -0.5456
 2623SOL    EPW10938   1.633   0.059   3.753 -0.1321 -0.3000  0.0851
 2624SOL      O10939   1.497   5.523   0.980  0.1598 -0.2315  0.6776
 2624SOL     H110940   1.471   5.437   1.012  4.9980 -2.6801 -1.4233
 2624SOL     H210941   1.524   5.571   1.058 -2.9592 -0.4225  1.9122
 2624SOL    EPW10942   1.497   5.519   0.991  0.3432 -0.5130  0.5852
 2625SOL      O10943   5.805   0.318   3.423  0.8845  0.2187  0.3011
 2625SOL     H110944   5.836   0.230   3.446  0.7771  0.3397  0.8959
 2625SOL     H210945   5.881   0.374   3.437  1.4358  0.0054 -1.5723
 2625SOL    EPW10946   5.817   0.314   3.427  0.9319  0.2088  0.1647
 2626SOL      O10947   2.008   4.634   1.390  0.1350 -0.5398 -0.3577
 2626SOL     H110948   1.977   4.584   1.465  1.8914  0.9882  1.4340
 2626SOL     H210949   1.934   4.691   1.367 -0.4770 -1.1494  0.0767
 2626SOL    EPW10950   1.997   4.635   1.396  0.2571 -0.4418 -0.1202
 2627SOL      O10951   5.767   3.458   4.136  0.5565 -0.2539 -0.4238
 2627SOL     H110952   5.851   3.422   4.108  0.5557 -0.0105 -0.7328
 2627SOL     H210953   5.757   3.427   4.226  0.5672 -1.0232 -0.6771
 2627SOL    EPW10954   5.775   3.451   4.143  0.5576 -0.3100 -0.4838
 2628SOL      O10955   3.677   2.810   1.465 -0.4291 -0.3193 -0.0049
 2628SOL     H110956   3.703   2.893   1.505 -1.4808  0.6018 -1.2308
 2628SOL     H210957   3.725   2.807   1.383 -0.5552 -0.8363 -0.0604
 2628SOL    EPW10958   3.685   2.818   1.461 -0.5548 -0.2762 -0.1416
 2629SOL      O10959   3.652   0.482   1.845  0.6367  0.8969 -0.2963
 2629SOL     H110960   3.709   0.405   1.847  1.7836  1.7754  1.2647
 2629SOL     H210961   3.708   0.555   1.870 -1.3993  1.6128  2.4888
 2629SOL    EPW10962   3.664   0.481   1.848  0.5418  1.0670  0.1673
 2630SOL      O10963   4.201   3.554   2.946 -0.3734  0.3822  0.1261
 2630SOL     H110964   4.109   3.552   2.974 -0.0131 -1.2747  1.2815
 2630SOL     H210965   4.214   3.471   2.901  0.7725  0.2718  0.6520
 2630SOL    EPW10966   4.193   3.545   2.944 -0.2127  0.1937  0.3054
 2631SOL      O10967   2.553   4.267   0.986 -0.4306  0.6692 -0.6796
 2631SOL     H110968   2.567   4.249   0.893  0.6855 -0.7732 -0.2638
 2631SOL     H210969   2.641   4.282   1.021 -0.3907 -2.4931  0.8223
 2631SOL    EPW10970   2.564   4.266   0.980 -0.3073  0.1780 -0.4750
 2632SOL      O10971   2.826   2.577   0.548 -0.0980  0.1121  0.5101
 2632SOL     H110972   2.876   2.633   0.606 -0.2953 -1.3907  2.1691
 2632SOL     H210973   2.800   2.634   0.475  1.4908  1.6129  1.1037
 2632SOL    EPW10974   2.828   2.589   0.546  0.0504  0.1119  0.7504
 2633SOL      O10975   2.719   3.010   0.563 -0.2671 -0.1523  0.6173
 2633SOL     H110976   2.646   3.060   0.598  0.5821  0.0448  2.1336
 2633SOL     H210977   2.788   3.075   0.549 -0.2010 -0.4150 -0.3639
 2633SOL    EPW10978   2.718   3.022   0.565 -0.1694 -0.1593  0.6744
 2634SOL      O10979   1.702   4.769   1.565 -0.8794  0.8539 -0.1673
 2634SOL     H110980   1.713   4.861   1.591 -0.0159  0.6679  0.1310
 2634SOL     H210981   1.764   4.721   1.619 -0.8664  0.1611 -0.7920
 2634SOL    EPW10982   1.710   4.774   1.574 -0.7859  0.7602 -0.2021
 2635SOL      O10983   0.986   5.783   1.355  0.4276  0.3481 -0.3677
 2635SOL     H110984   0.970   5.730   1.278  0.8122  1.3812 -1.1817
 2635SOL     H210985   1.063   5.743   1.396  0.3711 -0.0592 -0.6609
 2635SOL    EPW10986   0.993   5.773   1.352  0.4626  0.4148 -0.4858
 2636SOL      O10987   2.958   0.011   0.377 -0.5371 -0.8667 -0.7918
 2636SOL     H110988   2.896   0.073   0.416 -2.7106 -2.3789 -1.7421
 2636SOL     H210989   3.032   0.010   0.438 -2.3962 -0.6588  1.5519
 2636SOL    EPW10990   2.959   0.018   0.388 -0.9673 -1.0058 -0.6432
 2637SOL      O10991   1.287   5.821   0.159  0.5271  0.1050 -0.3449
 2637SOL     H110992   1.316   5.885   0.224  0.8645 -0.4310  0.0347
 2637SOL     H210993   1.351   5.750   0.165  0.1329 -0.2854 -0.7364
 2637SOL    EPW10994   1.297   5.820   0.166  0.5210  0.0062 -0.3462
 2638SOL      O10995   3.725   5.777   1.001  0.1588  0.1043 -0.6788
 2638SOL     H110996   3.760   5.746   1.085  0.0350  0.5985 -0.4399
 2638SOL     H210997   3.677   5.702   0.966 -0.5464  0.1706  0.1279
 2638SOL    EPW10998   3.723   5.765   1.006  0.0703  0.1641 -0.5673
 2639SOL      O10999   1.830   2.492   2.449 -0.0701 -0.1428  0.4815
 2639SOL     H111000   1.835   2.401   2.419 -0.5242  0.3100 -1.0599
 2639SOL     H211001   1.817   2.542   2.368 -3.6291  0.9521  1.6538
 2639SOL    EPW11002   1.829   2.488   2.437 -0.4982  0.0223  0.4421
 2640SOL      O11003   5.585   0.737   3.811  0.7384 -0.5109  0.1931
 2640SOL     H111004   5.627   0.759   3.728  1.2606 -0.1975  0.5390
 2640SOL     H211005   5.641   0.668   3.848 -0.0492 -1.3613 -0.1811
 2640SOL    EPW11006   5.596   0.732   3.806  0.7101 -0.5682  0.1901
 2641SOL      O11007   2.585   0.563   0.974 -0.2791  0.4794  0.3928
 2641SOL     H111008   2.593   0.514   0.893 -0.5190 -0.6257  1.0208
 2641SOL     H211009   2.621   0.649   0.954 -0.5867  0.3074 -0.9552
 2641SOL    EPW11010   2.590   0.567   0.963 -0.3375  0.3431  0.3160
 2642SOL      O11011   0.470   4.820   1.337 -0.0938  0.1707 -0.1156
 2642SOL     H111012   0.456   4.749   1.275 -0.8779 -1.1199  1.4888
 2642SOL     H211013   0.404   4.886   1.315  0.2360  0.1266 -1.2256
 2642SOL    EPW11014   0.462   4.819   1.328 -0.1422  0.0283 -0.0629
 2643SOL      O11015   0.396   5.306   1.747 -0.4595  0.1489  0.5150
 2643SOL     H111016   0.475   5.343   1.707 -1.1716  2.5918  1.2712
 2643SOL     H211017   0.336   5.294   1.674 -0.4642  1.1606  0.3483
 2643SOL    EPW11018   0.398   5.309   1.735 -0.5360  0.5174  0.5779
 2644SOL      O11019   1.119   5.378   0.863 -0.9699  0.0833  0.7019
 2644SOL     H111020   1.126   5.472   0.882 -0.4450  0.3261 -0.6057
 2644SOL     H211021   1.209   5.351   0.845 -1.2647 -0.4153 -0.0456
 2644SOL    EPW11022   1.130   5.385   0.863 -0.9454  0.0560  0.4826
 2645SOL      O11023   2.460   4.738   0.924 -0.3192 -0.1005  0.2119
 2645SOL     H111024   2.509   4.820   0.923 -0.1267 -0.1558  2.5751
 2645SOL     H211025   2.525   4.670   0.905 -0.0232  0.0863  0.5629
 2645SOL    EPW11026   2.472   4.739   0.922 -0.2671 -0.0865  0.5015
 2646SOL      O11027   1.848   3.576   1.402 -0.4797  0.2370  0.2876
 2646SOL     H111028   1.846   3.570   1.307  0.2755  0.1820  0.2753
 2646SOL     H211029   1.897   3.499   1.430  1.1399  1.3748  0.6103
 2646SOL    EPW11030   1.853   3.567   1.395 -0.2264  0.3525  0.3207
 2647SOL      O11031   2.247   5.851   2.182 -0.2146  0.1067 -1.0792
 2647SOL     H111032   2.153   5.865   2.193 -0.2849 -0.7818 -0.5523
 2647SOL     H211033   2.282   5.939   2.167 -1.0134  0.5428 -0.4184
 2647SOL    EPW11034   2.241   5.862   2.181 -0.3073  0.0585 -0.9525
 2648SOL      O11035   3.124   5.129   1.705  0.1402 -0.1450  0.3074
 2648SOL     H111036   3.083   5.094   1.783  0.1143 -0.6089  0.0845
 2648SOL     H211037   3.178   5.201   1.737  0.6191 -0.7326  0.8311
 2648SOL    EPW11038   3.126   5.133   1.716  0.1885 -0.2572  0.3395
 2649SOL      O11039   3.957   1.859   1.371  0.0839  0.0929  0.2708
 2649SOL     H111040   4.028   1.912   1.408  0.8274 -1.1394  0.6308
 2649SOL     H211041   4.002   1.793   1.318 -0.9380  1.3386 -2.2163
 2649SOL    EPW11042   3.970   1.857   1.369  0.0542  0.0943  0.0439
 2650SOL      O11043   2.459   2.339   4.088 -0.7979  0.3412  0.1380
 2650SOL     H111044   2.517   2.286   4.034  0.6442  1.2426  0.7727
 2650SOL     H211045   2.433   2.281   4.160  0.3615  0.3339  0.5524
 2650SOL    EPW11046   2.462   2.327   4.090 -0.5204  0.4366  0.2499
 2651SOL      O11047   2.554   0.134   0.755  0.6139  0.4545  0.2319
 2651SOL     H111048   2.499   0.090   0.691  0.1770  1.4967 -0.1132
 2651SOL     H211049   2.505   0.130   0.837 -0.0725  1.5323 -0.1121
 2651SOL    EPW11050   2.543   0.129   0.757  0.4941  0.6807  0.1584
 2652SOL      O11051   2.958   4.174   0.865  0.0566 -0.4856  0.6089
 2652SOL     H111052   3.042   4.212   0.837  0.4154 -1.1556  0.7484
 2652SOL     H211053   2.982   4.089   0.903 -0.9208 -1.7415 -1.4757
 2652SOL    EPW11054   2.970   4.169   0.866 -0.0094 -0.6911  0.4014
 2653SOL      O11055   5.368   1.453   3.437  0.3277 -0.1276  0.3643
 2653SOL     H111056   5.432   1.449   3.366 -0.1700 -1.9701 -0.0074
 2653SOL     H211057   5.286   1.478   3.394  0.3883  0.4275  0.5631
 2653SOL    EPW11058   5.366   1.455   3.425  0.2811 -0.2649  0.3459
 2654SOL      O11059   1.454   3.949   1.210  0.2950 -0.0974  0.1334
 2654SOL     H111060   1.518   3.990   1.152  0.5462 -1.2467 -0.4013
 2654SOL     H211061   1.491   3.961   1.298 -0.0358  1.5470  0.0702
 2654SOL    EPW11062   1.465   3.955   1.213  0.2865 -0.0445  0.0696
 2655SOL      O11063   0.816   4.037   1.760  0.0726 -0.5829  0.2506
 2655SOL     H111064   0.756   4.039   1.686 -1.1226 -0.1456  1.2139
 2655SOL     H211065   0.806   3.949   1.797  1.2054 -1.0468 -0.5358
 2655SOL    EPW11066   0.809   4.028   1.756  0.0659 -0.5858  0.2695
 2656SOL      O11067   2.408   0.108   0.991 -0.0833  0.2398 -0.1106
 2656SOL     H111068   2.396   0.145   1.078 -1.7292  0.1149 -0.2679
 2656SOL     H211069   2.326   0.126   0.946  0.4857 -0.3333 -1.3999
 2656SOL    EPW11070   2.398   0.114   0.996 -0.1982  0.1653 -0.2649
 2657SOL      O11071   2.990   3.399   1.635  0.9537 -0.2738 -0.3464
 2657SOL     H111072   3.010   3.415   1.727  0.5756  0.0892 -0.3249
 2657SOL     H211073   3.075   3.409   1.590  0.9063  0.8936 -0.2100
 2657SOL    EPW11074   3.002   3.402   1.640  0.9083 -0.1105 -0.3295
 2658SOL      O11075   1.998   3.210   2.554  0.2230  0.2935 -0.4976
 2658SOL     H111076   1.922   3.227   2.499 -0.7049  0.0264  0.6610
 2658SOL     H211077   2.048   3.143   2.508 -1.3687 -1.0823 -0.2690
 2658SOL    EPW11078   1.995   3.205   2.543 -0.0458  0.1183 -0.3496
 2659SOL      O11079   2.748   3.786   1.301  0.1226  0.1442  0.1246
 2659SOL     H111080   2.809   3.834   1.245 -0.1857  0.5268  0.1137
 2659SOL     H211081   2.661   3.819   1.277  0.0056  0.5119  1.0043
 2659SOL    EPW11082   2.745   3.795   1.293  0.0772  0.2243  0.2173
 2660SOL      O11083   5.874   3.764   3.781 -0.0011  0.5355 -0.4938
 2660SOL     H111084   5.810   3.704   3.743 -1.2942  1.5235  0.0928
 2660SOL     H211085   5.873   3.840   3.724  1.0600  0.3303 -0.7902
 2660SOL    EPW11086   5.867   3.766   3.771 -0.0258  0.6190 -0.4629
 2661SOL      O11087   1.692   4.882   2.027 -0.1317 -0.0065 -0.0859
 2661SOL     H111088   1.772   4.892   2.078  1.0080  0.0282 -1.8316
 2661SOL     H211089   1.714   4.917   1.941 -1.9585 -0.2115 -0.6603
 2661SOL    EPW11090   1.703   4.887   2.023 -0.2050 -0.0246 -0.3334
 2662SOL      O11091   3.376   5.646   0.527 -0.2502  0.1789 -0.2556
 2662SOL     H111092   3.421   5.653   0.611  4.3202 -1.3346 -2.4079
 2662SOL     H211093   3.333   5.561   0.529 -0.2821  0.2109  0.5756
 2662SOL    EPW11094   3.377   5.638   0.536  0.2339  0.0209 -0.3965
 2663SOL      O11095   3.739   2.392   1.043 -0.1066 -0.4403 -0.0459
 2663SOL     H111096   3.746   2.474   0.994  0.2408  0.8876  2.1424
 2663SOL     H211097   3.669   2.344   1.000 -0.6924  1.2578 -1.0378
 2663SOL    EPW11098   3.732   2.396   1.034 -0.1321 -0.1175  0.0818
 2664SOL      O11099   3.208   5.805   1.302 -0.5831 -0.2933 -0.8879
 2664SOL     H111100   3.290   5.770   1.266 -0.6195  0.5881 -1.8518
 2664SOL     H211101   3.180   5.870   1.238 -1.3619  0.3483  0.0974
 2664SOL    EPW11102   3.214   5.808   1.291 -0.6700 -0.1309 -0.8856
 2665SOL      O11103   2.606   4.218   1.412 -0.2318 -0.9039 -0.4779
 2665SOL     H111104   2.548   4.145   1.433  0.0634 -1.5541 -1.8528
 2665SOL     H211105   2.688   4.176   1.384  0.6184 -0.0132  0.6096
 2665SOL    EPW11106   2.609   4.206   1.411 -0.1096 -0.8782 -0.5086
 2666SOL      O11107   0.253   4.619   1.547  0.3591 -0.3667  0.3338
 2666SOL     H111108   0.243   4.577   1.633  1.6674 -1.0574  0.1664
 2666SOL     H211109   0.337   4.664   1.552 -0.2578  0.8625 -0.0752
 2666SOL    EPW11110   0.261   4.619   1.557  0.4328 -0.3093  0.2723
 2667SOL      O11111   2.604   3.811   0.704  0.1514 -0.0340 -0.4130
 2667SOL     H111112   2.552   3.859   0.639 -1.3052  0.5725  1.1482
 2667SOL     H211113   2.664   3.877   0.739  2.2373 -0.7982 -2.4092
 2667SOL    EPW11114   2.605   3.823   0.701  0.2186 -0.0508 -0.4594
 2668SOL      O11115   2.833   5.269   0.652  0.1529 -0.2178  0.0916
 2668SOL     H111116   2.839   5.231   0.564  1.5516 -0.7139  0.3835
 2668SOL     H211117   2.750   5.237   0.686 -0.7489  0.5709 -1.3171
 2668SOL    EPW11118   2.825   5.262   0.646  0.2059 -0.1866 -0.0275
 2669SOL      O11119   2.532   5.013   1.747  0.0047 -0.6515  0.4588
 2669SOL     H111120   2.620   5.035   1.716 -0.3472 -0.8446 -0.7059
 2669SOL     H211121   2.474   5.039   1.675 -0.9595  0.0581  1.4682
 2669SOL    EPW11122   2.535   5.018   1.736 -0.1357 -0.5964  0.4423
 2670SOL      O11123   3.761   0.957   1.707  0.4472 -0.8630 -0.2261
 2670SOL     H111124   3.843   0.961   1.756  0.3000 -2.4934  0.1835
 2670SOL     H211125   3.696   0.996   1.766  0.7507 -0.4265 -0.1786
 2670SOL    EPW11126   3.763   0.961   1.718  0.4639 -0.9904 -0.1773
 2671SOL      O11127   2.700   5.656   1.766  0.6445 -0.0186 -0.0720
 2671SOL     H111128   2.661   5.617   1.688 -0.7901  2.1615 -0.5019
 2671SOL     H211129   2.791   5.671   1.742 -0.2125  2.3467 -2.0468
 2671SOL    EPW11130   2.705   5.653   1.755  0.4000  0.4663 -0.3285
 2672SOL      O11131   5.389   1.854   3.661 -0.4523  0.5778  0.1608
 2672SOL     H111132   5.348   1.876   3.577 -1.4538 -0.9967  0.2145
 2672SOL     H211133   5.445   1.779   3.642  0.4508  1.1403  0.6047
 2672SOL    EPW11134   5.390   1.848   3.650 -0.4628  0.4699  0.2139
 2673SOL      O11135   2.768   5.353   1.082 -0.1549 -0.2024  0.2936
 2673SOL     H111136   2.826   5.297   1.133  0.8404  0.6511  0.1131
 2673SOL     H211137   2.753   5.305   1.001  0.5163 -0.3076  0.2286
 2673SOL    EPW11138   2.772   5.342   1.079  0.0229 -0.1226  0.2674
 2674SOL      O11139   1.688   4.454   1.097  0.3361 -0.4046  0.0713
 2674SOL     H111140   1.673   4.443   1.191  1.3072 -0.5318  0.2160
 2674SOL     H211141   1.651   4.540   1.077  0.5704 -0.1572  0.6749
 2674SOL    EPW11142   1.683   4.462   1.105  0.4647 -0.3918  0.1512
 2675SOL      O11143   3.279   3.755   1.740 -0.6611  0.1522 -0.2508
 2675SOL     H111144   3.300   3.751   1.646 -1.6269 -0.5287 -0.4420
 2675SOL     H211145   3.364   3.755   1.783 -0.2227 -0.7111 -1.0842
 2675SOL    EPW11146   3.290   3.755   1.734 -0.7173 -0.0125 -0.3601
 2676SOL      O11147   3.543   4.612   2.210 -0.4307  0.5387 -0.0041
 2676SOL     H111148   3.592   4.579   2.135 -2.8050 -0.9302 -0.9520
 2676SOL     H211149   3.513   4.699   2.183 -2.2891 -0.4673 -1.2551
 2676SOL    EPW11150   3.545   4.618   2.199 -0.8822  0.2747 -0.2387
 2677SOL      O11151   2.232   3.989   1.724 -0.2309 -0.4914  0.4256
 2677SOL     H111152   2.140   4.015   1.714 -0.1897 -0.5993 -0.1949
 2677SOL     H211153   2.262   3.970   1.636  0.9819  1.5356  0.3709
 2677SOL    EPW11154   2.225   3.990   1.714 -0.0971 -0.2867  0.3535
 2678SOL      O11155   1.197   0.701   0.036 -0.0143  0.7455 -0.4517
 2678SOL     H111156   1.122   0.675  -0.018 -0.3335  1.2673 -0.2640
 2678SOL     H211157   1.158   0.734   0.117  0.4680 -0.0361  0.0946
 2678SOL    EPW11158   1.185   0.702   0.038  0.0031  0.7178 -0.3734
 2679SOL      O11159   2.593   5.170   0.804 -0.8088 -0.6149  0.7435
 2679SOL     H111160   2.537   5.136   0.734  1.2295 -3.3751  0.3541
 2679SOL     H211161   2.576   5.111   0.878  0.1520 -0.2943  1.2223
 2679SOL    EPW11162   2.585   5.160   0.805 -0.4889 -0.8751  0.7531
 2680SOL      O11163   1.063   3.918   1.989 -0.2489  0.6553  0.1129
 2680SOL     H111164   1.117   3.932   2.067  3.6927 -0.2866 -2.3038
 2680SOL     H211165   1.055   4.005   1.950 -0.7014  0.8312  0.5856
 2680SOL    EPW11166   1.068   3.929   1.994  0.1233  0.5736 -0.0945
 2681SOL      O11167   2.763   5.874   1.064 -0.2284 -0.1140 -0.5866
 2681SOL     H111168   2.784   5.784   1.087 -1.2926 -0.3551 -0.5241
 2681SOL     H211169   2.780   5.880   0.970  0.3548 -0.2304 -0.4874
 2681SOL    EPW11170   2.767   5.865   1.057 -0.2797 -0.1522 -0.5693
 2682SOL      O11171   2.359   4.502   1.350 -0.0734  0.1756 -0.4646
 2682SOL     H111172   2.442   4.530   1.389 -0.1933 -0.3752  0.1897
 2682SOL     H211173   2.344   4.563   1.278  0.3450  0.9546  0.1126
 2682SOL    EPW11174   2.366   4.511   1.347 -0.0415  0.2000 -0.3332
 2683SOL      O11175   5.695   1.723   4.046  0.2128  0.1806  0.1665
 2683SOL     H111176   5.697   1.639   4.094 -1.7087  0.5968  1.0449
 2683SOL     H211177   5.736   1.785   4.106  0.8363  0.0422 -0.1170
 2683SOL    EPW11178   5.700   1.720   4.058  0.0743  0.2103  0.2300
 2684SOL      O11179   2.504   4.430   0.669  0.5910  0.6483  0.2146
 2684SOL     H111180   2.422   4.478   0.679  1.7454  2.3397  1.7962
 2684SOL     H211181   2.550   4.476   0.597  0.8441  0.7082  0.4126
 2684SOL    EPW11182   2.501   4.440   0.662  0.7412  0.8351  0.4044
 2685SOL      O11183   3.142   4.908   0.497 -0.3446 -0.0753  0.0007
 2685SOL     H111184   3.151   4.993   0.539  0.8389  0.2859 -0.9609
 2685SOL     H211185   3.211   4.854   0.535 -0.6655 -0.4077  0.1198
 2685SOL    EPW11186   3.150   4.911   0.505 -0.2526 -0.0722 -0.0892
 2686SOL      O11187   2.682   4.007   2.121 -0.0511  0.7669 -0.1820
 2686SOL     H111188   2.688   3.935   2.058  0.1188  1.6185 -1.1478
 2686SOL     H211189   2.655   4.082   2.069 -1.1557  1.1985  0.9922
 2686SOL    EPW11190   2.680   4.007   2.109 -0.1508  0.9038 -0.1598
 2687SOL      O11191   3.114   4.270   1.462  0.1901 -1.2073  0.6768
 2687SOL     H111192   3.129   4.338   1.528  1.8386 -1.2256  0.3468
 2687SOL     H211193   3.184   4.206   1.477  1.0576 -0.8440 -1.5449
 2687SOL    EPW11194   3.123   4.271   1.471  0.4585 -1.1705  0.4046
 2688SOL      O11195   2.470   5.249   1.238  0.7528  0.1121 -0.7495
 2688SOL     H111196   2.559   5.217   1.228  0.6727 -0.8802  1.4480
 2688SOL     H211197   2.417   5.171   1.252  0.2133  0.9443  2.3005
 2688SOL    EPW11198   2.474   5.237   1.239  0.6867  0.0950 -0.1897
 2689SOL      O11199   3.752   4.885   1.026  0.0977 -0.5738 -0.0609
 2689SOL     H111200   3.672   4.883   1.078  0.4790  1.1212  0.6188
 2689SOL     H211201   3.804   4.812   1.060 -1.1546 -1.7051 -0.5280
 2689SOL    EPW11202   3.749   4.877   1.035  0.0048 -0.5137 -0.0382
 2690SOL      O11203   3.397   3.018   1.064 -0.2552  0.4440  0.3128
 2690SOL     H111204   3.302   3.012   1.066 -0.1849 -1.1132 -0.1865
 2690SOL     H211205   3.422   2.976   0.982  1.0256 -1.5286  1.6804
 2690SOL    EPW11206   3.389   3.013   1.055 -0.1111  0.0675  0.4054
 2691SOL      O11207   1.660   4.035   1.045 -0.3231 -0.4266  0.4189
 2691SOL     H111208   1.685   4.074   0.961 -2.3778  2.3509  1.0484
 2691SOL     H211209   1.737   4.048   1.101  0.7579 -1.5797 -0.7705
 2691SOL    EPW11210   1.671   4.041   1.042 -0.4269 -0.2533  0.3592
 2692SOL      O11211   0.305   2.315   3.242  0.1731  0.2574 -0.3893
 2692SOL     H111212   0.382   2.301   3.297 -1.3565  1.9208  2.2568
 2692SOL     H211213   0.305   2.409   3.225 -1.7982  0.4019  0.4004
 2692SOL    EPW11214   0.313   2.323   3.246 -0.2004  0.4503 -0.0228
 2693SOL      O11215   2.042   3.770   0.900 -0.1289  0.4553  0.0852
 2693SOL     H111216   2.113   3.815   0.854 -1.1415  2.8190  0.7554
 2693SOL     H211217   1.962   3.800   0.856 -0.9340  0.6068  1.6337
 2693SOL    EPW11218   2.041   3.778   0.890 -0.3228  0.7236  0.3219
 2694SOL      O11219   0.537   4.432   1.891  0.3293 -0.7956 -0.3977
 2694SOL     H111220   0.575   4.480   1.816 -0.7429  0.9402  0.1273
 2694SOL     H211221   0.606   4.433   1.957  0.3484  0.0156 -0.4152
 2694SOL    EPW11222   0.549   4.438   1.890  0.2170 -0.5239 -0.3436
 2695SOL      O11223   3.115   4.439   0.648  0.3934  0.1496 -0.3616
 2695SOL     H111224   3.130   4.357   0.696 -0.4241  0.3521  0.2535
 2695SOL     H211225   3.202   4.476   0.636  0.6483 -0.1309  0.5755
 2695SOL    EPW11226   3.126   4.434   0.652  0.3334  0.1413 -0.1960
 2696SOL      O11227   2.645   4.540   1.711  0.0075 -0.2568  0.4437
 2696SOL     H111228   2.603   4.606   1.767 -0.9750 -1.8437  1.6129
 2696SOL     H211229   2.613   4.456   1.745  0.9059 -1.3235 -1.2990
 2696SOL    EPW11230   2.637   4.538   1.721 -0.0015 -0.5399  0.3825
 2697SOL      O11231   2.655   4.488   1.437 -0.4569 -0.2786  0.0983
 2697SOL     H111232   2.613   4.402   1.439  0.3902 -0.7027 -0.1202
 2697SOL     H211233   2.662   4.509   1.344  1.6982 -1.1566  0.0347
 2697SOL    EPW11234   2.652   4.481   1.427 -0.1366 -0.4175  0.0682
 2698SOL      O11235   2.631   4.575   1.186  0.1462  0.0691  0.1241
 2698SOL     H111236   2.625   4.537   1.098  1.5682 -0.7069  0.3522
 2698SOL     H211237   2.673   4.660   1.173 -2.7973  1.5367 -0.3523
 2698SOL    EPW11238   2.635   4.580   1.175 -0.0161  0.1428  0.0976
 2699SOL      O11239   4.704   3.913   0.875 -0.0702  0.2007  0.0308
 2699SOL     H111240   4.633   3.944   0.818 -1.1940 -0.7386  0.9202
 2699SOL     H211241   4.742   3.993   0.911 -2.4234  0.6115  1.6646
 2699SOL    EPW11242   4.701   3.925   0.872 -0.4411  0.1443  0.3000
 2700SOL      O11243   2.366   3.275   2.381  0.4914 -0.1518  0.4474
 2700SOL     H111244   2.454   3.263   2.345  0.0638 -0.3291 -0.5694
 2700SOL     H211245   2.372   3.246   2.471  1.6438  0.4624  0.5770
 2700SOL    EPW11246   2.376   3.271   2.387  0.5687 -0.1052  0.3528
 2701SOL      O11247   2.737   5.861   3.067 -0.7069 -0.6891  0.1925
 2701SOL     H111248   2.675   5.886   2.999  0.9307 -1.1172 -1.4992
 2701SOL     H211249   2.823   5.883   3.030  0.1667 -0.2809  2.4077
 2701SOL    EPW11250   2.740   5.866   3.056 -0.4390 -0.6912  0.2483
 2702SOL      O11251   2.981   5.149   1.964  0.1682 -0.4910 -0.0100
 2702SOL     H111252   2.927   5.093   2.021 -0.9350  0.3248 -0.2454
 2702SOL     H211253   3.066   5.153   2.009  0.0700 -1.8425  0.3290
 2702SOL    EPW11254   2.984   5.143   1.975  0.0401 -0.5481  0.0010
 2703SOL      O11255   2.679   4.562   0.497 -0.2193 -0.8972  0.1382
 2703SOL     H111256   2.717   4.481   0.461 -0.2792  0.4676 -3.2569
 2703SOL     H211257   2.754   4.608   0.534  0.1277 -1.7149  0.4735
 2703SOL    EPW11258   2.691   4.558   0.497 -0.1887 -0.8388 -0.1882
 2704SOL      O11259   3.799   3.986   3.820  0.1894  0.1058 -0.0566
 2704SOL     H111260   3.715   4.029   3.835 -0.6713 -1.8191  0.8810
 2704SOL     H211261   3.827   4.015   3.734 -0.4244  2.3872  0.4999
 2704SOL    EPW11262   3.793   3.994   3.813  0.0321  0.1438  0.1028
 2705SOL      O11263   3.027   3.940   1.403  0.0608 -0.1188  0.1072
 2705SOL     H111264   2.996   3.861   1.447 -1.1785  0.5075  0.4128
 2705SOL     H211265   3.020   4.009   1.470  0.8305  0.3090 -0.2421
 2705SOL    EPW11266   3.023   3.939   1.415  0.0107 -0.0064  0.1025
 2706SOL      O11267   1.698   5.067   1.267  0.3739 -0.3289 -0.4634
 2706SOL     H111268   1.762   5.003   1.238  0.0732 -0.2713 -1.2715
 2706SOL     H211269   1.711   5.142   1.210  0.6530  0.2893  0.4115
 2706SOL    EPW11270   1.706   5.068   1.258  0.3716 -0.2568 -0.4562
 2707SOL      O11271   3.378   4.773   0.577 -0.4919 -0.0890 -0.1665
 2707SOL     H111272   3.400   4.804   0.489  0.0341  1.3643  0.4480
 2707SOL     H211273   3.409   4.683   0.580  0.2436  0.1255 -1.1955
 2707SOL    EPW11274   3.384   4.767   0.568 -0.3573  0.0889 -0.2107
 2708SOL      O11275   4.040   0.021   1.157 -0.0178  0.2824  0.0313
 2708SOL     H111276   4.012  -0.030   1.082  0.7581 -0.1501  0.0237
 2708SOL     H211277   4.052  -0.043   1.227  1.1699  0.4065 -0.0378
 2708SOL    EPW11278   4.039   0.009   1.157  0.1917  0.2495  0.0231
 2709SOL      O11279   2.830   4.341   1.582 -1.0786  0.3207  0.5770
 2709SOL     H111280   2.881   4.296   1.649  0.9617  0.8511 -0.5604
 2709SOL     H211281   2.772   4.274   1.546 -0.9500 -0.3764  1.6744
 2709SOL    EPW11282   2.829   4.329   1.585 -0.8473  0.3029  0.5727
 2710SOL      O11283   0.613   5.744   0.597 -0.2493 -0.1392  0.7824
 2710SOL     H111284   0.584   5.833   0.577  2.7203  1.1212  1.7358
 2710SOL     H211285   0.626   5.703   0.512  0.1470  0.9452  0.3122
 2710SOL    EPW11286   0.611   5.749   0.586  0.1097  0.1109  0.8340
 2711SOL      O11287   3.505   4.050   2.247 -0.1698 -0.7962  0.8674
 2711SOL     H111288   3.563   4.114   2.288 -1.2235 -0.8824  2.5440
 2711SOL     H211289   3.504   3.976   2.307 -1.4329 -1.1006  0.4967
 2711SOL    EPW11290   3.511   4.048   2.258 -0.4170 -0.8379  1.0067
 2712SOL      O11291   3.163   3.781   3.083 -0.3092 -0.6842  0.1667
 2712SOL     H111292   3.104   3.838   3.033 -0.8739 -1.8374 -0.4990
 2712SOL     H211293   3.191   3.835   3.157  0.1345  0.8705 -1.1146
 2712SOL    EPW11294   3.160   3.793   3.086 -0.3221 -0.6414 -0.0410
 2713SOL      O11295   3.729   2.896   0.673  0.1929  0.0030  0.2572
 2713SOL     H111296   3.820   2.875   0.692  0.1333 -1.8525 -1.3013
 2713SOL     H211297   3.733   2.973   0.616  1.0598 -2.3482 -3.0442
 2713SOL    EPW11298   3.739   2.902   0.669  0.2790 -0.4457 -0.2612
 2714SOL      O11299   2.656   4.263   2.026 -0.4899  0.2526 -0.0485
 2714SOL     H111300   2.699   4.343   2.054  2.9713 -1.1027 -1.1945
 2714SOL     H211301   2.656   4.267   1.930 -1.5346 -0.4895 -0.0918
 2714SOL    EPW11302   2.661   4.272   2.019 -0.2321  0.0288 -0.1754
 2715SOL      O11303   2.260   4.941   0.515 -0.0416  0.3586  0.1454
 2715SOL     H111304   2.324   4.989   0.567  0.7577 -1.0780  0.5386
 2715SOL     H211305   2.177   4.986   0.530  1.3879  4.3783 -3.0603
 2715SOL    EPW11306   2.258   4.951   0.522  0.1962  0.6341 -0.1546
 2716SOL      O11307   2.521   5.852   1.307  0.0915  0.2975 -0.2225
 2716SOL     H111308   2.569   5.928   1.273  2.2287 -0.5844  0.7955
 2716SOL     H211309   2.517   5.792   1.233  2.4934 -0.5356  0.2838
 2716SOL    EPW11310   2.525   5.854   1.295  0.5757  0.1145 -0.0599
 2717SOL      O11311   5.084   3.506   3.583  0.0508  0.1161  0.5271
 2717SOL     H111312   5.136   3.587   3.585  0.0973  0.1078 -0.4113
 2717SOL     H211313   5.146   3.438   3.559 -0.1622 -0.0710  0.5088
 2717SOL    EPW11314   5.096   3.508   3.581  0.0331  0.0953  0.4251
 2718SOL      O11315   3.008   5.151   1.099  0.3536  0.2837  0.4168
 2718SOL     H111316   2.988   5.120   1.010  1.4454 -0.0811  0.2873
 2718SOL     H211317   2.967   5.087   1.157 -0.9184  0.8771  0.1926
 2718SOL    EPW11318   3.001   5.141   1.095  0.3344  0.3081  0.3790
 2719SOL      O11319   2.255   4.526   0.728 -0.0421 -0.3719  0.0125
 2719SOL     H111320   2.184   4.584   0.702 -0.2196 -0.7714 -0.3977
 2719SOL     H211321   2.240   4.510   0.821  1.4148  2.2117  0.7367
 2719SOL    EPW11322   2.246   4.530   0.735  0.0944 -0.1389  0.0460
 2720SOL      O11323   2.758   4.313   0.394 -0.7033 -0.0955 -0.8884
 2720SOL     H111324   2.823   4.287   0.328  0.6240 -0.3640  0.4904
 2720SOL     H211325   2.777   4.257   0.470 -3.6379 -1.3849 -1.0132
 2720SOL    EPW11326   2.767   4.304   0.395 -0.8747 -0.2617 -0.7546
 2721SOL      O11327   4.388   4.016   1.302 -0.6585  0.0466 -0.2476
 2721SOL     H111328   4.441   3.988   1.228 -0.7848 -1.8046  0.3341
 2721SOL     H211329   4.394   4.112   1.302  1.5721 -0.0745 -0.9949
 2721SOL    EPW11330   4.394   4.024   1.294 -0.4340 -0.1638 -0.2653
 2722SOL      O11331   2.004   5.089   2.353  0.3472  0.0003  0.1335
 2722SOL     H111332   2.009   5.000   2.317 -0.0689  0.4034 -0.9490
 2722SOL     H211333   2.094   5.108   2.380  0.1608 -1.3137  1.8034
 2722SOL    EPW11334   2.014   5.081   2.352  0.2829 -0.0969  0.1962
 2723SOL      O11335   3.782   3.997   1.883  0.3821 -0.3896 -0.5563
 2723SOL     H111336   3.804   4.086   1.858  0.7315  0.1607  1.5922
 2723SOL     H211337   3.860   3.946   1.859  1.3631  0.4020  0.8697
 2723SOL    EPW11338   3.793   4.001   1.878  0.5240 -0.2465 -0.1750
 2724SOL      O11339   2.943   4.545   1.432  0.3151  0.0987 -0.1903
 2724SOL     H111340   2.986   4.622   1.394  1.3258 -0.5644 -0.4002
 2724SOL     H211341   2.994   4.471   1.399 -1.3049 -0.7276 -0.8443
 2724SOL    EPW11342   2.953   4.545   1.424  0.2501 -0.0602 -0.2824
 2725SOL      O11343   2.097   4.957   1.728 -0.3821  0.3309  0.0342
 2725SOL     H111344   2.092   4.992   1.639 -2.4938  0.3854  0.1551
 2725SOL     H211345   2.058   5.026   1.782 -0.4564 -0.3336  0.8267
 2725SOL    EPW11346   2.092   4.968   1.724 -0.6153  0.2659  0.1316
 2726SOL      O11347   5.403   2.635   4.103 -0.0051 -0.8007  0.5593
 2726SOL     H111348   5.365   2.714   4.140  0.2972  0.4703 -1.7525
 2726SOL     H211349   5.332   2.571   4.102 -0.7737  0.0549  0.6675
 2726SOL    EPW11350   5.392   2.636   4.107 -0.0548 -0.5738  0.3242
 2727SOL      O11351   2.509   4.815   1.463 -0.0870  0.1934  0.1223
 2727SOL     H111352   2.434   4.758   1.482  0.3385 -0.5873 -0.4725
 2727SOL     H211353   2.509   4.824   1.367 -1.2115  2.6908  0.3242
 2727SOL    EPW11354   2.501   4.809   1.454 -0.1616  0.3765  0.0804
 2728SOL      O11355   4.481   0.707   3.514  0.0082 -0.1340 -0.2047
 2728SOL     H111356   4.531   0.788   3.526 -0.8881 -0.0167  3.1426
 2728SOL     H211357   4.437   0.718   3.430  3.5895  0.8234 -2.0715
 2728SOL    EPW11358   4.482   0.717   3.507  0.2946 -0.0193 -0.0468
 2729SOL      O11359   1.486   3.776   0.467 -0.3129 -0.1435  0.4109
 2729SOL     H111360   1.482   3.806   0.376 -0.4667  0.2700  0.5553
 2729SOL     H211361   1.573   3.735   0.474 -0.3937 -0.3861  0.0134
 2729SOL    EPW11362   1.495   3.775   0.458 -0.3379 -0.1253  0.3839
 2730SOL      O11363   3.751   5.215   0.940  0.2196  0.2922  0.0997
 2730SOL     H111364   3.809   5.273   0.889  3.9382  0.3864  4.1784
 2730SOL     H211365   3.691   5.275   0.984 -0.6202  0.4549 -1.2213
 2730SOL    EPW11366   3.751   5.228   0.939  0.5267  0.3196  0.3939
 2731SOL      O11367   4.174   4.367   0.536  0.5573  0.1641 -0.1663
 2731SOL     H111368   4.129   4.283   0.530  2.6634 -1.0779  0.8325
 2731SOL     H211369   4.263   4.344   0.563  1.1117  2.7366  0.2836
 2731SOL    EPW11370   4.179   4.356   0.538  0.8411  0.3061 -0.0117
 2732SOL      O11371   2.796   4.123   0.615 -0.4238  0.0983  0.1418
 2732SOL     H111372   2.710   4.143   0.653  0.4657 -0.1370  2.3739
 2732SOL     H211373   2.858   4.142   0.685  1.2392 -1.0170 -0.9860
 2732SOL    EPW11374   2.793   4.127   0.627 -0.1515 -0.0458  0.2596
 2733SOL      O11375   2.454   3.756   0.922 -0.6731  0.2730  0.1320
 2733SOL     H111376   2.404   3.820   0.973  0.3651  2.5214 -1.5848
 2733SOL     H211377   2.526   3.806   0.885 -0.1955 -1.7725 -1.7978
 2733SOL    EPW11378   2.456   3.768   0.924 -0.5114  0.2946 -0.2570
 2734SOL      O11379   2.609   4.974   0.993 -0.3374  0.2881 -0.3570
 2734SOL     H111380   2.689   4.959   1.042  0.5159 -0.6333 -2.0016
 2734SOL     H211381   2.543   4.994   1.060  0.9728 -0.1769  1.0878
 2734SOL    EPW11382   2.610   4.975   1.006 -0.1066  0.1402 -0.3783
 2735SOL      O11383   5.221   2.829   3.527 -0.0883 -0.7417 -0.3313
 2735SOL     H111384   5.165   2.895   3.486  2.5860  1.7914 -0.0450
 2735SOL     H211385   5.228   2.760   3.461 -2.0376 -0.2750 -1.0716
 2735SOL    EPW11386   5.216   2.829   3.515 -0.0110 -0.4217 -0.3798
 2736SOL      O11387   0.932   3.202   1.734  0.3221 -0.4617 -0.0059
 2736SOL     H111388   1.002   3.149   1.696  0.1927 -0.1099 -0.7532
 2736SOL     H211389   0.852   3.168   1.694  0.0923 -0.6536  0.6082
 2736SOL    EPW11390   0.931   3.193   1.725  0.2838 -0.4447 -0.0201
 2737SOL      O11391   1.204   3.356   0.751 -0.3150  0.6850 -0.0872
 2737SOL     H111392   1.246   3.422   0.806 -0.7690  0.9956 -0.1130
 2737SOL     H211393   1.241   3.369   0.665 -0.3340  0.8428 -0.0704
 2737SOL    EPW11394   1.212   3.364   0.748 -0.3654  0.7350 -0.0881
 2738SOL      O11395   3.949   5.269   0.748 -0.7326 -0.1879  0.0509
 2738SOL     H111396   4.000   5.298   0.673 -0.1473 -0.3313  0.3888
 2738SOL     H211397   3.934   5.176   0.733 -1.4857 -0.0013 -0.3850
 2738SOL    EPW11398   3.953   5.262   0.739 -0.7505 -0.1833  0.0404
 2739SOL      O11399   3.294   4.024   1.800  0.0424 -0.0938 -0.2181
 2739SOL     H111400   3.365   4.045   1.860  0.3291  0.9063 -0.8890
 2739SOL     H211401   3.309   3.932   1.778  0.2247 -0.3247  0.8404
 2739SOL    EPW11402   3.304   4.016   1.804  0.0924 -0.0118 -0.1768
 2740SOL      O11403   1.684   3.351   1.923  0.0862 -0.2584 -0.7526
 2740SOL     H111404   1.617   3.352   1.855 -0.7886 -1.3601  0.0698
 2740SOL     H211405   1.658   3.280   1.981  1.5866 -0.2331 -0.0260
 2740SOL    EPW11406   1.674   3.344   1.922  0.1529 -0.3733 -0.5873
 2741SOL      O11407   5.589   3.248   4.008  0.0847 -0.2971  0.0079
 2741SOL     H111408   5.548   3.325   4.047  0.6505 -0.3883  0.8085
 2741SOL     H211409   5.616   3.195   4.083 -0.4984 -1.3828 -0.5345
 2741SOL    EPW11410   5.587   3.251   4.020  0.0828 -0.4226  0.0354
 2742SOL      O11411   2.914   3.605   1.025  0.0921 -0.7079  0.8432
 2742SOL     H111412   2.998   3.608   0.979  0.2963  2.5347  1.3369
 2742SOL     H211413   2.933   3.559   1.106  1.1241 -0.9792  0.4579
 2742SOL    EPW11414   2.925   3.600   1.028  0.2240 -0.3909  0.8548
 2743SOL      O11415   2.448   3.975   1.478  0.2078  0.5417 -0.2817
 2743SOL     H111416   2.504   3.925   1.537  0.2986  2.5405  1.3866
 2743SOL     H211417   2.491   3.969   1.393  0.6531 -1.4917  0.0738
 2743SOL    EPW11418   2.458   3.969   1.475  0.2650  0.5380 -0.0658
 2744SOL      O11419   2.172   5.676   0.335 -0.0512  0.0562  0.0606
 2744SOL     H111420   2.228   5.704   0.263  0.1765 -0.9924 -0.1892
 2744SOL     H211421   2.227   5.617   0.387 -0.9790 -1.1900 -0.3373
 2744SOL    EPW11422   2.184   5.672   0.333 -0.1259 -0.1886 -0.0085
 2745SOL      O11423   3.386   4.511   0.593 -0.4420 -0.4805 -0.0879
 2745SOL     H111424   3.413   4.494   0.684 -0.3955  1.5090  0.2851
 2745SOL     H211425   3.421   4.436   0.544 -0.0898 -1.3571  1.4541
 2745SOL    EPW11426   3.393   4.501   0.597 -0.3994 -0.3618  0.1164
 2746SOL      O11427   2.245   4.185   1.440  0.7186  0.7487 -0.0465
 2746SOL     H111428   2.283   4.099   1.422  0.1519 -0.0463  2.3920
 2746SOL     H211429   2.253   4.233   1.358  1.2534 -1.5640 -1.3692
 2746SOL    EPW11430   2.250   4.181   1.429  0.7152  0.4172  0.0725
 2747SOL      O11431   0.596   2.613   3.983  0.7643  0.0770 -0.1747
 2747SOL     H111432   0.614   2.525   4.017 -1.2365 -0.2713  0.0517
 2747SOL     H211433   0.636   2.614   3.896  1.4063 -0.8164  0.1051
 2747SOL    EPW11434   0.602   2.603   3.977  0.6194 -0.0555 -0.1207
 2748SOL      O11435   1.985   4.284   0.790 -0.2629  0.3008 -0.3768
 2748SOL     H111436   2.069   4.294   0.744  0.0129 -1.6595 -0.3570
 2748SOL     H211437   1.993   4.200   0.836 -1.1346  1.4956  2.0288
 2748SOL    EPW11438   1.995   4.276   0.790 -0.3264  0.2192 -0.1181
 2749SOL      O11439   2.761   5.116   1.608 -0.2322  0.6252 -0.1614
 2749SOL     H111440   2.841   5.064   1.603  0.5480  1.8556 -0.4784
 2749SOL     H211441   2.785   5.192   1.660 -1.2651  0.8942 -0.0676
 2749SOL    EPW11442   2.772   5.118   1.613 -0.2592  0.7852 -0.1852
 2750SOL      O11443   2.467   4.972   0.213  0.2010 -0.3427  0.3248
 2750SOL     H111444   2.482   5.066   0.200  0.6131 -0.5331 -0.5609
 2750SOL     H211445   2.376   4.958   0.184  0.1231 -0.2098  0.5036
 2750SOL    EPW11446   2.459   4.981   0.208  0.2367 -0.3489  0.2494
 2751SOL      O11447   2.928   4.570   1.729 -0.3463 -0.3417 -0.4234
 2751SOL     H111448   3.016   4.531   1.729 -0.0215  0.3779 -0.2653
 2751SOL     H211449   2.936   4.647   1.786 -0.9979 -0.0936 -0.6610
 2751SOL    EPW11450   2.939   4.574   1.735 -0.3812 -0.2385 -0.4319
 2752SOL      O11451   3.818   4.144   2.178  0.5345 -0.3747  0.1599
 2752SOL     H111452   3.857   4.137   2.265  0.9193  1.8174  0.2065
 2752SOL     H211453   3.891   4.131   2.118  0.4296 -1.0292  0.1701
 2752SOL    EPW11454   3.830   4.142   2.181  0.5643 -0.2107  0.1659
 2753SOL      O11455   3.570   5.698   0.345  0.2751  0.1883 -0.0349
 2753SOL     H111456   3.553   5.626   0.285  1.2337 -0.3907  0.3836
 2753SOL     H211457   3.495   5.699   0.404 -1.5894  1.9122 -2.3244
 2753SOL    EPW11458   3.560   5.691   0.345  0.1785  0.3105 -0.2345
 2754SOL      O11459   0.419   1.628   3.759  0.0333 -0.6185  0.5199
 2754SOL     H111460   0.451   1.551   3.713  0.1611 -0.7611  0.8449
 2754SOL     H211461   0.432   1.608   3.852  0.1154 -0.1855  0.6048
 2754SOL    EPW11462   0.424   1.618   3.764  0.0557 -0.5875  0.5636
 2755SOL      O11463   2.292   3.734   0.106  0.5404  0.0856  0.5200
 2755SOL     H111464   2.378   3.742   0.065 -0.0163  0.2959 -0.6160
 2755SOL     H211465   2.256   3.653   0.071 -0.2113  0.6078  0.0604
 2755SOL    EPW11466   2.298   3.726   0.098  0.4008  0.1637  0.3498
 2756SOL      O11467   3.159   0.607   1.349  0.2835  0.0857 -0.6750
 2756SOL     H111468   3.158   0.643   1.438  0.8365  0.1176 -0.6811
 2756SOL     H211469   3.070   0.574   1.336  0.0651  0.5164 -0.2884
 2756SOL    EPW11470   3.150   0.607   1.357  0.3192  0.1350 -0.6344
 2757SOL      O11471   2.770   4.739   1.557  0.2470 -0.5479 -0.1735
 2757SOL     H111472   2.679   4.767   1.549 -0.5641 -3.5152 -1.9420
 2757SOL     H211473   2.821   4.820   1.555 -2.3374  1.1321  0.7651
 2757SOL    EPW11474   2.766   4.750   1.556 -0.1152 -0.6852 -0.2620
 2758SOL      O11475   4.763   1.291   3.608  0.0444  0.2427  0.3019
 2758SOL     H111476   4.843   1.240   3.626 -0.2798  0.1450  1.5202
 2758SOL     H211477   4.756   1.350   3.683 -0.8248  0.5050  0.0109
 2758SOL    EPW11478   4.771   1.292   3.618 -0.0829  0.2603  0.4008
 2759SOL      O11479   1.522   4.186   0.264 -1.0391  0.2113  0.0215
 2759SOL     H111480   1.440   4.230   0.241  0.0411  2.1347 -0.1850
 2759SOL     H211481   1.510   4.159   0.355 -1.8719  0.5544  0.0158
 2759SOL    EPW11482   1.512   4.188   0.272 -1.0127  0.4531 -0.0011
 2760SOL      O11483   1.890   4.127   1.142  0.4108 -0.5134 -0.1398
 2760SOL     H111484   1.922   4.094   1.226  4.2933  0.8195 -1.0095
 2760SOL     H211485   1.878   4.221   1.156 -0.2719 -0.5112 -0.7005
 2760SOL    EPW11486   1.892   4.133   1.152  0.7522 -0.3710 -0.2924
 2761SOL      O11487   2.067   5.043   0.874 -0.0158 -0.6822 -0.3064
 2761SOL     H111488   2.118   4.970   0.840  0.6778 -0.2360 -0.2358
 2761SOL     H211489   1.978   5.027   0.843 -0.1046 -2.1682  0.6935
 2761SOL    EPW11490   2.063   5.034   0.867  0.0487 -0.7932 -0.1922
 2762SOL      O11491   3.242   2.997   1.878 -0.5984 -0.2363 -0.5205
 2762SOL     H111492   3.205   3.064   1.935 -0.0806  0.3022 -0.8086
 2762SOL     H211493   3.209   2.914   1.913 -1.2934  0.1744 -0.2053
 2762SOL    EPW11494   3.235   2.995   1.887 -0.6173 -0.1350 -0.5176
 2763SOL      O11495   4.818   5.380   0.207 -0.4918 -0.3788  0.1456
 2763SOL     H111496   4.803   5.324   0.283  2.0253 -0.2078  0.7998
 2763SOL     H211497   4.826   5.468   0.244  0.9071 -0.3137 -0.2857
 2763SOL    EPW11498   4.817   5.384   0.219 -0.0741 -0.3536  0.1694
 2764SOL      O11499   2.009   5.595   1.657  0.3153  0.3308 -0.6863
 2764SOL     H111500   2.055   5.671   1.621 -0.5238  2.2763  2.1889
 2764SOL     H211501   2.079   5.537   1.687  0.9610 -0.0407 -2.7803
 2764SOL    EPW11502   2.021   5.597   1.656  0.2947  0.4987 -0.6029
 2765SOL      O11503   1.611   3.374   0.909 -0.4087 -0.2494  0.3812
 2765SOL     H111504   1.694   3.411   0.938  0.7657 -1.5568 -1.2200
 2765SOL     H211505   1.617   3.281   0.932 -0.2299 -0.9234 -2.2921
 2765SOL    EPW11506   1.621   3.368   0.915 -0.2644 -0.4608 -0.0748
 2766SOL      O11507   3.245   3.159   1.519 -0.1425 -0.0536  0.1096
 2766SOL     H111508   3.244   3.246   1.479  0.1392 -0.4182 -0.6975
 2766SOL     H211509   3.312   3.164   1.586  2.4949 -0.7018 -2.3627
 2766SOL    EPW11510   3.252   3.169   1.522  0.1689 -0.1616 -0.2403
 2767SOL      O11511   0.432   3.783   1.483 -0.0307 -0.0674 -0.2726
 2767SOL     H111512   0.473   3.868   1.471 -0.1287 -0.0392 -0.3992
 2767SOL     H211513   0.356   3.801   1.540  0.1689 -0.1298  0.0166
 2767SOL    EPW11514   0.428   3.794   1.488 -0.0199 -0.0711 -0.2553
 2768SOL      O11515   0.464   4.020   0.419  0.2293 -0.0914  0.2004
 2768SOL     H111516   0.393   3.997   0.479  0.2156  0.3030  0.3392
 2768SOL     H211517   0.543   4.009   0.470  0.3021 -0.8950 -0.0659
 2768SOL    EPW11518   0.465   4.016   0.431  0.2356 -0.1351  0.1868
 2769SOL      O11519   2.645   0.293   2.237  0.2405  0.3326 -0.0108
 2769SOL     H111520   2.713   0.261   2.296 -0.0679  0.4006  0.3826
 2769SOL     H211521   2.616   0.215   2.190  1.4247  0.4983 -1.0467
 2769SOL    EPW11522   2.649   0.281   2.238  0.3339  0.3576 -0.0793
 2770SOL      O11523   3.283   4.325   2.518 -0.2556 -0.7605 -0.1986
 2770SOL     H111524   3.287   4.417   2.490  1.9059 -0.4104  1.1388
 2770SOL     H211525   3.368   4.309   2.558  0.1189 -3.9124 -2.0637
 2770SOL    EPW11526   3.292   4.333   2.519  0.0149 -1.0594 -0.2549
 2771SOL      O11527   2.238   4.800   1.894  0.2159  0.3914 -0.1521
 2771SOL     H111528   2.189   4.861   1.838  0.2573  0.5904  0.0264
 2771SOL     H211529   2.174   4.734   1.920  0.5420 -0.5528 -1.6538
 2771SOL    EPW11530   2.226   4.799   1.891  0.2551  0.3119 -0.2933
 2772SOL      O11531   3.397   0.446   1.895 -0.7703  0.4180  0.2912
 2772SOL     H111532   3.418   0.405   1.979 -0.5486  0.4686  0.2614
 2772SOL     H211533   3.482   0.467   1.858 -0.7994 -1.2905 -0.7936
 2772SOL    EPW11534   3.408   0.444   1.900 -0.7498  0.2411  0.1723
 2773SOL      O11535   1.553   5.476   2.363 -0.1223  0.0906 -0.1960
 2773SOL     H111536   1.522   5.499   2.450  1.5287  0.9783  0.1604
 2773SOL     H211537   1.485   5.418   2.329 -0.7926 -0.2525  1.6611
 2773SOL    EPW11538   1.542   5.472   2.369 -0.0177  0.1487  0.0402
 2774SOL      O11539   3.182   4.108   2.366 -0.1009  0.5705 -0.0980
 2774SOL     H111540   3.102   4.124   2.315 -0.6332  0.1536  0.5865
 2774SOL     H211541   3.211   4.195   2.392 -1.2379  0.6420  0.9939
 2774SOL    EPW11542   3.176   4.119   2.363 -0.2790  0.5336  0.0915
 2775SOL      O11543   1.786   3.816   2.398  0.3282  0.2241  0.3113
 2775SOL     H111544   1.856   3.751   2.402  2.0379  1.8292 -2.3161
 2775SOL     H211545   1.711   3.769   2.361  0.9151 -0.7450  0.3463
 2775SOL    EPW11546   1.785   3.804   2.394  0.5732  0.2919  0.0348
 2776SOL      O11547   1.961   2.948   0.967 -0.4003 -0.0097  0.5425
 2776SOL     H111548   1.978   3.009   1.038 -1.9077 -0.0768  0.9642
 2776SOL     H211549   2.041   2.951   0.914  0.3142  0.8243  1.6474
 2776SOL    EPW11550   1.972   2.955   0.969 -0.4849  0.0722  0.7053
 2777SOL      O11551   2.723   3.874   2.733  0.1275  0.0024 -0.3588
 2777SOL     H111552   2.663   3.803   2.712  0.7072 -0.7788  0.5571
 2777SOL     H211553   2.695   3.948   2.679 -1.1580 -0.5963 -0.5024
 2777SOL    EPW11554   2.714   3.875   2.725  0.0522 -0.1448 -0.2764
 2778SOL      O11555   3.072   4.001   1.945 -0.0676 -0.0999 -0.3222
 2778SOL     H111556   3.143   4.034   1.890  1.5004 -1.3362  0.9198
 2778SOL     H211557   3.116   3.958   2.017 -2.1049  0.4910  1.3156
 2778SOL    EPW11558   3.084   4.000   1.946 -0.1177 -0.1688 -0.0150
 2779SOL      O11559   3.806   0.095   2.563  0.0059 -0.1917  0.3633
 2779SOL     H111560   3.847   0.055   2.486 -1.5302  1.8703 -1.5648
 2779SOL     H211561   3.735   0.035   2.585 -0.4273 -0.0735 -0.6885
 2779SOL    EPW11562   3.803   0.084   2.557 -0.2042  0.0409  0.0454
 2780SOL      O11563   0.089   1.333   1.612  0.3025 -0.2054 -0.0496
 2780SOL     H111564   0.034   1.312   1.537 -0.1568 -0.7860  0.4459
 2780SOL     H211565   0.156   1.265   1.613  0.4198 -0.0907 -0.0438
 2780SOL    EPW11566   0.091   1.324   1.604  0.2660 -0.2551  0.0038
 2781SOL      O11567   2.197   2.879   2.620 -0.4064 -0.1641 -0.1975
 2781SOL     H111568   2.120   2.874   2.676 -0.2050 -1.4325 -0.0182
 2781SOL     H211569   2.232   2.790   2.620 -0.0684 -0.0382 -1.8671
 2781SOL    EPW11570   2.193   2.869   2.626 -0.3489 -0.2860 -0.3565
 2782SOL      O11571   2.385   5.471   3.838  0.2042 -0.0597  0.6086
 2782SOL     H111572   2.299   5.505   3.864 -0.3944 -1.1858  0.1462
 2782SOL     H211573   2.385   5.478   3.742  0.6518 -0.0202  0.6108
 2782SOL    EPW11574   2.376   5.476   3.830  0.1881 -0.1756  0.5595
 2783SOL      O11575   2.605   5.190   1.932  0.0640 -0.1607 -0.1344
 2783SOL     H111576   2.670   5.233   1.876 -1.5943  2.3387 -0.2237
 2783SOL     H211577   2.553   5.137   1.871 -0.3344  0.8021 -0.6454
 2783SOL    EPW11578   2.606   5.189   1.919 -0.1554  0.2087 -0.1984
 2784SOL      O11579   1.612   5.222   2.101 -0.1975  0.6820  0.4870
 2784SOL     H111580   1.542   5.200   2.038 -0.5695 -1.0955  1.4767
 2784SOL     H211581   1.578   5.192   2.185  2.0506 -0.8740  0.8707
 2784SOL    EPW11582   1.601   5.216   2.103  0.0026  0.3264  0.6335
 2785SOL      O11583   2.405   5.416   1.018 -0.2764  0.7184  0.5781
 2785SOL     H111584   2.420   5.370   1.101  0.7159  0.3386  0.1886
 2785SOL     H211585   2.399   5.509   1.043  1.2619  0.7304  0.9217
 2785SOL    EPW11586   2.406   5.421   1.030 -0.0064  0.6792  0.5732
 2786SOL      O11587   2.954   4.923   2.397 -0.2215  0.1090  0.0520
 2786SOL     H111588   2.998   4.841   2.372 -1.3303 -0.0666 -1.3732
 2786SOL     H211589   3.022   4.990   2.390  0.3781 -0.4973 -0.0033
 2786SOL    EPW11590   2.966   4.921   2.394 -0.2758  0.0256 -0.1059
 2787SOL      O11591   1.291   4.329   2.603 -0.7121  0.6024 -0.5664
 2787SOL     H111592   1.301   4.284   2.687 -0.8694 -2.2061 -1.9828
 2787SOL     H211593   1.378   4.328   2.564 -1.1865 -0.6783 -1.6450
 2787SOL    EPW11594   1.301   4.324   2.608 -0.7795  0.1662 -0.8325
 2788SOL      O11595   3.055   4.831   3.867  0.2054  0.4771  0.6869
 2788SOL     H111596   3.023   4.889   3.797 -0.2974  0.7337  1.1284
 2788SOL     H211597   3.148   4.850   3.872  0.3680 -0.0144 -0.3639
 2788SOL    EPW11598   3.061   4.839   3.860  0.1691  0.4520  0.6219
 2789SOL      O11599   2.309   3.938   1.076  0.7218 -0.2360 -0.0449
 2789SOL     H111600   2.267   4.017   1.041  0.4820 -0.7077 -0.8319
 2789SOL     H211601   2.237   3.882   1.102  0.8311 -1.2056 -1.7467
 2789SOL    EPW11602   2.297   3.941   1.075  0.7079 -0.3898 -0.3104
 2790SOL      O11603   3.333   0.812   3.635 -0.2965  0.5654  0.7401
 2790SOL     H111604   3.287   0.879   3.585  0.5837  0.1801 -0.6124
 2790SOL     H211605   3.411   0.856   3.668 -0.4154  0.5762  1.0077
 2790SOL    EPW11606   3.337   0.824   3.633 -0.2153  0.5255  0.6244
 2791SOL      O11607   2.416   3.900   2.157 -0.1414  0.2386 -0.5570
 2791SOL     H111608   2.399   3.852   2.076 -0.1147  0.0150 -0.4317
 2791SOL     H211609   2.510   3.918   2.155 -0.7461  3.5968 -2.4170
 2791SOL    EPW11610   2.424   3.897   2.148 -0.2031  0.5730 -0.7421
 2792SOL      O11611   3.143   4.714   2.383 -0.5843  0.5168 -0.0966
 2792SOL     H111612   3.214   4.667   2.426  0.1159  2.2718  0.7272
 2792SOL     H211613   3.105   4.650   2.323  0.7341 -0.8933  0.5263
 2792SOL    EPW11614   3.146   4.702   2.381 -0.3690  0.5536  0.0577
 2793SOL      O11615   2.590   5.072   2.176 -0.2315  0.7102  0.0164
 2793SOL     H111616   2.609   5.145   2.117  1.2970 -0.4757 -0.9803
 2793SOL     H211617   2.621   5.102   2.261 -0.3096  1.5167 -0.2341
 2793SOL    EPW11618   2.595   5.083   2.179 -0.0768  0.6697 -0.1166
 2794SOL      O11619   2.098   5.544   3.957  0.1475 -0.7372  0.2526
 2794SOL     H111620   2.082   5.516   3.868 -1.0575  0.7433 -0.0209
 2794SOL     H211621   2.108   5.463   4.007  0.4299 -1.5716 -1.1413
 2794SOL    EPW11622   2.098   5.533   3.953  0.0491 -0.6683  0.0747
 2795SOL      O11623   3.574   4.444   1.990  0.2035 -0.7705 -0.0304
 2795SOL     H111624   3.666   4.429   2.009  0.9864  1.5367 -1.7050
 2795SOL     H211625   3.527   4.396   2.058  2.6725  0.5443  2.7284
 2795SOL    EPW11626   3.579   4.437   1.999  0.5504 -0.3841  0.0852
 2796SOL      O11627   3.838   4.826   3.448  0.1890  0.5472 -0.3030
 2796SOL     H111628   3.930   4.853   3.451  0.5314 -0.5497 -0.8879
 2796SOL     H211629   3.823   4.802   3.357 -0.2361 -0.8507  0.1276
 2796SOL    EPW11630   3.846   4.827   3.439  0.1802  0.2811 -0.3195
 2797SOL      O11631   0.093   1.409   0.179 -0.3463  0.0424  0.3616
 2797SOL     H111632   0.005   1.384   0.151 -1.6254  1.7935  2.6275
 2797SOL     H211633   0.123   1.471   0.112 -1.3332  0.3494  0.1977
 2797SOL    EPW11634   0.087   1.413   0.169 -0.5880  0.2620  0.5858
 2798SOL      O11635   1.711   5.294   1.112  0.5742  0.0129  0.0739
 2798SOL     H111636   1.691   5.354   1.184 -1.4893  2.2551 -2.2506
 2798SOL     H211637   1.794   5.325   1.077 -0.7078  1.9176 -1.4151
 2798SOL    EPW11638   1.717   5.304   1.116  0.2173  0.4553 -0.3329
 2799SOL      O11639   2.495   5.691   2.684 -0.3286 -0.1413 -0.5664
 2799SOL     H111640   2.591   5.695   2.678 -0.2691 -0.2185  0.3058
 2799SOL     H211641   2.472   5.754   2.753 -0.7480 -1.5391  0.6044
 2799SOL    EPW11642   2.503   5.698   2.691 -0.3670 -0.2987 -0.3484
 2800SOL      O11643   2.734   4.676   3.301 -0.1585  0.5352 -0.4489
 2800SOL     H111644   2.649   4.632   3.299  0.2929 -0.3368 -0.6728
 2800SOL     H211645   2.781   4.634   3.373 -0.7579  2.6134  1.2066
 2800SOL    EPW11646   2.730   4.667   3.308 -0.1743  0.6639 -0.2962
 2801SOL      O11647   0.781   1.704   0.477 -0.2135 -0.2240 -0.0331
 2801SOL     H111648   0.690   1.728   0.461 -0.3810 -1.3857 -0.8661
 2801SOL     H211649   0.832   1.767   0.426 -0.5637  0.2899  0.2585
 2801SOL    EPW11650   0.777   1.713   0.470 -0.2688 -0.2931 -0.0909
 2802SOL      O11651   2.413   5.141   3.831  0.2149 -0.0630  0.3720
 2802SOL     H111652   2.404   5.112   3.922  1.3333 -1.2351  0.1233
 2802SOL     H211653   2.375   5.229   3.830 -1.6290 -0.8171  1.5383
 2802SOL    EPW11654   2.408   5.147   3.841  0.1375 -0.2685  0.4699
 2803SOL      O11655   3.034   0.957   1.497  0.4929 -0.4162  0.6124
 2803SOL     H111656   2.992   0.873   1.482 -1.1424  0.2080  1.5555
 2803SOL     H211657   3.003   0.984   1.584  2.3935  0.3358  1.0938
 2803SOL    EPW11658   3.027   0.951   1.505  0.5212 -0.2694  0.7643
 2804SOL      O11659   3.941   4.105   2.419  0.0229  0.3689  0.3830
 2804SOL     H111660   3.937   4.010   2.426  2.2531  0.1393 -0.8741
 2804SOL     H211661   3.858   4.136   2.456 -1.9651 -2.1835 -1.7460
 2804SOL    EPW11662   3.932   4.098   2.424  0.0487  0.0721  0.0218
 2805SOL      O11663   1.934   1.423   0.353 -0.0709  0.4421 -0.4344
 2805SOL     H111664   1.921   1.370   0.275  0.0667  1.7320 -1.3488
 2805SOL     H211665   1.851   1.418   0.400 -0.3955  0.2694 -1.0311
 2805SOL    EPW11666   1.924   1.417   0.350 -0.0908  0.5612 -0.5956
 2806SOL      O11667   2.496   4.748   3.830 -0.1898 -0.2158  0.7387
 2806SOL     H111668   2.472   4.746   3.923 -0.3064 -0.6600  0.7042
 2806SOL     H211669   2.505   4.655   3.807 -0.5824 -0.1219  0.1992
 2806SOL    EPW11670   2.494   4.738   3.837 -0.2441 -0.2531  0.6775
 2807SOL      O11671   3.338   4.329   1.837 -0.2518  0.0391  0.4403
 2807SOL     H111672   3.326   4.326   1.932  0.0916 -1.6551  0.4584
 2807SOL     H211673   3.421   4.285   1.822 -0.9361 -0.9029 -0.7259
 2807SOL    EPW11674   3.345   4.324   1.845 -0.2881 -0.2421  0.3179
 2808SOL      O11675   2.917   5.003   3.694  0.2189  0.2428 -0.7548
 2808SOL     H111676   2.995   4.989   3.641  0.1202  2.0331 -1.4183
 2808SOL     H211677   2.854   4.938   3.661  0.0612  1.5064 -3.0677
 2808SOL    EPW11678   2.918   4.994   3.685  0.1915  0.5686 -1.0723
 2809SOL      O11679   3.631   4.942   3.597  0.6652 -0.0563  0.2444
 2809SOL     H111680   3.689   4.918   3.525 -2.6738  0.0980 -2.6481
 2809SOL     H211681   3.595   4.858   3.627  0.9270  0.0141  0.7650
 2809SOL    EPW11682   3.633   4.930   3.593  0.3369 -0.0323 -0.0087
 2810SOL      O11683   3.162   3.802   3.774 -0.1067 -0.9353 -0.3923
 2810SOL     H111684   3.167   3.868   3.705  0.3818 -0.9313 -0.3569
 2810SOL     H211685   3.143   3.720   3.728 -0.6149 -0.7903 -0.4460
 2810SOL    EPW11686   3.160   3.801   3.762 -0.1088 -0.9194 -0.3943
 2811SOL      O11687   4.655   4.571   3.749  0.0738  0.2171  0.2278
 2811SOL     H111688   4.573   4.616   3.726  0.2333  1.3134  1.6946
 2811SOL     H211689   4.630   4.479   3.759 -0.9134  0.4909  0.3323
 2811SOL    EPW11690   4.643   4.566   3.748 -0.0145  0.3632  0.3954
 2812SOL      O11691   3.879   3.078   4.001 -0.3106 -0.1581 -0.6566
 2812SOL     H111692   3.807   3.023   3.969  0.1237 -0.3166 -1.3617
 2812SOL     H211693   3.920   3.113   3.922  1.1237 -0.9898 -0.2943
 2812SOL    EPW11694   3.875   3.076   3.989 -0.1112 -0.2638 -0.6932
 2813SOL      O11695   1.548   1.329   3.853 -0.1223  0.7978 -0.3454
 2813SOL     H111696   1.481   1.331   3.784  0.3834 -0.5613 -0.8917
 2813SOL     H211697   1.509   1.277   3.923  0.9772 -1.4443 -1.3492
 2813SOL    EPW11698   1.537   1.324   3.853  0.0489  0.4137 -0.5107
 2814SOL      O11699   4.209   3.980   3.236 -0.2944 -0.1270 -0.0722
 2814SOL     H111700   4.284   4.005   3.182 -0.6517  0.8207 -0.1308
 2814SOL     H211701   4.216   3.885   3.244 -0.5079 -0.3501 -2.2051
 2814SOL    EPW11702   4.217   3.972   3.231 -0.3553 -0.0497 -0.3060
 2815SOL      O11703   3.046   0.614   2.286 -0.0942 -0.4386  0.0609
 2815SOL     H111704   3.037   0.524   2.255  0.3226 -0.7630  0.8539
 2815SOL     H211705   3.072   0.664   2.208  2.4144 -1.5031  0.1628
 2815SOL    EPW11706   3.048   0.610   2.274  0.2179 -0.5868  0.1564
 2816SOL      O11707   2.678   5.464   2.561  0.1656  0.6293 -0.9273
 2816SOL     H111708   2.593   5.480   2.602  0.6413 -0.2072  0.4570
 2816SOL     H211709   2.667   5.491   2.470 -2.2611 -1.6393 -1.3493
 2816SOL    EPW11710   2.668   5.469   2.556 -0.0425  0.2981 -0.8246
 2817SOL      O11711   2.929   4.050   2.615 -0.1440  0.1120 -0.0419
 2817SOL     H111712   3.002   4.112   2.620  0.2069 -0.4789  2.9392
 2817SOL     H211713   2.854   4.103   2.590  0.6916  1.2676 -0.1229
 2817SOL    EPW11714   2.929   4.062   2.613 -0.0174  0.1722  0.2675
 2818SOL      O11715   1.009   3.689   1.845  0.2777 -0.4778  0.0775
 2818SOL     H111716   1.012   3.770   1.896  0.4021  0.3328 -1.1990
 2818SOL     H211717   1.017   3.619   1.910  2.9297  0.5916  0.9276
 2818SOL    EPW11718   1.010   3.690   1.858  0.5739 -0.2773  0.0320
 2819SOL      O11719   3.073   5.866   0.822  0.0875  0.0296  0.6814
 2819SOL     H111720   3.109   5.863   0.733 -1.3923  0.1426  0.0619
 2819SOL     H211721   2.985   5.902   0.811  0.2948  1.1354  2.3317
 2819SOL    EPW11722   3.067   5.870   0.811 -0.0482  0.1596  0.7913
 2820SOL      O11723   3.034   5.366   3.879  0.5476 -0.1302 -0.0031
 2820SOL     H111724   3.022   5.309   3.955  1.6241  1.5778  1.5199
 2820SOL     H211725   3.105   5.326   3.830  2.3172  0.6475  1.8493
 2820SOL    EPW11726   3.040   5.356   3.882  0.8512  0.1350  0.3570
 2821SOL      O11727   1.213   5.685   1.457 -0.3459  0.3789  0.1860
 2821SOL     H111728   1.208   5.643   1.371 -0.3460  0.4798  0.1367
 2821SOL     H211729   1.151   5.636   1.511  1.1338 -0.9943  0.6802
 2821SOL    EPW11730   1.206   5.675   1.453 -0.1881  0.2431  0.2335
 2822SOL      O11731   0.497   1.098   0.011  0.1848  0.3897  0.7757
 2822SOL     H111732   0.482   1.031  -0.056  1.1341  0.2891  0.6489
 2822SOL     H211733   0.411   1.135   0.029  0.2637  2.3139 -2.4551
 2822SOL    EPW11734   0.486   1.094   0.006  0.2945  0.5842  0.4175
 2823SOL      O11735   4.009   0.184   3.200  0.2201 -0.5704  0.1196
 2823SOL     H111736   4.052   0.105   3.168  0.9469 -0.0671 -0.1779
 2823SOL     H211737   4.005   0.172   3.295  0.4740 -0.8975  0.0903
 2823SOL    EPW11738   4.013   0.174   3.207  0.3247 -0.5516  0.0847
 2824SOL      O11739   2.737   0.306   1.543 -0.0532  0.3367 -0.0914
 2824SOL     H111740   2.654   0.301   1.590  0.1339 -0.7621  0.1330
 2824SOL     H211741   2.714   0.285   1.452  0.3834 -2.8532  0.4578
 2824SOL    EPW11742   2.726   0.303   1.538  0.0134 -0.1208 -0.0089
 2825SOL      O11743   2.779   4.955   3.281 -0.5390 -0.6855  0.2942
 2825SOL     H111744   2.721   5.014   3.329  0.7458 -0.5073  1.6351
 2825SOL     H211745   2.733   4.871   3.281 -1.9931  0.0773 -0.9088
 2825SOL    EPW11746   2.768   4.952   3.286 -0.5571 -0.5851  0.3089
 2826SOL      O11747   3.278   4.857   1.958  0.4586 -0.2944 -0.1270
 2826SOL     H111748   3.264   4.949   1.977  0.2517 -0.6631  1.6535
 2826SOL     H211749   3.335   4.826   2.029 -1.5881 -2.0985  0.8007
 2826SOL    EPW11750   3.282   4.863   1.968  0.2182 -0.5262  0.1619
 2827SOL      O11751   3.334   2.381   0.508  0.0277  0.4873  0.1049
 2827SOL     H111752   3.257   2.434   0.530 -2.0304 -2.6452  0.7470
 2827SOL     H211753   3.336   2.382   0.412 -1.0267  0.3517  0.0697
 2827SOL    EPW11754   3.326   2.387   0.500 -0.3043  0.1387  0.1696
 2828SOL      O11755   2.505   4.928   3.616 -0.5578  0.4768 -0.4512
 2828SOL     H111756   2.465   4.878   3.687  0.6080 -1.2395 -0.9815
 2828SOL     H211757   2.431   4.949   3.558 -1.1768  0.0424  0.1693
 2828SOL    EPW11758   2.493   4.925   3.617 -0.4994  0.2473 -0.4416
 2829SOL      O11759   2.241   0.455   2.820  0.1038  0.4493 -0.2368
 2829SOL     H111760   2.215   0.401   2.895  0.3627  0.7910  0.1047
 2829SOL     H211761   2.222   0.545   2.848  1.6974  0.7086  0.0370
 2829SOL    EPW11762   2.236   0.459   2.831  0.3014  0.5134 -0.1712
 2830SOL      O11763   1.966   4.575   4.085  0.0073 -0.0016 -0.4333
 2830SOL     H111764   1.911   4.499   4.067  0.7007 -0.6934  0.3097
 2830SOL     H211765   2.055   4.545   4.067  0.2917  0.6058 -0.0531
 2830SOL    EPW11766   1.970   4.564   4.081  0.1116 -0.0106 -0.3134
 2831SOL      O11767   0.857   4.856   1.917 -0.3355 -0.2544 -0.6512
 2831SOL     H111768   0.916   4.867   1.992  0.7052  2.8876 -1.8564
 2831SOL     H211769   0.884   4.773   1.878  1.6699 -0.0595  0.2621
 2831SOL    EPW11770   0.867   4.848   1.920 -0.0106  0.1015 -0.6823
 2832SOL      O11771   1.694   5.338   3.495  0.0876 -0.5429 -0.1556
 2832SOL     H111772   1.680   5.406   3.561  1.8715 -1.1858  0.9251
 2832SOL     H211773   1.738   5.267   3.543  0.4275 -1.4693 -1.8097
 2832SOL    EPW11774   1.697   5.337   3.507  0.3141 -0.7103 -0.2167
 2833SOL      O11775   0.331   3.268   3.910 -0.0819 -0.0957  0.2063
 2833SOL     H111776   0.253   3.303   3.953 -1.0652  0.1911 -1.7720
 2833SOL     H211777   0.395   3.339   3.916 -0.5030  0.2753  0.3891
 2833SOL    EPW11778   0.329   3.279   3.916 -0.2317 -0.0255  0.0147
 2834SOL      O11779   5.680   0.835   0.704  0.2431 -0.0520  0.4132
 2834SOL     H111780   5.653   0.759   0.756 -0.1524 -0.7151 -0.7592
 2834SOL     H211781   5.598   0.874   0.674  0.5001 -0.5759 -1.0102
 2834SOL    EPW11782   5.668   0.831   0.707  0.2284 -0.1786  0.1363
 2835SOL      O11783   2.037   1.161   1.982 -0.2759  0.1635 -0.2799
 2835SOL     H111784   2.087   1.107   2.043 -0.3322  0.7773  0.3160
 2835SOL     H211785   2.103   1.210   1.933 -0.2782  0.8910  0.4296
 2835SOL    EPW11786   2.049   1.161   1.983 -0.2822  0.3066 -0.1407
 2836SOL      O11787   5.373   3.337   0.669  0.4304 -0.0045 -0.5883
 2836SOL     H111788   5.376   3.282   0.746 -1.5818  0.8454  0.1372
 2836SOL     H211789   5.459   3.379   0.665  1.7353 -2.6395 -0.7820
 2836SOL    EPW11790   5.383   3.336   0.677  0.3549 -0.1949 -0.5316
 2837SOL      O11791   1.807   4.772   1.321 -0.0352  0.4461  0.1089
 2837SOL     H111792   1.748   4.765   1.245  1.3357 -1.7571 -0.8105
 2837SOL     H211793   1.750   4.756   1.396 -1.0555  0.7438 -0.5797
 2837SOL    EPW11794   1.794   4.770   1.321  0.0022  0.2428 -0.0627
 2838SOL      O11795   2.693   0.096   3.565 -0.1342  0.3262 -0.1814
 2838SOL     H111796   2.602   0.123   3.579 -0.4811 -0.6710 -0.4422
 2838SOL     H211797   2.693   0.001   3.580  0.8825  0.3298 -0.0938
 2838SOL    EPW11798   2.683   0.089   3.568 -0.0628  0.2202 -0.1999
 2839SOL      O11799   3.632   4.686   3.979  0.1417 -0.1123 -0.7115
 2839SOL     H111800   3.707   4.639   3.943  1.2774  1.3042 -0.2380
 2839SOL     H211801   3.616   4.644   4.064  1.8232  0.9884  0.1877
 2839SOL    EPW11802   3.638   4.677   3.984  0.4422  0.1563 -0.5651
 2840SOL      O11803   2.827   5.146   0.408 -0.3852 -0.1568 -0.0068
 2840SOL     H111804   2.818   5.199   0.329  0.6398 -1.4912 -1.0374
 2840SOL     H211805   2.920   5.126   0.412 -0.6306 -1.1000  0.8855
 2840SOL    EPW11806   2.836   5.150   0.400 -0.3021 -0.3997 -0.0215
 2841SOL      O11807   2.692   5.075   1.294 -0.2344  0.1494 -0.1117
 2841SOL     H111808   2.743   4.998   1.268  0.1430  0.4263 -0.2118
 2841SOL     H211809   2.690   5.071   1.389 -1.9266 -1.0640 -0.1747
 2841SOL    EPW11810   2.697   5.066   1.301 -0.3746  0.0495 -0.1291
 2842SOL      O11811   3.169   5.102   2.453 -0.1588  0.0036 -0.1715
 2842SOL     H111812   3.238   5.106   2.387 -0.6137  0.3981 -0.6292
 2842SOL     H211813   3.193   5.028   2.509  1.1507  0.7501  0.2559
 2842SOL    EPW11814   3.179   5.094   2.452 -0.0676  0.1253 -0.1748
 2843SOL      O11815   3.475   4.465   2.787  0.2800 -0.2560  0.4766
 2843SOL     H111816   3.470   4.530   2.716  1.0964 -1.5869 -0.8249
 2843SOL     H211817   3.563   4.428   2.780  0.2817 -0.5937  2.0454
 2843SOL    EPW11818   3.484   4.468   2.779  0.3673 -0.4340  0.5051
 2844SOL      O11819   2.857   5.276   2.394  0.5095  0.1420 -0.2459
 2844SOL     H111820   2.877   5.369   2.405  0.1723  0.2640 -0.6571
 2844SOL     H211821   2.864   5.239   2.482 -0.1284  0.7021  0.0373
 2844SOL    EPW11822   2.860   5.282   2.404  0.4055  0.2148 -0.2596
 2845SOL      O11823   4.310   4.300   3.691  0.3112 -0.0719 -0.3643
 2845SOL     H111824   4.266   4.323   3.609  1.2820  0.0444 -0.8608
 2845SOL     H211825   4.333   4.208   3.681 -0.0998 -0.2208  0.0296
 2845SOL    EPW11826   4.307   4.293   3.681  0.3709 -0.0754 -0.3753
 2846SOL      O11827   2.241   4.768   1.528 -0.2223 -0.0052  0.0702
 2846SOL     H111828   2.175   4.819   1.575 -0.0686 -1.7571  2.2725
 2846SOL     H211829   2.190   4.709   1.473 -0.5593 -1.5306  1.9580
 2846SOL    EPW11830   2.228   4.767   1.527 -0.2418 -0.3548  0.5065
 2847SOL      O11831   2.688   4.427   2.936  0.2401 -0.1957 -0.3576
 2847SOL     H111832   2.765   4.446   2.989  0.7573 -2.7567 -0.1265
 2847SOL     H211833   2.721   4.427   2.846  0.4478 -0.9800 -0.2825
 2847SOL    EPW11834   2.700   4.429   2.932  0.3175 -0.5526 -0.3250
 2848SOL      O11835   0.869   5.017   1.524 -0.0342  0.4415 -0.5855
 2848SOL     H111836   0.868   5.111   1.540 -1.5288  0.2534  0.5095
 2848SOL     H211837   0.808   5.004   1.451 -0.6071  0.2295 -0.0802
 2848SOL    EPW11838   0.862   5.025   1.518 -0.2548  0.3989 -0.4148
 2849SOL      O11839   3.248   3.735   4.146 -0.3938 -0.3931 -0.1710
 2849SOL     H111840   3.176   3.776   4.194 -1.6367  0.2679 -2.5081
 2849SOL     H211841   3.289   3.807   4.099  1.0196 -0.9789  0.1306
 2849SOL    EPW11842   3.245   3.747   4.146 -0.3756 -0.3851 -0.3882
 2850SOL      O11843   2.688   1.138   3.672 -0.5300 -0.0361  0.0364
 2850SOL     H111844   2.631   1.148   3.748 -0.9610 -1.1501 -0.1357
 2850SOL     H211845   2.673   1.218   3.621 -0.4512  0.5832  0.9709
 2850SOL    EPW11846   2.680   1.148   3.674 -0.5676 -0.0889  0.1177
 2851SOL      O11847   4.253   5.256   3.307 -0.3931 -0.2892 -0.4502
 2851SOL     H111848   4.337   5.281   3.268  0.7554 -1.2795  1.3076
 2851SOL     H211849   4.247   5.162   3.293 -1.0629 -0.2771 -0.2593
 2851SOL    EPW11850   4.261   5.249   3.301 -0.3421 -0.3935 -0.2423
 2852SOL      O11851   3.865   3.833   2.421 -0.3838 -0.7341 -0.2164
 2852SOL     H111852   3.836   3.850   2.331 -0.9957 -0.4598  0.0276
 2852SOL     H211853   3.935   3.768   2.412  1.6963  1.5323 -1.1542
 2852SOL    EPW11854   3.869   3.828   2.411 -0.2272 -0.4631 -0.2904
 2853SOL      O11855   0.293   3.773   2.244  0.0154  0.1385  0.1492
 2853SOL     H111856   0.281   3.849   2.301  1.1778 -1.0142  2.0098
 2853SOL     H211857   0.302   3.810   2.156 -0.0984  2.0957  0.9324
 2853SOL    EPW11858   0.293   3.785   2.241  0.1272  0.2243  0.4312
 2854SOL      O11859   2.963   5.536   2.428 -0.3443 -0.6153 -0.1640
 2854SOL     H111860   3.044   5.506   2.385 -0.6481 -1.2065 -0.3336
 2854SOL     H211861   2.993   5.600   2.493 -0.0020  1.3545 -2.1965
 2854SOL    EPW11862   2.975   5.539   2.430 -0.3402 -0.4683 -0.3989
 2855SOL      O11863   1.386   4.410   3.125 -0.0549 -0.0987  0.2294
 2855SOL     H111864   1.447   4.340   3.150  1.1245  0.1835 -1.7301
 2855SOL     H211865   1.333   4.424   3.203  0.5883 -2.2427  1.1040
 2855SOL    EPW11866   1.387   4.404   3.136  0.1395 -0.2973  0.1137
 2856SOL      O11867   2.389   4.888   2.393 -0.5830  0.0788 -0.1490
 2856SOL     H111868   2.345   4.843   2.321  0.9730 -1.1944 -0.3237
 2856SOL     H211869   2.480   4.895   2.364 -0.1808  0.5536  1.2266
 2856SOL    EPW11870   2.394   4.884   2.382 -0.3741 -0.0064 -0.0209
 2857SOL      O11871   3.130   3.044   1.097  0.5419 -0.2289  0.1423
 2857SOL     H111872   3.103   2.977   1.160  1.2028  1.4189  2.2449
 2857SOL     H211873   3.102   3.126   1.137  1.3970  0.8857 -1.5063
 2857SOL    EPW11874   3.124   3.046   1.108  0.7036  0.0658  0.1907
 2858SOL      O11875   3.731   4.757   3.190 -0.0642  0.4706 -0.8578
 2858SOL     H111876   3.643   4.791   3.176 -0.6534 -1.4694 -2.0301
 2858SOL     H211877   3.721   4.662   3.187  1.7494  0.1890  1.0360
 2858SOL    EPW11878   3.721   4.750   3.188  0.0664  0.2336 -0.7808
 2859SOL      O11879   5.200   3.147   0.196 -0.3186 -0.2731  0.2849
 2859SOL     H111880   5.168   3.236   0.213  0.8597 -0.4444  3.7666
 2859SOL     H211881   5.280   3.160   0.145 -0.3745  0.6190  0.4085
 2859SOL    EPW11882   5.205   3.158   0.192 -0.1989 -0.1962  0.6695
 2860SOL      O11883   1.571   1.986   3.827 -0.9445 -0.3369 -0.6201
 2860SOL     H111884   1.509   1.915   3.845 -1.4216 -0.0804 -1.2155
 2860SOL     H211885   1.598   1.971   3.736  1.3443 -1.5694  0.2286
 2860SOL    EPW11886   1.567   1.977   3.819 -0.7512 -0.4410 -0.5931
 2861SOL      O11887   3.303   4.774   2.827 -0.0983  0.5984  0.7450
 2861SOL     H111888   3.392   4.806   2.837 -0.0850  0.9764 -0.4814
 2861SOL     H211889   3.310   4.679   2.837  0.4836  0.5967  0.3238
 2861SOL    EPW11890   3.313   4.767   2.829 -0.0348  0.6386  0.5692
 2862SOL      O11891   2.930   5.757   3.262 -0.7522  0.3657  0.3330
 2862SOL     H111892   2.850   5.781   3.216 -0.4706  2.9444  1.0643
 2862SOL     H211893   2.904   5.686   3.322 -1.6084 -1.4311 -2.1114
 2862SOL    EPW11894   2.919   5.752   3.264 -0.8135  0.4491  0.1503
 2863SOL      O11895   2.749   0.663   2.928  0.5420 -0.2438 -0.0724
 2863SOL     H111896   2.767   0.633   2.839  1.0611  0.1572 -0.1092
 2863SOL     H211897   2.753   0.584   2.981  0.1734 -0.4925 -0.4144
 2863SOL    EPW11898   2.751   0.651   2.924  0.5580 -0.2276 -0.1128
 2864SOL      O11899   3.156   4.246   1.183 -0.4051 -0.0729 -0.4343
 2864SOL     H111900   3.142   4.260   1.277  3.6654 -1.0405  0.4176
 2864SOL     H211901   3.166   4.151   1.174 -0.2974  0.0515 -1.7856
 2864SOL    EPW11902   3.155   4.237   1.192  0.0406 -0.1629 -0.4876
 2865SOL      O11903   2.802   4.304   1.082  0.0294  0.2498  0.2655
 2865SOL     H111904   2.842   4.387   1.106  0.8020 -0.1731  0.4582
 2865SOL     H211905   2.863   4.265   1.019 -1.7776  1.1725 -2.1359
 2865SOL    EPW11906   2.813   4.309   1.078 -0.0809  0.3031  0.0299
 2866SOL      O11907   2.423   5.408   2.641  0.1019 -0.2250 -0.2096
 2866SOL     H111908   2.358   5.450   2.696  0.5243  0.8406 -0.5041
 2866SOL     H211909   2.376   5.387   2.560  0.8063  3.3017 -1.6270
 2866SOL    EPW11910   2.411   5.410   2.638  0.2221  0.2649 -0.3923
 2867SOL      O11911   3.013   1.982   3.776 -0.1505  0.1050 -0.9927
 2867SOL     H111912   2.929   1.946   3.805 -0.1258  0.1824 -0.8199
 2867SOL     H211913   2.990   2.058   3.723 -0.2438 -0.9459 -2.4911
 2867SOL    EPW11914   3.002   1.986   3.774 -0.1578  0.0012 -1.1341
 2868SOL      O11915   3.844   3.301   2.457 -0.0506  0.3779 -0.6599
 2868SOL     H111916   3.795   3.383   2.448  1.5180  1.0919 -3.0121
 2868SOL     H211917   3.862   3.274   2.367  1.6873 -1.2006  0.1354
 2868SOL    EPW11918   3.840   3.307   2.447  0.3021  0.2857 -0.8260
 2869SOL      O11919   1.069   4.784   2.657 -0.0817 -0.0210  0.0100
 2869SOL     H111920   1.093   4.797   2.749 -0.0939 -0.6258  0.1046
 2869SOL     H211921   1.132   4.720   2.625  0.8968  1.3640 -0.8452
 2869SOL    EPW11922   1.078   4.778   2.664  0.0214  0.0623 -0.0711
 2870SOL      O11923   2.223   3.768   1.929  0.5562  0.1122 -0.9637
 2870SOL     H111924   2.241   3.693   1.873 -1.1948 -0.6867 -0.4913
 2870SOL     H211925   2.182   3.833   1.871  1.0722  0.2892 -1.1356
 2870SOL    EPW11926   2.220   3.767   1.917  0.4245  0.0459 -0.9317
 2871SOL      O11927   2.024   0.169   1.783 -0.0387 -0.2237 -0.0777
 2871SOL     H111928   2.088   0.099   1.770  0.1634 -0.3236  1.3950
 2871SOL     H211929   1.944   0.123   1.808 -0.8636 -0.1377 -2.4083
 2871SOL    EPW11930   2.022   0.156   1.784 -0.1051 -0.2252 -0.1692
 2872SOL      O11931   2.428   0.468   2.341  0.2193 -0.0024  0.0228
 2872SOL     H111932   2.407   0.417   2.420  0.3187  2.1587  1.4653
 2872SOL     H211933   2.513   0.434   2.313  0.6248 -0.1322  1.3894
 2872SOL    EPW11934   2.435   0.459   2.346  0.2732  0.2143  0.3225
 2873SOL      O11935   3.519   5.337   2.600  0.7358  0.3774 -0.0713
 2873SOL     H111936   3.436   5.293   2.622  1.3336  0.2847  2.0901
 2873SOL     H211937   3.538   5.307   2.511 -1.0998 -0.2901 -0.2770
 2873SOL    EPW11938   3.512   5.329   2.593  0.6038  0.2963  0.1373
 2874SOL      O11939   0.134   3.554   0.045  0.1794 -0.2718 -0.4056
 2874SOL     H111940   0.081   3.562   0.125  0.6800 -1.3005  0.0314
 2874SOL     H211941   0.166   3.643   0.030  1.2066 -0.3170  1.3232
 2874SOL    EPW11942   0.132   3.565   0.052  0.3424 -0.3864 -0.1745
 2875SOL      O11943   3.288   4.289   3.725  0.0834  0.4905  0.1933
 2875SOL     H111944   3.377   4.303   3.692 -0.4854 -0.6266 -1.9138
 2875SOL     H211945   3.259   4.209   3.682 -2.3251  1.3952  0.0457
 2875SOL    EPW11946   3.294   4.282   3.717 -0.2342  0.4678 -0.0473
 2876SOL      O11947   4.188   3.699   3.261  0.1189 -0.2212 -0.3931
 2876SOL     H111948   4.115   3.640   3.244 -0.1900 -0.2105  0.8224
 2876SOL     H211949   4.266   3.646   3.247 -0.1590 -1.7446  3.2583
 2876SOL    EPW11950   4.188   3.687   3.258  0.0563 -0.3825  0.1261
 2877SOL      O11951   0.903   0.283   0.405  0.5684  0.2017  0.0266
 2877SOL     H111952   0.873   0.200   0.443 -0.5847  1.3555  1.7182
 2877SOL     H211953   0.897   0.346   0.477 -2.9001  2.7685 -2.3246
 2877SOL    EPW11954   0.899   0.281   0.417  0.0753  0.5986 -0.0438
 2878SOL      O11955   3.012   4.241   1.760  0.0445  0.2752  0.0204
 2878SOL     H111956   3.106   4.259   1.753  0.2825 -0.8439  0.2251
 2878SOL     H211957   3.004   4.150   1.733 -0.9171  0.2151  0.5218
 2878SOL    EPW11958   3.021   4.233   1.757 -0.0327  0.1494  0.0957
 2879SOL      O11959   3.451   5.397   3.047 -0.4979  0.2824 -0.1959
 2879SOL     H111960   3.437   5.491   3.060 -0.7365  0.2631 -0.2992
 2879SOL     H211961   3.519   5.392   2.980 -1.0157  0.3825 -0.7314
 2879SOL    EPW11962   3.457   5.407   3.041 -0.5786  0.2910 -0.2640
 2880SOL      O11963   3.415   5.680   3.569 -0.6101 -0.3873 -0.2584
 2880SOL     H111964   3.328   5.716   3.588 -0.2879  0.1959  0.1207
 2880SOL     H211965   3.400   5.585   3.561 -1.2688 -0.2991 -0.1455
 2880SOL    EPW11966   3.404   5.673   3.570 -0.6460 -0.3157 -0.2059
 2881SOL      O11967   4.096   4.240   1.748  0.0560  0.3568  0.3728
 2881SOL     H111968   4.017   4.293   1.758  0.0173  0.0530  1.7953
 2881SOL     H211969   4.093   4.209   1.658 -0.1598  2.3814 -0.3365
 2881SOL    EPW11970   4.087   4.242   1.740  0.0289  0.5403  0.4488
 2882SOL      O11971   1.822   3.717   3.125 -0.1149 -0.0716 -0.1377
 2882SOL     H111972   1.877   3.772   3.180  1.3261 -1.4171 -0.2088
 2882SOL     H211973   1.735   3.723   3.165  0.9817 -1.3877  2.5907
 2882SOL    EPW11974   1.818   3.724   3.135  0.1558 -0.3555  0.1458
 2883SOL      O11975   1.012   3.605   3.695 -0.4944 -0.9657 -0.1569
 2883SOL     H111976   0.975   3.647   3.617 -1.2667 -0.0877  0.6642
 2883SOL     H211977   1.011   3.512   3.675  2.1464 -0.5595 -2.3998
 2883SOL    EPW11978   1.008   3.600   3.685 -0.2951 -0.8287 -0.3086
 2884SOL      O11979   2.784   4.499   3.953  0.6546 -0.5670 -0.1128
 2884SOL     H111980   2.704   4.487   3.902  0.4618 -2.8292  0.6409
 2884SOL     H211981   2.851   4.519   3.888 -0.2025 -0.3007 -0.9295
 2884SOL    EPW11982   2.782   4.500   3.941  0.5426 -0.7799 -0.1195
 2885SOL      O11983   3.396   4.593   2.440 -0.2217  0.1823 -0.2754
 2885SOL     H111984   3.455   4.622   2.509 -1.2319  1.4180  0.0810
 2885SOL     H211985   3.447   4.604   2.359  0.3741  0.2960  0.1105
 2885SOL    EPW11986   3.408   4.597   2.438 -0.2659  0.3262 -0.1962
 2886SOL      O11987   1.033   4.873   1.289  0.2337 -0.6355 -0.1000
 2886SOL     H111988   0.938   4.883   1.282  0.3271 -0.3471 -1.0441
 2886SOL     H211989   1.054   4.905   1.376 -0.3048  1.1489 -0.6052
 2886SOL    EPW11990   1.025   4.877   1.297  0.1863 -0.4144 -0.2546
 2887SOL      O11991   3.461   3.848   2.451 -0.0171 -0.1405  0.0328
 2887SOL     H111992   3.399   3.902   2.500 -1.5985 -2.9689  1.2922
 2887SOL     H211993   3.545   3.866   2.492 -0.4533  1.5086  0.2676
 2887SOL    EPW11994   3.463   3.856   2.461 -0.2323 -0.2663  0.1922
 2888SOL      O11995   4.299   2.984   1.264  0.1420  0.1162  0.0123
 2888SOL     H111996   4.332   3.071   1.287  0.6955  0.1865 -1.0243
 2888SOL     H211997   4.221   2.972   1.320 -1.1689  2.1385 -1.3192
 2888SOL    EPW11998   4.294   2.992   1.273  0.0612  0.3394 -0.2403
 2889SOL      O11999   2.415   4.357   2.175 -0.4622  0.8162 -0.0358
 2889SOL     H112000   2.368   4.273   2.176  0.1152  0.4112 -3.2977
 2889SOL     H212001   2.504   4.334   2.151 -0.3431  2.3922 -1.1182
 2889SOL    EPW12002   2.419   4.345   2.173 -0.3879  0.9411 -0.4992
 2890SOL      O12003   4.203   5.458   3.494 -0.6535 -0.2931 -0.4041
 2890SOL     H112004   4.217   5.366   3.470  0.8959 -0.5618  1.4251
 2890SOL     H212005   4.220   5.507   3.414  0.1420 -1.4853 -0.9754
 2890SOL    EPW12006   4.206   5.453   3.483 -0.4033 -0.4489 -0.2699
 2891SOL      O12007   5.462   2.906   0.779 -0.1026 -0.1892  0.2560
 2891SOL     H112008   5.555   2.900   0.802 -0.3676 -1.3089  1.0548
 2891SOL     H212009   5.461   2.916   0.684  0.8271 -0.1946  0.2428
 2891SOL    EPW12010   5.472   2.907   0.772 -0.0317 -0.3093  0.3398
 2892SOL      O12011   1.110   4.290   3.336 -0.7388  0.2847 -0.1433
 2892SOL     H112012   1.016   4.280   3.319 -0.7095 -2.0522  0.8453
 2892SOL     H212013   1.129   4.226   3.404  1.6351  0.5392 -0.5223
 2892SOL    EPW12014   1.102   4.282   3.341 -0.4824  0.0626 -0.0783
 2893SOL      O12015   3.979   3.508   3.190 -0.1265 -0.5201  0.7623
 2893SOL     H112016   3.935   3.543   3.113  1.5281  0.6164  0.3263
 2893SOL     H212017   3.914   3.514   3.260 -0.8928  0.4709 -0.0337
 2893SOL    EPW12018   3.967   3.512   3.189 -0.0318 -0.2931  0.6309
 2894SOL      O12019   3.408   4.864   2.220 -0.0266  0.3987 -0.8430
 2894SOL     H112020   3.411   4.959   2.230 -1.4190  0.5243 -1.4327
 2894SOL     H212021   3.334   4.837   2.274  0.8587 -0.4496 -0.0350
 2894SOL    EPW12022   3.400   4.872   2.227 -0.0807  0.3216 -0.8197
 2895SOL      O12023   2.606   0.853   3.148  0.4728  0.2634 -0.8256
 2895SOL     H112024   2.544   0.908   3.100 -0.2725  2.7775  2.7715
 2895SOL     H212025   2.679   0.911   3.167  1.4968 -1.1581 -0.3834
 2895SOL    EPW12026   2.607   0.865   3.145  0.5026  0.3800 -0.3947
 2896SOL      O12027   0.982   3.615   2.330 -0.3190 -0.5390 -0.2465
 2896SOL     H112028   0.949   3.692   2.285  0.9310  0.4674  0.5453
 2896SOL     H212029   0.905   3.579   2.376 -1.2738 -0.7671 -1.9958
 2896SOL    EPW12030   0.970   3.619   2.330 -0.2875 -0.4560 -0.3486
 2897SOL      O12031   3.202   0.138   3.342 -0.2065 -0.1479  0.8127
 2897SOL     H112032   3.233   0.048   3.354 -0.3288 -0.4098 -0.7358
 2897SOL     H212033   3.107   0.132   3.352 -0.3193 -0.3848 -0.3872
 2897SOL    EPW12034   3.195   0.128   3.344 -0.2316 -0.2011  0.5195
 2898SOL      O12035   3.891   4.023   3.574 -0.8545 -0.4068 -0.0828
 2898SOL     H112036   3.806   4.029   3.531 -0.7956 -1.1720 -0.3210
 2898SOL     H212037   3.933   3.947   3.533  0.0314  0.0978 -0.1162
 2898SOL    EPW12038   3.886   4.015   3.565 -0.7537 -0.4346 -0.1117
 2899SOL      O12039   1.798   4.289   4.141 -0.1985  0.2632  0.2757
 2899SOL     H112040   1.857   4.282   4.067  1.8568  1.5099  1.7393
 2899SOL     H212041   1.715   4.319   4.103  0.1385 -1.3166 -1.7717
 2899SOL    EPW12042   1.795   4.291   4.129  0.0567  0.2276  0.2134
 2900SOL      O12043   2.086   5.569   3.160 -0.1313  0.2783  0.0097
 2900SOL     H112044   2.171   5.569   3.117  0.2404  1.3549  0.7131
 2900SOL     H212045   2.028   5.617   3.100 -0.1284 -0.0576 -0.2594
 2900SOL    EPW12046   2.089   5.574   3.149 -0.0914  0.3573  0.0561
 2901SOL      O12047   3.339   4.885   3.885  0.4131  0.8187  0.5295
 2901SOL     H112048   3.408   4.833   3.844  1.1786  0.1361  2.5984
 2901SOL     H212049   3.353   4.873   3.979 -2.4133  0.8304  0.9935
 2901SOL    EPW12050   3.348   4.878   3.891  0.1933  0.7471  0.7997
 2902SOL      O12051   2.881   4.476   2.701  0.1924 -0.0111  0.0934
 2902SOL     H112052   2.946   4.405   2.698  3.2776  2.7397 -1.3596
 2902SOL     H212053   2.918   4.540   2.762 -1.1558  1.6236 -0.7657
 2902SOL    EPW12054   2.892   4.475   2.707  0.3777  0.4567 -0.1532
 2903SOL      O12055   3.801   4.394   3.608  0.2149  0.4979 -0.1502
 2903SOL     H112056   3.884   4.362   3.574  0.9927  0.4945  1.6903
 2903SOL     H212057   3.825   4.447   3.684 -1.4796 -0.1326  0.8621
 2903SOL    EPW12058   3.812   4.396   3.613  0.1171  0.4303  0.1541
 2904SOL      O12059   3.205   4.226   3.301  0.0559  0.4967  0.5844
 2904SOL     H112060   3.248   4.187   3.225  0.8578 -0.6442  1.6010
 2904SOL     H212061   3.207   4.157   3.368  0.8329  2.0254  2.1836
 2904SOL    EPW12062   3.210   4.214   3.300  0.2243  0.5381  0.8635
 2905SOL      O12063   3.156   5.540   2.674 -0.6807  1.1668  0.1435
 2905SOL     H112064   3.116   5.453   2.667 -1.5534  1.5026  0.9279
 2905SOL     H212065   3.177   5.549   2.767 -1.7098  2.2778  0.2882
 2905SOL    EPW12066   3.154   5.531   2.683 -0.8836  1.3211  0.2426
 2906SOL      O12067   3.498   3.479   2.596  0.1037  0.4738  0.0500
 2906SOL     H112068   3.584   3.504   2.562  0.5605 -0.2862  0.6471
 2906SOL     H212069   3.438   3.495   2.523  1.0482 -0.9199 -1.0536
 2906SOL    EPW12070   3.501   3.484   2.585  0.2532  0.2441 -0.0041
 2907SOL      O12071   2.966   4.110   2.186 -0.8123 -0.4449  0.0358
 2907SOL     H112072   2.883   4.063   2.196 -1.5302  0.8649  0.3925
 2907SOL     H212073   2.993   4.091   2.096 -1.1368 -1.4422  0.1435
 2907SOL    EPW12074   2.960   4.103   2.177 -0.9235 -0.4116  0.0854
 2908SOL      O12075   3.494   5.073   2.916 -0.2378 -0.9132 -0.0200
 2908SOL     H112076   3.421   5.104   2.863 -0.2606 -1.7597 -0.4932
 2908SOL     H212077   3.510   4.984   2.885 -1.6615 -2.2405  2.8477
 2908SOL    EPW12078   3.488   5.067   2.907 -0.3921 -1.1451  0.2355
 2909SOL      O12079   3.525   3.295   2.801  0.6996  0.2343 -0.1358
 2909SOL     H112080   3.495   3.348   2.728 -0.5190  1.2265  1.0456
 2909SOL     H212081   3.589   3.235   2.763 -0.9212 -0.2174 -2.2842
 2909SOL    EPW12082   3.528   3.294   2.790  0.3967  0.2920 -0.2389
 2910SOL      O12083   3.082   0.172   2.021  0.4114  0.6322 -0.6702
 2910SOL     H112084   3.163   0.123   2.004 -0.5994 -1.1707 -0.4647
 2910SOL     H212085   3.015   0.104   2.028 -0.2734  1.6241  4.5244
 2910SOL    EPW12086   3.084   0.160   2.020  0.2305  0.5457 -0.0941
 2911SOL      O12087   2.110   5.619   3.423  0.8225  0.1647  0.4385
 2911SOL     H112088   2.181   5.683   3.419  1.0388 -0.0976  0.0091
 2911SOL     H212089   2.091   5.599   3.331 -0.4995  1.0013  0.5085
 2911SOL    EPW12090   2.115   5.624   3.413  0.7046  0.2260  0.4002
 2912SOL      O12091   1.204   0.057   3.583 -0.6872  0.0633  0.1692
 2912SOL     H112092   1.235   0.007   3.658  1.8652  2.1714  0.5808
 2912SOL     H212093   1.138   0.117   3.620 -1.2596 -0.6179  0.2636
 2912SOL    EPW12094   1.200   0.058   3.595 -0.4760  0.2155  0.2232
 2913SOL      O12095   0.522   0.987   1.519 -0.0014 -0.2224 -0.5247
 2913SOL     H112096   0.559   0.954   1.437 -1.7725 -0.6937 -1.1475
 2913SOL     H212097   0.463   0.918   1.548 -0.2937  0.4650  0.5362
 2913SOL    EPW12098   0.520   0.976   1.513 -0.2215 -0.1993 -0.4780
 2914SOL      O12099   3.237   3.435   1.491  0.2116 -0.7705 -0.1731
 2914SOL     H112100   3.313   3.428   1.433  1.0397  1.7649  0.5212
 2914SOL     H212101   3.272   3.423   1.579 -0.0028  1.3484  0.2225
 2914SOL    EPW12102   3.249   3.433   1.494  0.2770 -0.2740 -0.0569
 2915SOL      O12103   3.282   0.339   2.692  0.0593  0.4021 -0.5960
 2915SOL     H112104   3.290   0.405   2.623  1.5620 -0.3783 -1.1970
 2915SOL     H212105   3.281   0.256   2.646  0.2328 -0.0905  0.2717
 2915SOL    EPW12106   3.283   0.338   2.680  0.2381  0.2663 -0.5676
 2916SOL      O12107   2.746   3.646   3.005  0.1453  0.4326 -0.4008
 2916SOL     H112108   2.713   3.734   3.022  1.6839  0.7347  1.1513
 2916SOL     H212109   2.808   3.657   2.933  0.1848  0.5901 -0.3431
 2916SOL    EPW12110   2.749   3.657   2.999  0.3136  0.4817 -0.2291
 2917SOL      O12111   2.053   3.759   2.166  0.0686  0.3507  0.3019
 2917SOL     H112112   2.120   3.767   2.099  0.3102 -0.8681  0.3913
 2917SOL     H212113   2.095   3.790   2.246  1.2461 -2.3920  0.8035
 2917SOL    EPW12114   2.064   3.763   2.168  0.2200 -0.0719  0.3650
 2918SOL      O12115   3.221   3.890   2.163 -0.2809  0.4029  0.0123
 2918SOL     H112116   3.249   3.930   2.246 -1.0689  0.5881  0.1956
 2918SOL     H212117   3.267   3.806   2.160  0.2525  0.6846  0.3308
 2918SOL    EPW12118   3.229   3.885   2.172 -0.3080  0.4527  0.0658
 2919SOL      O12119   2.894   5.609   0.489  0.1575  0.2274  0.0184
 2919SOL     H112120   2.921   5.695   0.456  1.5413  0.3230  1.3562
 2919SOL     H212121   2.973   5.556   0.486  0.3871  0.2713  3.1939
 2919SOL    EPW12122   2.905   5.613   0.485  0.3296  0.2423  0.4998
 2920SOL      O12123   1.975   0.068   2.201  0.1045  0.6487  0.2173
 2920SOL     H112124   1.938   0.088   2.287 -0.6297  2.2980 -0.4460
 2920SOL     H212125   2.043   0.134   2.188  1.8609 -1.0722  0.5296
 2920SOL    EPW12126   1.978   0.077   2.209  0.2135  0.6410  0.1798
 2921SOL      O12127   2.338   5.423   3.083  0.1386 -0.0972 -0.0989
 2921SOL     H112128   2.295   5.349   3.041 -1.2318  0.4707  0.2644
 2921SOL     H212129   2.333   5.405   3.177  0.2059  0.2394 -0.0274
 2921SOL    EPW12130   2.333   5.413   3.089 -0.0004 -0.0007 -0.0525
 2922SOL      O12131   3.138   5.578   3.020 -0.1383 -0.4397  0.1459
 2922SOL     H112132   3.049   5.596   2.991 -0.5666 -0.7867  1.2129
 2922SOL     H212133   3.140   5.483   3.032  1.0217 -0.7158 -1.9394
 2922SOL    EPW12134   3.129   5.569   3.018 -0.0602 -0.5062  0.0373
 2923SOL      O12135   2.936   2.923   1.909  0.7711 -0.2315 -0.0018
 2923SOL     H112136   2.969   2.899   1.823  2.8162 -0.1870  0.7332
 2923SOL     H212137   3.001   2.888   1.970 -0.2786  0.3440  1.4896
 2923SOL    EPW12138   2.947   2.917   1.907  0.8773 -0.1653  0.2357
 2924SOL      O12139   3.236   5.143   2.046  0.4659  0.0131 -0.2254
 2924SOL     H112140   3.259   5.216   1.988  0.8381  0.3854  0.3880
 2924SOL     H212141   3.310   5.137   2.107 -0.3131  0.1747  0.7404
 2924SOL    EPW12142   3.246   5.151   2.046  0.4225  0.0701 -0.0569
 2925SOL      O12143   3.206   5.691   3.291  0.4962 -0.1632 -0.8437
 2925SOL     H112144   3.135   5.683   3.227 -1.5434  0.1351  1.2873
 2925SOL     H212145   3.184   5.627   3.358  1.3554  1.0826  0.6627
 2925SOL    EPW12146   3.196   5.683   3.291  0.3702  0.0015 -0.4557
 2926SOL      O12147   4.759   5.475   0.542  0.1230  0.2673 -0.8449
 2926SOL     H112148   4.747   5.383   0.518 -0.7630  0.2788 -0.4895
 2926SOL     H212149   4.766   5.474   0.638  1.7087  0.4104 -0.9562
 2926SOL    EPW12150   4.758   5.465   0.550  0.1977  0.2838 -0.8189
 2927SOL      O12151   3.746   0.469   3.234  0.1605 -0.6735  0.6506
 2927SOL     H112152   3.773   0.521   3.159 -0.5790 -0.4719  0.5166
 2927SOL     H212153   3.722   0.384   3.198 -1.4112 -0.1778  0.4726
 2927SOL    EPW12154   3.746   0.465   3.223 -0.0860 -0.5991  0.6173
 2928SOL      O12155   2.649   5.133   3.505  0.4845 -0.4256  0.6865
 2928SOL     H112156   2.596   5.062   3.541 -1.4298  0.3785 -0.4509
 2928SOL     H212157   2.696   5.168   3.580 -1.0324 -0.8096  1.8551
 2928SOL    EPW12158   2.648   5.129   3.517  0.1185 -0.3808  0.6899
 2929SOL      O12159   2.024   5.696   2.924 -0.1225  0.1638  0.4882
 2929SOL     H112160   2.022   5.791   2.914  1.1193 -0.0116 -1.4795
 2929SOL     H212161   1.937   5.667   2.894 -0.3392  0.6237  0.6659
 2929SOL    EPW12162   2.014   5.703   2.920 -0.0131  0.1941  0.2973
 2930SOL      O12163   1.328   4.529   1.486  0.0294  0.0252  0.4476
 2930SOL     H112164   1.378   4.448   1.483 -1.0885 -0.6616  0.0669
 2930SOL     H212165   1.241   4.503   1.518 -0.2833  1.0905  0.4896
 2930SOL    EPW12166   1.324   4.518   1.489 -0.1232  0.0656  0.4115
 2931SOL      O12167   1.922   4.786   3.915 -0.2526  0.0459 -0.0076
 2931SOL     H112168   1.997   4.804   3.859 -0.3744 -0.1859 -0.2423
 2931SOL     H212169   1.948   4.710   3.967 -0.0285  0.4305  0.4600
 2931SOL    EPW12170   1.933   4.780   3.915 -0.2417  0.0622  0.0173
 2932SOL      O12171   1.879   3.405   2.253  0.3204  0.6783 -0.2653
 2932SOL     H112172   1.889   3.464   2.328 -0.6688  2.1093 -1.2328
 2932SOL     H212173   1.842   3.325   2.290 -1.3457  1.8185  0.6035
 2932SOL    EPW12174   1.876   3.403   2.265  0.0371  0.9526 -0.2758
 2933SOL      O12175   3.149   4.658   3.451  0.0728 -0.0625 -0.6716
 2933SOL     H112176   3.188   4.721   3.512 -1.0895 -0.4291  0.4800
 2933SOL     H212177   3.220   4.635   3.391  0.4029  2.6086 -1.3205
 2933SOL    EPW12178   3.161   4.662   3.452 -0.0160  0.1833 -0.6180
 2934SOL      O12179   2.780   5.665   2.700  0.7922 -0.6335 -0.0738
 2934SOL     H112180   2.775   5.591   2.640 -0.5184 -1.6412  1.2236
 2934SOL     H212181   2.822   5.629   2.779  1.1815  0.2954  0.1517
 2934SOL    EPW12182   2.784   5.653   2.702  0.6939 -0.6419  0.0886
 2935SOL      O12183   3.208   4.686   0.962 -0.4633 -0.4750 -0.0428
 2935SOL     H112184   3.165   4.616   1.011  0.2030  0.1724  1.4773
 2935SOL     H212185   3.136   4.736   0.924 -1.0243 -0.1510  1.4299
 2935SOL    EPW12186   3.195   4.684   0.963 -0.4521 -0.3714  0.2764
 2936SOL      O12187   3.056   4.948   2.927  0.4094  0.6113 -0.1763
 2936SOL     H112188   3.063   4.950   2.832 -0.5448  1.0516 -0.2365
 2936SOL     H212189   3.133   4.898   2.955 -0.8412 -2.0545 -1.3362
 2936SOL    EPW12190   3.065   4.943   2.920  0.1742  0.3739 -0.3065
 2937SOL      O12191   0.992   5.830   3.830  0.1130 -0.1834 -0.4151
 2937SOL     H112192   1.064   5.821   3.893  0.0216 -0.9476 -0.4080
 2937SOL     H212193   0.980   5.742   3.795 -1.6295 -0.3319  0.4960
 2937SOL    EPW12194   0.998   5.819   3.833 -0.0826 -0.2808 -0.3172
 2938SOL      O12195   0.496   3.645   2.935  0.1751 -0.1564 -0.3293
 2938SOL     H112196   0.470   3.611   2.849  0.3553 -1.4006  0.0985
 2938SOL     H212197   0.551   3.721   2.915 -1.3577  0.7358 -1.2796
 2938SOL    EPW12198   0.499   3.650   2.924  0.0308 -0.1939 -0.3850
 2939SOL      O12199   0.975   3.427   1.553  0.0603  0.1668  0.6017
 2939SOL     H112200   1.013   3.514   1.569 -0.1346  0.2067  0.8517
 2939SOL     H212201   0.947   3.397   1.640  1.8788 -0.9717  0.8154
 2939SOL    EPW12202   0.976   3.433   1.564  0.2335  0.0496  0.6512
 2940SOL      O12203   0.363   2.082   0.174 -0.4874 -0.1633  0.0753
 2940SOL     H112204   0.393   2.001   0.131  0.5051 -0.5507  1.4637
 2940SOL     H212205   0.401   2.152   0.121  0.8143 -0.6356  0.3614
 2940SOL    EPW12206   0.371   2.081   0.164 -0.2426 -0.2550  0.2539
 2941SOL      O12207   2.084   4.909   2.780  0.6216  0.1283 -0.6940
 2941SOL     H112208   2.092   5.004   2.778  0.6509  0.1463 -0.0506
 2941SOL     H212209   2.174   4.878   2.797  0.3384  0.0671  0.7754
 2941SOL    EPW12210   2.095   4.916   2.782  0.5945  0.1237 -0.4686
 2942SOL      O12211   2.251   5.142   2.457 -0.6079 -0.5503  0.6286
 2942SOL     H112212   2.283   5.198   2.386  0.1157  0.8914  2.0725
 2942SOL     H212213   2.304   5.062   2.450 -1.5913 -1.0605 -1.3834
 2942SOL    EPW12214   2.261   5.139   2.448 -0.6356 -0.4510  0.5680
 2943SOL      O12215   3.554   0.387   2.792  0.3178 -0.4011  0.3190
 2943SOL     H112216   3.589   0.306   2.830  0.7570  0.4276  1.7347
 2943SOL     H212217   3.469   0.362   2.756  0.7528 -1.6414  0.1183
 2943SOL    EPW12218   3.549   0.376   2.793  0.4110 -0.4450  0.4486
 2944SOL      O12219   5.037   2.020   0.174 -0.0609  0.3303 -0.5594
 2944SOL     H112220   4.973   2.089   0.157  0.5213  1.0207 -0.0101
 2944SOL     H212221   4.992   1.960   0.233  0.1742  1.4180  0.7555
 2944SOL    EPW12222   5.026   2.021   0.178  0.0263  0.5200 -0.3605
 2945SOL      O12223   1.753   3.284   1.178  0.1753  0.0622  0.1236
 2945SOL     H112224   1.746   3.242   1.092 -1.7269 -1.3282  0.9203
 2945SOL     H212225   1.784   3.372   1.159 -2.8993  0.7207 -2.3039
 2945SOL    EPW12226   1.755   3.289   1.167 -0.3556 -0.0159 -0.0503
 2946SOL      O12227   2.922   3.713   2.787  0.2831  0.0578 -0.0753
 2946SOL     H112228   2.861   3.781   2.759 -0.3246 -0.5576 -0.2644
 2946SOL     H212229   3.009   3.747   2.766 -0.0493  0.5844 -0.5657
 2946SOL    EPW12230   2.925   3.724   2.782  0.1828  0.0483 -0.1477
 2947SOL      O12231   3.408   3.564   3.493 -0.0363  0.0483  0.0186
 2947SOL     H112232   3.430   3.591   3.582  1.0444 -2.9661  0.7263
 2947SOL     H212233   3.481   3.596   3.440 -0.0361  0.7065  0.4076
 2947SOL    EPW12234   3.418   3.570   3.497  0.0790 -0.2031  0.1356
 2948SOL      O12235   3.958   1.198   0.580  0.3147 -0.6666  0.3979
 2948SOL     H112236   4.040   1.226   0.539 -0.4237 -1.0636 -1.3941
 2948SOL     H212237   3.963   1.103   0.582 -0.9270 -0.8014 -1.5412
 2948SOL    EPW12238   3.968   1.191   0.576  0.1035 -0.7233 -0.0001
 2949SOL      O12239   0.910   1.203   0.655  0.0280  0.2665 -0.4661
 2949SOL     H112240   0.932   1.290   0.622 -1.2483  1.2217  1.0871
 2949SOL     H212241   0.828   1.181   0.612  0.4284 -0.2560 -0.9759
 2949SOL    EPW12242   0.904   1.210   0.647 -0.0654  0.3127 -0.3548
 2950SOL      O12243   2.709   5.863   4.053  0.4301  0.7452 -0.2994
 2950SOL     H112244   2.673   5.904   4.131 -1.7932  1.9271 -1.8765
 2950SOL     H212245   2.662   5.780   4.046  3.1525 -1.0291  1.5155
 2950SOL    EPW12246   2.700   5.858   4.060  0.4833  0.6820 -0.2740
 2951SOL      O12247   5.063   3.483   1.356  0.2002 -0.1820 -0.3330
 2951SOL     H112248   5.059   3.515   1.446  1.1311 -0.8080 -0.0734
 2951SOL     H212249   4.982   3.433   1.346 -0.4910  0.8733 -0.2346
 2951SOL    EPW12250   5.054   3.481   1.365  0.2258 -0.1362 -0.2948
 2952SOL      O12251   5.854   2.672   0.308 -0.4640 -0.0637  0.0639
 2952SOL     H112252   5.870   2.623   0.228  0.7898 -1.8621  1.3690
 2952SOL     H212253   5.875   2.611   0.379 -0.5476  1.8044  1.7703
 2952SOL    EPW12254   5.858   2.661   0.307 -0.3392 -0.0562  0.3851
 2953SOL      O12255   2.629   0.046   2.120  0.4647 -0.0728 -0.5758
 2953SOL     H112256   2.617   0.004   2.206 -0.6612  1.9007  0.2633
 2953SOL     H212257   2.724   0.048   2.107  0.5889 -1.6893 -0.0506
 2953SOL    EPW12258   2.638   0.041   2.128  0.3579 -0.0347 -0.4303
 2954SOL      O12259   3.347   4.633   3.278  0.7169  0.4136 -0.1499
 2954SOL     H112260   3.405   4.702   3.308  1.5637 -0.2829 -0.1722
 2954SOL     H212261   3.399   4.552   3.285 -0.4381 -0.2953  0.3978
 2954SOL    EPW12262   3.359   4.631   3.282  0.6840  0.2637 -0.0939
 2955SOL      O12263   0.950   5.853   1.011 -0.7831 -0.0955  0.2107
 2955SOL     H112264   1.036   5.895   1.009 -0.9781  0.3154  0.4223
 2955SOL     H212265   0.888   5.926   1.007 -1.1288 -0.4643 -2.1010
 2955SOL    EPW12266   0.952   5.865   1.010 -0.8408 -0.0910 -0.0133
 2956SOL      O12267   2.873   3.911   3.278 -0.6060  0.6564  0.4293
 2956SOL     H112268   2.908   3.982   3.224 -2.0981  0.3932 -0.9298
 2956SOL     H212269   2.906   3.831   3.237  0.3578  0.5317  1.4403
 2956SOL    EPW12270   2.880   3.910   3.268 -0.6623  0.6150  0.3921
 2957SOL      O12271   3.620   2.092   2.371  0.3480  0.0090  0.3978
 2957SOL     H112272   3.572   2.159   2.322  0.4524 -0.3488 -0.2026
 2957SOL     H212273   3.564   2.071   2.445 -1.5635 -2.1173 -1.5549
 2957SOL    EPW12274   3.609   2.097   2.374  0.1552 -0.2560  0.1254
 2958SOL      O12275   4.229   2.971   4.051 -0.2492  0.0286  0.1196
 2958SOL     H112276   4.161   2.927   4.000 -0.7274 -0.4801  1.1812
 2958SOL     H212277   4.207   2.951   4.142  0.0065  1.7834  0.5844
 2958SOL    EPW12278   4.219   2.964   4.056 -0.2729  0.1615  0.2824
 2959SOL      O12279   3.725   5.650   2.896  0.6458  0.9090 -0.0252
 2959SOL     H112280   3.815   5.672   2.872  1.9001 -0.7334  2.8950
 2959SOL     H212281   3.717   5.557   2.875 -0.5397  1.1807 -0.7660
 2959SOL    EPW12282   3.734   5.642   2.891  0.6532  0.7628  0.2073
 2960SOL      O12283   2.196   4.321   3.318  0.2464 -0.1079  0.4104
 2960SOL     H112284   2.113   4.316   3.270  0.5044  0.7883 -0.1311
 2960SOL     H212285   2.191   4.404   3.366  0.4607 -0.4702  1.0690
 2960SOL    EPW12286   2.187   4.329   3.318  0.2968 -0.0510  0.4229
 2961SOL      O12287   3.424   3.630   2.816 -0.1558 -0.0031 -0.1800
 2961SOL     H112288   3.503   3.664   2.859 -0.4295 -0.9733  1.1204
 2961SOL     H212289   3.457   3.583   2.739  0.4287  0.7857 -0.4150
 2961SOL    EPW12290   3.436   3.628   2.813 -0.1226 -0.0224 -0.0663
 2962SOL      O12291   2.682   0.090   1.842  0.7501 -0.3395  0.1232
 2962SOL     H112292   2.627   0.087   1.920 -0.1389  0.7016 -0.4556
 2962SOL     H212293   2.683   0.000   1.809 -0.2716 -0.4370  0.3685
 2962SOL    EPW12294   2.677   0.080   1.846  0.5462 -0.2388  0.0877
 2963SOL      O12295   2.076   5.241   3.595 -0.5042 -0.6971  0.0045
 2963SOL     H112296   1.990   5.206   3.616 -0.3382 -1.1917 -0.1393
 2963SOL     H212297   2.138   5.177   3.631 -0.1930 -0.1971  0.3706
 2963SOL    EPW12298   2.074   5.231   3.602 -0.4533 -0.6965  0.0282
 2964SOL      O12299   3.091   0.128   3.899  0.1699 -0.0543  0.2027
 2964SOL     H112300   3.102   0.088   3.985 -1.2361 -0.8884  0.0099
 2964SOL     H212301   2.999   0.111   3.876  0.1837  1.2600 -0.9037
 2964SOL    EPW12302   3.082   0.122   3.906  0.0214 -0.0031  0.0641
 2965SOL      O12303   3.200   5.485   2.298  0.5139 -0.5222  0.1262
 2965SOL     H112304   3.283   5.439   2.304  0.2355 -1.3598 -1.8350
 2965SOL     H212305   3.171   5.469   2.208  0.1758  3.1095 -0.4568
 2965SOL    EPW12306   3.206   5.478   2.289  0.4481 -0.2242 -0.1452
 2966SOL      O12307   0.509   1.364   0.321  0.2470 -0.7156  0.0937
 2966SOL     H112308   0.527   1.324   0.406  0.3531 -0.2816  0.2783
 2966SOL     H212309   0.595   1.389   0.288  0.2646 -1.5047 -0.4496
 2966SOL    EPW12310   0.520   1.362   0.327  0.2602 -0.7535  0.0555
 2967SOL      O12311   2.182   5.202   3.032 -0.1620 -0.0700  0.3187
 2967SOL     H112312   2.187   5.107   3.043  0.3499  0.1957  2.8315
 2967SOL     H212313   2.111   5.229   3.090  1.2139  1.3089  1.4197
 2967SOL    EPW12314   2.175   5.195   3.040  0.0393  0.1054  0.7042
 2968SOL      O12315   2.439   0.988   4.135  0.0318 -0.1230  0.5057
 2968SOL     H112316   2.350   1.019   4.152 -0.0984 -0.4910  0.4978
 2968SOL     H212317   2.439   0.897   4.165  0.5315  0.0070  0.9141
 2968SOL    EPW12318   2.430   0.981   4.140  0.0713 -0.1484  0.5484
 2969SOL      O12319   1.203   3.942   2.218 -0.5026 -0.0368 -0.2607
 2969SOL     H112320   1.183   3.873   2.281  0.0503 -0.1472 -0.2071
 2969SOL     H212321   1.240   4.013   2.271  0.1147 -0.1916 -0.4765
 2969SOL    EPW12322   1.205   3.942   2.230 -0.3778 -0.0651 -0.2780
 2970SOL      O12323   3.043   3.979   2.880  0.4368 -0.2281  0.0413
 2970SOL     H112324   3.127   4.005   2.842  1.3554 -1.8567  0.9141
 2970SOL     H212325   2.982   3.977   2.806  1.4144 -0.0909 -0.7700
 2970SOL    EPW12326   3.045   3.982   2.868  0.6391 -0.3872  0.0479
 2971SOL      O12327   1.781   5.052   0.881  0.4578 -0.8267  0.0190
 2971SOL     H112328   1.700   5.064   0.929  0.6806  0.4653  0.1087
 2971SOL     H212329   1.761   4.986   0.815 -0.0740 -1.9977  1.3405
 2971SOL    EPW12330   1.770   5.046   0.879  0.4248 -0.8138  0.1695
 2972SOL      O12331   0.745   0.344   1.197  0.1570 -0.3893  0.2522
 2972SOL     H112332   0.658   0.368   1.164  0.4813 -2.4918 -2.2911
 2972SOL     H212333   0.728   0.312   1.286 -1.2753  1.7386  0.7786
 2972SOL    EPW12334   0.734   0.343   1.203  0.0388 -0.3866  0.0370
 2973SOL      O12335   1.985   4.316   3.970 -0.4987 -0.4820  0.5883
 2973SOL     H112336   2.048   4.256   4.008 -0.4110 -0.8393 -0.1189
 2973SOL     H212337   1.976   4.288   3.879 -0.8883  0.2121  0.4041
 2973SOL    EPW12338   1.991   4.307   3.965 -0.5309 -0.4461  0.4932
 2974SOL      O12339   1.481   5.119   2.320  0.1637  0.4116 -0.1581
 2974SOL     H112340   1.544   5.068   2.371 -1.5940 -2.6388 -0.9882
 2974SOL     H212341   1.399   5.111   2.368 -0.7487  0.2556 -1.7249
 2974SOL    EPW12342   1.479   5.113   2.331 -0.1211  0.0696 -0.4138
 2975SOL      O12343   4.766   1.142   0.228 -0.1118  0.5847 -0.3795
 2975SOL     H112344   4.803   1.219   0.185  0.0506 -1.0330 -3.1919
 2975SOL     H212345   4.685   1.125   0.181  0.8111 -2.0999 -1.0586
 2975SOL    EPW12346   4.762   1.149   0.219  0.0040  0.1258 -0.7520
 2976SOL      O12347   4.694   0.074   0.978 -0.0662  0.1005 -0.3782
 2976SOL     H112348   4.787   0.052   0.987 -0.2897 -0.7432 -0.0643
 2976SOL     H212349   4.655   0.048   1.061 -0.8006 -0.6747 -0.9542
 2976SOL    EPW12350   4.700   0.069   0.988 -0.1684 -0.0722 -0.4062
 2977SOL      O12351   2.101   5.138   3.342  0.0653 -0.1523  0.5197
 2977SOL     H112352   2.083   5.176   3.429  2.1694  2.1085  0.0167
 2977SOL     H212353   2.048   5.190   3.282  0.9698  0.2735  0.0975
 2977SOL    EPW12354   2.093   5.147   3.345  0.3862  0.1343  0.4210
 2978SOL      O12355   3.159   5.304   3.007 -0.3392 -0.3483 -0.0067
 2978SOL     H112356   3.098   5.234   2.984 -1.4351  0.5407  0.1310
 2978SOL     H212357   3.239   5.284   2.958  0.6217 -3.5991  2.7443
 2978SOL    EPW12358   3.161   5.295   2.999 -0.3536 -0.6003  0.3015
 2979SOL      O12359   0.161   1.365   0.877  0.5779  0.0375 -0.6459
 2979SOL     H112360   0.095   1.295   0.882 -0.3632  0.9211 -0.4818
 2979SOL     H212361   0.244   1.321   0.896 -0.1214 -0.8582  0.3979
 2979SOL    EPW12362   0.163   1.353   0.879  0.4029  0.0362 -0.5170
 2980SOL      O12363   1.321   4.150   2.365 -0.8211 -0.2417 -0.3669
 2980SOL     H112364   1.304   4.170   2.457  1.7125  2.1726 -0.3475
 2980SOL     H212365   1.405   4.106   2.365  1.0496  3.1383 -1.7590
 2980SOL    EPW12366   1.328   4.148   2.375 -0.3513  0.3764 -0.5134
 2981SOL      O12367   5.600   0.449   2.233  0.0499  0.5598 -0.0119
 2981SOL     H112368   5.570   0.540   2.227  1.2156  0.8410 -1.8302
 2981SOL     H212369   5.550   0.403   2.165 -1.4684 -0.4445  1.7440
 2981SOL    EPW12370   5.591   0.454   2.225  0.0123  0.4827 -0.0185
 2982SOL      O12371   3.892   0.309   1.854 -0.3520  0.4167  0.4961
 2982SOL     H112372   3.905   0.221   1.890  1.2582 -0.0820 -1.1991
 2982SOL     H212373   3.893   0.296   1.759 -0.4920  2.2151  0.2283
 2982SOL    EPW12374   3.893   0.298   1.847 -0.1952  0.5554  0.2867
 2983SOL      O12375   3.916   3.596   4.031 -0.5219 -0.0270  0.2214
 2983SOL     H112376   3.856   3.660   3.993 -1.6405 -0.8365  0.6283
 2983SOL     H212377   3.925   3.528   3.965 -1.0997 -0.5658  0.6922
 2983SOL    EPW12378   3.911   3.596   4.020 -0.7029 -0.1708  0.3150
 2984SOL      O12379   1.362   1.806   1.086  0.6723 -0.3386 -0.2089
 2984SOL     H112380   1.401   1.778   1.003  0.5403 -1.2465  0.0352
 2984SOL     H212381   1.267   1.806   1.070  0.7442  1.5643 -0.7065
 2984SOL    EPW12382   1.356   1.803   1.076  0.6659 -0.2324 -0.2359
 2985SOL      O12383   3.178   5.693   1.989 -0.2683 -0.5921 -0.0012
 2985SOL     H112384   3.211   5.688   1.899  0.6393 -1.3208  0.3560
 2985SOL     H212385   3.166   5.601   2.015  0.3322 -0.4136  0.9190
 2985SOL    EPW12386   3.181   5.682   1.982 -0.1074 -0.6508  0.1351
 2986SOL      O12387   3.732   3.021   0.044  0.9637 -0.2619 -1.5728
 2986SOL     H112388   3.682   3.017  -0.037 -1.3766 -2.0275 -0.0762
 2986SOL     H212389   3.721   3.111   0.075  0.9976  0.1134 -2.6453
 2986SOL    EPW12390   3.726   3.030   0.039  0.7177 -0.4102 -1.5275
 2987SOL      O12391   3.267   0.079   2.561 -0.0001 -0.1254  0.7063
 2987SOL     H112392   3.257   0.012   2.493 -1.9951  1.3431 -0.5180
 2987SOL     H212393   3.236   0.037   2.641 -0.5077 -0.9222  0.1062
 2987SOL    EPW12394   3.263   0.067   2.562 -0.2670 -0.0537  0.5117
 2988SOL      O12395   5.233   0.722   0.292 -0.3260  0.5769  0.2349
 2988SOL     H112396   5.218   0.756   0.204 -1.0293  1.0584  0.5295
 2988SOL     H212397   5.199   0.790   0.350 -1.0709 -0.2971  0.8499
 2988SOL    EPW12398   5.227   0.733   0.289 -0.4805  0.5350  0.3319
 2989SOL      O12399   5.248   1.327   0.857 -0.5213  0.4921  0.0110
 2989SOL     H112400   5.235   1.383   0.780 -3.2134  1.2629  0.9468
 2989SOL     H212401   5.254   1.238   0.822 -2.0460  0.8022 -1.0923
 2989SOL    EPW12402   5.247   1.324   0.845 -0.9711  0.6074 -0.0069
 2990SOL      O12403   0.623   2.816   0.205  0.1279 -0.1170  0.1931
 2990SOL     H112404   0.707   2.841   0.243  1.2412 -2.7940 -0.4220
 2990SOL     H212405   0.559   2.840   0.272  1.3336  2.1760  0.5670
 2990SOL    EPW12406   0.625   2.821   0.216  0.3753 -0.1580  0.1674
 2991SOL      O12407   3.423   5.284   3.306 -0.2783 -0.3455 -0.0720
 2991SOL     H112408   3.468   5.323   3.232 -2.0493  0.5373 -0.7054
 2991SOL     H212409   3.333   5.271   3.276 -0.2988 -2.7375  0.9274
 2991SOL    EPW12410   3.418   5.287   3.295 -0.4694 -0.5065 -0.0329
 2992SOL      O12411   4.181   2.503   0.244 -0.1620  0.0124  0.9406
 2992SOL     H112412   4.171   2.408   0.240  2.6399 -0.2766 -0.2577
 2992SOL     H212413   4.131   2.536   0.170  1.8713 -0.8659 -0.8976
 2992SOL    EPW12414   4.175   2.496   0.236  0.3538 -0.1121  0.6167
 2993SOL      O12415   2.988   0.796   3.352  0.3066  0.4868 -0.6472
 2993SOL     H112416   2.932   0.843   3.414  0.1452  1.1720 -1.3062
 2993SOL     H212417   2.952   0.817   3.266  1.0021  0.1713 -1.0198
 2993SOL    EPW12418   2.978   0.803   3.350  0.3635  0.5262 -0.7572
 2994SOL      O12419   3.063   5.273   2.632 -0.0508  0.5083 -0.3394
 2994SOL     H112420   3.091   5.214   2.561 -0.5817 -0.4477  0.2327
 2994SOL     H212421   2.990   5.227   2.673 -0.2210  1.4050  0.3573
 2994SOL    EPW12422   3.058   5.261   2.629 -0.1256  0.5020 -0.2040
 2995SOL      O12423   0.040   0.899   1.114 -0.0274 -0.3410  0.4010
 2995SOL     H112424   0.024   0.811   1.146 -0.4614 -0.5866 -0.4924
 2995SOL     H212425   0.095   0.887   1.036 -2.9281 -0.0654 -1.7559
 2995SOL    EPW12426   0.044   0.889   1.109 -0.3832 -0.3378  0.0756
 2996SOL      O12427   3.188   4.917   3.606 -0.4399 -0.0103 -0.1157
 2996SOL     H112428   3.267   4.958   3.642  1.0646 -2.7366 -0.1637
 2996SOL     H212429   3.164   4.973   3.532  1.8535  0.4984 -0.5119
 2996SOL    EPW12430   3.194   4.927   3.602 -0.0348 -0.2469 -0.1631
 2997SOL      O12431   4.871   1.821   1.078  0.5647  0.1455  0.0819
 2997SOL     H112432   4.800   1.775   1.123  1.4800 -1.0481  0.3341
 2997SOL     H212433   4.950   1.797   1.127  0.9199  3.1088  1.0880
 2997SOL    EPW12434   4.872   1.814   1.088  0.7002  0.3343  0.2161
 2998SOL      O12435   3.644   5.318   3.943 -0.2771  0.0327  0.5194
 2998SOL     H112436   3.673   5.315   3.851 -2.7142  1.3697 -0.3381
 2998SOL     H212437   3.559   5.275   3.942 -0.1244 -0.3223  2.2580
 2998SOL    EPW12438   3.638   5.313   3.933 -0.5208  0.1374  0.6134
 2999SOL      O12439   2.065   4.535   3.775 -0.3247  0.5434  0.5464
 2999SOL     H112440   2.106   4.500   3.696 -3.0178  1.9830 -1.5773
 2999SOL     H212441   2.062   4.461   3.835 -1.4627 -1.5765 -2.0302
 2999SOL    EPW12442   2.069   4.523   3.773 -0.7334  0.4708  0.0450
 3000SOL      O12443   0.424   0.739   1.198 -0.1700 -0.2702 -0.7565
 3000SOL     H112444   0.497   0.797   1.219 -0.2038 -1.0758  1.8582
 3000SOL     H212445   0.437   0.716   1.106  1.2669  1.8194 -1.1141
 3000SOL    EPW12446   0.433   0.742   1.191 -0.0203 -0.1332 -0.5157
 3001SOL      O12447   0.153   2.284   0.690  0.2182  0.1318 -0.3425
 3001SOL     H112448   0.103   2.297   0.771  1.0507  0.0134  0.2018
 3001SOL     H212449   0.089   2.253   0.627 -0.6363  1.1364  0.0035
 3001SOL    EPW12450   0.141   2.282   0.692  0.2159  0.2263 -0.2475
 3002SOL      O12451   5.048   3.789   3.597 -0.0816  0.0002 -0.2564
 3002SOL     H112452   5.011   3.757   3.515  1.6682 -0.1845 -1.0000
 3002SOL     H212453   5.118   3.849   3.570 -1.2004  1.9803  1.1266
 3002SOL    EPW12454   5.051   3.792   3.585 -0.0143  0.1917 -0.1882
 3003SOL      O12455   5.158   2.903   2.271 -0.4269 -0.0739 -0.2108
 3003SOL     H112456   5.221   2.833   2.257 -0.9908 -0.7034  0.3446
 3003SOL     H212457   5.195   2.978   2.226 -0.0473 -0.8576 -1.2126
 3003SOL    EPW12458   5.169   2.903   2.265 -0.4465 -0.2246 -0.2584
 3004SOL      O12459   5.107   1.096   0.356  0.0450  0.1334  0.6756
 3004SOL     H112460   5.094   1.008   0.393 -0.2787  0.3145  0.9944
 3004SOL     H212461   5.202   1.104   0.345  0.0062 -0.6661 -0.3610
 3004SOL    EPW12462   5.116   1.087   0.359  0.0063  0.0675  0.5991
 3005SOL      O12463   2.571   3.553   3.739 -0.7278  0.3374  0.0978
 3005SOL     H112464   2.511   3.570   3.666 -0.2163  2.2842  0.1125
 3005SOL     H212465   2.658   3.572   3.704 -0.4102  0.5659  0.9937
 3005SOL    EPW12466   2.574   3.557   3.727 -0.6394  0.5695  0.1949
 3006SOL      O12467   2.924   3.755   3.957 -0.6576 -0.6958 -0.4293
 3006SOL     H112468   2.840   3.718   3.932 -1.1027  1.6407 -2.6739
 3006SOL     H212469   2.918   3.847   3.930  2.0380 -0.1299  0.7631
 3006SOL    EPW12470   2.915   3.761   3.951 -0.4176 -0.3862 -0.5415
 3007SOL      O12471   2.436   0.179   3.593  0.1650 -0.0477 -0.7891
 3007SOL     H112472   2.456   0.236   3.519  0.7010  0.5790 -0.1638
 3007SOL     H212473   2.408   0.239   3.663 -0.6767 -0.6574 -0.5947
 3007SOL    EPW12474   2.435   0.192   3.593  0.1324 -0.0458 -0.7017
 3008SOL      O12475   1.119   5.314   2.797 -0.1885  0.2350  0.1908
 3008SOL     H112476   1.146   5.405   2.813 -0.1952  0.2131  0.3212
 3008SOL     H212477   1.076   5.287   2.877 -3.3548  1.2834 -1.0748
 3008SOL    EPW12478   1.118   5.321   2.807 -0.5270  0.3445  0.0697
 3009SOL      O12479   2.476   3.475   4.137  0.0749 -0.0612  0.0923
 3009SOL     H112480   2.554   3.461   4.190 -1.7668 -0.9805  2.6559
 3009SOL     H212481   2.477   3.403   4.073 -0.0092 -1.6511  1.8170
 3009SOL    EPW12482   2.484   3.465   4.135 -0.1306 -0.3289  0.5498
 3010SOL      O12483   5.058   1.703   0.194  0.1991 -0.4517 -0.1179
 3010SOL     H112484   5.098   1.631   0.243  1.8066  1.1790  1.0280
 3010SOL     H212485   4.987   1.661   0.145  0.5063 -2.6601  1.2155
 3010SOL    EPW12486   5.055   1.690   0.194  0.4034 -0.5133  0.1466
 3011SOL      O12487   5.090   3.094   0.896  0.2867  0.5577 -0.1298
 3011SOL     H112488   5.006   3.097   0.849  1.3983 -0.8388 -2.2758
 3011SOL     H212489   5.065   3.078   0.987 -1.7563 -0.7071 -0.8636
 3011SOL    EPW12490   5.078   3.093   0.901  0.1873  0.2738 -0.4370
 3012SOL      O12491   3.328   4.932   2.605  0.6788 -0.2557 -0.2767
 3012SOL     H112492   3.306   4.865   2.670  2.3998 -0.8991 -0.3066
 3012SOL     H212493   3.423   4.942   2.613  0.8723 -0.0591 -2.3975
 3012SOL    EPW12494   3.336   4.926   2.613  0.8830 -0.3034 -0.5061
 3013SOL      O12495   4.245   0.545   0.017 -0.2437  0.0052  0.2441
 3013SOL     H112496   4.224   0.607  -0.052  1.5700  0.6409  0.2417
 3013SOL     H212497   4.293   0.475  -0.027 -0.5086 -0.4045  0.5951
 3013SOL    EPW12498   4.248   0.544   0.005 -0.0785  0.0293  0.2813
 3014SOL      O12499   5.601   1.443   0.120 -0.7941 -0.3213 -0.1050
 3014SOL     H112500   5.510   1.414   0.112 -0.3585 -1.9712  0.8127
 3014SOL     H212501   5.624   1.426   0.211  0.8293 -1.0471 -0.6393
 3014SOL    EPW12502   5.594   1.438   0.129 -0.5745 -0.5748 -0.0641
 3015SOL      O12503   2.904   3.071   4.102  0.4549  0.3860  0.5300
 3015SOL     H112504   2.832   3.032   4.151 -0.0229  0.2644 -0.2478
 3015SOL     H212505   2.982   3.022   4.130  0.2881  0.7457  1.6211
 3015SOL    EPW12506   2.905   3.062   4.110  0.3862  0.4114  0.5635
 3016SOL      O12507   2.941   5.702   4.019 -0.1053  0.2862  0.0840
 3016SOL     H112508   2.862   5.750   4.045  0.3275  0.3206  1.3371
 3016SOL     H212509   2.914   5.655   3.940 -0.5781  2.4718 -1.1213
 3016SOL    EPW12510   2.930   5.702   4.013 -0.1096  0.5230  0.0891
 3017SOL      O12511   2.711   5.250   3.786 -0.4610 -0.4369 -0.4220
 3017SOL     H112512   2.749   5.188   3.848  2.0947  0.1002 -1.3689
 3017SOL     H212513   2.620   5.259   3.814  0.5431 -0.3752  3.0897
 3017SOL    EPW12514   2.706   5.244   3.795 -0.0812 -0.3730 -0.1484
 3018SOL      O12515   5.072   1.245   0.002 -0.3412 -0.3875 -0.1977
 3018SOL     H112516   5.018   1.288   0.068 -1.2118 -1.1992 -0.3595
 3018SOL     H212517   5.026   1.163  -0.016  0.4352 -0.6422 -1.0565
 3018SOL    EPW12518   5.061   1.241   0.007 -0.3513 -0.5012 -0.3066
 3019SOL      O12519   3.519   4.722   3.680  0.0124 -0.3686  0.4848
 3019SOL     H112520   3.546   4.661   3.611 -2.5219 -1.2307  0.1894
 3019SOL     H212521   3.582   4.708   3.750  1.9785 -0.2974 -1.1982
 3019SOL    EPW12522   3.529   4.714   3.680 -0.0482 -0.4529  0.2737
 3020SOL      O12523   2.358   5.085   4.090 -0.5376  0.3650  0.4566
 3020SOL     H112524   2.302   5.153   4.129  0.7853  1.4213  0.5733
 3020SOL     H212525   2.446   5.106   4.122  0.0860 -0.6520 -0.5592
 3020SOL    EPW12526   2.362   5.095   4.098 -0.3299  0.3692  0.3607
 3021SOL      O12527   1.653   3.923   3.547  0.0789 -0.5723 -0.6261
 3021SOL     H112528   1.705   3.956   3.473  0.9952 -0.6882 -0.0478
 3021SOL     H212529   1.673   3.830   3.551  1.2411 -0.2991  0.6927
 3021SOL    EPW12530   1.661   3.917   3.540  0.3006 -0.5555 -0.4237
 3022SOL      O12531   2.681   4.874   2.460  0.6543  0.1989  0.0140
 3022SOL     H112532   2.641   4.887   2.547  1.8929 -2.7101  1.0553
 3022SOL     H212533   2.772   4.899   2.472  0.5235  1.1029 -0.8347
 3022SOL    EPW12534   2.686   4.878   2.471  0.7724 -0.0150  0.0346
 3023SOL      O12535   2.621   0.192   2.607 -0.1328  0.2194  0.5708
 3023SOL     H112536   2.709   0.211   2.576  0.6666 -0.9084  2.0937
 3023SOL     H212537   2.633   0.166   2.699 -2.1984  1.4914  1.2455
 3023SOL    EPW12538   2.632   0.192   2.614 -0.2679  0.2347  0.8052
 3024SOL      O12539   3.273   4.240   2.895  0.4492 -0.0912  0.2036
 3024SOL     H112540   3.278   4.333   2.917 -0.6306  0.3430 -1.2915
 3024SOL     H212541   3.326   4.231   2.816  1.9189 -1.0711  1.2890
 3024SOL    EPW12542   3.279   4.249   2.889  0.4908 -0.1494  0.1599
 3025SOL      O12543   4.761   0.336   0.916  0.1134 -0.0040 -0.1914
 3025SOL     H112544   4.855   0.322   0.927  0.1473 -1.1458 -1.7802
 3025SOL     H212545   4.723   0.249   0.925 -0.6578  0.2680 -0.8268
 3025SOL    EPW12546   4.767   0.326   0.918  0.0347 -0.0968 -0.4287
 3026SOL      O12547   2.162   4.778   3.253 -0.7315  0.5150 -0.3523
 3026SOL     H112548   2.077   4.769   3.296 -0.9326  0.6633 -0.7136
 3026SOL     H212549   2.190   4.688   3.236 -0.9120  0.4690 -0.4142
 3026SOL    EPW12550   2.156   4.768   3.255 -0.7722  0.5259 -0.3974
 3027SOL      O12551   0.888   2.367   2.105  0.0039 -0.0250 -0.4506
 3027SOL     H112552   0.981   2.359   2.126 -0.5869 -1.4914  1.7995
 3027SOL     H212553   0.874   2.461   2.095  2.0432  0.1248 -2.5439
 3027SOL    EPW12554   0.897   2.376   2.106  0.1584 -0.1654 -0.4338
 3028SOL      O12555   5.260   1.507   0.297 -0.3872  0.4936 -0.1863
 3028SOL     H112556   5.319   1.582   0.303  2.2525 -1.6744  1.6889
 3028SOL     H212557   5.306   1.443   0.243 -1.1874 -1.0636  0.9220
 3028SOL    EPW12558   5.271   1.508   0.292 -0.1910  0.0962  0.1319
 3029SOL      O12559   5.239   2.451   0.218 -0.0298 -0.1898 -0.3830
 3029SOL     H112560   5.334   2.441   0.217  0.2164  1.8114  0.1599
 3029SOL     H212561   5.224   2.541   0.188 -1.7191 -0.3415 -0.0463
 3029SOL    EPW12562   5.247   2.460   0.215 -0.1837  0.0075 -0.2892
 3030SOL      O12563   3.061   0.571   2.753 -0.5583 -0.2740 -0.7569
 3030SOL     H112564   2.977   0.571   2.707  1.1223  0.7580 -3.9846
 3030SOL     H212565   3.090   0.480   2.749 -0.4473 -0.1972 -1.6755
 3030SOL    EPW12566   3.055   0.561   2.748 -0.3671 -0.1557 -1.1992
 3031SOL      O12567   5.853   2.646   0.974  0.4087 -0.0030  0.0750
 3031SOL     H112568   5.813   2.636   0.888 -1.5614  0.7391  0.8745
 3031SOL     H212569   5.821   2.571   1.024 -0.1423  0.6947  0.7769
 3031SOL    EPW12570   5.845   2.637   0.970  0.1398  0.1506  0.2352
 3032SOL      O12571   2.376   0.330   2.579 -0.0355 -0.4595 -0.7714
 3032SOL     H112572   2.449   0.268   2.587 -1.6039 -2.3847 -0.8122
 3032SOL     H212573   2.340   0.336   2.667  0.1076  0.4061 -0.7706
 3032SOL    EPW12574   2.380   0.324   2.589 -0.1875 -0.5725 -0.7756
 3033SOL      O12575   5.785   1.882   1.354 -0.4009  0.0897 -0.0723
 3033SOL     H112576   5.787   1.880   1.258  0.9690  0.1002 -0.0439
 3033SOL     H212577   5.710   1.938   1.374 -1.0015 -0.3071 -1.1335
 3033SOL    EPW12578   5.777   1.888   1.346 -0.3189  0.0485 -0.1825
 3034SOL      O12579   2.017   0.532   1.319  0.2767 -0.0966 -0.2147
 3034SOL     H112580   1.954   0.511   1.249  1.4108  1.3069 -1.6997
 3034SOL     H212581   2.018   0.454   1.374 -3.1765  0.0614  0.1776
 3034SOL    EPW12582   2.010   0.521   1.317  0.0293  0.0700 -0.3313
 3035SOL      O12583   0.126   1.912   0.575 -0.3493  0.3711  0.3449
 3035SOL     H112584   0.057   1.943   0.635 -0.4055  3.0443 -1.0423
 3035SOL     H212585   0.084   1.911   0.489  0.0288 -2.4682  0.1593
 3035SOL    EPW12586   0.114   1.915   0.573 -0.3150  0.3534  0.1771
 3036SOL      O12587   2.409   3.336   3.742 -0.6891  0.0358 -0.1205
 3036SOL     H112588   2.358   3.319   3.820  0.0731  0.2219  0.4225
 3036SOL     H212589   2.486   3.383   3.773 -1.3555  1.9042 -1.2416
 3036SOL    EPW12590   2.412   3.339   3.753 -0.6789  0.2550 -0.1822
 3037SOL      O12591   4.951   2.508   0.291  0.1460  0.0439 -0.0683
 3037SOL     H112592   4.889   2.560   0.343  1.7017  0.2696  1.6475
 3037SOL     H212593   5.027   2.498   0.349  1.9212  0.2366 -2.3131
 3037SOL    EPW12594   4.953   2.512   0.303  0.5013  0.0885 -0.1247
 3038SOL      O12595   1.133   3.094   0.828  0.0822 -0.0662  0.0619
 3038SOL     H112596   1.209   3.149   0.811 -2.1606  2.6906 -1.6375
 3038SOL     H212597   1.072   3.117   0.758 -2.3148 -2.1788  1.3863
 3038SOL    EPW12598   1.134   3.102   0.818 -0.4128  0.0025  0.0219
 3039SOL      O12599   3.197   0.689   1.609  0.3932  0.1459  0.1450
 3039SOL     H112600   3.164   0.670   1.697  0.6146  0.6543  0.3445
 3039SOL     H212601   3.230   0.779   1.616  4.9060 -1.4266  0.8999
 3039SOL    EPW12602   3.197   0.697   1.619  0.8983  0.0324  0.2468
 3040SOL      O12603   1.615   2.521   3.213 -0.1132 -0.2331  0.3323
 3040SOL     H112604   1.609   2.447   3.152 -0.4833  0.2318 -0.2065
 3040SOL     H212605   1.709   2.543   3.214 -0.0946 -0.2853 -0.0242
 3040SOL    EPW12606   1.625   2.516   3.206 -0.1507 -0.1891  0.2368
 3041SOL      O12607   4.015   0.550   1.884  0.4098 -0.2893 -0.4205
 3041SOL     H112608   4.052   0.548   1.972  1.5672  0.4871 -0.8835
 3041SOL     H212609   3.968   0.466   1.876 -1.0956  0.3276  1.5021
 3041SOL    EPW12610   4.014   0.541   1.893  0.3727 -0.1406 -0.2648
 3042SOL      O12611   3.562   5.349   0.214 -0.0264  0.0376  0.0964
 3042SOL     H112612   3.649   5.327   0.250  0.9323  1.4788 -1.2994
 3042SOL     H212613   3.578   5.364   0.121 -1.5521  1.7006  0.0927
 3042SOL    EPW12614   3.573   5.348   0.208 -0.0869  0.3687 -0.0529
 3043SOL      O12615   2.123   0.871   1.342 -0.1766 -0.2812  0.3316
 3043SOL     H112616   2.133   0.924   1.263  0.7529  2.1302  2.0010
 3043SOL     H212617   2.039   0.897   1.379 -0.0406 -0.4666  0.7840
 3043SOL    EPW12618   2.115   0.879   1.338 -0.0629 -0.0438  0.5579
 3044SOL      O12619   3.528   0.027   1.184 -0.2023  0.1418 -0.2562
 3044SOL     H112620   3.526  -0.069   1.184  0.0693  0.0786 -3.3179
 3044SOL     H212621   3.614   0.049   1.219  0.0416 -0.7589 -0.2805
 3044SOL    EPW12622   3.537   0.019   1.187 -0.1473  0.0390 -0.5854
 3045SOL      O12623   2.103   0.984   1.095 -0.6542 -0.0892  0.1039
 3045SOL     H112624   2.027   0.943   1.054  0.6021 -0.5280 -1.8080
 3045SOL     H212625   2.165   0.998   1.024  1.0546  0.3249  1.6272
 3045SOL    EPW12626   2.102   0.981   1.083 -0.3379 -0.0918  0.0625
 3046SOL      O12627   2.712   5.766   1.489 -0.0503 -0.0492 -0.6258
 3046SOL     H112628   2.790   5.755   1.435 -1.8372 -1.7402 -2.9702
 3046SOL     H212629   2.646   5.801   1.429 -1.6108 -0.3685  0.8756
 3046SOL    EPW12630   2.713   5.769   1.477 -0.4074 -0.2636 -0.7157
 3047SOL      O12631   2.614   5.857   2.398 -0.3837  0.1247  0.2753
 3047SOL     H112632   2.637   5.891   2.484 -1.6731  1.1062  0.2390
 3047SOL     H212633   2.519   5.854   2.397 -0.4009  0.4512 -1.2385
 3047SOL    EPW12634   2.606   5.860   2.407 -0.5231  0.2643  0.1099
 3048SOL      O12635   2.776   1.369   0.904 -0.0348 -0.2871  0.4586
 3048SOL     H112636   2.791   1.352   0.811 -0.6551 -0.7123  0.4305
 3048SOL     H212637   2.744   1.285   0.938  0.9778 -0.3706  1.2264
 3048SOL    EPW12638   2.774   1.358   0.897  0.0070 -0.3414  0.5375
 3049SOL      O12639   0.499   3.480   3.956 -0.0158  0.3743 -0.4090
 3049SOL     H112640   0.581   3.436   3.932  1.0066  1.9578  0.0675
 3049SOL     H212641   0.522   3.573   3.958 -1.1231  0.6409  2.5246
 3049SOL    EPW12642   0.511   3.485   3.953 -0.0249  0.5717 -0.0452
 3050SOL      O12643   1.892   1.225   0.163 -0.5509 -0.0959 -0.6108
 3050SOL     H112644   1.916   1.139   0.130 -1.1316  0.0360 -1.4033
 3050SOL     H212645   1.803   1.214   0.198  0.3150 -0.4004  1.5818
 3050SOL    EPW12646   1.885   1.215   0.163 -0.5205 -0.1143 -0.4615
 3051SOL      O12647   3.468   0.338   1.106 -0.2356  0.0754  0.0056
 3051SOL     H112648   3.558   0.369   1.119  0.0226 -0.2386 -1.0372
 3051SOL     H212649   3.462   0.320   1.013 -1.4533  0.2919  0.0402
 3051SOL    EPW12650   3.477   0.340   1.098 -0.3380  0.0650 -0.1019
 3052SOL      O12651   5.801   0.020   2.009  0.1796 -0.5712  0.1289
 3052SOL     H112652   5.760   0.083   1.948 -0.1085 -0.3238  0.5761
 3052SOL     H212653   5.783   0.056   2.096 -1.1462 -1.9585  0.4458
 3052SOL    EPW12654   5.794   0.030   2.011  0.0074 -0.6928  0.2104
 3053SOL      O12655   5.771   3.712   3.302  0.0667  0.2966 -0.3762
 3053SOL     H112656   5.766   3.763   3.221  3.4668  3.1985  1.1763
 3053SOL     H212657   5.844   3.652   3.288 -0.5881 -0.5644 -0.1700
 3053SOL    EPW12658   5.778   3.711   3.292  0.3596  0.5143 -0.1886
 3054SOL      O12659   3.592   2.254   3.574 -0.5972  0.5837 -0.0899
 3054SOL     H112660   3.541   2.314   3.520  0.3410  0.9876 -0.5342
 3054SOL     H212661   3.683   2.267   3.546 -0.0687  0.9223  1.6793
 3054SOL    EPW12662   3.597   2.262   3.566 -0.4407  0.6629  0.0514
 3055SOL      O12663   0.080   2.687   4.110 -0.0089  0.0656  0.0951
 3055SOL     H112664   0.110   2.705   4.020  0.2858  1.6208  0.4773
 3055SOL     H212665   0.155   2.709   4.164  0.2131 -2.0144  0.6679
 3055SOL    EPW12666   0.091   2.692   4.106  0.0462  0.0097  0.1970
 3056SOL      O12667   0.432   1.351   4.086 -0.2139  0.2546 -0.6317
 3056SOL     H112668   0.468   1.338   4.174  0.3631  1.0473 -0.7432
 3056SOL     H212669   0.482   1.425   4.051 -1.1267  0.5838 -1.2519
 3056SOL    EPW12670   0.441   1.357   4.092 -0.2497  0.3743 -0.7098
 3057SOL      O12671   2.559   1.808   1.519  0.0748 -0.6116  0.2666
 3057SOL     H112672   2.553   1.781   1.611 -0.5528 -0.3807  0.2941
 3057SOL     H212673   2.471   1.795   1.484  0.2885 -0.5999 -0.2756
 3057SOL    EPW12674   2.549   1.804   1.525  0.0306 -0.5857  0.2117
 3058SOL      O12675   2.101   4.540   0.984 -0.2888 -0.2095  1.0898
 3058SOL     H112676   2.051   4.474   1.033 -1.8445 -0.3658 -0.6351
 3058SOL     H212677   2.037   4.578   0.924  1.1445  1.2677  0.4698
 3058SOL    EPW12678   2.089   4.537   0.983 -0.3019 -0.0686  0.8397
 3059SOL      O12679   2.002   5.301   1.451  0.3848  0.7938 -0.4766
 3059SOL     H112680   1.980   5.328   1.540 -0.3794 -1.7917  0.1504
 3059SOL     H212681   2.008   5.206   1.455 -1.4062  0.4715 -3.5879
 3059SOL    EPW12682   2.000   5.294   1.461  0.1122  0.4836 -0.7416
 3060SOL      O12683   3.862   5.322   1.389 -0.3700 -0.3497 -0.1766
 3060SOL     H112684   3.812   5.254   1.344  1.7418 -0.8141 -1.9088
 3060SOL     H212685   3.797   5.370   1.440 -2.1335 -2.6761 -0.1609
 3060SOL    EPW12686   3.850   5.319   1.390 -0.3328 -0.6474 -0.3597
 3061SOL      O12687   2.638   5.586   2.317 -0.1444  0.1549 -0.5757
 3061SOL     H112688   2.700   5.588   2.244 -0.2494  0.8792 -0.6465
 3061SOL     H212689   2.632   5.677   2.346 -1.7627  0.2169 -1.0650
 3061SOL    EPW12690   2.644   5.596   2.313 -0.3282  0.2388 -0.6354
 3062SOL      O12691   5.559   2.139   4.055 -0.1069 -0.0345 -0.0125
 3062SOL     H112692   5.517   2.072   4.001  1.3346 -0.7435 -0.3067
 3062SOL     H212693   5.653   2.124   4.041  0.2761  0.2166  2.1571
 3062SOL    EPW12694   5.565   2.130   4.048  0.0878 -0.0833  0.1876
 3063SOL      O12695   1.605   5.703   1.143 -0.4730 -0.1344 -0.1553
 3063SOL     H112696   1.698   5.689   1.124 -0.4797 -1.3637  0.6244
 3063SOL     H212697   1.600   5.794   1.170  0.4079  0.1127 -0.7699
 3063SOL    EPW12698   1.615   5.711   1.144 -0.3798 -0.2392 -0.1376
 3064SOL      O12699   2.795   0.964   0.477  0.0194  0.4203  0.1614
 3064SOL     H112700   2.837   1.032   0.424  0.4270  0.2517  0.2658
 3064SOL     H212701   2.862   0.939   0.541  0.8925 -2.0770 -1.6313
 3064SOL    EPW12702   2.807   0.969   0.479  0.1560  0.1359 -0.0187
 3065SOL      O12703   2.174   5.817   1.841  0.3241 -0.1998  0.6689
 3065SOL     H112704   2.265   5.800   1.867  0.6318 -0.9318 -0.8083
 3065SOL     H212705   2.124   5.750   1.887  0.6024 -0.1712  1.0189
 3065SOL    EPW12706   2.178   5.808   1.848  0.3866 -0.2749  0.5487
 3066SOL      O12707   2.316   5.760   0.111  0.0081  0.2634 -0.6934
 3066SOL     H112708   2.254   5.788   0.044  0.3149  2.3162 -0.1360
 3066SOL     H212709   2.389   5.822   0.105  0.5809 -0.2369  0.7404
 3066SOL    EPW12710   2.318   5.769   0.103  0.1020  0.4290 -0.4810
 3067SOL      O12711   3.192   5.515   0.220 -0.0727 -0.2597  0.0836
 3067SOL     H112712   3.217   5.596   0.177 -0.7948  1.3259  2.5833
 3067SOL     H212713   3.140   5.468   0.154  0.3600  1.2641 -1.3750
 3067SOL    EPW12714   3.189   5.518   0.208 -0.1036  0.0720  0.1946
 3068SOL      O12715   0.916   0.918   0.771 -0.0748  0.1712 -0.9717
 3068SOL     H112716   0.933   1.011   0.758 -1.3005  0.8712  1.9070
 3068SOL     H212717   0.863   0.914   0.852 -0.2353 -2.9896 -1.1411
 3068SOL    EPW12718   0.912   0.927   0.779 -0.2226 -0.0913 -0.6827
 3069SOL      O12719   1.649   3.767   1.707  0.5588  0.2658  0.2900
 3069SOL     H112720   1.742   3.755   1.687  0.0267 -0.7591 -1.6479
 3069SOL     H212721   1.642   3.859   1.735  1.7638  1.0401 -1.8554
 3069SOL    EPW12722   1.658   3.776   1.708  0.6306  0.2391 -0.1456
 3070SOL      O12723   2.884   1.192   0.153  0.6797  0.4399 -0.0259
 3070SOL     H112724   2.807   1.150   0.114  0.9879 -0.5625  0.4256
 3070SOL     H212725   2.920   1.246   0.083  0.0315  0.2754 -0.4944
 3070SOL    EPW12726   2.879   1.193   0.142  0.6435  0.3154 -0.0277
 3071SOL      O12727   3.962   1.631   2.063  0.7708  0.4591  0.1200
 3071SOL     H112728   3.891   1.571   2.084  0.0245  1.6294  0.9770
 3071SOL     H212729   4.017   1.582   2.001 -0.6983 -0.5041 -0.4474
 3071SOL    EPW12730   3.961   1.619   2.058  0.5345  0.4812  0.1509
 3072SOL      O12731   2.879   0.788   2.416  0.0765 -0.1714 -0.2762
 3072SOL     H112732   2.834   0.843   2.352 -0.7135  0.2227  0.5942
 3072SOL     H212733   2.945   0.741   2.366  0.3098  1.0717 -1.1507
 3072SOL    EPW12734   2.881   0.789   2.404  0.0171  0.0033 -0.2766
 3073SOL      O12735   3.149   1.260   3.330 -0.1632 -0.2243 -0.3112
 3073SOL     H112736   3.127   1.250   3.422 -2.4408 -0.3596 -0.8366
 3073SOL     H212737   3.177   1.172   3.302 -2.0180 -0.8229 -0.3652
 3073SOL    EPW12738   3.150   1.249   3.337 -0.6041 -0.3026 -0.3730
 3074SOL      O12739   3.652   5.395   2.837  0.1268  0.2439 -0.0740
 3074SOL     H112740   3.716   5.325   2.851 -0.1379  0.0966  0.4214
 3074SOL     H212741   3.602   5.368   2.760 -0.0336 -0.1556  0.1718
 3074SOL    EPW12742   3.653   5.385   2.830  0.0814  0.1856  0.0051
 3075SOL      O12743   2.401   5.611   2.173  0.0236  0.0454  0.2862
 3075SOL     H112744   2.367   5.700   2.187  0.2003 -0.1057  1.6749
 3075SOL     H212745   2.482   5.608   2.224  0.7506 -0.4676 -0.8854
 3075SOL    EPW12746   2.406   5.620   2.180  0.1200 -0.0254  0.3094
 3076SOL      O12747   0.849   2.781   0.987 -0.1804  0.4791  0.5458
 3076SOL     H112748   0.760   2.801   0.957 -0.0447 -2.4968 -2.0638
 3076SOL     H212749   0.904   2.790   0.909  1.7884  1.7841  2.0112
 3076SOL    EPW12750   0.845   2.784   0.975  0.0441  0.3008  0.4238
 3077SOL      O12751   1.014   4.801   0.875 -0.2874  0.5515  0.5467
 3077SOL     H112752   1.065   4.868   0.922  0.0522 -0.4078  1.5486
 3077SOL     H212753   0.960   4.852   0.814 -1.2696  1.8854  2.4591
 3077SOL    EPW12754   1.014   4.814   0.874 -0.3559  0.5915  0.8576
 3078SOL      O12755   2.062   0.079   2.873  0.1317 -0.3809  0.1108
 3078SOL     H112756   1.973   0.111   2.857  0.5760  0.2258 -1.2040
 3078SOL     H212757   2.101   0.071   2.786  1.7828  0.5409  0.7388
 3078SOL    EPW12758   2.057   0.081   2.862  0.3552 -0.2179  0.0375
 3079SOL      O12759   0.584   4.617   0.157 -0.2164  0.3343  0.0062
 3079SOL     H112760   0.669   4.647   0.125 -0.3118  0.5997 -0.0009
 3079SOL     H212761   0.521   4.649   0.091 -0.0108 -2.5558 -1.6968
 3079SOL    EPW12762   0.586   4.623   0.146 -0.2046  0.0543 -0.1763
 3080SOL      O12763   2.003   0.627   1.997 -0.0503  0.1410 -0.7143
 3080SOL     H112764   2.061   0.553   1.981 -1.9256 -1.8535  1.2798
 3080SOL     H212765   1.949   0.633   1.918 -0.3376 -1.0584 -0.6142
 3080SOL    EPW12766   2.003   0.620   1.987 -0.2810 -0.1997 -0.4909
 3081SOL      O12767   2.779   5.586   3.382  0.6482  0.3346  0.2110
 3081SOL     H112768   2.818   5.500   3.400  0.0898 -0.3682 -1.8337
 3081SOL     H212769   2.730   5.573   3.302 -2.8832  1.5274  2.1000
 3081SOL    EPW12770   2.778   5.575   3.376  0.2119  0.3869  0.1944
 3082SOL      O12771   2.863   5.366   2.129  0.6557 -0.2811 -0.4016
 3082SOL     H112772   2.884   5.296   2.068  1.3965 -0.8846  0.5432
 3082SOL     H212773   2.838   5.321   2.210  0.9868  0.5336  0.1627
 3082SOL    EPW12774   2.862   5.354   2.131  0.7700 -0.2585 -0.2406
 3083SOL      O12775   2.404   0.476   1.363  0.0224 -0.2121 -0.0834
 3083SOL     H112776   2.496   0.480   1.337 -0.2420  0.5993 -0.9393
 3083SOL     H212777   2.360   0.538   1.304 -0.9650 -0.1126  0.7440
 3083SOL    EPW12778   2.409   0.483   1.354 -0.1112 -0.1149 -0.0864
 3084SOL      O12779   3.009   0.003   3.037 -0.5658 -0.6279  0.4339
 3084SOL     H112780   3.073  -0.046   2.986  2.5108  2.0344  1.5407
 3084SOL     H212781   2.998  -0.049   3.117  0.3110 -1.0714  0.2749
 3084SOL    EPW12782   3.015  -0.008   3.040 -0.1441 -0.3912  0.5350
 3085SOL      O12783   2.717   5.685   3.638 -0.1236  0.0432  0.6418
 3085SOL     H112784   2.747   5.648   3.555 -0.9022  0.0188  0.3686
 3085SOL     H212785   2.761   5.633   3.705  1.0036  0.4665  0.2465
 3085SOL    EPW12786   2.725   5.676   3.636 -0.0864  0.0858  0.5705
 3086SOL      O12787   0.799   4.760   1.072  0.1835  0.3032 -0.6096
 3086SOL     H112788   0.810   4.670   1.104 -1.2036  0.1666 -0.4922
 3086SOL     H212789   0.871   4.772   1.010  0.2751 -0.9521 -0.7698
 3086SOL    EPW12790   0.808   4.752   1.069  0.0453  0.1547 -0.6142
 3087SOL      O12791   1.448   0.650   1.424  0.6697 -0.4662  0.1382
 3087SOL     H112792   1.431   0.556   1.426 -1.6877 -0.0743 -0.0312
 3087SOL     H212793   1.362   0.690   1.437  1.3289  1.6534 -1.6920
 3087SOL    EPW12794   1.437   0.644   1.425  0.4886 -0.1983 -0.0751
 3088SOL      O12795   1.254   2.362   0.105  0.3966 -0.2949  0.2017
 3088SOL     H112796   1.170   2.318   0.120 -0.3002  1.1916  0.7758
 3088SOL     H212797   1.242   2.408   0.022  0.6180 -0.0243  0.3198
 3088SOL    EPW12798   1.244   2.362   0.098  0.3459 -0.1075  0.2755
 3089SOL      O12799   2.224   0.046   3.485  0.1987 -0.5247 -0.4836
 3089SOL     H112800   2.161   0.103   3.440 -1.7201 -0.7480  1.8487
 3089SOL     H212801   2.303   0.099   3.493 -0.9751  1.1905  0.0457
 3089SOL    EPW12802   2.226   0.058   3.481 -0.1312 -0.3655 -0.1783
 3090SOL      O12803   2.789   5.616   2.095  0.6579  0.3058  0.1480
 3090SOL     H112804   2.730   5.599   2.022 -0.0576  0.4560  0.6721
 3090SOL     H212805   2.832   5.532   2.111  0.7550  0.2509 -0.3907
 3090SOL    EPW12806   2.787   5.605   2.089  0.5919  0.3159  0.1465
 3091SOL      O12807   1.079   5.235   1.966 -0.0449  0.2008  0.2440
 3091SOL     H112808   1.061   5.147   1.932  2.0405 -0.7474  1.4624
 3091SOL     H212809   1.011   5.249   2.032 -1.1304  0.0221 -0.8279
 3091SOL    EPW12810   1.070   5.227   1.970  0.0617  0.0806  0.2596
 3092SOL      O12811   2.991   0.864   3.093  0.2146 -0.5109  0.2383
 3092SOL     H112812   2.922   0.889   3.033 -0.6464 -0.5285  1.2064
 3092SOL     H212813   3.055   0.936   3.089 -0.8130  0.4390  0.8117
 3092SOL    EPW12814   2.991   0.874   3.086  0.0132 -0.4115  0.4028
 3093SOL      O12815   5.362   3.684   0.363 -0.4453  0.3304 -0.2481
 3093SOL     H112816   5.354   3.704   0.269  1.0292  2.8289  0.1308
 3093SOL     H212817   5.293   3.735   0.405  0.9950  1.8486  0.3388
 3093SOL    EPW12818   5.354   3.691   0.357 -0.1344  0.7589 -0.1451
 3094SOL      O12819   1.274   1.452   2.041  0.0038  0.0916 -0.4538
 3094SOL     H112820   1.349   1.508   2.020  0.0216  0.0142 -0.5938
 3094SOL     H212821   1.200   1.492   1.995  0.2967 -0.8315 -1.7588
 3094SOL    EPW12822   1.274   1.463   2.034  0.0370 -0.0151 -0.6080
 3095SOL      O12823   2.844   5.630   1.146 -0.1700  0.3184 -0.7646
 3095SOL     H112824   2.915   5.616   1.082 -2.9704  1.2128 -4.2294
 3095SOL     H212825   2.791   5.551   1.139  0.3291 -0.2467  1.6501
 3095SOL    EPW12826   2.846   5.620   1.138 -0.4155  0.3535 -0.8766
 3096SOL      O12827   0.818   0.162   2.151 -0.2478  0.1660 -0.2705
 3096SOL     H112828   0.762   0.173   2.074 -1.7187 -1.1572  0.6039
 3096SOL     H212829   0.895   0.116   2.118 -0.0274  1.2523 -1.3094
 3096SOL    EPW12830   0.820   0.159   2.139 -0.3812  0.1407 -0.2881
 3097SOL      O12831   3.296   2.154   2.253 -0.3799  0.4516 -0.7943
 3097SOL     H112832   3.311   2.203   2.172 -0.8550  3.1116  0.6766
 3097SOL     H212833   3.328   2.212   2.322 -2.8053 -0.4845  1.1685
 3097SOL    EPW12834   3.301   2.166   2.251 -0.6893  0.6355 -0.4280
 3098SOL      O12835   2.501   1.089   3.875  0.0925 -0.0311  0.1165
 3098SOL     H112836   2.485   1.047   3.959  0.0914  1.4132  0.8629
 3098SOL     H212837   2.506   1.017   3.812  0.6096 -1.1571  1.4269
 3098SOL    EPW12838   2.500   1.077   3.877  0.1475  0.0028  0.3359
 3099SOL      O12839   5.591   2.543   0.053 -0.0695  0.1797  0.0697
 3099SOL     H112840   5.686   2.538   0.040 -0.2776 -2.1429 -0.7323
 3099SOL     H212841   5.561   2.604  -0.014  0.7415  0.3056 -0.1883
 3099SOL    EPW12842   5.598   2.549   0.045 -0.0052 -0.0546 -0.0434
 3100SOL      O12843   4.825   4.619   4.018 -0.1433 -0.0424 -0.0030
 3100SOL     H112844   4.752   4.557   4.019 -0.6402  0.4968  2.3546
 3100SOL     H212845   4.902   4.567   3.995 -0.7600 -1.3050  0.7360
 3100SOL    EPW12846   4.825   4.607   4.016 -0.2621 -0.1196  0.3274
 3101SOL      O12847   3.638   5.690   3.740  0.1674 -0.3144 -0.2488
 3101SOL     H112848   3.551   5.682   3.701 -0.6106  1.9198  0.9530
 3101SOL     H212849   3.622   5.696   3.835  1.6125  0.0973 -0.0115
 3101SOL    EPW12850   3.627   5.690   3.746  0.2386 -0.0322 -0.0953
 3102SOL      O12851   1.447   0.242   2.429 -0.3871  0.2302  0.2390
 3102SOL     H112852   1.357   0.222   2.406 -0.4994  0.4790  0.4545
 3102SOL     H212853   1.491   0.258   2.345 -1.4323  3.7921  0.3094
 3102SOL    EPW12854   1.442   0.242   2.417 -0.5106  0.6367  0.2695
 3103SOL      O12855   1.807   0.204   2.862  0.6397  0.1525  0.2418
 3103SOL     H112856   1.776   0.153   2.787 -2.0326  0.1813  1.2839
 3103SOL     H212857   1.802   0.295   2.833  1.1355  0.0789 -0.0824
 3103SOL    EPW12858   1.803   0.208   2.851  0.4075  0.1477  0.3183
 3104SOL      O12859   2.224   0.646   1.202 -0.3085  0.4643 -0.8278
 3104SOL     H112860   2.211   0.724   1.257 -0.5680  0.4140 -0.8166
 3104SOL     H212861   2.160   0.583   1.235 -0.4956  0.4479 -1.2200
 3104SOL    EPW12862   2.215   0.647   1.212 -0.3562  0.4572 -0.8685
 3105SOL      O12863   1.987   5.318   3.194  0.0197 -1.2931  0.0928
 3105SOL     H112864   2.017   5.407   3.175 -0.8593 -0.9390  0.3323
 3105SOL     H212865   1.893   5.327   3.212  0.4621 -1.8301  2.9590
 3105SOL    EPW12866   1.980   5.328   3.194 -0.0269 -1.3126  0.4241
 3106SOL      O12867   1.344   5.449   3.174 -0.0628 -0.0331 -0.2039
 3106SOL     H112868   1.266   5.505   3.173 -1.5552 -1.9948  1.0317
 3106SOL     H212869   1.394   5.479   3.249  0.0856  0.8722 -0.6646
 3106SOL    EPW12870   1.341   5.458   3.182 -0.2062 -0.1458 -0.1212
 3107SOL      O12871   2.180   0.509   3.585  0.9726 -0.3356 -0.2742
 3107SOL     H112872   2.194   0.593   3.629 -0.5161 -0.4218  0.3766
 3107SOL     H212873   2.178   0.444   3.655 -1.5637 -0.4559 -0.4007
 3107SOL    EPW12874   2.181   0.511   3.597  0.5432 -0.3576 -0.2183
 3108SOL      O12875   3.800   5.263   3.438 -0.2403  0.0145 -0.0874
 3108SOL     H112876   3.823   5.293   3.350  1.6426 -1.3071 -0.0564
 3108SOL     H212877   3.738   5.192   3.423 -1.8723  1.4247 -0.2464
 3108SOL    EPW12878   3.796   5.259   3.427 -0.2135  0.0240 -0.1010
 3109SOL      O12879   0.031   2.543   0.039 -0.1031 -0.5013  0.6268
 3109SOL     H112880   0.025   2.593  -0.042 -3.3745  1.0440  1.7388
 3109SOL     H212881   0.041   2.452   0.010 -0.7185  0.0806 -1.5064
 3109SOL    EPW12882   0.031   2.539   0.027 -0.5178 -0.2743  0.5179
 3110SOL      O12883   3.724   0.859   3.358  0.5660  0.0858 -0.2224
 3110SOL     H112884   3.655   0.793   3.353  0.2839  0.2837  0.8686
 3110SOL     H212885   3.684   0.931   3.406  1.0324  0.8513 -0.9820
 3110SOL    EPW12886   3.713   0.859   3.363  0.5857  0.1886 -0.1870
 3111SOL      O12887   0.742   5.319   3.193 -0.1594 -0.0716  0.0321
 3111SOL     H112888   0.670   5.380   3.181 -0.7158 -0.5105  1.0774
 3111SOL     H212889   0.714   5.239   3.149 -1.0094 -0.7637  1.7728
 3111SOL    EPW12890   0.732   5.317   3.187 -0.3095 -0.1923  0.3293
 3112SOL      O12891   5.856   0.771   2.513  0.3433  0.2295 -0.7599
 3112SOL     H112892   5.777   0.724   2.487  0.5831 -0.5927  0.0029
 3112SOL     H212893   5.914   0.704   2.550  0.4854  1.1857  0.7893
 3112SOL    EPW12894   5.854   0.759   2.514  0.3840  0.2438 -0.5132
 3113SOL      O12895   1.644   4.493   2.238 -0.1990 -0.1669 -0.1040
 3113SOL     H112896   1.735   4.480   2.265 -0.2115 -0.4917 -0.2124
 3113SOL     H212897   1.593   4.483   2.318 -0.3802 -2.6952 -0.4817
 3113SOL    EPW12898   1.648   4.490   2.249 -0.2197 -0.4713 -0.1558
 3114SOL      O12899   4.914   0.545   0.798  0.0479  0.4869  0.0874
 3114SOL     H112900   4.849   0.476   0.808 -1.1365  1.7437  1.1720
 3114SOL     H212901   4.997   0.504   0.824 -0.8783 -0.1025  2.2214
 3114SOL    EPW12902   4.916   0.534   0.802 -0.1772  0.5581  0.4308
 3115SOL      O12903   2.928   4.271   3.961  0.3045 -0.1646 -0.0379
 3115SOL     H112904   2.861   4.340   3.967 -1.1975 -1.6399  0.4955
 3115SOL     H212905   2.913   4.229   3.877 -1.0475 -2.0855  1.1230
 3115SOL    EPW12906   2.919   4.274   3.953  0.0001 -0.5269  0.1428
 3116SOL      O12907   1.165   1.763   0.432  0.2274  0.1213 -0.2356
 3116SOL     H112908   1.195   1.713   0.357  1.2504  0.6430 -0.1939
 3116SOL     H212909   1.181   1.706   0.507 -0.7468 -0.3790 -0.4015
 3116SOL    EPW12910   1.170   1.752   0.432  0.2326  0.1236 -0.2488
 3117SOL      O12911   4.648   2.924   2.307  0.2034 -0.1925  0.0273
 3117SOL     H112912   4.722   2.935   2.246  0.2336  0.4362  0.1705
 3117SOL     H212913   4.625   3.014   2.332 -1.1627 -0.3347 -0.6794
 3117SOL    EPW12914   4.654   2.935   2.303  0.0609 -0.1406 -0.0328
 3118SOL      O12915   4.781   1.665   1.287  0.2134 -0.4779 -0.1808
 3118SOL     H112916   4.773   1.597   1.220 -0.1282  0.1380 -0.7728
 3118SOL     H212917   4.873   1.663   1.312  0.5816 -0.0018 -1.4372
 3118SOL    EPW12918   4.790   1.658   1.282  0.2163 -0.3614 -0.3780
 3119SOL      O12919   4.116   5.282   1.792  0.3181 -0.1019 -0.4020
 3119SOL     H112920   4.112   5.249   1.702 -0.4270 -0.2702 -0.3085
 3119SOL     H212921   4.210   5.290   1.810  0.4723  0.0828 -1.2494
 3119SOL    EPW12922   4.126   5.280   1.784  0.2551 -0.1002 -0.4824
 3120SOL      O12923   3.965   5.837   0.576  0.2599  0.0053 -1.0901
 3120SOL     H112924   4.002   5.873   0.656 -0.4008  0.1377 -0.8430
 3120SOL     H212925   3.870   5.838   0.590  0.0661  1.2192 -2.3720
 3120SOL    EPW12926   3.959   5.841   0.586  0.1688  0.1489 -1.2005
 3121SOL      O12927   4.832   0.814   0.899 -0.2849  0.6766  0.2327
 3121SOL     H112928   4.737   0.818   0.884 -0.1916  1.4529 -0.1375
 3121SOL     H212929   4.856   0.725   0.871 -0.4794  1.3479 -2.1994
 3121SOL    EPW12930   4.824   0.805   0.894 -0.2957  0.8310 -0.0662
 3122SOL      O12931   1.034   3.517   3.978  0.1726  0.0622 -0.3294
 3122SOL     H112932   1.021   3.546   3.887 -0.2170 -0.2671 -0.3831
 3122SOL     H212933   1.017   3.423   3.976  0.4395  0.0050  0.0341
 3122SOL    EPW12934   1.030   3.510   3.968  0.1595  0.0210 -0.2963
 3123SOL      O12935   5.500   0.637   0.327  0.1170 -0.0299 -0.2722
 3123SOL     H112936   5.411   0.660   0.300  0.0259 -1.2300 -1.0039
 3123SOL     H212937   5.538   0.595   0.250  0.8369 -0.8376  0.5263
 3123SOL    EPW12938   5.494   0.635   0.316  0.1841 -0.2441 -0.2651
 3124SOL      O12939   3.853   1.372   0.941 -0.3410 -0.0484 -0.0933
 3124SOL     H112940   3.894   1.429   1.007 -1.1803 -1.1872  1.4359
 3124SOL     H212941   3.851   1.426   0.862  2.4900  0.6581  0.2526
 3124SOL    EPW12942   3.857   1.384   0.940 -0.1285 -0.0945  0.1068
 3125SOL      O12943   0.955   4.292   4.110  0.8218  0.0592 -0.0879
 3125SOL     H112944   0.955   4.302   4.015  1.8035  2.4405  0.1176
 3125SOL     H212945   1.045   4.314   4.136  0.0313  1.4568  1.5652
 3125SOL    EPW12946   0.965   4.295   4.102  0.8422  0.4623  0.1104
 3126SOL      O12947   4.808   2.814   1.242 -0.2661  0.0694  0.2546
 3126SOL     H112948   4.739   2.803   1.177  1.1799  2.1037 -1.6867
 3126SOL     H212949   4.812   2.729   1.287 -3.6716 -0.2293  0.1183
 3126SOL    EPW12950   4.801   2.804   1.240 -0.4751  0.2545  0.0330
 3127SOL      O12951   0.066   1.878   2.626 -0.5682  0.1384 -0.3629
 3127SOL     H112952   0.086   1.970   2.640 -0.1792 -0.2298  1.6197
 3127SOL     H212953   0.149   1.838   2.601 -0.5066  0.1140 -0.1170
 3127SOL    EPW12954   0.077   1.883   2.625 -0.5201  0.0965 -0.1252
 3128SOL      O12955   4.462   2.080   1.572 -0.1589  0.7727 -1.1650
 3128SOL     H112956   4.439   2.016   1.504 -2.8106  1.0587 -0.6077
 3128SOL     H212957   4.460   2.029   1.653  0.1327  1.0364 -0.9958
 3128SOL    EPW12958   4.459   2.067   1.573 -0.4107  0.8313 -1.0875
 3129SOL      O12959   3.350   0.748   0.023  0.6686 -0.1700 -0.2581
 3129SOL     H112960   3.332   0.828   0.072 -0.0066 -0.6666  0.3044
 3129SOL     H212961   3.340   0.773  -0.069 -3.1141 -0.4416 -0.0042
 3129SOL    EPW12962   3.347   0.759   0.018  0.1931 -0.2519 -0.1710
 3130SOL      O12963   0.283   4.793   2.991 -0.0301 -0.1942 -0.4416
 3130SOL     H112964   0.226   4.793   2.914 -2.7797 -1.8806  1.4609
 3130SOL     H212965   0.343   4.719   2.977 -0.8818 -0.8414 -0.7437
 3130SOL    EPW12966   0.283   4.785   2.981 -0.4142 -0.4431 -0.2709
 3131SOL      O12967   4.225   1.234   0.459 -0.2943  0.4488  0.2856
 3131SOL     H112968   4.297   1.227   0.521 -0.4452  0.8167  0.5068
 3131SOL     H212969   4.213   1.145   0.426  0.1028  0.3429  0.4242
 3131SOL    EPW12970   4.231   1.224   0.462 -0.2680  0.4768  0.3240
 3132SOL      O12971   4.428   2.595   3.377  0.1777  0.0660  0.5210
 3132SOL     H112972   4.428   2.642   3.294  2.6734  0.4415  0.6880
 3132SOL     H212973   4.404   2.506   3.354  2.5354 -0.2565 -0.9072
 3132SOL    EPW12974   4.425   2.591   3.366  0.6954  0.0716  0.3864
 3133SOL      O12975   3.704   0.432   1.151 -0.3112 -0.1549  0.8203
 3133SOL     H112976   3.780   0.398   1.199 -0.7496 -0.8576  1.0344
 3133SOL     H212977   3.689   0.519   1.188  0.7331  0.2129  0.3801
 3133SOL    EPW12978   3.710   0.437   1.160 -0.2466 -0.1906  0.7962
 3134SOL      O12979   2.674   3.167   3.645 -0.0942 -0.3182  0.3398
 3134SOL     H112980   2.634   3.108   3.709  0.1579  0.2838  1.0578
 3134SOL     H212981   2.768   3.165   3.666  0.2996 -1.7463 -1.3520
 3134SOL    EPW12982   2.680   3.160   3.654 -0.0253 -0.4064  0.2359
 3135SOL      O12983   4.258   0.567   2.489  0.3674 -0.6968 -0.3064
 3135SOL     H112984   4.212   0.644   2.456  0.9309 -0.6249 -0.9469
 3135SOL     H212985   4.333   0.602   2.537  0.2037 -0.8304  0.0490
 3135SOL    EPW12986   4.261   0.579   2.490  0.4100 -0.7034 -0.3368
 3136SOL      O12987   4.065   1.714   1.673 -0.1887  0.2468  0.0927
 3136SOL     H112988   4.076   1.650   1.743 -2.6473 -1.0089 -0.6516
 3136SOL     H212989   4.151   1.718   1.631  0.7908 -0.3692  1.9911
 3136SOL    EPW12990   4.076   1.708   1.676 -0.3465  0.0471  0.2159
 3137SOL      O12991   2.012   3.961   4.012  0.5895 -0.3737  0.4970
 3137SOL     H112992   2.015   3.867   3.994 -0.0769 -0.5735  1.3649
 3137SOL     H212993   1.937   3.993   3.962 -0.0472 -0.5675  1.3158
 3137SOL    EPW12994   2.004   3.954   4.005  0.4505 -0.4157  0.6769
 3138SOL      O12995   5.347   5.692   3.591  0.3096  0.1265 -0.7448
 3138SOL     H112996   5.374   5.784   3.579 -0.7052  0.3595 -1.3152
 3138SOL     H212997   5.353   5.654   3.504  1.6092 -0.5991 -0.3401
 3138SOL    EPW12998   5.351   5.698   3.581  0.3400  0.0740 -0.7625
 3139SOL      O12999   1.574   4.004   3.977 -0.3088  0.1804 -0.4721
 3139SOL     H113000   1.626   4.026   3.900 -0.6872  0.0417 -0.7666
 3139SOL     H213001   1.491   4.050   3.964  0.1830  1.4229  0.5869
 3139SOL    EPW13002   1.571   4.011   3.968 -0.2967  0.2981 -0.3905
 3140SOL      O13003   1.181   3.814   3.767 -0.0435 -0.7134  0.4533
 3140SOL     H113004   1.150   3.724   3.759  1.1600 -1.0050 -1.0662
 3140SOL     H213005   1.187   3.845   3.677  0.5158  0.5621  0.9220
 3140SOL    EPW13006   1.178   3.808   3.757  0.1445 -0.6084  0.3412
 3141SOL      O13007   0.562   1.390   0.787  0.3799 -0.3412  0.1862
 3141SOL     H113008   0.548   1.484   0.804 -0.0097 -0.5769  1.2181
 3141SOL     H213009   0.512   1.346   0.855 -1.1345 -1.3505 -1.5468
 3141SOL    EPW13010   0.556   1.396   0.796  0.1768 -0.4740  0.1114
 3142SOL      O13011   4.931   0.076   1.134  0.6094 -0.0349 -0.4316
 3142SOL     H113012   4.872   0.117   1.198 -1.8132 -0.2133 -2.4542
 3142SOL     H213013   4.973   0.149   1.090 -1.7428  0.3030 -2.2358
 3142SOL    EPW13014   4.929   0.088   1.136  0.1000 -0.0179 -0.8398
 3143SOL      O13015   0.632   0.933   1.277  0.0295 -0.4093 -0.1882
 3143SOL     H113016   0.717   0.890   1.280  0.7576  0.8641 -2.0814
 3143SOL     H213017   0.650   1.020   1.242 -2.1244 -0.2793 -1.0411
 3143SOL    EPW13018   0.643   0.938   1.274 -0.1226 -0.2596 -0.4811
 3144SOL      O13019   5.493   5.789   0.699 -0.2022  0.1284 -0.1796
 3144SOL     H113020   5.467   5.792   0.607 -1.1798 -1.5569  0.0094
 3144SOL     H213021   5.411   5.805   0.747  0.5183  2.2346  0.4167
 3144SOL    EPW13022   5.481   5.791   0.694 -0.2296  0.1733 -0.0959
 3145SOL      O13023   4.995   1.768   2.068  0.0287 -0.2502 -0.6474
 3145SOL     H113024   5.017   1.698   2.007 -1.2832  0.8859 -2.4528
 3145SOL     H213025   5.007   1.849   2.018  0.2913  0.7796  1.0316
 3145SOL    EPW13026   4.999   1.769   2.057 -0.0832 -0.0191 -0.6609
 3146SOL      O13027   5.350   1.875   1.018 -0.1078  0.1858  0.0033
 3146SOL     H113028   5.328   1.782   1.018  0.1814  0.0985 -1.9736
 3146SOL     H213029   5.267   1.920   0.998  0.3330  0.1801 -1.8709
 3146SOL    EPW13030   5.339   1.870   1.016 -0.0299  0.1759 -0.4075
 3147SOL      O13031   5.187   0.358   2.970 -0.1042 -0.1449 -0.2358
 3147SOL     H113032   5.242   0.435   2.980 -0.5567  0.3225 -1.2374
 3147SOL     H213033   5.207   0.325   2.882 -0.0321 -1.0727  0.1229
 3147SOL    EPW13034   5.195   0.363   2.962 -0.1448 -0.1940 -0.3044
 3148SOL      O13035   5.310   5.777   1.948 -0.5953 -0.0836 -0.0556
 3148SOL     H113036   5.220   5.755   1.970 -1.0992  0.2612 -1.7103
 3148SOL     H213037   5.310   5.787   1.853  1.1464  0.1098 -0.0541
 3148SOL    EPW13038   5.301   5.776   1.940 -0.4632 -0.0262 -0.2320
 3149SOL      O13039   4.178   0.252   1.377  0.3881 -0.8105 -0.4912
 3149SOL     H113040   4.240   0.192   1.336  0.5905 -0.3998 -0.7835
 3149SOL     H213041   4.143   0.202   1.451 -0.6133 -1.8822 -1.6522
 3149SOL    EPW13042   4.181   0.240   1.381  0.3028 -0.8810 -0.6462
 3150SOL      O13043   5.227   5.352   1.246 -0.2062  0.2183  0.0600
 3150SOL     H113044   5.150   5.367   1.301 -0.7579 -1.2667 -0.2840
 3150SOL     H213045   5.279   5.432   1.254 -0.2462 -0.0055  2.7858
 3150SOL    EPW13046   5.224   5.362   1.253 -0.2693  0.0360  0.3141
 3151SOL      O13047   4.824   2.395   2.686  0.1006  0.2194  0.1090
 3151SOL     H113048   4.782   2.481   2.673  1.3329  0.8301  0.1491
 3151SOL     H213049   4.751   2.333   2.685 -0.7863  1.2480 -0.1147
 3151SOL    EPW13050   4.811   2.398   2.685  0.1374  0.3943  0.0894
 3152SOL      O13051   0.347   5.644   1.807  0.5115 -0.2023  0.6074
 3152SOL     H113052   0.275   5.581   1.814 -1.6964  1.8702 -2.2849
 3152SOL     H213053   0.349   5.687   1.893 -1.4720 -0.5700  0.8703
 3152SOL    EPW13054   0.339   5.642   1.817  0.0644 -0.0205  0.3269
 3153SOL      O13055   1.674   1.397   2.562  0.0501 -0.2726  0.1689
 3153SOL     H113056   1.579   1.387   2.555 -0.1186  2.0377 -1.3596
 3153SOL     H213057   1.708   1.355   2.483  0.3517 -1.6026  0.9976
 3153SOL    EPW13058   1.668   1.391   2.552  0.0643 -0.1680  0.0943
 3154SOL      O13059   5.081   4.374   0.590  0.0158  0.0119 -0.2584
 3154SOL     H113060   5.041   4.459   0.574 -0.1076 -0.1458 -0.7699
 3154SOL     H213061   5.174   4.394   0.605 -0.0316  0.2471 -0.2743
 3154SOL    EPW13062   5.087   4.385   0.590 -0.0024  0.0202 -0.3146
 3155SOL      O13063   1.251   3.578   2.431 -0.1167 -0.0120 -0.2749
 3155SOL     H113064   1.160   3.573   2.401 -0.6505 -1.5014  1.4744
 3155SOL     H213065   1.297   3.509   2.383 -0.7532 -1.7314  1.5091
 3155SOL    EPW13066   1.246   3.570   2.423 -0.2416 -0.3543  0.1020
 3156SOL      O13067   2.014   3.691   3.988 -0.0963  0.1313 -0.2754
 3156SOL     H113068   2.104   3.694   3.957  0.2402  0.8959  0.7824
 3156SOL     H213069   1.968   3.637   3.923  1.4447 -1.5875  0.0397
 3156SOL    EPW13070   2.018   3.686   3.978  0.1040  0.0295 -0.1289
 3157SOL      O13071   1.452   4.964   3.005 -0.0281 -0.5637  0.5888
 3157SOL     H113072   1.467   4.872   3.027 -0.4684 -0.6084  0.6937
 3157SOL     H213073   1.379   4.991   3.059  0.4802  0.0256  0.9943
 3157SOL    EPW13074   1.446   4.957   3.013 -0.0209 -0.5056  0.6432
 3158SOL      O13075   5.735   2.770   2.284  0.4011 -0.2906 -0.1921
 3158SOL     H113076   5.662   2.708   2.281  2.1962 -2.5164  0.1225
 3158SOL     H213077   5.769   2.771   2.195  1.5652 -1.3048  0.2123
 3158SOL    EPW13078   5.731   2.763   2.274  0.7167 -0.6362 -0.1154
 3159SOL      O13079   0.208   1.850   2.216 -0.0534  0.1130  0.2542
 3159SOL     H113080   0.229   1.944   2.220 -2.6089  0.7494 -0.5308
 3159SOL     H213081   0.282   1.812   2.167  1.0180  1.6956  0.5846
 3159SOL    EPW13082   0.218   1.856   2.211 -0.2117  0.3497  0.2057
 3160SOL      O13083   4.220   0.024   1.561 -0.0152 -0.1494 -0.2891
 3160SOL     H113084   4.213   0.032   1.656  1.1926  0.8554 -0.2702
 3160SOL     H213085   4.213  -0.069   1.543 -1.8316 -0.2198  0.6479
 3160SOL    EPW13086   4.218   0.015   1.569 -0.0801 -0.0497 -0.1872
 3161SOL      O13087   4.374   0.792   1.362 -0.1312  0.6767  0.5623
 3161SOL     H113088   4.426   0.712   1.365  0.1535  0.8671  0.6904
 3161SOL     H213089   4.286   0.763   1.386 -0.4723  0.0401 -1.3944
 3161SOL    EPW13090   4.370   0.780   1.365 -0.1372  0.6291  0.3673
 3162SOL      O13091   4.303   0.864   1.116  0.0900  0.1332 -0.8067
 3162SOL     H113092   4.326   0.855   1.208 -1.9920 -1.4253 -0.4006
 3162SOL     H213093   4.216   0.904   1.118 -0.7564 -1.5878 -2.0203
 3162SOL    EPW13094   4.296   0.868   1.126 -0.2224 -0.2166 -0.8928
 3163SOL      O13095   2.723   2.785   0.378 -0.0482 -0.1304 -0.1614
 3163SOL     H113096   2.724   2.861   0.436 -1.5374  0.2470 -0.6092
 3163SOL     H213097   2.725   2.821   0.290  2.9676 -0.7193 -0.4039
 3163SOL    EPW13098   2.724   2.797   0.375  0.1147 -0.1529 -0.2350
 3164SOL      O13099   0.081   1.652   0.660  0.8491  0.6746 -0.2519
 3164SOL     H113100   0.092   1.747   0.669  0.8216  0.6778 -0.2511
 3164SOL     H213101   0.036   1.642   0.576 -0.2463  0.7368  0.3255
 3164SOL    EPW13102   0.077   1.661   0.652  0.7293  0.6816 -0.1902
 3165SOL      O13103   3.867   1.062   0.200  0.4243  0.4196  0.3521
 3165SOL     H113104   3.931   0.991   0.194 -2.4878 -2.4051  0.6682
 3165SOL     H213105   3.835   1.072   0.110 -1.7029 -1.2591  0.8594
 3165SOL    EPW13106   3.870   1.055   0.190 -0.1133 -0.0608  0.4399
 3166SOL      O13107   5.542   1.367   2.368 -0.5569 -0.2659  0.5829
 3166SOL     H113108   5.462   1.387   2.319  0.2916 -0.0949 -0.7387
 3166SOL     H213109   5.588   1.302   2.314  1.1456  1.0854  0.3461
 3166SOL    EPW13110   5.538   1.362   2.357 -0.2848 -0.1035  0.4166
 3167SOL      O13111   3.917   0.311   1.573  0.1498 -0.0638 -0.6308
 3167SOL     H113112   3.894   0.325   1.481 -0.8176  0.2573 -0.3507
 3167SOL     H213113   4.002   0.353   1.584 -0.5530  1.4725 -0.9517
 3167SOL    EPW13114   3.923   0.317   1.564 -0.0284  0.1344 -0.6351
 3168SOL      O13115   0.133   4.334   3.705  0.2181 -0.5097 -0.3493
 3168SOL     H113116   0.042   4.330   3.737  0.1400 -0.6683 -0.5838
 3168SOL     H213117   0.167   4.416   3.739 -0.2665 -0.0683 -0.9123
 3168SOL    EPW13118   0.127   4.342   3.712  0.1581 -0.4796 -0.4344
 3169SOL      O13119   0.249   1.548   1.509  0.4342  0.5399 -0.2361
 3169SOL     H113120   0.184   1.481   1.530  0.6133 -0.5837 -3.0045
 3169SOL     H213121   0.323   1.529   1.567 -0.2545 -0.5191  0.3057
 3169SOL    EPW13122   0.250   1.539   1.517  0.3798  0.3071 -0.4736
 3170SOL      O13123   0.050   0.229   3.016 -0.1157  0.2855 -0.5057
 3170SOL     H113124  -0.017   0.216   3.083  0.3354 -0.4738 -0.1982
 3170SOL     H213125   0.111   0.291   3.055 -1.2486  1.8864 -1.2344
 3170SOL    EPW13126   0.049   0.234   3.027 -0.1884  0.3753 -0.5506
 3171SOL      O13127   1.170   2.880   4.073 -0.7042  0.4445 -0.1435
 3171SOL     H113128   1.240   2.824   4.105  0.6987  1.2965 -1.6186
 3171SOL     H213129   1.101   2.820   4.046 -0.1409 -0.4527  0.3929
 3171SOL    EPW13130   1.171   2.868   4.074 -0.4945  0.4397 -0.2436
 3172SOL      O13131   5.579   1.861   0.793 -0.2610  0.9243  0.5591
 3172SOL     H113132   5.637   1.785   0.801 -1.2786 -0.1564 -1.9918
 3172SOL     H213133   5.518   1.851   0.866  0.3502 -0.0665  0.9553
 3172SOL    EPW13134   5.578   1.852   0.802 -0.3044  0.7033  0.3292
 3173SOL      O13135   2.198   2.823   3.253 -0.1265  0.4919  0.5924
 3173SOL     H113136   2.198   2.883   3.327 -0.3052  0.8525  0.2976
 3173SOL     H213137   2.110   2.785   3.252 -0.4298  1.2002 -0.0152
 3173SOL    EPW13138   2.189   2.825   3.261 -0.1779  0.6059  0.4962
 3174SOL      O13139   5.166   1.987   0.824 -0.0221 -0.1388  0.1174
 3174SOL     H113140   5.110   1.921   0.784  0.2838 -0.2750 -0.0926
 3174SOL     H213141   5.201   2.037   0.750  0.7200 -0.5296  0.1943
 3174SOL    EPW13142   5.164   1.985   0.812  0.0897 -0.1950  0.1032
 3175SOL      O13143   4.327   5.672   0.048 -0.2305 -0.6175  0.4168
 3175SOL     H113144   4.368   5.590   0.079  0.3214 -0.5476 -0.1238
 3175SOL     H213145   4.289   5.710   0.127  1.3452 -0.3417  1.0728
 3175SOL    EPW13146   4.328   5.667   0.060 -0.0035 -0.5806  0.4291
 3176SOL      O13147   5.791   1.857   1.081 -0.3365 -0.7153  0.6869
 3176SOL     H113148   5.711   1.909   1.092 -0.0550 -0.4787  1.6673
 3176SOL     H213149   5.766   1.788   1.020 -0.7277  0.5271 -0.5980
 3176SOL    EPW13150   5.780   1.855   1.076 -0.3482 -0.5575  0.6544
 3177SOL      O13151   4.935   0.632   1.326 -0.0809 -0.2832 -0.4720
 3177SOL     H113152   4.868   0.665   1.265  0.8510 -0.1202 -1.4337
 3177SOL     H213153   4.986   0.709   1.349 -0.2779 -0.3930  0.3226
 3177SOL    EPW13154   4.934   0.644   1.322 -0.0025 -0.2775 -0.4899
 3178SOL      O13155   4.413   5.666   0.735  0.0697 -0.5331 -0.2993
 3178SOL     H113156   4.365   5.631   0.810  0.0925 -0.7932 -0.4073
 3178SOL     H213157   4.501   5.681   0.768  0.3995 -1.7677 -0.5940
 3178SOL    EPW13158   4.417   5.664   0.746  0.1073 -0.6926 -0.3422
 3179SOL      O13159   4.347   0.373   2.069  0.0099  0.3215 -0.1247
 3179SOL     H113160   4.386   0.448   2.024  1.0856 -0.8952 -1.2919
 3179SOL     H213161   4.372   0.297   2.015  0.9175 -1.1387  2.2567
 3179SOL    EPW13162   4.354   0.373   2.059  0.2214  0.0360  0.0049
 3180SOL      O13163   3.850   1.174   2.735 -0.3993  0.2524 -0.8610
 3180SOL     H113164   3.845   1.218   2.650  0.6269  2.9589  0.4040
 3180SOL     H213165   3.847   1.246   2.798  0.9513 -1.5584  1.3247
 3180SOL    EPW13166   3.849   1.187   2.732 -0.1458  0.3479 -0.4929
 3181SOL      O13167   1.950   4.176   3.735 -0.4292  0.2499  0.2739
 3181SOL     H113168   1.932   4.239   3.665  0.0292  0.9206  0.7554
 3181SOL     H213169   1.864   4.137   3.754 -0.6484  0.4390 -0.2969
 3181SOL    EPW13170   1.939   4.179   3.730 -0.4037  0.3417  0.2644
 3182SOL      O13171   2.483   3.205   1.327 -0.2807 -0.4865  0.0947
 3182SOL     H113172   2.449   3.126   1.285  1.0859 -0.4480 -1.1444
 3182SOL     H213173   2.577   3.203   1.308 -0.0312  0.7705  1.1563
 3182SOL    EPW13174   2.490   3.196   1.321 -0.1083 -0.3483  0.0757
 3183SOL      O13175   5.146   1.273   1.657 -0.5085 -0.6727  0.4236
 3183SOL     H113176   5.157   1.304   1.567  3.2464 -1.0834  0.6668
 3183SOL     H213177   5.172   1.348   1.711  0.1280 -1.3785  1.1051
 3183SOL    EPW13178   5.150   1.285   1.653 -0.0400 -0.7918  0.5223
 3184SOL      O13179   2.005   3.229   3.572 -0.4263 -0.1453  0.7626
 3184SOL     H113180   1.982   3.137   3.590  1.7789 -1.1397 -1.2552
 3184SOL     H213181   1.996   3.238   3.478  1.7557  1.0108  0.6307
 3184SOL    EPW13182   2.002   3.220   3.564  0.0417 -0.1280  0.5333
 3185SOL      O13183   4.528   0.349   0.665 -0.0268 -0.6819  0.3656
 3185SOL     H113184   4.487   0.420   0.713  1.2391 -0.3951  1.0398
 3185SOL     H213185   4.554   0.286   0.732 -1.0459 -1.7438 -0.2183
 3185SOL    EPW13186   4.526   0.350   0.677 -0.0005 -0.7646  0.3753
 3186SOL      O13187   4.108   0.748   0.708 -0.1048  0.4045  0.1770
 3186SOL     H113188   4.171   0.703   0.653  1.2273 -0.0883  2.0830
 3186SOL     H213189   4.161   0.797   0.771 -1.5712 -1.2336  2.7999
 3186SOL    EPW13190   4.120   0.749   0.709 -0.1191  0.1772  0.6601
 3187SOL      O13191   4.523   1.153   1.812 -0.0852 -0.0734 -0.2090
 3187SOL     H113192   4.440   1.196   1.793 -0.1406 -1.0007 -2.1731
 3187SOL     H213193   4.579   1.174   1.737  0.4197 -2.0330 -0.4155
 3187SOL    EPW13194   4.520   1.160   1.802 -0.0372 -0.3814 -0.4406
 3188SOL      O13195   5.381   5.811   0.356  0.3663 -0.0131 -0.1115
 3188SOL     H113196   5.382   5.768   0.271 -1.1641 -1.1336  0.4118
 3188SOL     H213197   5.290   5.809   0.384  0.6554  1.3976  1.0417
 3188SOL    EPW13198   5.372   5.806   0.350  0.2339  0.0179  0.0673
 3189SOL      O13199   4.434   2.746   1.292  0.1112 -0.0211 -0.1735
 3189SOL     H113200   4.372   2.674   1.299  0.1372  0.1302  1.9436
 3189SOL     H213201   4.380   2.823   1.273 -0.0796 -0.2897 -0.7545
 3189SOL    EPW13202   4.422   2.746   1.290  0.0936 -0.0336 -0.0097
 3190SOL      O13203   3.790   5.674   1.251 -0.4388 -0.7330  0.7858
 3190SOL     H113204   3.816   5.590   1.214 -2.0503 -0.0750 -2.0161
 3190SOL     H213205   3.734   5.652   1.325 -0.7019 -2.1575  0.1856
 3190SOL    EPW13206   3.787   5.663   1.255 -0.6388 -0.8148  0.4229
 3191SOL      O13207   5.105   2.317   1.518  0.1835  0.1872 -0.3455
 3191SOL     H113208   5.116   2.352   1.607 -0.6389  1.0367 -0.5746
 3191SOL     H213209   5.012   2.329   1.499  0.6272  1.2912 -1.8676
 3191SOL    EPW13210   5.096   2.322   1.526  0.1431  0.3956 -0.5323
 3192SOL      O13211   5.529   1.507   1.885 -0.0514 -0.1259 -0.0021
 3192SOL     H113212   5.579   1.427   1.903 -1.0647 -0.3802  1.7854
 3192SOL     H213213   5.533   1.556   1.967  1.0304  1.9380 -1.2478
 3192SOL    EPW13214   5.535   1.504   1.895 -0.0441  0.0671  0.0557
 3193SOL      O13215   4.736   1.741   0.111  0.3085  0.6692  0.1931
 3193SOL     H113216   4.802   1.699   0.056  0.4107  0.1435  0.7113
 3193SOL     H213217   4.670   1.673   0.126 -0.5541  1.3010 -0.6435
 3193SOL    EPW13218   4.736   1.729   0.107  0.2274  0.6806  0.1591
 3194SOL      O13219   1.184   4.670   3.853  0.1632 -0.3522 -0.7509
 3194SOL     H113220   1.163   4.669   3.760  1.9174 -1.1297 -1.1631
 3194SOL     H213221   1.103   4.697   3.896 -0.5210  0.4981 -2.5345
 3194SOL    EPW13222   1.173   4.673   3.848  0.2774 -0.3445 -0.9852
 3195SOL      O13223   5.412   1.867   0.576  0.2224  0.2495  0.0536
 3195SOL     H113224   5.386   1.784   0.616  1.0979 -0.2951 -0.4995
 3195SOL     H213225   5.491   1.893   0.622 -0.5360  1.2398  0.8325
 3195SOL    EPW13226   5.417   1.861   0.585  0.2349  0.2971  0.0777
 3196SOL      O13227   5.182   0.148   2.447 -0.1389  0.5181  0.3105
 3196SOL     H113228   5.239   0.147   2.369  0.8447  1.4159  1.0053
 3196SOL     H213229   5.115   0.083   2.428  1.6490 -1.2432 -0.1412
 3196SOL    EPW13230   5.181   0.141   2.436  0.1568  0.4260  0.3364
 3197SOL      O13231   5.795   5.649   0.124 -0.1218  0.8841 -0.2366
 3197SOL     H113232   5.870   5.669   0.066 -0.5214  2.2047 -0.3058
 3197SOL     H213233   5.745   5.583   0.075  2.9056 -2.8018  1.3862
 3197SOL    EPW13234   5.798   5.644   0.112  0.1586  0.6318 -0.0709
 3198SOL      O13235   4.448   1.152   0.601 -0.0992 -0.4915  0.8320
 3198SOL     H113236   4.490   1.122   0.682 -0.5902 -2.1827  0.4821
 3198SOL     H213237   4.462   1.080   0.540  0.0516  0.6787 -0.5190
 3198SOL    EPW13238   4.454   1.141   0.604 -0.1355 -0.5471  0.6506
 3199SOL      O13239   4.658   5.694   0.877  0.3147  0.0078 -0.5798
 3199SOL     H113240   4.644   5.779   0.920 -1.9475 -0.3557 -0.5194
 3199SOL     H213241   4.736   5.707   0.823  0.2204  2.0131 -0.2731
 3199SOL    EPW13242   4.664   5.705   0.876  0.0633  0.1830 -0.5406
 3200SOL      O13243   2.334   0.046   2.929  0.3621 -0.4280 -0.4626
 3200SOL     H113244   2.238   0.054   2.931  0.5610  1.6331  1.6641
 3200SOL     H213245   2.350  -0.044   2.957 -0.9920 -1.6510 -3.2856
 3200SOL    EPW13246   2.325   0.037   2.932  0.2389 -0.3386 -0.5369
 3201SOL      O13247   0.424   2.962   1.654  0.0990  0.1351 -0.7989
 3201SOL     H113248   0.390   3.038   1.607  0.0345 -0.2411 -1.3710
 3201SOL     H213249   0.481   2.918   1.591 -0.1479 -0.4910 -0.5990
 3201SOL    EPW13250   0.426   2.965   1.642  0.0658  0.0282 -0.8386
 3202SOL      O13251   5.767   2.383   1.749  0.5021 -0.2987  0.0479
 3202SOL     H113252   5.829   2.456   1.759 -0.4430  0.8748 -2.2906
 3202SOL     H213253   5.812   2.322   1.690  0.5277 -0.7295  0.5109
 3202SOL    EPW13254   5.779   2.385   1.744  0.4040 -0.2195 -0.1522
 3203SOL      O13255   3.405   2.707   1.467 -0.0843  0.6791  0.5868
 3203SOL     H113256   3.355   2.780   1.431  0.1998 -0.2708 -1.8149
 3203SOL     H213257   3.496   2.736   1.465 -0.1662  1.0526  1.6560
 3203SOL    EPW13258   3.409   2.718   1.463 -0.0628  0.6176  0.4447
 3204SOL      O13259   0.153   2.608   1.978 -0.3985 -0.0050 -0.6741
 3204SOL     H113260   0.220   2.595   2.044 -0.8032 -1.5823 -0.5423
 3204SOL     H213261   0.112   2.691   2.000  2.4659  1.7081 -1.6240
 3204SOL    EPW13262   0.156   2.615   1.987 -0.1361  0.0095 -0.7614
 3205SOL      O13263   1.621   2.307   1.809 -0.1506  0.1293 -0.0206
 3205SOL     H113264   1.558   2.241   1.780 -1.0269  0.6496  0.6624
 3205SOL     H213265   1.675   2.262   1.874 -0.8789  0.1330  0.5968
 3205SOL    EPW13266   1.620   2.295   1.813 -0.3218  0.1852  0.1181
 3206SOL      O13267   4.127   0.395   2.740  0.2975 -0.1626 -0.2983
 3206SOL     H113268   4.173   0.425   2.661  2.8868  0.4286  1.3824
 3206SOL     H213269   4.109   0.476   2.788 -1.4073 -0.5119 -0.3280
 3206SOL    EPW13270   4.130   0.407   2.737  0.3919 -0.1368 -0.1222
 3207SOL      O13271   0.644   1.663   1.639 -0.2309  0.2064 -0.3898
 3207SOL     H113272   0.586   1.589   1.656  0.4866 -0.0492  0.9900
 3207SOL     H213273   0.610   1.734   1.695  1.2486 -0.1852  1.0271
 3207SOL    EPW13274   0.634   1.663   1.647  0.0034  0.1373 -0.0914
 3208SOL      O13275   5.464   0.050   0.975  0.2403  0.3806 -0.1768
 3208SOL     H113276   5.433  -0.039   0.958  0.2957  0.7107 -2.1921
 3208SOL     H213277   5.403   0.086   1.039 -1.5677 -0.1275 -1.5680
 3208SOL    EPW13278   5.454   0.045   0.980  0.0534  0.3616 -0.5402
 3209SOL      O13279   5.029   5.544   0.329 -0.2055 -0.0122  0.4336
 3209SOL     H113280   4.975   5.531   0.408  1.2962 -0.2282  1.4391
 3209SOL     H213281   5.033   5.639   0.318  2.2180  0.1556  2.4853
 3209SOL    EPW13282   5.024   5.553   0.337  0.2132 -0.0173  0.7598
 3210SOL      O13283   3.924   0.659   3.150 -0.3931 -0.0113 -0.9499
 3210SOL     H113284   4.008   0.614   3.142 -1.1317 -1.1802 -2.6384
 3210SOL     H213285   3.935   0.719   3.223  0.9466 -2.3349  0.8451
 3210SOL    EPW13286   3.934   0.660   3.157 -0.3289 -0.3839 -0.9386
 3211SOL      O13287   5.341   1.289   1.116 -0.2397 -0.5358  0.2010
 3211SOL     H113288   5.286   1.331   1.050 -0.0607  2.1940  1.7297
 3211SOL     H213289   5.396   1.229   1.066 -0.0814  1.4911 -2.1712
 3211SOL    EPW13290   5.341   1.287   1.104 -0.2037 -0.0284  0.1110
 3212SOL      O13291   1.357   4.176   3.982 -0.0182 -0.2404 -0.5180
 3212SOL     H113292   1.306   4.158   4.061  1.8112  0.3790  0.8370
 3212SOL     H213293   1.419   4.244   4.007 -0.1197  0.7568 -2.8004
 3212SOL    EPW13294   1.358   4.181   3.993  0.1662 -0.0679 -0.6169
 3213SOL      O13295   4.156   1.078   1.942  0.4097 -0.4136  0.1617
 3213SOL     H113296   4.082   1.138   1.935  1.1054  0.6327  1.4864
 3213SOL     H213297   4.182   1.084   2.034  1.8010 -1.1873 -0.1763
 3213SOL    EPW13298   4.151   1.085   1.951  0.6323 -0.3845  0.2670
 3214SOL      O13299   5.691   0.265   0.301  0.2103 -0.5339  0.6757
 3214SOL     H113300   5.709   0.334   0.365  0.8416 -1.2006  1.2330
 3214SOL     H213301   5.778   0.229   0.281  0.0201 -0.3515 -0.5424
 3214SOL    EPW13302   5.702   0.269   0.305  0.2574 -0.5856  0.6052
 3215SOL      O13303   1.776   3.528   4.097  0.1161  0.2797  0.2736
 3215SOL     H113304   1.745   3.483   4.175 -0.0739  1.5231  0.9239
 3215SOL     H213305   1.819   3.607   4.130 -0.3968  1.0638 -0.9074
 3215SOL    EPW13306   1.777   3.532   4.109  0.0411  0.4960  0.2170
 3216SOL      O13307   0.382   0.922   3.499 -0.2693 -0.3328  0.2460
 3216SOL     H113308   0.373   0.891   3.589 -0.5551 -1.2807 -0.1066
 3216SOL     H213309   0.379   0.843   3.445 -0.1033  0.2232 -0.6022
 3216SOL    EPW13310   0.381   0.910   3.502 -0.2821 -0.3746  0.1179
 3217SOL      O13311   1.096   4.235   3.857 -0.1891  0.3800 -0.0422
 3217SOL     H113312   1.124   4.216   3.767 -0.0432 -1.4387  0.3582
 3217SOL     H213313   1.177   4.256   3.903 -0.0544 -0.2299  0.0120
 3217SOL    EPW13314   1.108   4.235   3.852 -0.1592  0.1209  0.0063
 3218SOL      O13315   3.812   5.808   0.097  0.9319  0.6880 -0.0599
 3218SOL     H113316   3.816   5.902   0.081 -2.2062  1.1346  1.3368
 3218SOL     H213317   3.861   5.795   0.178  1.2660  1.1476 -0.1912
 3218SOL    EPW13318   3.818   5.817   0.104  0.6328  0.7847  0.0751
 3219SOL      O13319   0.377   2.089   3.016 -0.5050 -0.0622 -0.5153
 3219SOL     H113320   0.305   2.121   3.071 -0.9931 -0.5932 -0.8414
 3219SOL     H213321   0.445   2.062   3.078 -0.4372  0.7718 -0.2133
 3219SOL    EPW13322   0.377   2.090   3.028 -0.5499 -0.0299 -0.5178
 3220SOL      O13323   5.645   1.282   0.368  0.5807  0.1690  0.5161
 3220SOL     H113324   5.719   1.222   0.375  0.2866 -0.2611 -0.0400
 3220SOL     H213325   5.671   1.358   0.420  2.1282  0.7351 -1.0298
 3220SOL    EPW13326   5.655   1.284   0.375  0.7144  0.1835  0.2919
 3221SOL      O13327   4.387   5.473   1.579 -0.1942  0.0047  0.2027
 3221SOL     H113328   4.481   5.493   1.576 -0.1347 -0.2161  0.6079
 3221SOL     H213329   4.373   5.414   1.505  0.0352 -0.1733  0.3019
 3221SOL    EPW13330   4.396   5.469   1.571 -0.1634 -0.0378  0.2565
 3222SOL      O13331   4.459   0.634   2.288 -0.4947 -0.3146 -0.2547
 3222SOL     H113332   4.429   0.703   2.229  0.1079  0.0266 -0.1697
 3222SOL     H213333   4.393   0.629   2.356 -0.1965  0.6445  0.1036
 3222SOL    EPW13334   4.449   0.641   2.289 -0.3986 -0.1759 -0.2074
 3223SOL      O13335   4.129   0.494   1.617  0.4000 -1.0371  0.4577
 3223SOL     H113336   4.156   0.568   1.563 -1.0113 -0.0795  1.0406
 3223SOL     H213337   4.159   0.516   1.706  0.9780 -1.6998  0.4364
 3223SOL    EPW13338   4.135   0.504   1.621  0.3111 -1.0056  0.5176
 3224SOL      O13339   5.436   0.233   0.163 -0.1420  0.2996 -0.0710
 3224SOL     H113340   5.521   0.239   0.208  0.3513 -0.3173 -0.9065
 3224SOL     H213341   5.458   0.227   0.070 -1.0406 -1.1483 -0.2096
 3224SOL    EPW13342   5.447   0.233   0.158 -0.1852  0.0793 -0.1749
 3225SOL      O13343   3.961   5.541   1.758 -0.4804  0.8371 -0.0583
 3225SOL     H113344   4.006   5.494   1.828 -1.4096  0.0217 -0.0031
 3225SOL     H213345   3.914   5.473   1.710  0.6221  1.2967 -1.8551
 3225SOL    EPW13346   3.961   5.529   1.760 -0.4619  0.7991 -0.2441
 3226SOL      O13347   5.696   2.446   1.120 -0.1248 -0.0996  0.0498
 3226SOL     H113348   5.726   2.416   1.206  0.1487 -1.9543 -0.6551
 3226SOL     H213349   5.604   2.469   1.134 -0.4156 -1.4968  0.6085
 3226SOL    EPW13350   5.689   2.445   1.131 -0.1267 -0.4465  0.0342
 3227SOL      O13351   5.811   5.586   0.925  0.1687  0.2154  0.9656
 3227SOL     H113352   5.877   5.517   0.923 -1.0816 -1.0505  2.4593
 3227SOL     H213353   5.747   5.559   0.860  0.5750  0.9296  0.2471
 3227SOL    EPW13354   5.811   5.576   0.918  0.0787  0.1565  1.0483
 3228SOL      O13355   5.531   2.369   1.607  0.5034  0.1142 -0.5260
 3228SOL     H113356   5.619   2.366   1.645  0.5577 -3.4823 -0.6984
 3228SOL     H213357   5.473   2.391   1.680  1.3718  0.7166 -0.0158
 3228SOL    EPW13358   5.534   2.371   1.619  0.6018 -0.2052 -0.4900
 3229SOL      O13359   0.293   0.458   0.742  0.4180  0.4109  0.2182
 3229SOL     H113360   0.248   0.397   0.801  0.9144  1.0040  1.2053
 3229SOL     H213361   0.380   0.420   0.729  0.3761  0.3815  0.0184
 3229SOL    EPW13362   0.297   0.448   0.747  0.4665  0.4710  0.3022
 3230SOL      O13363   1.849   2.275   3.448 -0.1033  0.3403 -0.0559
 3230SOL     H113364   1.895   2.261   3.531 -1.6221  0.9803  0.9244
 3230SOL     H213365   1.848   2.190   3.406  1.8927  0.3074 -0.0459
 3230SOL    EPW13366   1.853   2.265   3.452 -0.0524  0.4051  0.0498
 3231SOL      O13367   0.342   2.148   1.262 -0.5281 -0.2018 -0.0176
 3231SOL     H113368   0.385   2.204   1.326  0.6874  0.1954 -1.1594
 3231SOL     H213369   0.335   2.063   1.305 -0.5940  0.2998  0.9839
 3231SOL    EPW13370   0.346   2.145   1.273 -0.4055 -0.1059 -0.0326
 3232SOL      O13371   4.363   2.032   3.520 -0.1276 -0.3516 -0.0964
 3232SOL     H113372   4.306   2.065   3.451  0.9708  0.3804 -0.6748
 3232SOL     H213373   4.412   1.961   3.479  1.2981  0.7826 -0.4095
 3232SOL    EPW13374   4.362   2.028   3.509  0.1417 -0.1525 -0.1915
 3233SOL      O13375   5.650   1.193   0.767  0.8806  0.5785  0.6230
 3233SOL     H113376   5.641   1.165   0.676 -1.3028  0.2180  0.9062
 3233SOL     H213377   5.729   1.150   0.799 -0.3291 -2.2431 -0.0635
 3233SOL    EPW13378   5.657   1.185   0.761  0.5186  0.2390  0.5800
 3234SOL      O13379   4.053   0.891   0.175  0.0682 -0.3683  0.1702
 3234SOL     H113380   4.063   0.800   0.205 -2.2362 -0.7759 -0.2679
 3234SOL     H213381   4.075   0.888   0.082 -1.1762 -0.7125 -0.1190
 3234SOL    EPW13382   4.057   0.881   0.168 -0.3104 -0.4485  0.0926
 3235SOL      O13383   5.072   1.390   1.131 -0.3702 -0.7951 -0.7228
 3235SOL     H113384   5.133   1.451   1.172  0.2753  0.7259 -3.7890
 3235SOL     H213385   4.997   1.387   1.191 -0.7517  3.6551 -0.7913
 3235SOL    EPW13386   5.070   1.396   1.142 -0.3420 -0.1581 -1.0572
 3236SOL      O13387   4.747   1.997   0.699  0.1287 -0.1588 -0.0796
 3236SOL     H113388   4.710   1.915   0.731 -3.4716  0.7106 -1.7609
 3236SOL     H213389   4.795   1.973   0.620  0.8955 -0.9407  0.6220
 3236SOL    EPW13390   4.748   1.986   0.694 -0.1736 -0.1494 -0.1841
 3237SOL      O13391   0.482   2.330   1.450  0.0218 -0.1967 -0.0952
 3237SOL     H113392   0.513   2.410   1.491 -1.0045  1.1289 -1.8565
 3237SOL     H213393   0.435   2.284   1.520  0.4748  0.7830  0.8709
 3237SOL    EPW13394   0.481   2.333   1.462 -0.0394  0.0492 -0.1800
 3238SOL      O13395   0.313   1.580   0.941 -0.2109  0.1276 -0.6004
 3238SOL     H113396   0.274   1.653   0.989 -1.7424 -0.6987 -0.5238
 3238SOL     H213397   0.237   1.529   0.910  0.8136 -1.8759  0.0697
 3238SOL    EPW13398   0.300   1.582   0.943 -0.2649 -0.1742 -0.5208
 3239SOL      O13399   4.933   1.956   0.487  0.0091  0.1234 -0.1736
 3239SOL     H113400   4.962   2.042   0.518 -1.5018  0.2299  0.9838
 3239SOL     H213401   4.974   1.894   0.547  0.6722  0.0529 -0.6896
 3239SOL    EPW13402   4.941   1.959   0.497 -0.0813  0.1272 -0.1052
 3240SOL      O13403   5.018   1.549   1.862 -0.3494 -0.5166 -0.2697
 3240SOL     H113404   5.109   1.535   1.836 -0.0360  0.8160  0.0846
 3240SOL     H213405   4.976   1.580   1.782  0.1834  1.7175  0.2857
 3240SOL    EPW13406   5.023   1.551   1.851 -0.2591 -0.1361 -0.1727
 3241SOL      O13407   4.709   0.453   1.443 -0.0104  0.0182  0.3872
 3241SOL     H113408   4.655   0.434   1.366 -0.1481  0.6142  0.3356
 3241SOL     H213409   4.784   0.501   1.409 -0.0214  0.1955  0.6136
 3241SOL    EPW13410   4.711   0.456   1.431 -0.0262  0.1007  0.4058
 3242SOL      O13411   1.951   4.649   3.372  0.4985 -0.5024 -0.3213
 3242SOL     H113412   1.996   4.598   3.439  0.7857 -0.4868 -0.5025
 3242SOL     H213413   1.876   4.594   3.347  0.7021 -0.7554 -0.3832
 3242SOL    EPW13414   1.948   4.638   3.377  0.5508 -0.5277 -0.3472
 3243SOL      O13415   3.675   1.406   2.882  0.2174  0.6765  0.0725
 3243SOL     H113416   3.756   1.400   2.933 -0.8552  1.2071  1.8919
 3243SOL     H213417   3.620   1.337   2.918 -0.9544  1.7595  0.3798
 3243SOL    EPW13418   3.678   1.398   2.891 -0.0220  0.8486  0.2994
 3244SOL      O13419   4.225   5.591   2.198  0.3232 -0.1851  0.1877
 3244SOL     H113420   4.205   5.664   2.256  1.9956  0.1047  0.4271
 3244SOL     H213421   4.292   5.540   2.245  1.0316 -0.4511 -1.0791
 3244SOL    EPW13422   4.230   5.593   2.209  0.5772 -0.1826  0.0781
 3245SOL      O13423   0.910   3.520   3.334 -0.1767  0.2562  0.0344
 3245SOL     H113424   0.825   3.531   3.375 -0.5767  0.5780 -0.8593
 3245SOL     H213425   0.911   3.584   3.262  0.6705  0.0110 -0.1835
 3245SOL    EPW13426   0.901   3.528   3.330 -0.1290  0.2644 -0.0842
 3246SOL      O13427   0.906   2.245   4.129 -0.0405  0.0557  0.8491
 3246SOL     H113428   0.958   2.310   4.082  1.5266 -0.5782  1.6686
 3246SOL     H213429   0.928   2.258   4.221  2.1214 -3.1476  0.8626
 3246SOL    EPW13430   0.914   2.253   4.133  0.3573 -0.3536  0.9380
 3247SOL      O13431   3.536   4.765   0.335 -0.2434  0.1741 -0.0507
 3247SOL     H113432   3.483   4.690   0.308  0.9288 -1.6598  2.5809
 3247SOL     H213433   3.588   4.787   0.257 -0.5146 -1.8213 -0.8190
 3247SOL    EPW13434   3.536   4.759   0.324 -0.1473 -0.2344  0.1481
 3248SOL      O13435   4.955   1.064   1.740  0.1142  0.3358 -0.1137
 3248SOL     H113436   5.032   1.104   1.700  0.0334  1.1171  0.5038
 3248SOL     H213437   4.892   1.136   1.748  0.6914  0.5580  2.8083
 3248SOL    EPW13438   4.957   1.076   1.736  0.1671  0.4429  0.2639
 3249SOL      O13439   0.131   5.572   2.899 -0.0192  0.3946  0.0179
 3249SOL     H113440   0.096   5.558   2.987 -0.7231  0.8481 -0.1790
 3249SOL     H213441   0.053   5.591   2.845  0.5882  2.0390 -0.3076
 3249SOL    EPW13442   0.119   5.572   2.902 -0.0295  0.6184 -0.0378
 3250SOL      O13443   1.241   1.776   1.627  0.1967  0.0637  0.0650
 3250SOL     H113444   1.227   1.829   1.548 -0.2094 -0.8075 -0.4503
 3250SOL     H213445   1.186   1.699   1.614  1.5673 -0.9672  0.3644
 3250SOL    EPW13446   1.233   1.774   1.618  0.2996 -0.1392  0.0420
 3251SOL      O13447   1.394   4.255   3.484 -0.0751  0.5135  0.1029
 3251SOL     H113448   1.422   4.198   3.413  0.0470 -0.3171  0.7975
 3251SOL     H213449   1.332   4.316   3.444  0.0155  0.0712 -0.7120
 3251SOL    EPW13450   1.390   4.255   3.472 -0.0524  0.3777  0.0900
 3252SOL      O13451   4.588   2.497   0.133  0.8610  0.2677  0.4250
 3252SOL     H113452   4.661   2.514   0.193  1.4757 -0.7293 -0.0227
 3252SOL     H213453   4.630   2.488   0.047  0.2994 -1.0144  0.2684
 3252SOL    EPW13454   4.600   2.498   0.130  0.8667  0.0246  0.3605
 3253SOL      O13455   5.142   2.647   1.933  0.3421 -0.7569 -0.4703
 3253SOL     H113456   5.149   2.600   2.016 -1.1692  1.2919  0.8843
 3253SOL     H213457   5.048   2.655   1.918  0.5420  1.9449 -0.5352
 3253SOL    EPW13458   5.133   2.643   1.940  0.2022 -0.2501 -0.3327
 3254SOL      O13459   4.176   0.090   0.455 -0.0512  0.6273  0.3370
 3254SOL     H113460   4.225   0.043   0.522  1.2149 -0.3691 -1.2375
 3254SOL     H213461   4.084   0.069   0.472  0.4289 -1.6261  0.2637
 3254SOL    EPW13462   4.171   0.083   0.464  0.1351  0.2806  0.1612
 3255SOL      O13463   4.880   5.191   1.090  0.1299 -0.0374  0.2225
 3255SOL     H113464   4.885   5.102   1.124  2.4062  0.0890  0.3039
 3255SOL     H213465   4.868   5.246   1.167  1.2732 -0.0753  0.4303
 3255SOL    EPW13466   4.879   5.187   1.101  0.4947 -0.0280  0.2534
 3256SOL      O13467   3.929   0.377   1.314 -0.0409  0.1362 -0.0104
 3256SOL     H113468   3.935   0.470   1.335  0.9704  0.2974 -0.9307
 3256SOL     H213469   4.020   0.349   1.302 -0.2594 -1.2273  1.2821
 3256SOL    EPW13470   3.939   0.384   1.315  0.0437  0.0079  0.0293
 3257SOL      O13471   0.507   1.872   1.772 -0.7001  0.2941  0.3913
 3257SOL     H113472   0.517   1.954   1.724  0.3829  0.7600  1.3768
 3257SOL     H213473   0.423   1.836   1.742 -1.5228  2.1022  0.4717
 3257SOL    EPW13474   0.499   1.877   1.764 -0.6723  0.5367  0.5050
 3258SOL      O13475   0.022   0.633   1.110  0.0776 -0.0601 -0.4829
 3258SOL     H113476  -0.042   0.598   1.173 -0.1023  2.8346  1.0060
 3258SOL     H213477  -0.026   0.638   1.028 -0.5266 -1.2365 -0.2233
 3258SOL    EPW13478   0.010   0.629   1.108 -0.0061  0.1232 -0.2964
 3259SOL      O13479   1.957   0.919   3.283  0.0998  0.7268 -0.1534
 3259SOL     H113480   2.021   0.897   3.350  0.4326  0.0403 -0.6877
 3259SOL     H213481   1.909   0.838   3.269 -1.0718  1.3106  0.4366
 3259SOL    EPW13482   1.959   0.908   3.288  0.0103  0.7159 -0.1475
 3260SOL      O13483   0.266   1.824   1.635 -0.0670 -0.3532  0.0693
 3260SOL     H113484   0.304   1.838   1.548  4.2195 -0.7674  1.7301
 3260SOL     H213485   0.237   1.733   1.634  0.7343 -0.6110 -0.6971
 3260SOL    EPW13486   0.267   1.816   1.626  0.4758 -0.4249  0.1647
 3261SOL      O13487   5.097   0.524   1.568  0.0614 -0.4874 -0.0213
 3261SOL     H113488   5.011   0.491   1.544  0.3359 -0.6998 -0.7269
 3261SOL     H213489   5.101   0.612   1.530  0.8532 -1.1787 -1.5867
 3261SOL    EPW13490   5.089   0.530   1.561  0.1752 -0.5838 -0.2636
 3262SOL      O13491   5.058   0.001   2.175 -0.5231  0.7249  0.6470
 3262SOL     H113492   5.149   0.019   2.200  0.0073  1.6716 -1.8952
 3262SOL     H213493   5.052  -0.094   2.174  1.2095  0.6033 -1.7582
 3262SOL    EPW13494   5.067  -0.007   2.178 -0.2817  0.8129  0.1193
 3263SOL      O13495   5.080   0.385   2.370  0.0635 -0.3652 -0.0928
 3263SOL     H113496   5.045   0.433   2.445  2.0806  0.1527  0.5468
 3263SOL     H213497   5.134   0.316   2.409  0.3481 -0.6856 -1.0518
 3263SOL    EPW13498   5.082   0.383   2.382  0.3090 -0.3441 -0.1269
 3264SOL      O13499   4.143   5.644   1.593  0.5713 -0.4302  0.7611
 3264SOL     H113500   4.071   5.605   1.642  0.0906 -0.1694  0.2684
 3264SOL     H213501   4.218   5.587   1.610  0.3176 -0.5542  1.4915
 3264SOL    EPW13502   4.143   5.634   1.600  0.4929 -0.4156  0.7864
 3265SOL      O13503   1.486   3.511   3.928 -0.0908 -0.3296 -0.4973
 3265SOL     H113504   1.500   3.597   3.889  1.8629 -0.5338 -0.3094
 3265SOL     H213505   1.419   3.470   3.873 -0.8145  1.1792 -0.7636
 3265SOL    EPW13506   1.481   3.516   3.918  0.0404 -0.1904 -0.5056
 3266SOL      O13507   5.030   1.767   0.666  0.5899 -0.2118  0.4530
 3266SOL     H113508   5.079   1.704   0.614 -1.2211 -0.4459 -1.0137
 3266SOL     H213509   4.960   1.716   0.706 -1.1862  0.9000 -1.1288
 3266SOL    EPW13510   5.027   1.755   0.665  0.2072 -0.1182  0.1278
 3267SOL      O13511   4.310   0.819   2.111  0.2463 -0.0403 -0.2435
 3267SOL     H113512   4.383   0.869   2.075  0.5327 -0.1176  0.2250
 3267SOL     H213513   4.280   0.764   2.038  1.3810 -0.8358 -0.1234
 3267SOL    EPW13514   4.314   0.818   2.099  0.3979 -0.1334 -0.1807
 3268SOL      O13515   4.806   1.065   0.768 -0.1085 -0.4482  0.0913
 3268SOL     H113516   4.746   1.032   0.701 -0.2174  0.6374 -0.3469
 3268SOL     H213517   4.831   0.986   0.818  1.4397 -1.5594 -2.3575
 3268SOL    EPW13518   4.802   1.053   0.766  0.0451 -0.4509 -0.2167
 3269SOL      O13519   4.319   0.063   1.177 -0.0608 -0.1488 -0.0478
 3269SOL     H113520   4.343  -0.029   1.189 -0.7983  0.1399  4.6020
 3269SOL     H213521   4.224   0.062   1.164  0.0845 -0.1127 -1.1325
 3269SOL    EPW13522   4.312   0.053   1.177 -0.1240 -0.1142  0.3326
 3270SOL      O13523   3.704   0.687   0.732  0.1351 -0.0932  0.2772
 3270SOL     H113524   3.745   0.603   0.754 -0.1192 -0.3553 -0.2433
 3270SOL     H213525   3.674   0.676   0.642  1.0276  0.9109 -0.1502
 3270SOL    EPW13526   3.705   0.677   0.725  0.2031 -0.0141  0.1761
 3271SOL      O13527   4.189   0.982   0.400 -0.2858 -0.0708  0.3581
 3271SOL     H113528   4.123   0.958   0.465 -0.9584 -1.1558 -0.7035
 3271SOL     H213529   4.155   0.947   0.317  0.0716  2.1431 -0.7735
 3271SOL    EPW13530   4.178   0.976   0.398 -0.3194  0.0497  0.1242
 3272SOL      O13531   5.668   0.460   1.249 -0.0269 -0.2364 -0.0799
 3272SOL     H113532   5.664   0.411   1.332 -0.1219  0.2399  0.1987
 3272SOL     H213533   5.576   0.466   1.222  0.0583 -0.8961 -0.5175
 3272SOL    EPW13534   5.658   0.455   1.255 -0.0279 -0.2559 -0.0968
 3273SOL      O13535   3.154   1.238   1.116 -0.6098 -0.0448  0.1473
 3273SOL     H113536   3.167   1.161   1.061  1.4323 -0.7200  1.5155
 3273SOL     H213537   3.102   1.206   1.190  1.5957 -0.5409  1.5343
 3273SOL    EPW13538   3.150   1.226   1.118 -0.1567 -0.1698  0.4412
 3274SOL      O13539   4.334   1.179   3.362 -0.3192  0.1363  0.0643
 3274SOL     H113540   4.243   1.195   3.338 -0.3512  1.9445  1.2672
 3274SOL     H213541   4.384   1.243   3.313  0.1831 -0.0452  0.3347
 3274SOL    EPW13542   4.330   1.187   3.355 -0.2690  0.3098  0.2214
 3275SOL      O13543   1.608   4.321   3.229 -0.6150  0.2499 -0.4066
 3275SOL     H113544   1.616   4.397   3.287 -3.1772  1.1215 -1.1378
 3275SOL     H213545   1.682   4.265   3.252  0.7982  2.5566  0.7672
 3275SOL    EPW13546   1.617   4.323   3.238 -0.7376  0.5890 -0.3594
 3276SOL      O13547   4.730   0.945   0.530  0.1352 -0.3433 -0.4934
 3276SOL     H113548   4.777   0.902   0.458 -1.3072 -0.9341 -1.1111
 3276SOL     H213549   4.638   0.929   0.510 -0.2649 -1.2441  1.9494
 3276SOL    EPW13550   4.726   0.939   0.520 -0.0614 -0.5024 -0.2987
 3277SOL      O13551   1.499   3.301   3.493 -0.0390 -0.2875  0.2117
 3277SOL     H113552   1.590   3.279   3.514 -0.8531 -2.7998  1.3397
 3277SOL     H213553   1.453   3.217   3.495 -2.0218  0.6661 -2.3414
 3277SOL    EPW13554   1.504   3.289   3.495 -0.3374 -0.4538  0.0597
 3278SOL      O13555   3.868   0.626   1.590  0.3766 -0.1657  0.3395
 3278SOL     H113556   3.928   0.564   1.632  0.4822 -0.1856  0.1580
 3278SOL     H213557   3.925   0.692   1.551  0.2470  0.2895  0.9130
 3278SOL    EPW13558   3.880   0.626   1.591  0.3740 -0.1193  0.3813
 3279SOL      O13559   5.293   1.117   2.146  0.3934 -0.5395  0.1901
 3279SOL     H113560   5.357   1.150   2.084 -0.5129 -0.6975 -0.8520
 3279SOL     H213561   5.225   1.184   2.149  0.0501 -0.8884  0.4107
 3279SOL    EPW13562   5.292   1.128   2.140  0.2601 -0.5936  0.1025
 3280SOL      O13563   5.660   2.683   2.658 -0.3671  0.2087  0.1514
 3280SOL     H113564   5.586   2.737   2.688 -0.5647  1.2140 -2.0370
 3280SOL     H213565   5.730   2.746   2.641  1.6240 -0.8677  3.7030
 3280SOL    EPW13566   5.659   2.696   2.660 -0.1757  0.2011  0.2968
 3281SOL      O13567   1.694   4.094   3.752 -0.1571  0.3837 -0.0295
 3281SOL     H113568   1.661   4.178   3.720 -2.6018 -0.1653  0.8985
 3281SOL     H213569   1.679   4.033   3.680  0.0091  0.4169 -0.0894
 3281SOL    EPW13570   1.689   4.097   3.741 -0.4001  0.3287  0.0631
 3282SOL      O13571   4.594   2.725   1.056  0.2737  0.2836  0.4269
 3282SOL     H113572   4.528   2.709   1.124 -0.3768 -0.5146 -0.3819
 3282SOL     H213573   4.624   2.638   1.030  2.4118  0.6717  1.5115
 3282SOL    EPW13574   4.590   2.714   1.060  0.4324  0.2398  0.4564
 3283SOL      O13575   3.480   1.250   1.159 -0.8812  0.1479 -0.1699
 3283SOL     H113576   3.426   1.186   1.204 -0.3761  0.7840  1.3911
 3283SOL     H213577   3.556   1.201   1.128 -1.1842 -0.2751 -0.2364
 3283SOL    EPW13578   3.482   1.238   1.160 -0.8597  0.1706 -0.0105
 3284SOL      O13579   3.584   1.476   0.873  0.4295  0.2684  0.8544
 3284SOL     H113580   3.499   1.433   0.879 -0.5147  2.3281  3.1775
 3284SOL     H213581   3.616   1.478   0.964  2.6448  0.1327  0.1098
 3284SOL    EPW13582   3.579   1.472   0.884  0.5651  0.4737  1.0228
 3285SOL      O13583   5.239   1.572   1.217  0.2690  0.2692 -0.1156
 3285SOL     H113584   5.168   1.636   1.215  0.2232  0.2195 -0.0589
 3285SOL     H213585   5.299   1.601   1.148  0.3818  0.5258  0.0904
 3285SOL    EPW13586   5.238   1.582   1.209  0.2762  0.2912 -0.0876
 3286SOL      O13587   4.707   0.189   1.502 -0.1700  0.4618  0.0957
 3286SOL     H113588   4.787   0.152   1.539  0.7326  0.7442 -1.5447
 3286SOL     H213589   4.713   0.283   1.520 -0.6245  0.3551  0.8477
 3286SOL    EPW13590   4.716   0.195   1.508 -0.1222  0.4805  0.0009
 3287SOL      O13591   4.763   4.498   0.213 -0.0446  0.8447  0.0638
 3287SOL     H113592   4.688   4.507   0.272  0.8010 -0.2723  1.3061
 3287SOL     H213593   4.839   4.499   0.270  0.8472  0.8080 -1.1058
 3287SOL    EPW13594   4.763   4.499   0.225  0.1407  0.7216  0.0716
 3288SOL      O13595   3.373   1.622   1.054 -0.3321 -0.1682 -0.5278
 3288SOL     H113596   3.462   1.594   1.076 -0.5089 -1.5245 -1.4741
 3288SOL     H213597   3.385   1.700   1.001  0.3995 -1.3809 -2.2052
 3288SOL    EPW13598   3.384   1.627   1.050 -0.2729 -0.4423 -0.8077
 3289SOL      O13599   3.897   0.887   2.657  0.0473 -0.0392 -0.2812
 3289SOL     H113600   3.894   0.982   2.659 -1.3024 -0.0634 -0.7005
 3289SOL     H213601   3.899   0.861   2.749 -1.3713  0.3504 -0.1421
 3289SOL    EPW13602   3.897   0.894   2.667 -0.2481 -0.0002 -0.3111
 3290SOL      O13603   3.967   5.768   0.316 -0.0538 -0.0587 -0.6046
 3290SOL     H113604   3.961   5.792   0.409 -0.0642 -0.3571 -0.5275
 3290SOL     H213605   4.061   5.772   0.297 -0.3159  3.1028 -1.4111
 3290SOL    EPW13606   3.977   5.771   0.324 -0.0829  0.2467 -0.6824
 3291SOL      O13607   4.301   0.920   0.836 -0.0698  0.1441 -0.3850
 3291SOL     H113608   4.319   0.929   0.929 -1.0252  0.2752 -0.2102
 3291SOL     H213609   4.274   1.007   0.807 -2.6451 -0.5489 -0.1435
 3291SOL    EPW13610   4.300   0.930   0.843 -0.4465  0.0842 -0.3406
 3292SOL      O13611   4.016   1.003   1.494  0.1554 -0.0150 -0.0264
 3292SOL     H113612   4.049   1.091   1.513  1.5558 -0.9051  1.7162
 3292SOL     H213613   3.920   1.013   1.499  0.2268  1.7355 -1.4076
 3292SOL    EPW13614   4.009   1.014   1.496  0.3124  0.0768  0.0122
 3293SOL      O13615   4.197   1.486   3.197  0.5721  0.3674 -0.2006
 3293SOL     H113616   4.149   1.419   3.244  0.5732 -0.0378 -0.7804
 3293SOL     H213617   4.130   1.534   3.147  0.7929 -0.3272 -1.1677
 3293SOL    EPW13618   4.185   1.484   3.197  0.5958  0.2500 -0.3656
 3294SOL      O13619   3.991   0.896   1.818  0.4473  0.2862  0.0936
 3294SOL     H113620   4.067   0.945   1.849  0.8948 -1.3085  1.6087
 3294SOL     H213621   4.028   0.815   1.782 -0.4907 -0.2210  0.2593
 3294SOL    EPW13622   4.003   0.892   1.817  0.3950  0.0619  0.2729
 3295SOL      O13623   4.093   1.105   2.268  0.2268  0.1794  0.1869
 3295SOL     H113624   4.002   1.075   2.264  0.3775 -0.1964 -0.5276
 3295SOL     H213625   4.096   1.162   2.345 -0.3795 -0.5852  0.7878
 3295SOL    EPW13626   4.084   1.108   2.276  0.1782  0.0578  0.1748
 3296SOL      O13627   1.931   3.781   1.712 -0.3334  0.0284 -0.2035
 3296SOL     H113628   1.976   3.792   1.628  0.9617 -0.1469  0.4550
 3296SOL     H213629   1.958   3.858   1.763 -0.9878  0.0497  0.1126
 3296SOL    EPW13630   1.939   3.791   1.708 -0.2650  0.0120 -0.0995
 3297SOL      O13631   4.544   1.130   3.710  0.0222  0.1536  0.1480
 3297SOL     H113632   4.620   1.178   3.678 -0.5599  2.2543  1.8258
 3297SOL     H213633   4.484   1.198   3.742 -1.7318 -1.5669  0.6278
 3297SOL    EPW13634   4.546   1.143   3.710 -0.2270  0.1942  0.3781
 3298SOL      O13635   4.822   0.669   2.581 -0.2255  0.8722  0.4598
 3298SOL     H113636   4.785   0.697   2.497  1.5441  0.6527 -0.4079
 3298SOL     H213637   4.798   0.740   2.642 -2.9370  0.2462  0.1805
 3298SOL    EPW13638   4.815   0.680   2.579 -0.3260  0.7820  0.3374
 3299SOL      O13639   4.664   5.454   1.049  0.9035 -0.0549  0.6704
 3299SOL     H113640   4.702   5.498   1.125  1.1967  0.9207 -0.0411
 3299SOL     H213641   4.660   5.521   0.981 -0.2854 -0.6543  0.1273
 3299SOL    EPW13642   4.667   5.466   1.050  0.8080 -0.0148  0.5365
 3300SOL      O13643   4.030   4.615   3.190 -0.2862  0.1103  0.6823
 3300SOL     H113644   4.066   4.579   3.109  0.5801 -1.3275  1.6858
 3300SOL     H213645   4.002   4.539   3.240 -2.3387  1.0824  1.0541
 3300SOL    EPW13646   4.031   4.603   3.186 -0.4128  0.0606  0.8290
 3301SOL      O13647   2.870   0.414   3.542 -0.2304 -0.2251  0.2553
 3301SOL     H113648   2.776   0.424   3.554 -0.1746  1.0074 -0.2492
 3301SOL     H213649   2.889   0.461   3.461  0.4973 -2.3309 -0.8208
 3301SOL    EPW13650   2.862   0.420   3.535 -0.1468 -0.3183  0.0867
 3302SOL      O13651   4.440   0.429   1.699  0.7408 -0.1412  0.3156
 3302SOL     H113652   4.529   0.434   1.734  0.6346  2.5332  0.3282
 3302SOL     H213653   4.409   0.343   1.724  2.2649  0.0092  2.9369
 3302SOL    EPW13654   4.446   0.421   1.705  0.8920  0.1601  0.5966
 3303SOL      O13655   5.737   0.527   3.857  0.0853 -0.2653 -0.4698
 3303SOL     H113656   5.702   0.469   3.924 -0.9885  0.6778 -0.1930
 3303SOL     H213657   5.725   0.480   3.775  3.4039 -2.3954  0.1337
 3303SOL    EPW13658   5.732   0.516   3.856  0.3248 -0.3919 -0.3759
 3304SOL      O13659   3.027   1.601   3.407 -0.0536  0.1106  0.0471
 3304SOL     H113660   3.004   1.643   3.324  0.6664  1.6430  0.6074
 3304SOL     H213661   3.068   1.671   3.458 -1.8410 -0.4130  2.2530
 3304SOL    EPW13662   3.029   1.613   3.403 -0.1674  0.2182  0.3422
 3305SOL      O13663   4.537   1.399   2.725 -0.5344  0.3356  0.1620
 3305SOL     H113664   4.466   1.432   2.670  0.8546  1.1046 -1.1869
 3305SOL     H213665   4.610   1.386   2.665  0.4221 -0.6205  1.5094
 3305SOL    EPW13666   4.537   1.401   2.713 -0.2842  0.3156  0.1618
 3306SOL      O13667   5.433   1.093   3.299 -0.1821 -0.2072 -0.4605
 3306SOL     H113668   5.415   1.137   3.383  1.0622 -0.6120  0.0299
 3306SOL     H213669   5.379   1.014   3.302 -1.6736  0.7868 -0.9168
 3306SOL    EPW13670   5.425   1.089   3.308 -0.2085 -0.1443 -0.4568
 3307SOL      O13671   4.384   0.775   2.584 -0.2631 -0.7332 -0.1633
 3307SOL     H113672   4.313   0.838   2.577  0.1267 -0.3763 -1.0270
 3307SOL     H213673   4.433   0.802   2.662 -1.0062 -0.9164  0.3699
 3307SOL    EPW13674   4.382   0.785   2.592 -0.3008 -0.7147 -0.1986
 3308SOL      O13675   3.869   1.866   2.801  0.5282 -0.2506  0.0726
 3308SOL     H113676   3.814   1.850   2.877 -0.6466 -1.3710 -1.0010
 3308SOL     H213677   3.958   1.854   2.834  0.1643  1.3845  1.7734
 3308SOL    EPW13678   3.873   1.863   2.813  0.3640 -0.1957  0.1395
 3309SOL      O13679   5.494   1.471   2.617  0.3852 -0.0453  0.1117
 3309SOL     H113680   5.413   1.438   2.655  1.4404 -1.4737  1.1885
 3309SOL     H213681   5.499   1.428   2.531 -0.4004  0.6857 -0.3029
 3309SOL    EPW13682   5.486   1.463   2.612  0.4140 -0.1197  0.1823
 3310SOL      O13683   3.671   0.173   2.908 -0.3981 -0.2189 -0.7848
 3310SOL     H113684   3.617   0.108   2.863  0.9688 -0.0501 -2.8021
 3310SOL     H213685   3.759   0.156   2.874  0.5605  0.4657  1.2980
 3310SOL    EPW13686   3.675   0.164   2.899 -0.1500 -0.1279 -0.7778
 3311SOL      O13687   0.908   4.188   0.016 -0.0179 -0.2174  0.4024
 3311SOL     H113688   0.865   4.171   0.100 -0.3271 -0.9138  0.1098
 3311SOL     H213689   0.858   4.136  -0.047  0.7885 -0.4312 -0.0675
 3311SOL    EPW13690   0.898   4.180   0.018  0.0351 -0.3145  0.3211
 3312SOL      O13691   2.990   1.592   3.098 -0.2300  0.5019  0.3544
 3312SOL     H113692   2.993   1.598   3.003 -1.0285 -0.0333  0.2822
 3312SOL     H213693   2.897   1.579   3.118  0.0941 -0.7998  1.1077
 3312SOL    EPW13694   2.980   1.591   3.090 -0.2806  0.3060  0.4271
 3313SOL      O13695   3.512   2.311   2.686 -0.2292  0.0597  0.2106
 3313SOL     H113696   3.488   2.236   2.740  0.8144  0.3226  1.0699
 3313SOL     H213697   3.457   2.382   2.717  0.6070  0.2978  1.1891
 3313SOL    EPW13698   3.504   2.310   2.695 -0.0287  0.1131  0.4066
 3314SOL      O13699   5.208   5.626   2.906  0.3334  0.5380  0.5275
 3314SOL     H113700   5.289   5.614   2.956  0.8356  1.4308 -0.0538
 3314SOL     H213701   5.235   5.675   2.828 -0.3807 -1.0918 -0.7873
 3314SOL    EPW13702   5.220   5.630   2.903  0.3108  0.4594  0.3253
 3315SOL      O13703   5.078   5.145   2.801 -0.5579 -0.1414 -0.2020
 3315SOL     H113704   5.088   5.232   2.839 -1.8911 -0.5400  1.0599
 3315SOL     H213705   5.137   5.089   2.852 -0.5782 -0.2175 -0.2614
 3315SOL    EPW13706   5.086   5.148   2.810 -0.7023 -0.1921 -0.0737
 3316SOL      O13707   3.609   1.183   3.131  0.4962  0.7006  0.1397
 3316SOL     H113708   3.666   1.111   3.104 -1.0063  0.1598 -1.6897
 3316SOL     H213709   3.632   1.198   3.223  2.6256 -0.3866 -0.1670
 3316SOL    EPW13710   3.618   1.177   3.138  0.5631  0.5270 -0.0882
 3317SOL      O13711   0.305   1.179   1.545 -0.1319 -0.3259  0.3969
 3317SOL     H113712   0.287   1.210   1.456  2.1037  0.9643  0.3560
 3317SOL     H213713   0.365   1.106   1.533 -0.3773 -0.6014  0.8263
 3317SOL    EPW13714   0.309   1.175   1.534  0.0804 -0.2177  0.4383
 3318SOL      O13715   5.302   0.247   2.711  0.0190 -0.0184 -0.0849
 3318SOL     H113716   5.363   0.317   2.689 -1.7247  1.8284  0.8197
 3318SOL     H213717   5.263   0.221   2.627  0.0444  0.6967 -0.3188
 3318SOL    EPW13718   5.304   0.252   2.700 -0.1643  0.2549 -0.0134
 3319SOL      O13719   5.620   1.330   1.584  0.2567  0.4616 -0.2901
 3319SOL     H113720   5.633   1.425   1.578 -0.4716  0.6185  0.5046
 3319SOL     H213721   5.551   1.311   1.519 -1.1845  0.8189  1.1008
 3319SOL    EPW13722   5.614   1.338   1.576  0.0253  0.5165 -0.0569
 3320SOL      O13723   3.216   3.914   0.394 -0.2474 -0.5931 -0.3260
 3320SOL     H113724   3.243   4.004   0.416 -0.3134 -0.5359 -0.4856
 3320SOL     H213725   3.149   3.925   0.327 -1.4774 -0.6909  0.8562
 3320SOL    EPW13726   3.212   3.925   0.389 -0.3857 -0.5974 -0.2169
 3321SOL      O13727   3.382   0.334   3.311 -0.1198 -0.3582 -0.3890
 3321SOL     H113728   3.449   0.303   3.372 -0.9220 -2.3074 -0.4492
 3321SOL     H213729   3.314   0.266   3.315 -1.7853  1.2457 -0.8153
 3321SOL    EPW13730   3.382   0.323   3.318 -0.3831 -0.3951 -0.4409
 3322SOL      O13731   5.693   2.161   3.239 -0.2555  0.2952  0.3997
 3322SOL     H113732   5.693   2.100   3.313 -0.6724 -0.3053 -0.0833
 3322SOL     H213733   5.776   2.146   3.195  0.8331  1.9971  1.8155
 3322SOL    EPW13734   5.702   2.153   3.242 -0.1839  0.4127  0.4992
 3323SOL      O13735   4.591   5.739   3.946  0.0161 -0.0562  0.0687
 3323SOL     H113736   4.616   5.802   4.013  0.7985  0.0950 -0.3552
 3323SOL     H213737   4.597   5.788   3.864 -1.9107  0.0484 -0.0278
 3323SOL    EPW13738   4.595   5.751   3.944 -0.1060 -0.0289  0.0132
 3324SOL      O13739   1.983   4.361   0.050  0.2626 -0.3175  0.3015
 3324SOL     H113740   2.002   4.447   0.012 -0.0234 -0.5136 -0.2831
 3324SOL     H213741   1.948   4.309  -0.022 -0.3778 -0.6658  0.8496
 3324SOL    EPW13742   1.981   4.365   0.038  0.1638 -0.3756  0.2976
 3325SOL      O13743   5.566   0.157   1.639  0.7395  0.2033 -0.2094
 3325SOL     H113744   5.491   0.208   1.611 -1.0116 -0.8875  2.2978
 3325SOL     H213745   5.549   0.068   1.606  0.8486 -0.0724  0.4556
 3325SOL    EPW13746   5.556   0.153   1.633  0.5643  0.0575  0.1290
 3326SOL      O13747   5.621   0.621   0.838 -0.8301 -0.1646 -0.1062
 3326SOL     H113748   5.677   0.544   0.847  1.4670  1.8011  3.7952
 3326SOL     H213749   5.542   0.599   0.887 -0.6890 -0.4904 -0.0238
 3326SOL    EPW13750   5.619   0.610   0.844 -0.5700  0.0104  0.3187
 3327SOL      O13751   4.489   5.495   3.824 -0.4727 -0.0798 -0.0078
 3327SOL     H113752   4.529   5.517   3.740 -1.4729  1.2829 -0.1506
 3327SOL     H213753   4.431   5.421   3.805  0.3248 -0.6527 -0.2341
 3327SOL    EPW13754   4.487   5.490   3.813 -0.4943  0.0045 -0.0472
 3328SOL      O13755   0.642   2.390   2.368 -0.4126  0.1166 -0.4545
 3328SOL     H113756   0.690   2.324   2.418  1.6549  1.3650 -0.7438
 3328SOL     H213757   0.574   2.420   2.429 -0.4411 -1.2045  0.1968
 3328SOL    EPW13758   0.639   2.386   2.380 -0.1951  0.1089 -0.4159
 3329SOL      O13759   4.146   4.749   3.389  0.5715  0.3716 -0.3930
 3329SOL     H113760   4.105   4.699   3.319  0.7495 -0.6758  0.2311
 3329SOL     H213761   4.240   4.736   3.376  0.7011  2.3353 -1.5131
 3329SOL    EPW13762   4.152   4.743   3.380  0.6043  0.4693 -0.4459
 3330SOL      O13763   3.731   3.534   1.413 -0.2619  0.6075  0.1791
 3330SOL     H113764   3.714   3.607   1.472  1.2145 -0.2044  1.6676
 3330SOL     H213765   3.785   3.572   1.343 -0.7893  1.2580  0.1208
 3330SOL    EPW13766   3.735   3.546   1.412 -0.1607  0.5903  0.3317
 3331SOL      O13767   5.347   0.604   4.050 -0.2106 -0.1002 -0.2165
 3331SOL     H113768   5.349   0.651   3.967 -1.6791  0.8733  0.2697
 3331SOL     H213769   5.254   0.601   4.072  0.3109  1.4028  2.3646
 3331SOL    EPW13770   5.337   0.609   4.043 -0.3116  0.1640  0.1107
 3332SOL      O13771   4.933   1.197   2.517  0.0435 -0.3521  0.4268
 3332SOL     H113772   5.002   1.264   2.513  0.1247 -0.3956  1.0300
 3332SOL     H213773   4.974   1.124   2.563  0.2956 -1.2418 -1.1947
 3332SOL    EPW13774   4.945   1.196   2.522  0.0790 -0.4517  0.3182
 3333SOL      O13775   5.805   0.421   1.922  0.0105 -0.5664 -0.6925
 3333SOL     H113776   5.745   0.348   1.910 -0.2939 -1.3415  4.1917
 3333SOL     H213777   5.747   0.498   1.928 -0.0986 -0.6461 -0.7162
 3333SOL    EPW13778   5.792   0.422   1.922 -0.0336 -0.6576 -0.1740
 3334SOL      O13779   0.859   2.299   1.468 -0.5196  0.1309  0.4340
 3334SOL     H113780   0.848   2.393   1.453 -0.8337  0.0987  0.4427
 3334SOL     H213781   0.850   2.289   1.563 -2.2552 -0.1185  0.2710
 3334SOL    EPW13782   0.857   2.308   1.476 -0.7383  0.1009  0.4176
 3335SOL      O13783   2.400   4.695   0.449  0.5416 -0.2406  0.1948
 3335SOL     H113784   2.492   4.689   0.475 -0.4221  0.5406  4.2224
 3335SOL     H213785   2.383   4.789   0.441 -0.5811 -0.1978  2.5012
 3335SOL    EPW13786   2.408   4.705   0.451  0.3190 -0.1527  0.8705
 3336SOL      O13787   5.499   0.031   2.801 -0.1601  0.0906 -0.4334
 3336SOL     H113788   5.577   0.084   2.784 -0.5627  0.1624 -2.1342
 3336SOL     H213789   5.426   0.093   2.795 -0.4586 -0.2406 -0.2398
 3336SOL    EPW13790   5.499   0.043   2.798 -0.2349  0.0629 -0.5942
 3337SOL      O13791   5.731   1.195   2.707  0.3408  0.2971  0.3343
 3337SOL     H113792   5.717   1.254   2.781 -1.3098 -0.0628  0.3479
 3337SOL     H213793   5.783   1.245   2.644 -1.7153  2.0841 -0.0044
 3337SOL    EPW13794   5.735   1.207   2.708 -0.0546  0.4493  0.2996
 3338SOL      O13795   3.600   0.323   3.486  0.0984 -0.2009 -0.1650
 3338SOL     H113796   3.629   0.232   3.488 -1.0327 -0.7241 -3.6699
 3338SOL     H213797   3.668   0.370   3.437  0.3860  0.7461  1.1095
 3338SOL    EPW13798   3.610   0.319   3.481  0.0084 -0.1557 -0.4029
 3339SOL      O13799   0.626   2.036   3.169  0.3547 -0.9052 -0.0786
 3339SOL     H113800   0.707   2.016   3.122  0.7262 -0.7994  0.5191
 3339SOL     H213801   0.636   2.127   3.197 -0.7399 -0.3058 -1.5727
 3339SOL    EPW13802   0.635   2.044   3.167  0.2775 -0.8300 -0.1742
 3340SOL      O13803   5.326   1.091   2.710  0.3678 -0.1981 -0.2211
 3340SOL     H113804   5.320   1.185   2.724 -0.6639 -0.0580 -1.4976
 3340SOL     H213805   5.235   1.063   2.700  0.6793 -1.3144  0.0268
 3340SOL    EPW13806   5.316   1.098   2.711  0.2910 -0.3022 -0.3308
 3341SOL      O13807   2.433   3.931   0.525 -0.0179 -0.0570 -0.1799
 3341SOL     H113808   2.407   3.859   0.468 -2.5850 -0.0015  0.8318
 3341SOL     H213809   2.436   4.008   0.467  1.0942 -0.6650 -0.9393
 3341SOL    EPW13810   2.431   3.932   0.513 -0.1731 -0.1159 -0.1530
 3342SOL      O13811   4.916   2.195   2.956  0.2475 -0.4506 -0.1275
 3342SOL     H113812   4.835   2.159   2.991  0.8832  0.4821  2.4117
 3342SOL     H213813   4.889   2.252   2.885 -1.4128  0.4092  1.1581
 3342SOL    EPW13814   4.905   2.197   2.952  0.1382 -0.2594  0.2805
 3343SOL      O13815   3.606   5.775   4.000 -0.0576  0.5974 -0.1153
 3343SOL     H113816   3.548   5.834   4.048 -0.3506  0.5783 -0.4387
 3343SOL     H213817   3.592   5.689   4.039  0.4019  0.7514  0.3855
 3343SOL    EPW13818   3.598   5.772   4.009 -0.0398  0.6118 -0.0964
 3344SOL      O13819   3.919   0.315   2.257 -0.1000  0.5820 -0.4093
 3344SOL     H113820   3.919   0.339   2.350  0.4354 -0.8214 -0.0261
 3344SOL     H213821   3.967   0.386   2.214 -1.2394  1.7644  0.2352
 3344SOL    EPW13822   3.924   0.325   2.262 -0.1644  0.5584 -0.2997
 3345SOL      O13823   3.297   5.651   3.891 -0.3412 -0.0034 -0.6412
 3345SOL     H113824   3.271   5.576   3.838 -1.3871 -1.0396  1.2497
 3345SOL     H213825   3.375   5.621   3.938 -0.2905  0.3714 -0.4851
 3345SOL    EPW13826   3.303   5.639   3.891 -0.4473 -0.0740 -0.4228
 3346SOL      O13827   4.505   2.704   2.288  0.0888  0.2918  0.8189
 3346SOL     H113828   4.420   2.716   2.330  0.0790  0.6955  0.6868
 3346SOL     H213829   4.546   2.791   2.292  0.2240  0.2527  0.2974
 3346SOL    EPW13830   4.500   2.715   2.293  0.1022  0.3307  0.7492
 3347SOL      O13831   5.656   5.494   3.500 -0.6839  0.2841 -0.0894
 3347SOL     H113832   5.672   5.534   3.586 -1.3436  2.9341 -1.1375
 3347SOL     H213833   5.740   5.454   3.476  0.7951  3.2253 -0.0524
 3347SOL    EPW13834   5.667   5.494   3.507 -0.5965  0.8806 -0.1973
 3348SOL      O13835   4.162   1.689   1.267 -0.1045  0.7138  0.3017
 3348SOL     H113836   4.217   1.753   1.222  1.5733  1.4885  3.3483
 3348SOL     H213837   4.211   1.608   1.262 -0.8278  0.3340 -0.9095
 3348SOL    EPW13838   4.173   1.687   1.262 -0.0026  0.7560  0.4975
 3349SOL      O13839   1.380   2.862   0.025 -0.1206 -0.1749 -0.1472
 3349SOL     H113840   1.379   2.950   0.063 -1.8247 -0.7893  1.3323
 3349SOL     H213841   1.291   2.850  -0.008  0.0473 -1.4065 -0.1751
 3349SOL    EPW13842   1.370   2.870   0.026 -0.2845 -0.3719  0.0077
 3350SOL      O13843   3.313   2.184   3.959  0.0352 -1.0761  0.0728
 3350SOL     H113844   3.270   2.112   4.007  1.6031 -1.8213  0.3854
 3350SOL     H213845   3.353   2.142   3.883  0.7759 -0.4980  0.1371
 3350SOL    EPW13846   3.312   2.172   3.956  0.2815 -1.0939  0.1130
 3351SOL      O13847   4.664   2.157   1.835 -0.1589  0.5120 -0.0054
 3351SOL     H113848   4.715   2.112   1.903 -0.2800  1.9966  1.0971
 3351SOL     H213849   4.665   2.249   1.862 -0.4056  1.0881 -1.9021
 3351SOL    EPW13850   4.670   2.162   1.845 -0.1981  0.7319 -0.0901
 3352SOL      O13851   5.192   0.764   3.516  0.2125 -0.4733  0.4441
 3352SOL     H113852   5.108   0.718   3.517  0.9265 -1.7868  0.3254
 3352SOL     H213853   5.229   0.750   3.603  0.4306 -0.1228  0.4091
 3352SOL    EPW13854   5.187   0.758   3.525  0.3119 -0.5760  0.4277
 3353SOL      O13855   4.861   0.617   3.055  0.0161  0.0786  0.6102
 3353SOL     H113856   4.873   0.533   3.011 -1.3088  0.1414  0.1157
 3353SOL     H213857   4.778   0.608   3.102 -0.1238  1.0998  0.5780
 3353SOL    EPW13858   4.853   0.607   3.055 -0.1401  0.1942  0.5540
 3354SOL      O13859   5.025   5.725   2.481 -0.8924  0.1994  0.0286
 3354SOL     H113860   4.933   5.712   2.501 -0.9953  1.6592  0.5906
 3354SOL     H213861   5.038   5.682   2.397 -2.3087  0.8092 -0.5177
 3354SOL    EPW13862   5.017   5.719   2.474 -1.0545  0.4202  0.0303
 3355SOL      O13863   4.367   2.331   2.629  0.6242  0.6193 -0.2899
 3355SOL     H113864   4.302   2.261   2.633  0.8842  0.4233  0.5519
 3355SOL     H213865   4.373   2.353   2.536  0.5198 -0.4548 -0.5578
 3355SOL    EPW13866   4.361   2.326   2.620  0.6408  0.4838 -0.2287
 3356SOL      O13867   1.436   3.518   0.078 -0.3377  0.2379 -0.5213
 3356SOL     H113868   1.370   3.541   0.012  1.0437 -1.1956 -2.4578
 3356SOL     H213869   1.506   3.476   0.028  1.3443  0.3079  1.7081
 3356SOL    EPW13870   1.436   3.516   0.065 -0.0109  0.0925 -0.4900
 3357SOL      O13871   4.129   1.149   3.675  0.0754  0.4612 -0.1652
 3357SOL     H113872   4.124   1.235   3.634  3.2685  0.0001 -1.6809
 3357SOL     H213873   4.113   1.166   3.768  0.7299  2.7087 -0.4270
 3357SOL    EPW13874   4.127   1.160   3.681  0.4858  0.6517 -0.3548
 3358SOL      O13875   3.790   0.717   1.909  0.8869  0.6167  0.1095
 3358SOL     H113876   3.761   0.774   1.837  1.1826 -0.1116 -0.5907
 3358SOL     H213877   3.882   0.702   1.891  0.9428  0.3644  0.6102
 3358SOL    EPW13878   3.796   0.722   1.899  0.9244  0.5121  0.0882
 3359SOL      O13879   1.419   4.771   1.597  0.5630 -0.2370 -0.0897
 3359SOL     H113880   1.514   4.777   1.597  0.5673 -0.2422  0.6769
 3359SOL     H213881   1.401   4.680   1.573  0.7584 -0.3231  0.0904
 3359SOL    EPW13882   1.427   4.762   1.594  0.5843 -0.2467  0.0113
 3360SOL      O13883   4.419   4.887   3.596 -0.4435 -0.4409 -0.1396
 3360SOL     H113884   4.393   4.797   3.615 -2.8180  0.1787 -0.2443
 3360SOL     H213885   4.507   4.880   3.559  0.5238 -2.4617  2.4252
 3360SOL    EPW13886   4.426   4.877   3.594 -0.5936 -0.5904  0.1228
 3361SOL      O13887   4.414   5.560   4.100 -0.4740 -0.0120 -0.4726
 3361SOL     H113888   4.384   5.644   4.137  0.0705 -0.6234  1.4031
 3361SOL     H213889   4.333   5.510   4.087 -0.7612  0.6169 -1.1321
 3361SOL    EPW13890   4.402   5.564   4.103 -0.4466 -0.0101 -0.3429
 3362SOL      O13891   5.226   1.216   3.027 -0.2711 -0.2216  0.0791
 3362SOL     H113892   5.311   1.258   3.017 -0.6209  0.3560 -0.5189
 3362SOL     H213893   5.193   1.248   3.111 -0.2908  0.2686 -0.1126
 3362SOL    EPW13894   5.231   1.224   3.035 -0.3105 -0.1077 -0.0051
 3363SOL      O13895   0.541   0.006   3.726  0.1865 -0.2151 -0.1300
 3363SOL     H113896   0.492  -0.055   3.781 -2.3347  2.0499  0.2138
 3363SOL     H213897   0.602   0.048   3.787 -0.0362 -0.3740  0.2051
 3363SOL    EPW13898   0.543   0.004   3.739 -0.1062  0.0095 -0.0576
 3364SOL      O13899   3.701   2.239   1.937 -0.0119  0.0988  0.0478
 3364SOL     H113900   3.788   2.198   1.942 -0.4571 -0.6849  1.6399
 3364SOL     H213901   3.718   2.325   1.900  1.3021 -0.4918 -0.7603
 3364SOL    EPW13902   3.712   2.244   1.934  0.0808 -0.0478  0.1314
 3365SOL      O13903   4.081   2.435   2.956  0.2695  0.5351 -0.5289
 3365SOL     H113904   4.041   2.484   3.028  0.4945  0.0601 -0.0829
 3365SOL     H213905   4.013   2.434   2.888 -0.9310 -1.2614  0.6552
 3365SOL    EPW13906   4.070   2.440   2.956  0.1655  0.2928 -0.3550
 3366SOL      O13907   4.468   0.337   3.456  0.0934  0.2525 -0.6016
 3366SOL     H113908   4.548   0.383   3.429  0.5581 -0.4458 -0.4384
 3366SOL     H213909   4.460   0.358   3.549 -0.7988  1.6112 -0.9667
 3366SOL    EPW13910   4.476   0.344   3.463  0.0478  0.3229 -0.6231
 3367SOL      O13911   2.560   0.115   0.329  0.5784  0.2037  0.2062
 3367SOL     H113912   2.639   0.098   0.278 -0.5654 -1.4187 -1.0751
 3367SOL     H213913   2.494   0.138   0.264  0.1978  2.4188  1.3366
 3367SOL    EPW13914   2.562   0.115   0.316  0.4158  0.2669  0.1901
 3368SOL      O13915   5.092   1.511   3.389  0.4592  0.0143 -0.5282
 3368SOL     H113916   5.059   1.563   3.316 -1.4933 -0.0417  0.2697
 3368SOL     H213917   5.093   1.421   3.355 -0.1887  0.0234 -0.5823
 3368SOL    EPW13918   5.088   1.507   3.377  0.1818  0.0093 -0.4488
 3369SOL      O13919   3.791   0.078   1.293  0.3751 -0.4255 -0.3015
 3369SOL     H113920   3.852   0.141   1.253 -0.6051  0.2813 -0.6922
 3369SOL     H213921   3.824  -0.008   1.266  1.9028 -0.1079  0.4885
 3369SOL    EPW13922   3.801   0.076   1.286  0.4335 -0.3162 -0.2589
 3370SOL      O13923   4.284   0.614   0.988 -0.3364 -0.1821 -0.2850
 3370SOL     H113924   4.354   0.564   1.030  1.8730  1.6087 -1.6872
 3370SOL     H213925   4.298   0.704   1.018  0.1207  0.8042 -3.2278
 3370SOL    EPW13926   4.293   0.618   0.996 -0.0520  0.1141 -0.7485
 3371SOL      O13927   0.236   0.213   3.736 -0.2490 -0.4104 -0.0809
 3371SOL     H113928   0.234   0.207   3.641 -4.1538  0.1979 -0.1457
 3371SOL     H213929   0.317   0.259   3.757  1.0857 -1.3372 -3.0158
 3371SOL    EPW13930   0.244   0.217   3.728 -0.5232 -0.4444 -0.4009
 3372SOL      O13931   3.503   1.825   2.723 -0.6807  0.6380 -0.2235
 3372SOL     H113932   3.536   1.896   2.777  1.6120  0.2814 -1.0907
 3372SOL     H213933   3.521   1.746   2.774 -2.5315  0.5844  0.4018
 3372SOL    EPW13934   3.508   1.824   2.734 -0.6335  0.5942 -0.2493
 3373SOL      O13935   4.743   1.627   3.208  0.2965  0.1055  0.4423
 3373SOL     H113936   4.726   1.556   3.270 -1.9677  0.1627 -0.0916
 3373SOL     H213937   4.686   1.608   3.133  1.6607  1.0364 -0.8624
 3373SOL    EPW13938   4.735   1.617   3.207  0.2005  0.2109  0.2462
 3374SOL      O13939   3.850   1.051   3.091 -0.2541  0.1090 -0.1289
 3374SOL     H113940   3.891   0.997   3.158 -1.8833  0.2950  1.0349
 3374SOL     H213941   3.855   0.998   3.012  0.2029 -0.7820  0.4904
 3374SOL    EPW13942   3.855   1.040   3.090 -0.3792  0.0338  0.0613
 3375SOL      O13943   0.201   0.422   3.172  0.1092 -0.2367 -0.0270
 3375SOL     H113944   0.195   0.416   3.267  1.4250 -1.7024 -0.0156
 3375SOL     H213945   0.294   0.436   3.155 -0.1796  0.4530 -1.0968
 3375SOL    EPW13946   0.211   0.423   3.180  0.2188 -0.3195 -0.1399
 3376SOL      O13947   4.760   2.930   2.058  0.8138  0.1778  0.2989
 3376SOL     H113948   4.707   3.009   2.053 -0.0905 -0.5235 -1.5031
 3376SOL     H213949   4.839   2.951   2.009  1.7257  0.8144  1.9861
 3376SOL    EPW13950   4.763   2.941   2.052  0.8146  0.1709  0.2866
 3377SOL      O13951   3.564   1.639   2.927 -0.6320  0.2691 -0.2668
 3377SOL     H113952   3.618   1.560   2.924 -0.1593  0.4926  1.8004
 3377SOL     H213953   3.493   1.617   2.987 -1.4658  0.8444 -1.0177
 3377SOL    EPW13954   3.562   1.628   2.933 -0.6705  0.3543 -0.1264
 3378SOL      O13955   2.028   1.987   3.710 -0.0058  0.1328  0.0446
 3378SOL     H113956   2.105   1.978   3.766 -1.1183 -0.2979  1.5354
 3378SOL     H213957   1.970   2.047   3.757 -1.0255 -0.3581 -0.5497
 3378SOL    EPW13958   2.030   1.992   3.721 -0.2333  0.0345  0.1403
 3379SOL      O13959   0.104   2.103   3.151  0.1312 -0.5100 -0.4413
 3379SOL     H113960   0.160   2.131   3.223 -1.1225  2.2860 -0.4881
 3379SOL     H213961   0.113   2.171   3.085 -1.6068 -1.1270 -1.3760
 3379SOL    EPW13962   0.111   2.113   3.151 -0.1880 -0.2776 -0.5460
 3380SOL      O13963   5.836   1.441   3.356 -0.0293  0.1716 -0.0788
 3380SOL     H113964   5.785   1.492   3.293 -1.3317 -0.0082  0.7999
 3380SOL     H213965   5.912   1.497   3.376 -1.5465  1.8926  1.0436
 3380SOL    EPW13966   5.839   1.453   3.352 -0.3301  0.3360  0.1347
 3381SOL      O13967   3.597   0.654   2.864 -0.0288 -0.5330  0.5375
 3381SOL     H113968   3.577   0.562   2.848 -0.2441 -0.0459 -2.1000
 3381SOL     H213969   3.542   0.678   2.939 -1.8406 -1.9016 -0.3221
 3381SOL    EPW13970   3.589   0.647   2.871 -0.2451 -0.6270  0.1644
 3382SOL      O13971   2.254   3.832   0.738  0.8563 -0.1828  0.2268
 3382SOL     H113972   2.329   3.827   0.798  0.3608  1.0314  0.9707
 3382SOL     H213973   2.266   3.914   0.691 -1.2391  1.2396  2.0574
 3382SOL    EPW13974   2.263   3.840   0.739  0.5799  0.0985  0.5014
 3383SOL      O13975   2.058   3.755   0.439 -0.6742  0.1638  0.0936
 3383SOL     H113976   2.059   3.686   0.506 -0.7176 -1.1074 -1.1863
 3383SOL     H213977   2.148   3.786   0.435 -0.3414 -0.8367 -0.3348
 3383SOL    EPW13978   2.068   3.751   0.446 -0.6434 -0.0786 -0.0887
 3384SOL      O13979   1.063   1.144   2.239  0.2448 -0.3752  0.7267
 3384SOL     H113980   0.969   1.132   2.229  0.1112  1.1228  0.0549
 3384SOL     H213981   1.092   1.181   2.155  1.2507  0.1609  1.2983
 3384SOL    EPW13982   1.056   1.146   2.229  0.3378 -0.1582  0.7160
 3385SOL      O13983   3.972   5.441   2.493  0.0724 -0.0693  0.4355
 3385SOL     H113984   4.024   5.390   2.430 -1.7429  0.9010 -1.9465
 3385SOL     H213985   3.944   5.377   2.558  2.0249 -1.1055  0.2899
 3385SOL    EPW13986   3.974   5.429   2.493  0.0870 -0.0763  0.1659
 3386SOL      O13987   4.300   0.361   2.946 -0.1442  0.1383 -0.0559
 3386SOL     H113988   4.293   0.268   2.968  2.0770 -0.2497 -0.8226
 3386SOL     H213989   4.249   0.370   2.865  1.9126 -1.0351 -1.5430
 3386SOL    EPW13990   4.294   0.352   2.939  0.3122 -0.0283 -0.2964
 3387SOL      O13991   1.678   2.995   0.451 -0.6995  0.0814  0.1191
 3387SOL     H113992   1.705   3.028   0.365 -0.1452 -0.7641 -0.0326
 3387SOL     H213993   1.737   3.038   0.513 -0.2224 -0.3362 -0.0444
 3387SOL    EPW13994   1.687   3.004   0.448 -0.5895 -0.0533  0.0855
 3388SOL      O13995   3.448   0.964   3.224 -0.1281  0.4946  0.2629
 3388SOL     H113996   3.487   1.044   3.189 -0.8202  1.1763  1.0137
 3388SOL     H213997   3.458   0.972   3.319  1.2987 -1.1005  0.2784
 3388SOL    EPW13998   3.453   0.973   3.230 -0.0497  0.3972  0.3446
 3389SOL      O13999   4.119   2.197   2.617  0.1377  0.4857  0.1197
 3389SOL     H114000   4.103   2.288   2.594 -1.9068 -0.2266 -1.4336
 3389SOL     H214001   4.037   2.152   2.596  1.9216 -2.1387 -1.4826
 3389SOL    EPW14002   4.108   2.202   2.612  0.1099  0.1298 -0.2169
 3390SOL      O14003   4.704   1.417   3.373 -0.7016 -0.5407 -0.5102
 3390SOL     H114004   4.703   1.371   3.457 -1.5294 -0.8346 -0.6742
 3390SOL     H214005   4.715   1.347   3.308  1.0397 -0.2159 -0.5975
 3390SOL    EPW14006   4.705   1.404   3.375 -0.6042 -0.5374 -0.5370
 3391SOL      O14007   5.501   2.546   3.066 -0.2408  0.2480  0.2631
 3391SOL     H114008   5.587   2.506   3.080  0.0584  0.3472 -1.1481
 3391SOL     H214009   5.484   2.533   2.972 -1.1541  1.4123  0.2528
 3391SOL    EPW14010   5.509   2.540   3.057 -0.3063  0.3828  0.1115
 3392SOL      O14011   4.378   0.500   1.437 -0.4679  0.4869  0.3946
 3392SOL     H114012   4.434   0.500   1.515 -1.9090  1.8036  1.4482
 3392SOL     H214013   4.309   0.436   1.457  0.0232 -0.3356 -0.4673
 3392SOL    EPW14014   4.377   0.493   1.447 -0.5692  0.5396  0.4151
 3393SOL      O14015   5.220   0.849   2.493  0.9228 -0.0106 -0.3074
 3393SOL     H114016   5.202   0.779   2.431  2.4652 -0.2673 -0.4935
 3393SOL     H214017   5.207   0.930   2.444  1.8814 -0.2103 -0.8951
 3393SOL    EPW14018   5.217   0.851   2.481  1.1896 -0.0593 -0.3899
 3394SOL      O14019   4.162   0.911   2.540  0.4974  0.6003  0.4086
 3394SOL     H114020   4.170   0.886   2.447  0.2839  0.0327  0.5418
 3394SOL     H214021   4.081   0.868   2.569 -0.0347  1.6869  0.5679
 3394SOL    EPW14022   4.154   0.904   2.533  0.4179  0.6557  0.4398
 3395SOL      O14023   2.521   2.318   0.474 -0.5764 -0.2814  0.2353
 3395SOL     H114024   2.495   2.410   0.472  2.4616  0.6117 -0.1224
 3395SOL     H214025   2.599   2.314   0.420 -0.0868 -2.8846  1.0814
 3395SOL    EPW14026   2.526   2.328   0.468 -0.2001 -0.4638  0.2874
 3396SOL      O14027   2.538   4.182   0.689 -0.4162  0.0424  0.4823
 3396SOL     H114028   2.458   4.134   0.707 -0.9055  0.8187  0.4055
 3396SOL     H214029   2.509   4.270   0.664  0.3363 -0.3325 -1.8259
 3396SOL    EPW14030   2.527   4.187   0.688 -0.3881  0.0853  0.2279
 3397SOL      O14031   4.177   0.832   3.515 -0.0094  0.8053 -0.2098
 3397SOL     H114032   4.116   0.772   3.558 -2.2125  2.6284 -0.6726
 3397SOL     H214033   4.218   0.880   3.587 -0.5073  0.8601  0.0404
 3397SOL    EPW14034   4.175   0.831   3.528 -0.2975  1.0057 -0.2325
 3398SOL      O14035   5.655   0.391   3.642 -0.2124  0.3139  0.4068
 3398SOL     H114036   5.714   0.374   3.569 -0.5940  1.4015 -0.1590
 3398SOL     H214037   5.631   0.304   3.674  0.2472 -0.1594 -0.5237
 3398SOL    EPW14038   5.659   0.380   3.638 -0.2041  0.3795  0.2472
 3399SOL      O14039   5.206   2.466   0.801 -0.0520 -0.2994  0.4026
 3399SOL     H114040   5.294   2.485   0.833 -0.2612 -0.3119  0.9941
 3399SOL     H214041   5.182   2.384   0.842 -1.1745  0.7803  1.9787
 3399SOL    EPW14042   5.213   2.460   0.809 -0.1940 -0.1855  0.6339
 3400SOL      O14043   3.964   1.568   3.079 -0.7460 -0.1700 -0.1373
 3400SOL     H114044   3.932   1.478   3.081 -2.8678  0.5429 -1.4979
 3400SOL     H214045   3.886   1.622   3.068  0.6591  1.7484 -1.0095
 3400SOL    EPW14046   3.953   1.564   3.078 -0.8225  0.1107 -0.3755
 3401SOL      O14047   4.501   0.246   4.050 -0.4578  0.7366  0.2620
 3401SOL     H114048   4.523   0.162   4.091 -0.9122 -0.4057 -1.7937
 3401SOL     H214049   4.547   0.311   4.104  1.2829 -0.9577  0.8959
 3401SOL    EPW14050   4.508   0.244   4.061 -0.3206  0.4340  0.1104
 3402SOL      O14051   5.535   0.149   3.670 -0.6376 -0.3917 -0.2678
 3402SOL     H114052   5.472   0.152   3.598 -0.4216  0.6335 -0.4170
 3402SOL     H214053   5.494   0.201   3.740 -0.3291 -0.4263 -0.0616
 3402SOL    EPW14054   5.524   0.155   3.670 -0.5817 -0.2860 -0.2617
 3403SOL      O14055   4.630   5.350   4.035  0.3659  0.3454  0.1760
 3403SOL     H114056   4.646   5.312   4.121 -2.3590  0.2363  0.6667
 3403SOL     H214057   4.621   5.275   3.977 -1.5002  0.2941  0.5023
 3403SOL    EPW14058   4.631   5.338   4.038 -0.1238  0.3283  0.2632
 3404SOL      O14059   0.460   0.726   2.993 -0.0380  0.0365 -0.1048
 3404SOL     H114060   0.484   0.639   3.024  0.5989  0.7328  1.3657
 3404SOL     H214061   0.451   0.779   3.072 -2.0488  0.9165 -0.8734
 3404SOL    EPW14062   0.462   0.722   3.004 -0.1846  0.2047 -0.0299
 3405SOL      O14063   0.283   0.561   3.670 -0.0997 -0.7386  0.6049
 3405SOL     H114064   0.354   0.507   3.704  0.7172 -0.2043 -0.2324
 3405SOL     H214065   0.316   0.651   3.677 -1.3751 -0.3424  1.8399
 3405SOL    EPW14066   0.294   0.565   3.674 -0.1486 -0.6393  0.6474
 3406SOL      O14067   3.997   5.459   2.091 -0.6291  0.2767  1.4100
 3406SOL     H114068   3.956   5.372   2.094  0.2601 -0.1829  0.5758
 3406SOL     H214069   4.058   5.459   2.164 -0.0799 -0.0846  0.9531
 3406SOL    EPW14070   3.999   5.450   2.099 -0.4757  0.1891  1.2723
 3407SOL      O14071   4.512   0.792   2.828  0.3880  0.3626  0.3806
 3407SOL     H114072   4.493   0.706   2.866  0.1481 -0.3230 -1.2461
 3407SOL     H214073   4.471   0.854   2.887  0.0913 -0.6817  1.2789
 3407SOL    EPW14074   4.506   0.790   2.838  0.3307  0.1781  0.3029
 3408SOL      O14075   3.186   1.959   4.042  0.3872  0.0276 -0.2073
 3408SOL     H114076   3.139   1.962   3.960  0.2993  1.8528 -0.1067
 3408SOL     H214077   3.139   1.895   4.095 -0.9372  0.5583 -0.7341
 3408SOL    EPW14078   3.176   1.953   4.039  0.2366  0.2789 -0.2528
 3409SOL      O14079   4.710   0.440   2.684 -0.1768  0.2086  0.0671
 3409SOL     H114080   4.766   0.442   2.761 -0.2693  1.6426  0.1099
 3409SOL     H214081   4.740   0.514   2.631 -1.0447  0.0803 -0.6088
 3409SOL    EPW14082   4.719   0.448   2.687 -0.2793  0.3479 -0.0004
 3410SOL      O14083   4.127   5.617   2.664  0.0903  0.0492  0.8655
 3410SOL     H114084   4.085   5.555   2.605  0.1231  1.5275 -0.7264
 3410SOL     H214085   4.219   5.591   2.665 -0.0852 -0.5875  1.0758
 3410SOL    EPW14086   4.133   5.608   2.658  0.0751  0.1390  0.7181
 3411SOL      O14087   4.455   0.490   3.705  0.1374  0.4654  0.0689
 3411SOL     H114088   4.465   0.577   3.667 -2.8213 -0.4617 -3.1391
 3411SOL     H214089   4.360   0.480   3.718  0.2684 -2.6829 -0.8615
 3411SOL    EPW14090   4.446   0.498   3.702 -0.1643  0.0306 -0.3726
 3412SOL      O14091   0.112   5.847   3.750  0.1425  0.2789 -0.2533
 3412SOL     H114092   0.158   5.930   3.738  0.8497 -0.2112 -0.9346
 3412SOL     H214093   0.158   5.785   3.694 -1.5874 -0.1312 -1.2831
 3412SOL    EPW14094   0.122   5.849   3.743  0.0334  0.1829 -0.4359
 3413SOL      O14095   4.261   1.249   1.773  0.2870  0.2980 -0.2483
 3413SOL     H114096   4.219   1.187   1.833 -1.0547  2.1475  0.7808
 3413SOL     H214097   4.207   1.244   1.693  0.2876  0.0151 -0.2323
 3413SOL    EPW14098   4.250   1.242   1.771  0.1440  0.4651 -0.1368
 3414SOL      O14099   4.134   5.287   2.361 -0.0137 -0.7410 -0.0326
 3414SOL     H114100   4.156   5.267   2.270  1.7252  1.1535 -0.0509
 3414SOL     H214101   4.217   5.278   2.408 -0.7745 -1.0856  1.2694
 3414SOL    EPW14102   4.145   5.284   2.356  0.0907 -0.5756  0.1044
 3415SOL      O14103   3.903   0.951   3.674 -0.4038 -0.0253  0.1432
 3415SOL     H114104   3.962   1.024   3.655 -0.5155  0.2411  0.8067
 3415SOL     H214105   3.954   0.893   3.730 -0.4373 -0.2774 -0.0907
 3415SOL    EPW14106   3.914   0.953   3.678 -0.4193 -0.0237  0.1890
 3416SOL      O14107   5.324   0.400   1.541 -0.1043  0.0040 -0.2840
 3416SOL     H114108   5.233   0.426   1.553  0.2965  1.3049  0.0124
 3416SOL     H214109   5.367   0.426   1.623  0.8488  0.8577 -1.0410
 3416SOL    EPW14110   5.319   0.406   1.551  0.0401  0.2338 -0.3331
 3417SOL      O14111   1.958   2.913   0.630 -0.7934  0.1353 -0.5004
 3417SOL     H114112   1.978   2.826   0.664  0.9635  1.0958  1.0075
 3417SOL     H214113   1.880   2.940   0.679  0.0568  0.3580  0.7451
 3417SOL    EPW14114   1.952   2.907   0.639 -0.5152  0.2615 -0.2067
 3418SOL      O14115   3.430   2.630   3.007  0.3638  0.7475 -0.4570
 3418SOL     H114116   3.391   2.553   3.048  1.1216  1.2689  1.3061
 3418SOL     H214117   3.514   2.599   2.974  0.2923  0.6081 -0.5080
 3418SOL    EPW14118   3.435   2.619   3.008  0.4370  0.7883 -0.2743
 3419SOL      O14119   5.040   0.502   2.619 -0.3426  1.0437 -0.5226
 3419SOL     H114120   5.033   0.446   2.696 -0.8753  0.4947 -0.9652
 3419SOL     H214121   4.968   0.565   2.629 -0.5361  0.8475 -0.6681
 3419SOL    EPW14122   5.031   0.503   2.628 -0.4201  0.9642 -0.5853
 3420SOL      O14123   5.625   1.780   2.931  0.1234 -0.9329  0.3010
 3420SOL     H114124   5.606   1.833   3.008  1.6626  0.2577 -0.1231
 3420SOL     H214125   5.654   1.843   2.865 -0.8553 -1.9790 -1.1616
 3420SOL    EPW14126   5.626   1.792   2.932  0.1832 -0.9175  0.0997
 3421SOL      O14127   5.674   0.876   2.111  0.1841 -0.6602  0.5244
 3421SOL     H114128   5.679   0.960   2.158  1.4840  0.2801 -1.2567
 3421SOL     H214129   5.652   0.901   2.021  0.4924 -2.2470  0.0092
 3421SOL    EPW14130   5.672   0.888   2.107  0.3556 -0.7292  0.2794
 3422SOL      O14131   4.083   0.621   2.878 -0.0025  0.1867 -0.6177
 3422SOL     H114132   3.988   0.636   2.882  0.3537  2.5151 -0.1651
 3422SOL     H214133   4.120   0.688   2.935  2.0597  0.4894 -2.2634
 3422SOL    EPW14134   4.077   0.630   2.885  0.2555  0.4673 -0.7450
 3423SOL      O14135   3.452   2.337   2.418  0.1573  0.1365  0.6431
 3423SOL     H114136   3.508   2.347   2.496 -1.3496  1.2850  1.6032
 3423SOL     H214137   3.512   2.349   2.345  1.3620  0.3714  1.6444
 3423SOL    EPW14138   3.465   2.339   2.419  0.1250  0.2840  0.8524
 3424SOL      O14139   5.059   0.323   4.048  0.4342  0.0990 -0.0024
 3424SOL     H114140   5.028   0.290   3.963 -2.1690  0.3881  0.8000
 3424SOL     H214141   5.016   0.267   4.113  0.9373  1.0603  1.1749
 3424SOL    EPW14142   5.051   0.313   4.046  0.2102  0.2324  0.2088
 3425SOL      O14143   5.530   0.067   2.387  0.3161 -0.1802 -0.2804
 3425SOL     H114144   5.615   0.078   2.344  0.2837 -0.7592 -0.4999
 3425SOL     H214145   5.499   0.156   2.402 -0.4375  0.0816 -2.9774
 3425SOL    EPW14146   5.536   0.078   2.384  0.2323 -0.2141 -0.5916
 3426SOL      O14147   5.060   5.394   2.897 -0.3727 -0.0313 -0.2870
 3426SOL     H114148   5.114   5.472   2.884  2.0249 -1.3194  1.4307
 3426SOL     H214149   4.970   5.424   2.885  0.5962  2.6819 -1.0070
 3426SOL    EPW14150   5.056   5.405   2.894 -0.0135  0.1207 -0.1806
 3427SOL      O14151   2.022   3.616   0.667 -0.4582 -0.1713 -0.3986
 3427SOL     H114152   2.045   3.523   0.669  0.4975  0.0799  1.0263
 3427SOL     H214153   2.044   3.648   0.755  1.4362  1.9469 -1.5872
 3427SOL    EPW14154   2.026   3.609   0.677 -0.1541  0.0814 -0.3734
 3428SOL      O14155   0.448   5.655   3.916  0.8271 -0.1279  0.0758
 3428SOL     H114156   0.397   5.665   3.997  0.7229  1.0959 -0.1431
 3428SOL     H214157   0.539   5.655   3.945  0.7294 -2.2884  0.4647
 3428SOL    EPW14158   0.453   5.656   3.928  0.8055 -0.2278  0.0939
 3429SOL      O14159   0.458   1.468   2.648  0.4227  0.2939 -1.0320
 3429SOL     H114160   0.395   1.437   2.584 -1.2118  0.8055  0.2974
 3429SOL     H214161   0.515   1.392   2.664  0.4715 -0.0066 -2.6133
 3429SOL    EPW14162   0.458   1.456   2.643  0.2536  0.3164 -1.0589
 3430SOL      O14163   5.146   0.654   2.317 -0.8776  0.6732 -0.0751
 3430SOL     H114164   5.153   0.559   2.312 -1.0689  0.5712  1.4603
 3430SOL     H214165   5.055   0.673   2.294 -0.1604  0.7151 -3.0768
 3430SOL    EPW14166   5.137   0.646   2.314 -0.8215  0.6668 -0.2315
 3431SOL      O14167   0.657   1.066   4.002 -0.0406 -0.4825 -0.0070
 3431SOL     H114168   0.721   1.060   4.073  0.0137 -2.1914 -0.1854
 3431SOL     H214169   0.577   1.028   4.039  0.1652 -1.9674 -1.0685
 3431SOL    EPW14170   0.655   1.061   4.014 -0.0129 -0.8232 -0.1393
 3432SOL      O14171   2.016   3.781   1.447  0.5718 -0.5852  0.0830
 3432SOL     H114172   1.965   3.700   1.444  1.8366 -1.4386  1.0008
 3432SOL     H214173   2.056   3.788   1.361  0.9231 -1.2561  0.1864
 3432SOL    EPW14174   2.014   3.773   1.438  0.7442 -0.7478  0.1920
 3433SOL      O14175   3.508   2.654   0.391  0.5217  0.6053  0.1722
 3433SOL     H114176   3.482   2.639   0.482  0.8703  1.2570  0.3782
 3433SOL     H214177   3.519   2.749   0.384  0.2616  0.5811 -0.6128
 3433SOL    EPW14178   3.506   2.662   0.400  0.5311  0.6722  0.1104
 3434SOL      O14179   4.346   5.644   1.174 -0.2605 -0.4475  0.1883
 3434SOL     H114180   4.410   5.648   1.246 -0.7535  1.1298  0.5640
 3434SOL     H214181   4.262   5.635   1.217 -0.4858 -0.3819 -0.2356
 3434SOL    EPW14182   4.344   5.644   1.186 -0.3371 -0.2722  0.1831
 3435SOL      O14183   4.755   0.863   2.746 -0.4185  0.1029 -0.2704
 3435SOL     H114184   4.727   0.954   2.741 -1.2266 -0.2146 -1.8036
 3435SOL     H214185   4.682   0.817   2.788 -0.2286  0.0725  0.0293
 3435SOL    EPW14186   4.744   0.868   2.750 -0.4844  0.0658 -0.4020
 3436SOL      O14187   1.508   3.359   0.305 -0.2747 -0.1463  0.0463
 3436SOL     H114188   1.599   3.387   0.308 -0.4194  0.2013  4.0177
 3436SOL     H214189   1.471   3.403   0.229  3.1247 -1.2849 -2.3731
 3436SOL    EPW14190   1.514   3.366   0.297  0.0725 -0.2307  0.2118
 3437SOL      O14191   4.605   0.528   3.152  0.2721 -0.0666 -0.4035
 3437SOL     H114192   4.533   0.571   3.198  3.1921  3.3699  1.1807
 3437SOL     H214193   4.582   0.536   3.060 -1.2832  1.1891  0.0649
 3437SOL    EPW14194   4.595   0.534   3.147  0.4177  0.4340 -0.1845
 3438SOL      O14195   1.896   4.540   0.790  0.3791  0.2807 -0.5086
 3438SOL     H114196   1.909   4.446   0.778  1.9490  0.5929 -1.2485
 3438SOL     H214197   1.820   4.546   0.849 -0.9725 -1.4006 -2.0325
 3438SOL    EPW14198   1.889   4.531   0.795  0.4024  0.1346 -0.7501
 3439SOL      O14199   0.301   2.660   2.644 -0.2181 -0.9184 -0.2133
 3439SOL     H114200   0.382   2.665   2.693  1.2053 -0.6976 -2.5067
 3439SOL     H214201   0.256   2.742   2.662  0.5678 -0.5844  0.2308
 3439SOL    EPW14202   0.305   2.669   2.651  0.0175 -0.8592 -0.4106
 3440SOL      O14203   3.744   2.107   2.729 -0.1948 -0.1527  0.0669
 3440SOL     H114204   3.781   2.020   2.744  0.4355  0.2927  1.1164
 3440SOL     H214205   3.669   2.111   2.789 -1.7685 -0.9087 -1.7756
 3440SOL    EPW14206   3.740   2.098   2.737 -0.2955 -0.1858 -0.0177
 3441SOL      O14207   1.011   3.686   0.284 -0.3214 -0.3062  0.5331
 3441SOL     H114208   1.086   3.645   0.329  1.0096 -0.5894 -1.8336
 3441SOL     H214209   0.979   3.751   0.346  1.1730 -0.9697  2.0621
 3441SOL    EPW14210   1.016   3.688   0.296 -0.0200 -0.4072  0.4437
 3442SOL      O14211   4.448   5.820   2.533 -0.0392 -0.4100 -0.1616
 3442SOL     H114212   4.492   5.839   2.450  0.7541 -2.1462 -0.1595
 3442SOL     H214213   4.361   5.789   2.508 -0.9995  2.1365 -0.1960
 3442SOL    EPW14214   4.444   5.819   2.522 -0.0570 -0.3235 -0.1651
 3443SOL      O14215   4.699   0.802   4.114  0.7672  0.1760  0.0534
 3443SOL     H114216   4.653   0.882   4.139  0.1577 -0.0523 -0.3137
 3443SOL     H214217   4.739   0.822   4.030  0.4051  0.0109 -0.1567
 3443SOL    EPW14218   4.698   0.812   4.108  0.6636  0.1340 -0.0082
 3444SOL      O14219   0.480   2.989   0.019 -0.1702 -0.0133 -0.0733
 3444SOL     H114220   0.511   2.929   0.087 -0.1633 -0.4116 -0.4289
 3444SOL     H214221   0.395   2.955  -0.007 -0.4547  0.5009  0.1809
 3444SOL    EPW14222   0.475   2.979   0.023 -0.1998 -0.0009 -0.0841
 3445SOL      O14223   3.696   0.873   0.452  0.6647 -0.2329  0.2819
 3445SOL     H114224   3.606   0.876   0.419  0.2271  1.4449  1.5425
 3445SOL     H214225   3.737   0.802   0.403 -1.2780 -0.8719 -0.4850
 3445SOL    EPW14226   3.691   0.866   0.443  0.4108 -0.1220  0.3346
 3446SOL      O14227   4.578   5.752   2.970  0.2170 -0.9233 -0.5781
 3446SOL     H114228   4.502   5.786   3.018  1.3476  1.5399 -0.4541
 3446SOL     H214229   4.646   5.742   3.036  0.4698 -1.6591 -0.9469
 3446SOL    EPW14230   4.577   5.755   2.982  0.3646 -0.7390 -0.6042
 3447SOL      O14231   3.160   0.416   3.142 -0.4839 -0.5127  0.0963
 3447SOL     H114232   3.172   0.493   3.086 -0.8136 -0.0359  0.6770
 3447SOL     H214233   3.242   0.408   3.190 -1.3530  1.0046  1.9098
 3447SOL    EPW14234   3.170   0.423   3.141 -0.6118 -0.3000  0.3517
 3448SOL      O14235   4.174   1.361   2.940  0.2397  0.0276 -0.4307
 3448SOL     H114236   4.261   1.321   2.948  0.2472 -0.0202 -0.7402
 3448SOL     H214237   4.140   1.329   2.857 -0.0220  0.1502 -0.3720
 3448SOL    EPW14238   4.180   1.354   2.932  0.2126  0.0355 -0.4575
 3449SOL      O14239   1.947   2.567   0.476  0.5364  0.0074 -0.1219
 3449SOL     H114240   1.858   2.554   0.443  0.9085 -0.4751 -0.9630
 3449SOL     H214241   1.961   2.495   0.537  1.1902 -1.3155 -1.7973
 3449SOL    EPW14242   1.939   2.558   0.479  0.6459 -0.1852 -0.3904
 3450SOL      O14243   2.806   5.326   0.197 -0.3238 -0.6672  0.2883
 3450SOL     H114244   2.778   5.417   0.191 -1.4662 -1.0976 -0.9714
 3450SOL     H214245   2.873   5.318   0.130  2.2069  0.0907  2.6152
 3450SOL    EPW14246   2.810   5.335   0.190 -0.1757 -0.6322  0.4022
 3451SOL      O14247   4.663   5.342   2.406 -0.1273  0.0635 -0.3235
 3451SOL     H114248   4.749   5.379   2.389 -0.2946  1.3691  1.4957
 3451SOL     H214249   4.681   5.252   2.433  0.6868  0.3401  0.0869
 3451SOL    EPW14250   4.674   5.336   2.407 -0.0583  0.2323 -0.0856
 3452SOL      O14251   1.751   2.656   0.007  0.0887  0.7070  0.1861
 3452SOL     H114252   1.742   2.708   0.087  0.2661  0.5415  0.3184
 3452SOL     H214253   1.822   2.594   0.028  0.4810  0.9955 -0.2798
 3452SOL    EPW14254   1.758   2.655   0.018  0.1495  0.7201  0.1505
 3453SOL      O14255   2.311   4.093   0.785  0.0794 -0.2841 -0.4107
 3453SOL     H114256   2.259   4.113   0.863 -0.4501  0.7573 -1.0180
 3453SOL     H214257   2.261   4.131   0.713  1.4186  0.2356 -1.0770
 3453SOL    EPW14258   2.300   4.099   0.786  0.1658 -0.1176 -0.5465
 3454SOL      O14259   4.022   5.339   2.958 -1.0182 -0.0020  0.1620
 3454SOL     H114260   4.095   5.384   2.999 -0.6385 -0.0106 -0.4913
 3454SOL     H214261   3.951   5.342   3.023 -0.9533  1.3914  0.1770
 3454SOL    EPW14262   4.022   5.344   2.969 -0.9708  0.1457  0.0939
 3455SOL      O14263   0.430   1.947   3.746 -0.6006 -0.3042  0.0226
 3455SOL     H114264   0.501   1.949   3.682 -1.0551 -0.9626 -0.5065
 3455SOL     H214265   0.379   1.869   3.724 -0.2748 -1.0090  1.7341
 3455SOL    EPW14266   0.432   1.939   3.737 -0.6143 -0.4496  0.1487
 3456SOL      O14267   5.609   0.457   4.106  0.1595  0.0654 -0.4652
 3456SOL     H114268   5.533   0.514   4.098  0.7440  0.8924 -0.2307
 3456SOL     H214269   5.638   0.468   4.197  1.2825  0.7184 -0.8847
 3456SOL    EPW14270   5.604   0.464   4.115  0.3417  0.2233 -0.4849
 3457SOL      O14271   4.306   2.097   3.929 -0.2500  0.0935  0.0260
 3457SOL     H114272   4.326   2.077   4.021 -0.7613 -0.1716  0.0814
 3457SOL     H214273   4.319   2.014   3.884  1.3511  0.5545 -0.3688
 3457SOL    EPW14274   4.309   2.086   3.934 -0.1338  0.1144 -0.0102
 3458SOL      O14275   3.543   1.059   3.499  0.9413  0.1958  0.2301
 3458SOL     H114276   3.573   1.137   3.452 -1.7712 -0.0025 -1.9011
 3458SOL     H214277   3.501   1.093   3.578  0.2872  0.8732 -0.4038
 3458SOL    EPW14278   3.542   1.071   3.502  0.5821  0.2469 -0.0648
 3459SOL      O14279   1.483   2.246   1.027  0.2098  0.2669  0.3759
 3459SOL     H114280   1.418   2.191   1.071  0.0695  0.1470  0.0254
 3459SOL     H214281   1.485   2.213   0.937  0.2550  0.7213  0.2091
 3459SOL    EPW14282   1.476   2.236   1.022  0.1996  0.3026  0.3207
 3460SOL      O14283   4.378   0.600   1.909  0.2616  0.4657 -0.1095
 3460SOL     H114284   4.405   0.685   1.874 -0.0766  0.7736  0.3805
 3460SOL     H214285   4.426   0.536   1.855 -0.5921  0.9097 -1.4360
 3460SOL    EPW14286   4.386   0.602   1.899  0.1344  0.5459 -0.1988
 3461SOL      O14287   1.911   1.795   3.534 -0.3603 -0.1905  0.3147
 3461SOL     H114288   1.953   1.792   3.448 -2.1181  0.1495 -0.5792
 3461SOL     H214289   1.949   1.872   3.576 -0.2340  0.2377 -0.5609
 3461SOL    EPW14290   1.920   1.803   3.529 -0.5344 -0.1085  0.1260
 3462SOL      O14291   5.775   0.878   2.767  0.4727 -0.0634  0.4177
 3462SOL     H114292   5.748   0.970   2.755 -2.6898 -0.8534  0.9887
 3462SOL     H214293   5.783   0.844   2.678 -3.2072 -0.5080  0.1870
 3462SOL    EPW14294   5.773   0.885   2.756 -0.2573 -0.1951  0.4540
 3463SOL      O14295   4.377   0.076   2.993  0.3033  0.5592 -0.7410
 3463SOL     H114296   4.429   0.123   3.058  0.8233 -2.0362  0.7849
 3463SOL     H214297   4.423   0.093   2.910 -0.2006  3.6452 -0.4666
 3463SOL    EPW14298   4.388   0.083   2.991  0.3050  0.6115 -0.5490
 3464SOL      O14299   5.731   0.211   2.764 -0.6087 -0.1940  0.3427
 3464SOL     H114300   5.717   0.305   2.760 -1.2078 -0.2058  1.9488
 3464SOL     H214301   5.786   0.197   2.841  0.6053 -1.0435 -0.6417
 3464SOL    EPW14302   5.735   0.219   2.771 -0.5431 -0.2859  0.4090
 3465SOL      O14303   0.104   1.468   3.786  0.6342  0.1471  0.1171
 3465SOL     H114304   0.153   1.548   3.806  0.0308  1.2148 -2.4092
 3465SOL     H214305   0.013   1.490   3.809  0.8332 -0.7180  1.7957
 3465SOL    EPW14306   0.099   1.479   3.790  0.5911  0.1687  0.0267
 3466SOL      O14307   1.114   2.586   0.180  0.3142  0.2113 -0.3648
 3466SOL     H114308   1.182   2.520   0.171  2.1862  2.0512 -0.0885
 3466SOL     H214309   1.050   2.565   0.112  0.4319 -2.3827  0.2983
 3466SOL    EPW14310   1.114   2.577   0.172  0.5264  0.1309 -0.2646
 3467SOL      O14311   0.029   0.492   1.424 -0.1107 -0.5018  0.0342
 3467SOL     H114312  -0.015   0.549   1.361  1.0186 -1.0998 -1.3139
 3467SOL     H214313  -0.039   0.428   1.449 -0.6497 -0.0862 -0.3434
 3467SOL    EPW14314   0.017   0.491   1.420 -0.0477 -0.5213 -0.1499
 3468SOL      O14315   4.695   0.501   3.856  0.2633  0.0680  0.0608
 3468SOL     H114316   4.609   0.505   3.815  0.4980  1.3566 -0.3294
 3468SOL     H214317   4.748   0.564   3.807  0.4850  1.8152  2.4668
 3468SOL    EPW14318   4.692   0.508   3.847  0.3120  0.3919  0.2759
 3469SOL      O14319   0.216   1.129   2.499  0.0372 -0.2165  0.3315
 3469SOL     H114320   0.281   1.142   2.431  0.0668  2.3751  0.8045
 3469SOL     H214321   0.142   1.087   2.454  0.8930 -0.4916 -0.8215
 3469SOL    EPW14322   0.215   1.126   2.487  0.1316  0.0306  0.2589
 3470SOL      O14323   3.950   0.940   0.569  0.4216  0.5077 -0.1664
 3470SOL     H114324   3.877   0.909   0.516 -0.4502  0.4989  1.0028
 3470SOL     H214325   3.983   0.861   0.612  0.6570  0.6164 -0.1488
 3470SOL    EPW14326   3.946   0.928   0.568  0.3537  0.5183 -0.0398
 3471SOL      O14327   0.861   3.518   1.114  0.1246 -0.2636  0.9454
 3471SOL     H114328   0.952   3.487   1.118  0.4961  0.7410  0.6772
 3471SOL     H214329   0.809   3.447   1.151  1.0707 -0.6622  1.5315
 3471SOL    EPW14330   0.865   3.507   1.118  0.2652 -0.1990  0.9793
 3472SOL      O14331   3.777   5.658   2.433  0.3139 -0.1490  0.5157
 3472SOL     H114332   3.831   5.581   2.446 -0.1910 -0.4989  0.5652
 3472SOL     H214333   3.702   5.645   2.492  0.2742  0.4193  0.5983
 3472SOL    EPW14334   3.775   5.648   2.441  0.2558 -0.1257  0.5298
 3473SOL      O14335   5.797   1.654   2.719  0.8681  0.3352 -0.6141
 3473SOL     H114336   5.719   1.669   2.665 -0.2046  0.6950  0.9926
 3473SOL     H214337   5.855   1.728   2.698 -0.3192  1.4827  0.0792
 3473SOL    EPW14338   5.795   1.664   2.711  0.6270  0.4960 -0.3687
 3474SOL      O14339   5.594   1.671   3.619 -0.1564  0.2881 -0.4560
 3474SOL     H114340   5.633   1.716   3.544  0.7823 -0.9929 -0.7454
 3474SOL     H214341   5.668   1.651   3.677 -0.7569  0.4515  0.3834
 3474SOL    EPW14342   5.606   1.674   3.618 -0.1203  0.1689 -0.3974
 3475SOL      O14343   4.110   0.199   3.459 -0.4555 -0.2493 -0.1275
 3475SOL     H114344   4.097   0.174   3.550 -1.8344  0.2921 -0.1686
 3475SOL     H214345   4.135   0.292   3.463 -2.4450  0.3235 -0.4001
 3475SOL    EPW14346   4.112   0.206   3.469 -0.8148 -0.1305 -0.1610
 3476SOL      O14347   2.546   3.839   0.025 -1.0216  0.4902  0.4205
 3476SOL     H114348   2.618   3.852  -0.037 -2.3131  0.5156 -1.1024
 3476SOL     H214349   2.538   3.924   0.070  0.6029  0.1515  1.3928
 3476SOL    EPW14350   2.553   3.850   0.023 -0.9860  0.4568  0.3617
 3477SOL      O14351   2.978   1.262   2.109  0.2838 -0.1061  0.2732
 3477SOL     H114352   2.909   1.296   2.052 -0.3477 -0.9994  0.4928
 3477SOL     H214353   2.967   1.309   2.191  0.3318  0.2060  0.1010
 3477SOL    EPW14354   2.969   1.271   2.111  0.2215 -0.1681  0.2782
 3478SOL      O14355   4.817   0.110   2.904 -0.4290 -0.2148 -0.5272
 3478SOL     H114356   4.836   0.019   2.885  0.6902 -0.3151  0.9882
 3478SOL     H214357   4.721   0.116   2.899 -0.6059 -1.7703  0.6052
 3478SOL    EPW14358   4.808   0.101   2.901 -0.3285 -0.3914 -0.2447
 3479SOL      O14359   0.374   1.846   2.869 -0.2719 -0.4253 -0.3994
 3479SOL     H114360   0.398   1.875   2.781  0.4633  0.1243 -0.0164
 3479SOL     H214361   0.391   1.922   2.925 -0.3791 -0.8991  0.2775
 3479SOL    EPW14362   0.378   1.857   2.865 -0.2049 -0.4172 -0.2863
 3480SOL      O14363   5.768   2.471   3.062 -0.0343  0.1046 -0.6696
 3480SOL     H114364   5.784   2.452   3.154 -2.8131  0.2183 -0.1347
 3480SOL     H214365   5.830   2.541   3.040  1.5758 -0.8544  0.7153
 3480SOL    EPW14366   5.777   2.476   3.069 -0.1589  0.0144 -0.4648
 3481SOL      O14367   4.827   1.506   3.815 -0.0637 -0.1003 -0.4356
 3481SOL     H114368   4.809   1.578   3.876  3.6654  0.4923  0.0466
 3481SOL     H214369   4.896   1.540   3.758  0.6773 -2.7501 -1.1771
 3481SOL    EPW14370   4.832   1.517   3.816  0.4131 -0.3198 -0.4633
 3482SOL      O14371   0.557   3.217   0.475 -0.4117  0.0011 -0.6474
 3482SOL     H114372   0.612   3.192   0.400 -1.4170  0.5744 -1.6024
 3482SOL     H214373   0.619   3.234   0.546  0.5214 -1.2248 -1.1463
 3482SOL    EPW14374   0.570   3.216   0.474 -0.4194 -0.0685 -0.8025
 3483SOL      O14375   5.468   2.065   2.603 -0.3659 -0.4877 -0.1460
 3483SOL     H114376   5.552   2.023   2.583 -1.6517 -1.5700 -3.6860
 3483SOL     H214377   5.432   2.013   2.674  1.2476 -0.9906  0.3347
 3483SOL    EPW14378   5.473   2.055   2.608 -0.3309 -0.6568 -0.4724
 3484SOL      O14379   3.201   1.418   3.120 -0.1463 -0.0959  0.4349
 3484SOL     H114380   3.131   1.481   3.102  0.5603  0.7760  0.6861
 3484SOL     H214381   3.167   1.365   3.192  0.3204  1.7940  2.1100
 3484SOL    EPW14382   3.190   1.419   3.126 -0.0211  0.1987  0.6404
 3485SOL      O14383   3.995   5.755   2.858 -0.4789 -0.4050 -0.0797
 3485SOL     H114384   4.036   5.690   2.801 -1.1561 -0.7803 -0.1495
 3485SOL     H214385   4.002   5.837   2.810 -1.9116 -0.8869 -1.1564
 3485SOL    EPW14386   4.000   5.757   2.847 -0.7040 -0.4964 -0.2020
 3486SOL      O14387   5.494   0.437   2.674  0.8805 -0.0640 -0.2966
 3486SOL     H114388   5.453   0.524   2.674  0.3770 -0.3021 -0.7907
 3486SOL     H214389   5.588   0.456   2.668  0.7384  0.4308 -1.0203
 3486SOL    EPW14390   5.500   0.449   2.673  0.8117 -0.0366 -0.4265
 3487SOL      O14391   5.093   0.804   3.082  0.2115 -0.4852 -0.4583
 3487SOL     H114392   5.012   0.754   3.079 -0.4611  0.5715 -0.2768
 3487SOL     H214393   5.077   0.879   3.024  1.4355 -0.8129 -1.2609
 3487SOL    EPW14394   5.083   0.807   3.075  0.2703 -0.4075 -0.5245
 3488SOL      O14395   5.768   0.859   1.443  0.3128  0.0838 -0.1109
 3488SOL     H114396   5.733   0.777   1.479  2.0282 -0.3055  0.6920
 3488SOL     H214397   5.862   0.845   1.438  0.6517  2.1235  0.3061
 3488SOL    EPW14398   5.774   0.848   1.446  0.5320  0.2599  0.0192
 3489SOL      O14399   2.797   0.964   3.486  0.5134 -0.1053 -0.3462
 3489SOL     H114400   2.776   1.027   3.555  0.9272 -0.4705  0.1275
 3489SOL     H214401   2.767   1.004   3.405 -1.2701 -0.2786  0.2126
 3489SOL    EPW14402   2.792   0.975   3.485  0.3673 -0.1628 -0.2360
 3490SOL      O14403   1.827   4.377   0.302 -0.4498 -0.1045  0.0830
 3490SOL     H114404   1.899   4.400   0.243 -1.1851  1.3948 -0.2505
 3490SOL     H214405   1.869   4.363   0.387  0.3410 -0.1279 -0.3041
 3490SOL    EPW14406   1.839   4.378   0.305 -0.4439  0.0530  0.0062
 3491SOL      O14407   0.610   0.158   3.157  0.2375  0.3413 -0.3427
 3491SOL     H114408   0.567   0.241   3.175  1.8403  1.0685  0.1939
 3491SOL     H214409   0.564   0.123   3.081 -0.4473  1.7037 -0.5696
 3491SOL    EPW14410   0.601   0.163   3.151  0.3354  0.5642 -0.3096
 3492SOL      O14411   1.946   4.425   1.179  0.6651  0.4156  0.2015
 3492SOL     H114412   1.863   4.432   1.133  0.6020 -2.9916 -0.3622
 3492SOL     H214413   1.959   4.510   1.219 -3.9503  0.5217  1.7619
 3492SOL    EPW14414   1.939   4.434   1.179  0.1660  0.0634  0.3078
 3493SOL      O14415   5.452   0.327   2.421  0.1568 -0.8032 -0.0872
 3493SOL     H114416   5.500   0.364   2.347 -0.4610 -2.1509 -1.1571
 3493SOL     H214417   5.453   0.397   2.487  2.2142 -0.2340 -0.6856
 3493SOL    EPW14418   5.457   0.339   2.420  0.3104 -0.8863 -0.2652
 3494SOL      O14419   3.904   1.319   1.320  0.4169 -0.1655 -0.1670
 3494SOL     H114420   3.838   1.262   1.360  1.3692 -0.2855  1.3068
 3494SOL     H214421   3.864   1.405   1.319  0.4987 -0.0902  1.4299
 3494SOL    EPW14422   3.893   1.322   1.324  0.5272 -0.1703  0.1605
 3495SOL      O14423   1.211   3.182   0.375 -0.1574  0.5349 -0.8789
 3495SOL     H114424   1.258   3.238   0.437 -0.3804 -1.6371  1.3812
 3495SOL     H214425   1.120   3.210   0.382 -0.4051 -0.6128  0.8997
 3495SOL    EPW14426   1.206   3.191   0.383 -0.2076  0.1808 -0.4481
 3496SOL      O14427   1.120   2.510   0.563 -0.6785 -0.2940 -0.0128
 3496SOL     H114428   1.155   2.529   0.650 -1.3884  1.6411 -0.1280
 3496SOL     H214429   1.194   2.524   0.504 -0.5896 -0.0986  0.1419
 3496SOL    EPW14430   1.132   2.514   0.566 -0.7447 -0.0668 -0.0086
 3497SOL      O14431   4.638   1.659   3.551  0.9775  0.6447  0.1938
 3497SOL     H114432   4.668   1.597   3.484 -2.4319 -1.7211  0.7488
 3497SOL     H214433   4.610   1.736   3.502  2.3305  0.5647 -0.7457
 3497SOL    EPW14434   4.638   1.660   3.539  0.7581  0.3838  0.1528
 3498SOL      O14435   5.023   5.635   3.901 -0.0029  0.0520 -0.2764
 3498SOL     H114436   5.086   5.663   3.835  0.0532 -0.5238 -0.4692
 3498SOL     H214437   5.028   5.703   3.969  1.0234 -0.1332 -0.1527
 3498SOL    EPW14438   5.030   5.646   3.901  0.1126 -0.0291 -0.2838
 3499SOL      O14439   5.694   0.136   4.027 -0.1600 -0.2312  0.6855
 3499SOL     H114440   5.652   0.068   3.974 -0.3190  1.7089 -1.8016
 3499SOL     H214441   5.622   0.192   4.056  0.2134  0.3708  0.4718
 3499SOL    EPW14442   5.682   0.135   4.024 -0.1371  0.0400  0.3974
 3500SOL      O14443   4.232   0.357   4.012 -0.4899  0.2346  0.1288
 3500SOL     H114444   4.213   0.378   3.921 -2.7121  0.5566  0.6571
 3500SOL     H214445   4.310   0.302   4.008  1.0800  2.4782 -1.7845
 3500SOL    EPW14446   4.239   0.354   4.002 -0.5595  0.5083 -0.0189
 3501SOL      O14447   3.696   1.498   3.195 -0.4004  0.0530 -0.5063
 3501SOL     H114448   3.602   1.515   3.207 -0.3481  0.8433 -1.1511
 3501SOL     H214449   3.735   1.520   3.280 -1.0491 -2.3040  0.4368
 3501SOL    EPW14450   3.690   1.502   3.206 -0.4640 -0.1141 -0.4745
 3502SOL      O14451   3.706   0.113   1.547  0.6570  0.2718 -0.0142
 3502SOL     H114452   3.730   0.105   1.455  1.6329 -0.7282  0.3136
 3502SOL     H214453   3.789   0.118   1.593  0.1637  1.6397  0.7479
 3502SOL    EPW14454   3.717   0.112   1.542  0.7085  0.3111  0.1021
 3503SOL      O14455   4.174   1.894   3.689  0.4673 -0.1810  0.0907
 3503SOL     H114456   4.212   1.941   3.614  0.4130  1.3259  0.9788
 3503SOL     H214457   4.222   1.811   3.692  0.2606 -0.3828 -1.7853
 3503SOL    EPW14458   4.183   1.890   3.681  0.4395 -0.0418 -0.0147
 3504SOL      O14459   4.307   0.224   0.789  0.3733  0.2084 -0.0044
 3504SOL     H114460   4.359   0.188   0.717  2.7137  0.5470  1.4811
 3504SOL     H214461   4.299   0.317   0.768 -4.1435 -0.6906 -2.9086
 3504SOL    EPW14462   4.312   0.230   0.779  0.1412  0.1487 -0.1558
 3505SOL      O14463   3.303   1.592   1.694  0.2745  0.4706 -0.4211
 3505SOL     H114464   3.298   1.530   1.621 -0.7779  1.6163 -1.3481
 3505SOL     H214465   3.377   1.561   1.747 -0.1385 -1.4856 -0.9294
 3505SOL    EPW14466   3.310   1.582   1.692  0.1182  0.3841 -0.5742
 3506SOL      O14467   3.639   1.296   3.373  0.8553  0.0654 -0.3251
 3506SOL     H114468   3.673   1.363   3.313 -0.7227  1.5361  0.3594
 3506SOL     H214469   3.566   1.340   3.417 -0.9309 -2.4861 -0.6841
 3506SOL    EPW14470   3.635   1.308   3.371  0.4964 -0.0499 -0.2904
 3507SOL      O14471   4.616   1.745   4.032 -0.0752  0.1713 -0.3573
 3507SOL     H114472   4.598   1.674   4.093 -1.2116  0.8214  0.0598
 3507SOL     H214473   4.712   1.748   4.027  0.0165 -0.1436  1.0732
 3507SOL    EPW14474   4.624   1.737   4.038 -0.1867  0.2070 -0.1602
 3508SOL      O14475   2.987   5.571   1.702  0.6631 -0.4388  0.2072
 3508SOL     H114476   3.072   5.562   1.745 -0.2078 -2.6693  1.5324
 3508SOL     H214477   3.008   5.573   1.608  2.4632  3.0911  0.5928
 3508SOL    EPW14478   2.999   5.570   1.696  0.7622 -0.3002  0.3897
 3509SOL      O14479   1.962   4.869   2.110  0.1047 -0.0816  0.3485
 3509SOL     H114480   1.985   4.803   2.044 -0.1918  2.2608 -2.1512
 3509SOL     H214481   2.017   4.846   2.186  0.4896 -2.7854 -0.6958
 3509SOL    EPW14482   1.971   4.859   2.111  0.1141 -0.1201 -0.0295
 3510SOL      O14483   0.903   2.642   0.373  0.0006 -0.0294  0.4221
 3510SOL     H114484   0.990   2.612   0.345  0.3337 -0.5634  1.9821
 3510SOL     H214485   0.907   2.737   0.367  0.3500 -0.1011 -0.5033
 3510SOL    EPW14486   0.913   2.649   0.370  0.0734 -0.0940  0.4898
 3511SOL      O14487   0.235   3.176   0.113 -0.0487 -0.0185 -0.0491
 3511SOL     H114488   0.267   3.256   0.073 -0.0829  0.1401  0.2432
 3511SOL     H214489   0.270   3.106   0.057  1.5792  0.0964  0.7835
 3511SOL    EPW14490   0.242   3.177   0.103  0.1213  0.0107  0.0709
 3512SOL      O14491   1.413   4.055   0.523 -0.4446 -0.0681  0.1049
 3512SOL     H114492   1.461   3.973   0.535  2.2410  1.4290 -0.1795
 3512SOL     H214493   1.412   4.094   0.611  1.9635  1.5491 -0.5502
 3512SOL    EPW14494   1.418   4.050   0.534  0.0987  0.2641  0.0047
 3513SOL      O14495   1.411   4.829   0.909 -0.0597  0.0020  0.9947
 3513SOL     H114496   1.383   4.743   0.878  0.8992  0.4550 -1.2780
 3513SOL     H214497   1.335   4.864   0.957 -0.7711 -1.7171  1.1337
 3513SOL    EPW14498   1.400   4.824   0.911 -0.0333 -0.1330  0.7671
 3514SOL      O14499   4.735   0.201   3.342 -0.0784  0.0841  0.2428
 3514SOL     H114500   4.738   0.155   3.426  0.0170 -0.4349 -0.0456
 3514SOL     H214501   4.804   0.161   3.290  0.8368  1.3939  0.4163
 3514SOL    EPW14502   4.743   0.192   3.346  0.0294  0.1684  0.2305
 3515SOL      O14503   1.669   5.729   0.014 -0.5046 -0.3060  0.0468
 3515SOL     H114504   1.742   5.671  -0.008 -0.5425  0.5400 -2.4123
 3515SOL     H214505   1.669   5.733   0.110  1.3800 -1.9506  0.1273
 3515SOL    EPW14506   1.676   5.723   0.022 -0.3076 -0.3912 -0.2069
 3516SOL      O14507   1.957   5.630   0.662 -0.1981 -0.1306 -0.0855
 3516SOL     H114508   2.022   5.565   0.634  0.0668  0.4486 -0.8306
 3516SOL     H214509   1.965   5.701   0.599 -0.6323  0.5428  0.6044
 3516SOL    EPW14510   1.965   5.631   0.652 -0.2162  0.0030 -0.0914
 3517SOL      O14511   4.824   2.406   3.184 -0.3529 -0.4740 -0.5618
 3517SOL     H114512   4.865   2.351   3.116  1.0949  2.0479 -1.7938
 3517SOL     H214513   4.775   2.471   3.135 -2.4368 -0.9079  0.9062
 3517SOL    EPW14514   4.823   2.407   3.171 -0.4207 -0.2513 -0.5366
 3518SOL      O14515   4.798   0.081   3.585  0.2542  0.0901  0.5477
 3518SOL     H114516   4.876   0.051   3.540  0.7918 -1.4251  2.3987
 3518SOL     H214517   4.831   0.133   3.659 -0.4632 -0.2829  1.1461
 3518SOL    EPW14518   4.810   0.083   3.588  0.2350 -0.1113  0.8090
 3519SOL      O14519   4.762   5.536   3.875 -0.2200 -0.3664 -0.0153
 3519SOL     H114520   4.844   5.585   3.881 -0.0149 -0.3147 -2.7174
 3519SOL     H214521   4.780   5.468   3.810 -2.0240 -0.9789  0.1169
 3519SOL    EPW14522   4.773   5.534   3.869 -0.3905 -0.4263 -0.2894
 3520SOL      O14523   3.167   3.956   1.156  0.7617  0.2379 -0.0661
 3520SOL     H114524   3.117   3.939   1.236  0.2448  1.0825 -0.1905
 3520SOL     H214525   3.235   3.889   1.154 -0.4281 -0.9923  0.0726
 3520SOL    EPW14526   3.169   3.947   1.164  0.5796  0.1967 -0.0646
 3521SOL      O14527   4.200   2.183   3.353  0.1677 -0.1714 -0.3533
 3521SOL     H114528   4.135   2.205   3.420  0.4245  0.0952 -0.1873
 3521SOL     H214529   4.152   2.191   3.270 -0.0132  0.0227 -0.2326
 3521SOL    EPW14530   4.188   2.186   3.351  0.1758 -0.1223 -0.3227
 3522SOL      O14531   3.043   4.594   2.149 -0.0070 -0.4595 -0.3086
 3522SOL     H114532   3.009   4.665   2.094  1.4632 -0.4857 -1.2895
 3522SOL     H214533   3.121   4.562   2.102  0.4886 -1.4078  1.1050
 3522SOL    EPW14534   3.048   4.598   2.138  0.2027 -0.5635 -0.2624
 3523SOL      O14535   5.401   1.476   3.146  0.2571 -0.5759 -0.3539
 3523SOL     H114536   5.447   1.496   3.065 -0.7467  0.1047 -0.7628
 3523SOL     H214537   5.359   1.559   3.171 -1.4602 -1.3885 -0.4557
 3523SOL    EPW14538   5.402   1.487   3.140 -0.0332 -0.5900 -0.4084
 3524SOL      O14539   1.605   3.850   1.429  0.0779 -0.4961  0.1865
 3524SOL     H114540   1.539   3.793   1.391 -0.6570  0.6499 -0.2969
 3524SOL     H214541   1.645   3.798   1.499  0.3388 -2.0519 -1.1054
 3524SOL    EPW14542   1.602   3.839   1.432  0.0273 -0.5398 -0.0029
 3525SOL      O14543   5.071   5.719   3.607 -0.3909 -0.0846 -0.0267
 3525SOL     H114544   5.072   5.815   3.605 -0.2462 -0.0301  1.6929
 3525SOL     H214545   5.164   5.694   3.600 -0.3963 -0.0924 -0.0758
 3525SOL    EPW14546   5.081   5.727   3.606 -0.3761 -0.0796  0.1515
 3526SOL      O14547   3.677   1.019   4.080  0.4024  0.3204  0.0552
 3526SOL     H114548   3.647   1.027   4.170  0.3251 -0.4510  0.1020
 3526SOL     H214549   3.766   0.985   4.088  0.1978 -0.2739 -0.1712
 3526SOL    EPW14550   3.683   1.017   4.090  0.3723  0.1747  0.0361
 3527SOL      O14551   2.053   3.163   0.119 -0.8928  0.0057 -0.5464
 3527SOL     H114552   2.099   3.232   0.166 -2.9827  0.1995  1.3369
 3527SOL     H214553   2.093   3.082   0.151 -0.0512  0.2555 -0.9600
 3527SOL    EPW14554   2.062   3.161   0.127 -1.0259  0.0531 -0.3896
 3528SOL      O14555   2.342   2.777   1.408 -0.2958  0.2896 -0.0814
 3528SOL     H114556   2.330   2.816   1.321 -0.8692  1.1554  0.3880
 3528SOL     H214557   2.429   2.807   1.435 -0.4239  0.6302 -0.0435
 3528SOL    EPW14558   2.350   2.784   1.401 -0.3706  0.4183 -0.0273
 3529SOL      O14559   5.538   1.257   3.097  0.4276 -0.0729 -0.6458
 3529SOL     H114560   5.525   1.190   3.164  2.4532  0.0287 -0.1037
 3529SOL     H214561   5.494   1.334   3.131 -0.6707 -0.7017 -0.6032
 3529SOL    EPW14562   5.532   1.258   3.108  0.5265 -0.1291 -0.5834
 3530SOL      O14563   5.608   2.813   0.315  0.0846 -0.3795  0.5179
 3530SOL     H114564   5.691   2.767   0.304 -0.1519 -0.8514  0.6590
 3530SOL     H214565   5.542   2.747   0.296 -0.2702 -0.2609  1.3222
 3530SOL    EPW14566   5.610   2.801   0.312  0.0215 -0.4172  0.6187
 3531SOL      O14567   4.785   4.247   2.793  0.1724  0.1004 -0.0959
 3531SOL     H114568   4.762   4.298   2.715  0.0294  0.0794 -0.0674
 3531SOL     H214569   4.864   4.290   2.827  0.7750 -0.4589 -0.7736
 3531SOL    EPW14570   4.791   4.257   2.789  0.2214  0.0385 -0.1652
 3532SOL      O14571   1.439   3.041   0.756 -0.3305 -0.3047 -0.1868
 3532SOL     H114572   1.501   2.968   0.750 -0.6619 -0.6071  0.0484
 3532SOL     H214573   1.482   3.113   0.710 -0.6999 -1.1342 -1.8856
 3532SOL    EPW14574   1.450   3.041   0.750 -0.4053 -0.4255 -0.3430
 3533SOL      O14575   0.297   3.637   1.306 -1.0709  0.0106  0.2276
 3533SOL     H114576   0.336   3.675   1.384 -0.3072 -1.1864  0.4524
 3533SOL     H214577   0.222   3.693   1.285 -1.8482 -0.1964  2.3697
 3533SOL    EPW14578   0.293   3.647   1.312 -1.0723 -0.1392  0.4801
 3534SOL      O14579   4.298   0.962   3.735 -0.2209  0.5126  0.1993
 3534SOL     H114580   4.241   1.031   3.702  0.9312  1.9981  1.2673
 3534SOL     H214581   4.385   1.002   3.739  0.2720 -0.6611  1.8496
 3534SOL    EPW14582   4.301   0.973   3.732 -0.0454  0.5459  0.4893
 3535SOL      O14583   5.054   5.405   3.171 -0.5458  0.7221  0.1815
 3535SOL     H114584   5.114   5.341   3.209  0.4145  1.6184  0.1867
 3535SOL     H214585   5.052   5.383   3.077 -1.7307 -0.5224  0.4778
 3535SOL    EPW14586   5.060   5.396   3.165 -0.5697  0.6849  0.2136
 3536SOL      O14587   1.285   3.780   0.662 -0.0207  0.0844 -0.3441
 3536SOL     H114588   1.267   3.869   0.692 -1.4511 -0.4122  0.3391
 3536SOL     H214589   1.347   3.791   0.590  2.7402  1.3788  2.1243
 3536SOL    EPW14590   1.290   3.791   0.658  0.1212  0.1695 -0.0079
 3537SOL      O14591   1.241   4.324   1.728  0.0026 -0.0326 -0.3590
 3537SOL     H114592   1.214   4.416   1.727  0.3367  0.0572 -1.0148
 3537SOL     H214593   1.207   4.290   1.811 -0.0153  0.7118 -0.0628
 3537SOL    EPW14594   1.234   4.330   1.737  0.0363  0.0564 -0.3973
 3538SOL      O14595   4.915   0.047   3.958  0.3344  0.0651 -0.2386
 3538SOL     H114596   5.006   0.033   3.928  0.2844 -0.9906  0.0706
 3538SOL     H214597   4.912   0.006   4.044 -0.8344 -1.2860 -0.8844
 3538SOL    EPW14598   4.925   0.041   3.964  0.2044 -0.1917 -0.2745
 3539SOL      O14599   1.428   4.818   0.354 -0.2638 -0.3485  0.2530
 3539SOL     H114600   1.469   4.904   0.344 -3.5140  1.0943 -1.2569
 3539SOL     H214601   1.352   4.835   0.410 -2.1461 -1.8090 -1.7972
 3539SOL    EPW14602   1.425   4.829   0.359 -0.8113 -0.3504 -0.1268
 3540SOL      O14603   3.766   4.892   4.109  0.6250 -0.6535  0.1048
 3540SOL     H114604   3.725   4.815   4.070  2.0875 -1.9601  1.0749
 3540SOL     H214605   3.778   4.953   4.037 -2.6503 -0.3700 -0.2758
 3540SOL    EPW14606   3.763   4.891   4.097  0.4316 -0.7626  0.1677
 3541SOL      O14607   4.582   5.848   3.705 -0.2594  0.3849 -0.0390
 3541SOL     H114608   4.658   5.879   3.657  1.2983 -3.1399 -0.0163
 3541SOL     H214609   4.524   5.812   3.637  0.2839 -1.2482  0.3347
 3541SOL    EPW14610   4.584   5.847   3.693 -0.0353 -0.1653  0.0033
 3542SOL      O14611   1.508   1.011   0.154  0.4836  0.2917  0.9131
 3542SOL     H114612   1.589   0.969   0.128 -0.5002 -1.1171  0.0287
 3542SOL     H214613   1.511   1.097   0.113  0.4002 -0.7092 -1.2722
 3542SOL    EPW14614   1.517   1.015   0.147  0.3697  0.0346  0.5856
 3543SOL      O14615   5.700   0.906   3.996  0.4150 -0.1510 -0.2258
 3543SOL     H114616   5.648   0.856   3.934  2.2272 -1.3165 -0.8597
 3543SOL     H214617   5.749   0.968   3.941  0.9914 -0.2397  0.1828
 3543SOL    EPW14618   5.700   0.908   3.984  0.6698 -0.2848 -0.2498
 3544SOL      O14619   4.456   1.881   3.832 -0.4846 -0.8197  0.0931
 3544SOL     H114620   4.516   1.935   3.780 -0.9374 -0.5931 -0.1916
 3544SOL     H214621   4.500   1.872   3.917  0.8678 -2.2615 -0.7349
 3544SOL    EPW14622   4.467   1.886   3.836 -0.3887 -0.9494 -0.0256
 3545SOL      O14623   3.705   1.682   3.658 -0.1905  0.1648 -0.7808
 3545SOL     H114624   3.694   1.591   3.685 -0.4698  0.5021  0.2809
 3545SOL     H214625   3.671   1.733   3.731  0.1862  1.1305 -1.2619
 3545SOL    EPW14626   3.700   1.678   3.668 -0.1801  0.3038 -0.7189
 3546SOL      O14627   3.333   1.834   3.155 -0.0345 -0.0015  0.8286
 3546SOL     H114628   3.351   1.927   3.166 -0.7958  0.2027  0.3642
 3546SOL     H214629   3.244   1.831   3.119  0.5788 -0.8512 -0.6076
 3546SOL    EPW14630   3.325   1.844   3.153 -0.0503 -0.0704  0.6259
 3547SOL      O14631   2.718   4.067   1.636  0.2490  0.5152 -0.0145
 3547SOL     H114632   2.804   4.041   1.671 -0.1035  0.5538  0.8933
 3547SOL     H214633   2.660   3.994   1.659  0.1887  0.1505 -1.2734
 3547SOL    EPW14634   2.721   4.056   1.642  0.2050  0.4804 -0.0520
 3548SOL      O14635   1.688   3.786   1.047  0.4330 -0.0825 -0.4210
 3548SOL     H114636   1.692   3.881   1.052 -2.5953  0.0407  0.4587
 3548SOL     H214637   1.670   3.767   0.955 -0.3296  0.2426 -0.3360
 3548SOL    EPW14638   1.687   3.794   1.038  0.0286 -0.0347 -0.3181
 3549SOL      O14639   0.341   4.748   0.528 -0.0821  0.5440 -0.5596
 3549SOL     H114640   0.409   4.686   0.552 -0.2858  1.0447  1.4221
 3549SOL     H214641   0.261   4.695   0.519  0.5360 -0.0526 -2.9515
 3549SOL    EPW14642   0.339   4.736   0.530 -0.0379  0.5338 -0.6034
 3550SOL      O14643   4.620   5.568   3.221  0.2990  0.5128 -0.1865
 3550SOL     H114644   4.597   5.477   3.240  0.4722 -0.0363 -2.3679
 3550SOL     H214645   4.712   5.564   3.196 -0.5752  0.6460 -3.7997
 3550SOL    EPW14646   4.627   5.558   3.220  0.2243  0.4685 -0.8046
 3551SOL      O14647   1.166   3.607   0.470 -0.2769 -0.0393  0.0905
 3551SOL     H114648   1.098   3.585   0.533 -0.9345  1.2342 -0.1518
 3551SOL     H214649   1.208   3.685   0.507 -0.8304  0.8627 -1.1325
 3551SOL    EPW14650   1.163   3.613   0.481 -0.4061  0.1928 -0.0658
 3552SOL      O14651   0.304   3.316   0.402 -0.1801  0.2369  0.4880
 3552SOL     H114652   0.394   3.305   0.431 -0.0649 -0.2627 -0.0486
 3552SOL     H214653   0.299   3.267   0.320 -1.2500 -0.7187  1.0994
 3552SOL    EPW14654   0.313   3.310   0.396 -0.2819  0.0816  0.4960
 3553SOL      O14655   4.023   5.196   3.848 -0.0644  0.5825 -0.0012
 3553SOL     H114656   4.038   5.280   3.805 -0.5749  0.6300 -0.0928
 3553SOL     H214657   4.110   5.167   3.875  0.0272  1.5245  0.7496
 3553SOL    EPW14658   4.033   5.202   3.847 -0.1091  0.6881  0.0691
 3554SOL      O14659   0.688   3.525   0.644 -0.2881 -0.2298  0.1432
 3554SOL     H114660   0.615   3.575   0.608  2.1887  2.9391 -0.6128
 3554SOL     H214661   0.699   3.561   0.732 -0.0161 -1.1522  0.4883
 3554SOL    EPW14662   0.681   3.534   0.650  0.0051  0.0098  0.0993
 3555SOL      O14663   3.110   1.127   3.083 -0.5017 -0.0742  0.1112
 3555SOL     H114664   3.051   1.190   3.125  0.1386 -0.8711  2.3229
 3555SOL     H214665   3.170   1.181   3.031 -1.1832  0.9806  0.4011
 3555SOL    EPW14666   3.110   1.140   3.082 -0.5061 -0.0467  0.3781
 3556SOL      O14667   3.395   3.761   1.227 -0.3845  0.1964  0.0334
 3556SOL     H114668   3.348   3.691   1.183  0.2572 -0.1999 -0.0338
 3556SOL     H214669   3.484   3.755   1.192 -0.1465  0.5786  0.5701
 3556SOL    EPW14670   3.400   3.753   1.218 -0.2907  0.1949  0.0835
 3557SOL      O14671   5.551   2.974   0.529 -0.1807  0.7607  0.1500
 3557SOL     H114672   5.586   2.920   0.458  1.0608  1.4477  0.2259
 3557SOL     H214673   5.468   3.008   0.494  0.0587  0.5069 -0.6907
 3557SOL    EPW14674   5.546   2.972   0.517 -0.0227  0.8069  0.0684
 3558SOL      O14675   5.602   3.679   1.237  0.3565 -0.1181 -0.5691
 3558SOL     H114676   5.539   3.626   1.188  0.7522  1.3902 -2.7855
 3558SOL     H214677   5.688   3.649   1.206  0.7064 -0.6829  0.8719
 3558SOL    EPW14678   5.605   3.670   1.229  0.4360 -0.0174 -0.6518
 3559SOL      O14679   1.463   0.818   4.013  0.4194 -0.2953 -0.0440
 3559SOL     H114680   1.540   0.871   3.991  0.1478  0.0380 -0.1975
 3559SOL     H214681   1.450   0.834   4.106 -0.6844  1.2704 -0.4411
 3559SOL    EPW14682   1.470   0.826   4.021  0.2726 -0.0927 -0.1027
 3560SOL      O14683   4.924   3.442   1.647  0.6085  0.7827 -0.0401
 3560SOL     H114684   4.853   3.439   1.711  0.3595  1.1434 -0.2990
 3560SOL     H214685   5.003   3.456   1.699  0.3939  1.1838  0.1799
 3560SOL    EPW14686   4.925   3.443   1.659  0.5590  0.8640 -0.0443
 3561SOL      O14687   4.705   2.330   0.400  0.0853 -0.3461  0.2782
 3561SOL     H114688   4.688   2.421   0.422  1.1664 -0.3574  1.1864
 3561SOL     H214689   4.690   2.282   0.482 -0.1744 -0.9453 -0.1112
 3561SOL    EPW14690   4.701   2.334   0.411  0.1729 -0.4112  0.3336
 3562SOL      O14691   2.760   4.768   3.664  0.1011  0.5357 -0.5958
 3562SOL     H114692   2.724   4.720   3.739 -0.4405  0.3021 -0.9991
 3562SOL     H214693   2.687   4.822   3.633  0.7970  1.8521  0.0369
 3562SOL    EPW14694   2.749   4.768   3.668  0.1175  0.6512 -0.5713
 3563SOL      O14695   3.949   2.951   1.712 -0.4168  0.0930 -0.5025
 3563SOL     H114696   3.942   2.960   1.617  0.0399  1.7606 -0.3947
 3563SOL     H214697   3.968   3.040   1.743  1.7097 -0.8394  0.9469
 3563SOL    EPW14698   3.950   2.962   1.705 -0.1413  0.1714 -0.3364
 3564SOL      O14699   1.048   0.215   2.917 -0.1851  0.4821  0.8359
 3564SOL     H114700   1.119   0.277   2.900 -2.7732  2.8510 -1.8698
 3564SOL     H214701   1.000   0.253   2.990 -1.6458  1.6015 -0.6821
 3564SOL    EPW14702   1.051   0.225   2.923 -0.6170  0.8542  0.3854
 3565SOL      O14703   4.294   1.974   0.809  0.4019  0.1404  0.3707
 3565SOL     H114704   4.198   1.965   0.803  0.3177  0.4497  1.1792
 3565SOL     H214705   4.315   2.043   0.746  0.2966 -1.1240 -1.0589
 3565SOL    EPW14706   4.286   1.981   0.802  0.3817  0.0385  0.3044
 3566SOL      O14707   5.587   2.813   1.493 -0.2401 -0.2625 -0.2069
 3566SOL     H114708   5.500   2.820   1.532 -0.5587 -0.8359 -0.7952
 3566SOL     H214709   5.605   2.719   1.493  0.1979 -0.1799 -0.4892
 3566SOL    EPW14710   5.580   2.803   1.497 -0.2274 -0.3148 -0.2998
 3567SOL      O14711   4.041   3.297   0.705 -0.1489 -0.1872 -0.1233
 3567SOL     H114712   3.972   3.253   0.755 -1.4801  0.5076 -1.2958
 3567SOL     H214713   4.034   3.389   0.731 -1.1789  0.2710 -1.8748
 3567SOL    EPW14714   4.033   3.302   0.713 -0.4008 -0.0642 -0.4352
 3568SOL      O14715   4.150   2.450   0.879 -0.1774  0.5250  0.6704
 3568SOL     H114716   4.235   2.463   0.838 -0.1837  0.3153  0.5898
 3568SOL     H214717   4.101   2.395   0.817 -0.3022  0.4826  0.8053
 3568SOL    EPW14718   4.154   2.446   0.868 -0.1914  0.4981  0.6762
 3569SOL      O14719   5.175   3.654   0.723  0.6050  0.1722 -0.1125
 3569SOL     H114720   5.262   3.616   0.714  0.3045 -0.7174  0.5199
 3569SOL     H214721   5.167   3.716   0.651  2.2271  1.1759  0.5668
 3569SOL    EPW14722   5.183   3.656   0.715  0.7460  0.1843  0.0274
 3570SOL      O14723   4.652   2.553   1.648 -0.4818  0.1559  0.8134
 3570SOL     H114724   4.585   2.485   1.650  0.9509 -1.3372 -0.8918
 3570SOL     H214725   4.611   2.626   1.601 -1.4338 -0.1595  1.1455
 3570SOL    EPW14726   4.640   2.554   1.643 -0.4305 -0.0370  0.6669
 3571SOL      O14727   4.050   3.772   0.703  0.1552 -0.3577  0.2848
 3571SOL     H114728   4.083   3.809   0.786  0.6769 -0.8653  0.3110
 3571SOL     H214729   4.019   3.684   0.727 -1.5338  0.2347  0.3178
 3571SOL    EPW14730   4.050   3.766   0.715  0.0307 -0.3487  0.2911
 3572SOL      O14731   3.442   2.929   0.095  0.4789 -0.2206 -0.6638
 3572SOL     H114732   3.494   2.910   0.173 -1.0359 -2.2317 -0.0964
 3572SOL     H214733   3.486   3.004   0.055  1.9811  0.0935  1.4618
 3572SOL    EPW14734   3.452   2.935   0.099  0.4776 -0.4017 -0.3765
 3573SOL      O14735   1.739   0.884   3.787  0.3186  0.3323 -0.3473
 3573SOL     H114736   1.803   0.826   3.829  2.7673  2.0711 -1.5632
 3573SOL     H214737   1.733   0.960   3.845 -1.6647 -0.3544  0.4076
 3573SOL    EPW14738   1.745   0.886   3.798  0.3683  0.4445 -0.3965
 3574SOL      O14739   1.860   0.315   3.724 -0.0936  0.4711 -0.0455
 3574SOL     H114740   1.807   0.381   3.769 -1.1291 -0.1492 -0.3398
 3574SOL     H214741   1.935   0.302   3.782  1.1364  3.2928 -0.8906
 3574SOL    EPW14742   1.863   0.321   3.735 -0.0728  0.7059 -0.1670
 3575SOL      O14743   4.033   3.911   1.766  0.1230  0.0140 -0.0249
 3575SOL     H114744   4.095   3.983   1.754  1.3490 -0.8270  1.1620
 3575SOL     H214745   4.063   3.843   1.704 -1.0496  0.5114 -1.1660
 3575SOL    EPW14746   4.043   3.911   1.758  0.1287 -0.0227 -0.0200
 3576SOL      O14747   4.142   1.913   0.116  0.0153 -0.4444 -0.0081
 3576SOL     H114748   4.077   1.983   0.126  0.9724  0.2560  1.5729
 3576SOL     H214749   4.204   1.947   0.052 -1.2169 -1.1628 -1.6121
 3576SOL    EPW14750   4.141   1.924   0.110 -0.0140 -0.4463 -0.0106
 3577SOL      O14751   0.268   2.868   2.317 -0.0181  0.7538  0.3922
 3577SOL     H114752   0.273   2.878   2.222  0.2331 -1.4846  0.1514
 3577SOL     H214753   0.346   2.913   2.350  0.5572  0.4527 -0.5476
 3577SOL    EPW14754   0.276   2.874   2.310  0.0701  0.4829  0.2662
 3578SOL      O14755   2.280   2.401   2.391  0.2429 -0.3778  0.1825
 3578SOL     H114756   2.325   2.339   2.334 -2.4938 -1.8541 -0.5083
 3578SOL     H214757   2.238   2.345   2.457 -0.0942  0.9632  1.1204
 3578SOL    EPW14758   2.280   2.388   2.392 -0.0850 -0.3922  0.2089
 3579SOL      O14759   3.921   3.096   2.163  0.0862  0.0840  0.1407
 3579SOL     H114760   3.957   3.163   2.105  1.8852 -0.9255  0.0542
 3579SOL     H214761   3.979   3.096   2.240 -0.5547 -0.5937  0.6356
 3579SOL    EPW14762   3.931   3.103   2.165  0.2098 -0.0960  0.1843
 3580SOL      O14763   3.593   4.237   1.739  0.0947 -0.1463  0.4668
 3580SOL     H114764   3.665   4.290   1.774  0.2896  0.6502 -1.0657
 3580SOL     H214765   3.636   4.161   1.700  0.0487 -0.0863  0.2966
 3580SOL    EPW14766   3.605   4.235   1.739  0.1105 -0.0549  0.2852
 3581SOL      O14767   4.705   2.926   0.655 -0.2112  0.0249  0.2855
 3581SOL     H114768   4.630   2.950   0.710 -0.9990 -1.7765  0.0447
 3581SOL     H214769   4.725   2.835   0.680  1.5348  0.2851 -0.0686
 3581SOL    EPW14770   4.699   2.919   0.664 -0.1090 -0.1395  0.2221
 3582SOL      O14771   5.007   1.640   3.154 -0.2104  0.6803 -0.4756
 3582SOL     H114772   4.915   1.640   3.182  0.8568 -0.8105  3.2716
 3582SOL     H214773   5.037   1.729   3.174 -0.5907  0.9202 -0.9389
 3582SOL    EPW14774   5.000   1.650   3.159 -0.1371  0.5469 -0.1253
 3583SOL      O14775   0.161   3.175   0.967 -0.3895 -0.3313 -0.0386
 3583SOL     H114776   0.156   3.180   1.062  1.3517 -0.1983  0.0582
 3583SOL     H214777   0.080   3.216   0.937 -0.0431  1.4132  1.3356
 3583SOL    EPW14778   0.152   3.180   0.974 -0.1668 -0.1310  0.1183
 3584SOL      O14779   5.612   2.375   2.184 -1.2041 -0.5149  0.8949
 3584SOL     H114780   5.678   2.419   2.131 -1.0240 -3.3539 -1.3901
 3584SOL     H214781   5.611   2.423   2.267  2.8422  0.3240  0.5373
 3584SOL    EPW14782   5.619   2.385   2.187 -0.7533 -0.7283  0.6130
 3585SOL      O14783   3.996   1.621   1.060 -0.1497 -0.0891  0.2549
 3585SOL     H114784   4.059   1.670   1.112  0.3086  0.6330 -0.9686
 3585SOL     H214785   4.046   1.585   0.987 -0.7326 -1.3220  0.4427
 3585SOL    EPW14786   4.008   1.622   1.058 -0.1630 -0.1436  0.1444
 3586SOL      O14787   0.315   0.802   2.781 -0.3203 -0.8498 -0.3220
 3586SOL     H114788   0.245   0.858   2.815  0.4456 -0.2356  0.2941
 3586SOL     H214789   0.364   0.776   2.859  0.7310 -0.4395 -0.8359
 3586SOL    EPW14790   0.313   0.805   2.793 -0.1264 -0.7405 -0.3111
 3587SOL      O14791   2.821   0.115   3.828  0.0446  0.9107  0.6545
 3587SOL     H114792   2.789   0.091   3.741  1.0442  0.6312  0.3534
 3587SOL     H214793   2.751   0.089   3.887  0.8896 -2.4530  0.3096
 3587SOL    EPW14794   2.810   0.109   3.825  0.2413  0.5220  0.5856
 3588SOL      O14795   4.641   0.400   0.421  0.5725 -0.0610  0.4835
 3588SOL     H114796   4.595   0.398   0.505 -0.9373 -0.6564 -0.3233
 3588SOL     H214797   4.611   0.320   0.376 -0.6020  1.5010 -1.6011
 3588SOL    EPW14798   4.633   0.391   0.425  0.2862  0.0421  0.1750
 3589SOL      O14799   2.548   5.636   3.999  0.0109  0.1167  0.4886
 3589SOL     H114800   2.480   5.704   4.000 -0.5603 -0.4543  0.5822
 3589SOL     H214801   2.501   5.556   3.979  0.4466 -0.5147  1.9460
 3589SOL    EPW14802   2.535   5.635   3.997 -0.0035 -0.0115  0.6540
 3590SOL      O14803   0.583   3.180   0.934 -0.1663 -0.4498 -0.8624
 3590SOL     H114804   0.654   3.182   0.869  0.3655 -2.7860 -0.4020
 3590SOL     H214805   0.509   3.221   0.889  1.2842  1.4430 -1.5725
 3590SOL    EPW14806   0.583   3.184   0.922  0.0452 -0.4971 -0.8890
 3591SOL      O14807   4.367   3.219   0.991 -0.1234 -0.1055  0.1734
 3591SOL     H114808   4.428   3.277   1.036 -1.4000  1.3906 -0.0007
 3591SOL     H214809   4.306   3.190   1.059 -2.2273  2.3810 -0.5871
 3591SOL    EPW14810   4.367   3.222   1.003 -0.4840  0.3193  0.0737
 3592SOL      O14811   5.341   1.831   2.396  0.1321  0.1530 -0.4936
 3592SOL     H114812   5.319   1.906   2.340 -0.4633  2.2385  2.4290
 3592SOL     H214813   5.403   1.866   2.460  0.1774 -1.9779  0.6663
 3592SOL    EPW14814   5.345   1.843   2.397  0.0734  0.1482 -0.0581
 3593SOL      O14815   2.179   5.527   2.778 -0.1675  0.4786  0.6418
 3593SOL     H114816   2.119   5.452   2.776 -0.2588  0.5615 -0.5336
 3593SOL     H214817   2.130   5.595   2.824 -1.0262  0.5646 -0.3529
 3593SOL    EPW14818   2.167   5.526   2.783 -0.2689  0.4967  0.4103
 3594SOL      O14819   5.591   2.068   1.402 -0.2962 -0.1256  0.1767
 3594SOL     H114820   5.575   2.078   1.308 -0.8960 -0.3529  0.2519
 3594SOL     H214821   5.525   2.124   1.443  1.3566  1.7175  0.4186
 3594SOL    EPW14822   5.582   2.075   1.396 -0.1839  0.0468  0.2105
 3595SOL      O14823   4.312   4.229   1.539  0.0409 -0.4013 -0.1917
 3595SOL     H114824   4.356   4.260   1.459  0.2686 -1.5449 -0.5195
 3595SOL     H214825   4.352   4.280   1.609  1.3927 -0.9006 -0.5695
 3595SOL    EPW14826   4.321   4.238   1.538  0.2094 -0.5765 -0.2670
 3596SOL      O14827   4.829   3.220   1.921  0.4832  0.8618 -0.3704
 3596SOL     H114828   4.922   3.218   1.942  0.4073  2.5961  0.2164
 3596SOL     H214829   4.809   3.313   1.910 -0.7499  0.3753 -2.4964
 3596SOL    EPW14830   4.837   3.230   1.922  0.3435  0.9949 -0.5346
 3597SOL      O14831   5.457   2.539   1.101  0.2717  0.1090  1.0192
 3597SOL     H114832   5.396   2.471   1.130  0.6843 -0.8314 -0.2598
 3597SOL     H214833   5.401   2.605   1.060  0.0181 -0.2895  0.7121
 3597SOL    EPW14834   5.444   2.538   1.100  0.2887 -0.0338  0.8500
 3598SOL      O14835   0.796   1.133   1.098 -0.1539 -0.7039  0.9026
 3598SOL     H114836   0.854   1.177   1.036 -1.9272 -0.0411 -0.3097
 3598SOL     H214837   0.850   1.123   1.177  1.1497  1.2267  0.3138
 3598SOL    EPW14838   0.808   1.137   1.100 -0.2040 -0.4273  0.7105
 3599SOL      O14839   4.393   1.452   1.272 -0.1141  0.4277  0.1496
 3599SOL     H114840   4.410   1.458   1.366 -0.1914 -2.7347  0.4241
 3599SOL     H214841   4.480   1.448   1.233 -0.0871  0.9418  0.1564
 3599SOL    EPW14842   4.404   1.452   1.278 -0.1195  0.1452  0.1796
 3600SOL      O14843   4.455   2.027   1.031  0.2957 -0.2448  0.0557
 3600SOL     H114844   4.548   2.019   1.011  0.0959 -1.4293 -0.4286
 3600SOL     H214845   4.412   2.019   0.946 -0.3120 -0.9403  0.4203
 3600SOL    EPW14846   4.460   2.025   1.020  0.2095 -0.4454  0.0429
 3601SOL      O14847   1.349   0.536   3.599  0.0595  0.0583  0.2326
 3601SOL     H114848   1.295   0.520   3.522  0.0261 -0.3979  0.3524
 3601SOL     H214849   1.390   0.452   3.618  0.2989  0.2416  0.5359
 3601SOL    EPW14850   1.348   0.525   3.593  0.0814  0.0292  0.2777
 3602SOL      O14851   4.117   2.719   1.779  0.4077 -0.4564 -0.7112
 3602SOL     H114852   4.201   2.758   1.801  0.4184 -0.7267 -0.2743
 3602SOL     H214853   4.058   2.794   1.767  0.6631 -0.2758 -0.8311
 3602SOL    EPW14854   4.119   2.732   1.780  0.4361 -0.4660 -0.6774
 3603SOL      O14855   2.840   0.980   4.143 -0.2124  0.3518  0.1094
 3603SOL     H114856   2.816   0.950   4.231 -0.1989 -1.1025 -0.3744
 3603SOL     H214857   2.936   0.977   4.143 -0.2354 -0.9223 -0.3681
 3603SOL    EPW14858   2.848   0.976   4.153 -0.2134  0.0607  0.0069
 3604SOL      O14859   4.527   2.976   0.892 -0.0662 -0.1232 -0.0718
 3604SOL     H114860   4.519   3.051   0.951  1.9636 -0.7981  1.1079
 3604SOL     H214861   4.486   2.904   0.940  0.8241 -0.4763  0.1748
 3604SOL    EPW14862   4.522   2.976   0.904  0.2453 -0.2328  0.0803
 3605SOL      O14863   1.223   5.182   3.909 -0.6252  1.0106 -0.3606
 3605SOL     H114864   1.312   5.170   3.877 -0.6233  0.4631 -0.1687
 3605SOL     H214865   1.200   5.096   3.947 -1.0416  1.3008  0.0511
 3605SOL    EPW14866   1.230   5.171   3.910 -0.6694  0.9831 -0.2962
 3606SOL      O14867   4.301   4.020   1.725  0.0367 -0.0352  0.1966
 3606SOL     H114868   4.301   4.095   1.666 -3.1542 -0.0866  0.0702
 3606SOL     H214869   4.326   4.056   1.810  0.3877  0.8049 -0.2541
 3606SOL    EPW14870   4.304   4.032   1.727 -0.2663  0.0489  0.1350
 3607SOL      O14871   3.752   3.639   0.245 -0.5505  0.3921 -0.6470
 3607SOL     H114872   3.732   3.630   0.152  0.0330  0.2395 -0.7562
 3607SOL     H214873   3.793   3.556   0.269 -0.0879  0.6931 -0.4077
 3607SOL    EPW14874   3.754   3.629   0.238 -0.4389  0.4079 -0.6331
 3608SOL      O14875   2.470   2.968   0.359 -0.0237  0.5969  0.1269
 3608SOL     H114876   2.449   3.060   0.379  0.0650  0.1274  2.4369
 3608SOL     H214877   2.528   2.974   0.283 -0.1883  2.4597  0.1034
 3608SOL    EPW14878   2.474   2.979   0.353 -0.0318  0.7455  0.3708
 3609SOL      O14879   3.551   1.869   0.364 -0.5821 -0.6291 -0.2076
 3609SOL     H114880   3.527   1.864   0.457 -0.3631  0.3010 -0.0889
 3609SOL     H214881   3.610   1.795   0.350  0.1809 -0.2023  0.6520
 3609SOL    EPW14882   3.555   1.861   0.373 -0.4773 -0.4843 -0.1032
 3610SOL      O14883   4.778   1.214   1.129  0.4172  0.1701  0.1362
 3610SOL     H114884   4.862   1.192   1.088  0.1886  0.9159 -0.7555
 3610SOL     H214885   4.795   1.206   1.223  1.1534 -0.8437 -0.0717
 3610SOL    EPW14886   4.789   1.211   1.134  0.4714  0.1415  0.0189
 3611SOL      O14887   5.710   2.971   0.854  0.3390  0.0709  0.6976
 3611SOL     H114888   5.757   2.948   0.934  1.2510  0.8472  0.3926
 3611SOL     H214889   5.684   3.062   0.866 -1.4275 -0.4625  1.0166
 3611SOL    EPW14890   5.712   2.978   0.863  0.2478  0.0968  0.6991
 3612SOL      O14891   5.566   2.003   1.122 -0.5114 -0.0147 -0.0479
 3612SOL     H114892   5.488   1.959   1.087  0.5363 -2.0690  0.1015
 3612SOL     H214893   5.582   2.075   1.062 -0.8881 -1.2793 -1.7110
 3612SOL    EPW14894   5.560   2.006   1.112 -0.4398 -0.3688 -0.2093
 3613SOL      O14895   2.473   2.777   0.574 -0.1337 -0.2144  0.3929
 3613SOL     H114896   2.519   2.821   0.502  0.6480  1.1508  1.6938
 3613SOL     H214897   2.415   2.844   0.609 -0.0908 -0.6885  1.3900
 3613SOL    EPW14898   2.472   2.789   0.570 -0.0457 -0.1193  0.6380
 3614SOL      O14899   5.225   2.457   2.130 -0.1893 -0.1991 -0.2516
 3614SOL     H114900   5.240   2.406   2.210  2.2162 -0.1839 -0.6463
 3614SOL     H214901   5.202   2.392   2.064 -0.5251 -0.3961  0.0544
 3614SOL    EPW14902   5.225   2.445   2.132  0.0315 -0.2185 -0.2611
 3615SOL      O14903   3.974   4.152   0.236  0.9896  0.4595  0.4851
 3615SOL     H114904   3.918   4.196   0.172  1.0761  0.5348  0.4620
 3615SOL     H214905   3.991   4.066   0.197  0.3472  0.1920  0.7964
 3615SOL    EPW14906   3.970   4.147   0.225  0.9303  0.4390  0.5159
 3616SOL      O14907   4.725   4.277   1.295 -0.4241 -0.0745 -0.0163
 3616SOL     H114908   4.708   4.363   1.258  2.2785 -0.0975 -1.4077
 3616SOL     H214909   4.745   4.221   1.220  1.1516 -1.0757  1.0960
 3616SOL    EPW14910   4.726   4.280   1.283  0.0323 -0.1838 -0.0461
 3617SOL      O14911   0.104   3.824   1.178  0.3967  0.1515  0.5053
 3617SOL     H114912   0.174   3.820   1.113  0.0476 -2.7645  0.2306
 3617SOL     H214913   0.067   3.911   1.169  2.6937  1.0296 -0.7227
 3617SOL    EPW14914   0.108   3.832   1.170  0.6045 -0.0659  0.3450
 3618SOL      O14915   5.740   2.427   2.782 -0.1694 -0.2167 -0.2999
 3618SOL     H114916   5.715   2.512   2.744  1.9401  0.8455  0.5490
 3618SOL     H214917   5.734   2.441   2.876  2.1705 -0.3193 -0.0974
 3618SOL    EPW14918   5.737   2.438   2.788  0.3053 -0.1143 -0.1877
 3619SOL      O14919   1.501   4.805   3.967 -0.2061 -0.6246 -0.4395
 3619SOL     H114920   1.473   4.717   3.994  0.8924 -0.5642  0.9764
 3619SOL     H214921   1.563   4.831   4.034 -0.3498  1.1564 -0.9893
 3619SOL    EPW14922   1.505   4.798   3.977 -0.1043 -0.4281 -0.3471
 3620SOL      O14923   3.678   2.086   0.624 -0.0620  0.1545  0.4937
 3620SOL     H114924   3.703   2.039   0.544 -0.6230 -0.7404  0.8261
 3620SOL     H214925   3.632   2.164   0.593  1.8775  1.0987 -0.0941
 3620SOL    EPW14926   3.675   2.089   0.612  0.0850  0.1598  0.4665
 3621SOL      O14927   5.313   2.688   2.222  0.5355 -0.0848  0.6470
 3621SOL     H114928   5.332   2.660   2.312 -1.0846 -1.3778  0.6106
 3621SOL     H214929   5.293   2.607   2.176  4.7827  0.1018 -1.8254
 3621SOL    EPW14930   5.313   2.677   2.227  0.8157 -0.2028  0.3794
 3622SOL      O14931   1.659   1.873   1.979 -0.3050 -0.2599  0.0766
 3622SOL     H114932   1.744   1.911   1.957 -1.0689  2.3749  1.5857
 3622SOL     H214933   1.603   1.947   2.000 -2.1829 -2.1264  1.9387
 3622SOL    EPW14934   1.662   1.885   1.979 -0.5868 -0.1779  0.4362
 3623SOL      O14935   2.116   3.071   0.383 -0.2874 -0.4497  0.0127
 3623SOL     H114936   2.055   3.139   0.412  0.2512  0.0417 -0.0019
 3623SOL     H214937   2.069   2.989   0.399 -0.8423 -0.0896  0.2646
 3623SOL    EPW14938   2.104   3.070   0.388 -0.2891 -0.3589  0.0380
 3624SOL      O14939   4.901   2.687   0.039  0.7071 -0.4058 -0.4017
 3624SOL     H114940   4.961   2.663  -0.032  1.3075  0.9413 -0.3529
 3624SOL     H214941   4.944   2.655   0.119 -0.7551 -3.4426 -0.7532
 3624SOL    EPW14942   4.912   2.681   0.040  0.6152 -0.5860 -0.4340
 3625SOL      O14943   4.351   3.824   0.106 -0.4436 -0.3423  0.1916
 3625SOL     H114944   4.281   3.791   0.162  0.1576 -1.8012  0.1147
 3625SOL     H214945   4.414   3.862   0.166  0.3956 -2.2725  0.5615
 3625SOL    EPW14946   4.350   3.824   0.118 -0.2900 -0.7038  0.2228
 3626SOL      O14947   0.058   3.206   0.471  0.3003 -0.3495 -0.5986
 3626SOL     H114948   0.094   3.117   0.465 -0.0125 -0.8413  3.4260
 3626SOL     H214949   0.135   3.263   0.471  0.4538 -0.3945 -4.8198
 3626SOL    EPW14950   0.070   3.202   0.471  0.2833 -0.4068 -0.6196
 3627SOL      O14951   0.312   2.504   0.127 -0.4687 -0.4606 -0.1273
 3627SOL     H114952   0.231   2.547   0.099 -1.5513 -1.2168  1.7739
 3627SOL     H214953   0.335   2.546   0.210  0.0894 -1.4964  0.2577
 3627SOL    EPW14954   0.306   2.513   0.133 -0.5247 -0.6518  0.1166
 3628SOL      O14955   5.853   3.571   1.152 -0.6355  0.1133 -0.5581
 3628SOL     H114956   5.915   3.560   1.080  0.9463  0.9925  0.6419
 3628SOL     H214957   5.880   3.652   1.196 -2.1671  0.1158  0.4453
 3628SOL    EPW14958   5.862   3.579   1.149 -0.6302  0.2074 -0.3230
 3629SOL      O14959   5.520   5.313   3.997 -0.5384 -0.6608  0.0481
 3629SOL     H114960   5.599   5.352   3.960 -0.3122 -0.5722  0.6179
 3629SOL     H214961   5.449   5.371   3.969 -0.3949 -0.7123 -0.4201
 3629SOL    EPW14962   5.521   5.323   3.990 -0.4989 -0.6569  0.0590
 3630SOL      O14963   4.647   1.633   2.308 -0.1415 -0.4535 -0.8040
 3630SOL     H114964   4.671   1.543   2.287 -1.9271 -1.0021 -0.5943
 3630SOL     H214965   4.696   1.652   2.389 -0.8277 -1.7211 -0.0717
 3630SOL    EPW14966   4.655   1.625   2.315 -0.4052 -0.6473 -0.7035
 3631SOL      O14967   4.385   2.814   1.808  0.3163  0.1817  0.0168
 3631SOL     H114968   4.404   2.802   1.715 -2.6754 -1.1033 -0.4885
 3631SOL     H214969   4.433   2.744   1.852 -0.0596 -0.5886 -0.7979
 3631SOL    EPW14970   4.392   2.805   1.803 -0.0430 -0.0376 -0.1240
 3632SOL      O14971   4.262   5.563   0.928 -0.2701 -0.3037 -1.1444
 3632SOL     H114972   4.183   5.617   0.939  0.0866 -0.1113  0.5954
 3632SOL     H214973   4.314   5.580   1.006  0.6812 -1.8255 -1.4209
 3632SOL    EPW14974   4.259   5.571   0.937 -0.1306 -0.4455 -0.9883
 3633SOL      O14975   4.457   2.336   1.599 -0.1109 -0.1348  0.2878
 3633SOL     H114976   4.470   2.242   1.585  0.2341 -0.3028  1.6440
 3633SOL     H214977   4.434   2.343   1.692  2.6646  1.3904  0.9088
 3633SOL    EPW14978   4.456   2.326   1.608  0.2220  0.0100  0.4987
 3634SOL      O14979   2.943   2.088   1.495  0.1313 -0.1410  0.1047
 3634SOL     H114980   2.906   2.055   1.577  1.6330 -1.9062  0.0813
 3634SOL     H214981   2.907   2.031   1.427 -0.6212  0.9341 -0.4173
 3634SOL    EPW14982   2.935   2.079   1.496  0.2112 -0.2146  0.0465
 3635SOL      O14983   3.801   2.643   1.046 -0.0480 -0.4971 -0.0252
 3635SOL     H114984   3.878   2.665   0.994  0.0049  0.3695  0.4040
 3635SOL     H214985   3.837   2.610   1.129 -0.1268 -2.3568 -0.7186
 3635SOL    EPW14986   3.813   2.642   1.050 -0.0507 -0.6030 -0.0534
 3636SOL      O14987   0.069   3.268   1.919  0.3441 -0.4493 -0.1378
 3636SOL     H114988   0.035   3.256   2.008  1.0602  0.9078  0.3471
 3636SOL     H214989  -0.002   3.312   1.872  0.6387  0.5464  0.3115
 3636SOL    EPW14990   0.058   3.272   1.924  0.4519 -0.1983 -0.0381
 3637SOL      O14991   3.007   3.653   0.754  0.4393  0.4255 -0.3616
 3637SOL     H114992   2.916   3.640   0.780  0.3411  0.6578 -0.5871
 3637SOL     H214993   3.003   3.674   0.661  0.6589  1.2946 -0.1780
 3637SOL    EPW14994   2.997   3.654   0.747  0.4523  0.5430 -0.3660
 3638SOL      O14995   2.168   0.262   2.204  0.3205 -1.1476 -0.0881
 3638SOL     H114996   2.195   0.347   2.237 -3.0775 -0.1766  0.3547
 3638SOL     H214997   2.197   0.261   2.113  0.4398  0.4707 -0.0736
 3638SOL    EPW14998   2.174   0.271   2.198 -0.0292 -0.8714 -0.0393
 3639SOL      O14999   3.715   4.035   1.522 -0.2415  0.0189  0.4267
 3639SOL     H115000   3.802   4.074   1.518 -0.4808  0.5800  0.6889
 3639SOL     H215001   3.663   4.085   1.459 -0.0133 -1.2456 -0.7942
 3639SOL    EPW15002   3.718   4.044   1.514 -0.2427 -0.0561  0.3244
 3640SOL      O15003   4.875   2.256   2.254  0.8447 -0.1623  0.5229
 3640SOL     H115004   4.893   2.232   2.344  2.0828 -2.0725 -0.1914
 3640SOL     H215005   4.954   2.233   2.206 -0.1932 -0.2511 -1.2318
 3640SOL    EPW15006   4.885   2.251   2.258  0.8661 -0.3756  0.2595
 3641SOL      O15007   0.343   2.610   2.186 -0.4578 -0.0355  0.2267
 3641SOL     H115008   0.296   2.558   2.251  0.5949 -0.4903  0.6498
 3641SOL     H215009   0.352   2.696   2.226 -0.0847 -0.2259  0.5515
 3641SOL    EPW15010   0.339   2.614   2.197 -0.3057 -0.1043  0.3065
 3642SOL      O15011   5.358   1.600   0.980  0.0326  0.5509 -0.1684
 3642SOL     H115012   5.402   1.515   0.991 -0.6170  0.2517  0.1132
 3642SOL     H215013   5.345   1.607   0.885 -0.2789  0.1485 -0.1577
 3642SOL    EPW15014   5.362   1.591   0.971 -0.0699  0.4761 -0.1372
 3643SOL      O15015   4.162   2.468   2.019  0.7794  0.1197  0.1427
 3643SOL     H115016   4.066   2.464   2.029  0.7022  0.2984 -0.4898
 3643SOL     H215017   4.188   2.542   2.074  0.7591 -1.0027  1.7079
 3643SOL    EPW15018   4.154   2.475   2.026  0.7690  0.0190  0.2422
 3644SOL      O15019   4.396   3.588   0.719  0.5422 -0.7095  0.1577
 3644SOL     H115020   4.340   3.512   0.735  1.4820 -1.9342 -2.1466
 3644SOL     H215021   4.477   3.568   0.765  0.8071 -1.1312 -0.4893
 3644SOL    EPW15022   4.399   3.578   0.726  0.6707 -0.8851 -0.1571
 3645SOL      O15023   3.142   1.393   0.350  0.1395  0.3236  0.2471
 3645SOL     H115024   3.182   1.378   0.435  0.9570  1.6264  0.1055
 3645SOL     H215025   3.102   1.309   0.327 -0.1102 -0.0268  1.9117
 3645SOL    EPW15026   3.142   1.382   0.356  0.2000  0.4252  0.4096
 3646SOL      O15027   0.954   4.117   2.585  0.2566 -0.2021 -0.1581
 3646SOL     H115028   1.033   4.071   2.613  0.9177 -0.2717 -2.0430
 3646SOL     H215029   0.987   4.197   2.543 -0.5673 -1.0654 -2.5054
 3646SOL    EPW15030   0.966   4.121   2.583  0.2392 -0.3016 -0.6096
 3647SOL      O15031   0.340   3.382   1.407 -0.0162 -0.0762 -0.0484
 3647SOL     H115032   0.316   3.455   1.349 -3.9023  0.0763  1.5774
 3647SOL     H215033   0.362   3.423   1.490  0.5912 -0.5885  0.0445
 3647SOL    EPW15034   0.339   3.394   1.409 -0.3659 -0.1146  0.1349
 3648SOL      O15035   4.479   3.815   0.570  0.2785 -0.3446 -0.1610
 3648SOL     H115036   4.456   3.743   0.629  1.3701  0.8952  1.8383
 3648SOL     H215037   4.519   3.881   0.627 -0.1374  1.5978 -2.0428
 3648SOL    EPW15038   4.480   3.815   0.582  0.3506 -0.0051 -0.1485
 3649SOL      O15039   5.563   3.170   1.690 -0.6218 -0.2013 -0.6154
 3649SOL     H115040   5.624   3.203   1.624 -0.7255 -0.6173 -0.9202
 3649SOL     H215041   5.495   3.237   1.696 -0.2862  0.1283 -0.4814
 3649SOL    EPW15042   5.562   3.180   1.684 -0.5970 -0.2105 -0.6336
 3650SOL      O15043   5.542   1.941   1.710  0.7697 -0.0899  0.5004
 3650SOL     H115044   5.454   1.960   1.745  0.6907  0.2430  0.1250
 3650SOL     H215045   5.584   2.027   1.703  0.5903 -0.0912 -0.7455
 3650SOL    EPW15046   5.537   1.952   1.713  0.7421 -0.0546  0.3274
 3651SOL      O15047   4.249   4.623   0.610 -0.1342  0.6641 -0.4101
 3651SOL     H115048   4.209   4.556   0.554  0.0906  1.6837 -1.8001
 3651SOL     H215049   4.204   4.613   0.694  0.5031 -1.8163 -0.3187
 3651SOL    EPW15050   4.240   4.615   0.613 -0.0423  0.5082 -0.5486
 3652SOL      O15051   0.013   3.837   2.411 -0.0876  0.1914  0.2675
 3652SOL     H115052  -0.033   3.797   2.336  0.5369 -0.1293  0.0558
 3652SOL     H215053   0.003   3.773   2.482  2.1279 -1.0316 -0.4641
 3652SOL    EPW15054   0.007   3.826   2.410  0.2154  0.0267  0.1669
 3653SOL      O15055   4.507   2.314   1.043 -0.3114  0.0376 -0.1324
 3653SOL     H115056   4.476   2.225   1.024  1.7875 -0.8813  0.6062
 3653SOL     H215057   4.555   2.305   1.125  0.2060  1.8051 -0.2331
 3653SOL    EPW15058   4.509   2.303   1.050 -0.0323  0.1281 -0.0644
 3654SOL      O15059   5.039   2.088   1.688 -0.4240  0.3967  0.0098
 3654SOL     H115060   5.065   2.174   1.654 -1.6411  0.3353 -1.1627
 3654SOL     H215061   4.954   2.071   1.646 -0.6086 -0.9938  0.9027
 3654SOL    EPW15062   5.033   2.096   1.680 -0.5735  0.2418 -0.0200
 3655SOL      O15063   5.492   3.860   1.469 -0.0395  0.3522 -0.1730
 3655SOL     H115064   5.480   3.812   1.387  0.1518  0.3406 -0.1943
 3655SOL     H215065   5.412   3.844   1.518 -0.0558  0.1658 -0.2598
 3655SOL    EPW15066   5.482   3.854   1.465 -0.0208  0.3311 -0.1845
 3656SOL      O15067   1.652   5.462   3.753 -0.2937 -0.2481  0.0040
 3656SOL     H115068   1.582   5.441   3.815 -0.2729 -2.0663 -0.5402
 3656SOL     H215069   1.713   5.516   3.802 -1.5208  0.4239  0.8202
 3656SOL    EPW15070   1.651   5.465   3.765 -0.4224 -0.3704  0.0330
 3657SOL      O15071   4.329   2.979   2.092  0.0004  0.3294 -0.0030
 3657SOL     H115072   4.416   2.977   2.052  0.5324 -2.1614  1.2331
 3657SOL     H215073   4.340   3.028   2.173 -0.6234  3.4580 -1.7276
 3657SOL    EPW15074   4.339   2.984   2.096 -0.0094  0.3975 -0.0551
 3658SOL      O15075   0.367   1.691   0.133  0.9555 -0.0167 -0.2320
 3658SOL     H115076   0.295   1.667   0.075  1.8605  0.0988 -1.4151
 3658SOL     H215077   0.350   1.641   0.213 -1.5818  1.6124  0.3029
 3658SOL    EPW15078   0.357   1.683   0.136  0.7813  0.1694 -0.3011
 3659SOL      O15079   1.469   5.221   3.370  0.0252  0.1925  0.1620
 3659SOL     H115080   1.546   5.242   3.422 -0.1277 -1.6694  1.1945
 3659SOL     H215081   1.501   5.159   3.305 -0.6463 -0.8113  0.7791
 3659SOL    EPW15082   1.480   5.217   3.369 -0.0627 -0.1132  0.3380
 3660SOL      O15083   4.989   2.475   2.448 -0.4129  0.5060  0.4994
 3660SOL     H115084   4.950   2.417   2.514  0.7009  0.4604  1.1398
 3660SOL     H215085   4.915   2.506   2.396 -1.4772  1.6426  2.6364
 3660SOL    EPW15086   4.977   2.472   2.449 -0.4076  0.6224  0.7957
 3661SOL      O15087   0.786   3.690   1.324 -0.4267  0.3598 -1.2432
 3661SOL     H115088   0.730   3.670   1.399 -0.1000  2.0758 -0.5292
 3661SOL     H215089   0.771   3.617   1.263 -0.3053 -1.3323  0.6959
 3661SOL    EPW15090   0.779   3.680   1.325 -0.3789  0.3624 -0.9602
 3662SOL      O15091   2.956   3.972   1.693 -0.1990  0.0449 -0.7935
 3662SOL     H115092   2.991   3.946   1.779  1.7680  1.1760 -1.2258
 3662SOL     H215093   2.926   3.890   1.654 -3.3188 -0.2166  1.8916
 3662SOL    EPW15094   2.956   3.961   1.698 -0.3220  0.1377 -0.5532
 3663SOL      O15095   3.823   3.952   0.607 -0.7679  0.3549 -0.2491
 3663SOL     H115096   3.880   3.877   0.628 -0.1170  0.8862 -0.1067
 3663SOL     H215097   3.884   4.024   0.593 -1.4218  0.9651  0.0547
 3663SOL    EPW15098   3.836   3.952   0.608 -0.7682  0.4767 -0.2015
 3664SOL      O15099   5.332   4.369   0.069 -0.5517 -0.3610 -0.4568
 3664SOL     H115100   5.389   4.325   0.006  0.9280  1.7620 -0.6410
 3664SOL     H215101   5.364   4.339   0.154  0.2911  0.1494 -0.5870
 3664SOL    EPW15102   5.342   4.361   0.071 -0.3040 -0.0801 -0.4904
 3665SOL      O15103   0.276   4.525   0.741  0.1260  0.2434  0.8106
 3665SOL     H115104   0.291   4.505   0.833 -0.5158 -1.0899  0.6392
 3665SOL     H215105   0.362   4.513   0.699  0.3796  0.6925  1.1953
 3665SOL    EPW15106   0.287   4.522   0.746  0.0846  0.1490  0.8333
 3666SOL      O15107   1.957   4.803   3.004 -0.0548  0.0775  0.7884
 3666SOL     H115108   1.892   4.774   2.939  0.8985 -2.0339  0.7479
 3666SOL     H215109   2.025   4.845   2.952  0.8784 -1.9308  0.3763
 3666SOL    EPW15110   1.957   4.805   2.991  0.1464 -0.3619  0.7401
 3667SOL      O15111   4.208   1.892   2.053 -0.4608  0.4187 -0.0554
 3667SOL     H115112   4.149   1.870   2.125 -2.3142  0.8293 -1.4017
 3667SOL     H215113   4.220   1.986   2.060  0.5971  0.2431  0.6126
 3667SOL    EPW15114   4.203   1.900   2.061 -0.5457  0.4437 -0.1277
 3668SOL      O15115   4.900   2.270   0.157 -0.6614  0.2168 -0.5259
 3668SOL     H115116   4.900   2.353   0.206 -0.1571  0.6420 -1.2483
 3668SOL     H215117   4.809   2.242   0.159 -0.6359  0.1670  0.7653
 3668SOL    EPW15118   4.890   2.276   0.163 -0.6049  0.2568 -0.4652
 3669SOL      O15119   3.995   2.279   0.746  0.5383  0.0020 -0.7336
 3669SOL     H115120   3.989   2.198   0.796  3.5515 -0.6423 -1.3059
 3669SOL     H215121   3.918   2.329   0.772 -0.6476 -2.4380  0.6733
 3669SOL    EPW15122   3.986   2.275   0.754  0.7332 -0.3270 -0.6446
 3670SOL      O15123   2.980   2.043   1.030 -0.2542  0.5613 -0.5555
 3670SOL     H115124   3.050   1.983   1.006  0.4266  1.3022 -0.4750
 3670SOL     H215125   3.003   2.125   0.986 -0.4517  1.1367  0.3908
 3670SOL    EPW15126   2.990   2.046   1.023 -0.2027  0.7017 -0.4460
 3671SOL      O15127   3.783   3.841   2.147  0.1707 -0.4301 -0.0272
 3671SOL     H115128   3.866   3.823   2.103  0.2600  1.8556 -0.8518
 3671SOL     H215129   3.747   3.917   2.101 -1.0943  0.2755  2.0223
 3671SOL    EPW15130   3.788   3.847   2.138  0.0453 -0.1110  0.1035
 3672SOL      O15131   5.610   2.230   0.940  0.3512  0.5090 -0.2173
 3672SOL     H115132   5.554   2.268   0.872 -0.8545 -0.2218  0.3622
 3672SOL     H215133   5.634   2.304   0.995 -1.7396  0.5128  0.7300
 3672SOL    EPW15134   5.607   2.242   0.938 -0.0004  0.4314 -0.0544
 3673SOL      O15135   4.429   2.611   0.364  0.9193 -0.5167  0.3908
 3673SOL     H115136   4.355   2.577   0.314  0.2620 -1.1691  1.7881
 3673SOL     H215137   4.399   2.695   0.398  0.4751 -1.2080  1.7319
 3673SOL    EPW15138   4.418   2.616   0.363  0.8018 -0.6600  0.6830
 3674SOL      O15139   0.707   0.901   0.962 -0.4479  0.0085  0.6026
 3674SOL     H115140   0.618   0.905   0.927 -0.2869 -0.8651  0.0661
 3674SOL     H215141   0.713   0.976   1.021 -2.3940 -1.4092  2.6736
 3674SOL    EPW15142   0.698   0.909   0.964 -0.6383 -0.2359  0.7663
 3675SOL      O15143   4.705   1.486   1.096  0.2775 -0.0249  0.4739
 3675SOL     H115144   4.644   1.470   1.023  0.9796  1.1224 -0.3713
 3675SOL     H215145   4.730   1.398   1.125  0.3833 -0.5073 -1.0038
 3675SOL    EPW15146   4.701   1.475   1.091  0.3637  0.0461  0.2261
 3676SOL      O15147   5.796   2.880   1.117 -0.2924 -0.5812  0.5351
 3676SOL     H115148   5.726   2.876   1.182 -0.6925 -2.0677  0.0315
 3676SOL     H215149   5.792   2.795   1.072  0.1811  0.3011 -1.2114
 3676SOL    EPW15150   5.788   2.870   1.119 -0.2845 -0.6457  0.2951
 3677SOL      O15151   4.296   2.901   0.263  0.2443  0.2677 -0.4081
 3677SOL     H115152   4.271   2.971   0.203 -0.5872  0.5382  0.2360
 3677SOL     H215153   4.383   2.874   0.235  0.3401  1.1917 -1.0012
 3677SOL    EPW15154   4.302   2.905   0.254  0.1658  0.3951 -0.4027
 3678SOL      O15155   0.022   1.909   0.310 -0.1326  0.2463  0.5756
 3678SOL     H115156   0.011   1.956   0.227  0.0108  2.8281  1.9492
 3678SOL     H215157  -0.066   1.883   0.334 -0.6170  2.2843  1.1334
 3678SOL    EPW15158   0.011   1.911   0.304 -0.1689  0.7392  0.7817
 3679SOL      O15159   3.605   2.172   0.899  0.3090  0.5449 -0.0293
 3679SOL     H115160   3.601   2.137   0.810 -1.8741  0.4959  0.0727
 3679SOL     H215161   3.645   2.102   0.951  0.1976 -0.0045 -0.6886
 3679SOL    EPW15162   3.609   2.161   0.895  0.0643  0.4810 -0.0888
 3680SOL      O15163   1.328   4.550   2.880 -0.6622  0.1268  0.4018
 3680SOL     H115164   1.396   4.535   2.815  0.3199  1.0657  1.1897
 3680SOL     H215165   1.351   4.493   2.953  0.1697  1.5950  1.3035
 3680SOL    EPW15166   1.337   4.542   2.881 -0.4687  0.3836  0.5821
 3681SOL      O15167   2.785   3.199   0.840  0.2805 -0.5040 -0.2227
 3681SOL     H115168   2.768   3.284   0.881  0.1057 -1.5094  1.8220
 3681SOL     H215169   2.709   3.184   0.785 -0.3933 -0.0144  0.5600
 3681SOL    EPW15170   2.775   3.207   0.839  0.1900 -0.5591  0.0790
 3682SOL      O15171   5.601   2.560   1.418  0.4334 -0.1605  0.4144
 3682SOL     H115172   5.697   2.559   1.421  0.3925 -0.1942  2.4330
 3682SOL     H215173   5.575   2.490   1.478 -0.8675  1.0141  1.2296
 3682SOL    EPW15174   5.609   2.552   1.425  0.2903 -0.0388  0.7167
 3683SOL      O15175   4.168   4.480   0.142  0.1148  0.2676 -0.3895
 3683SOL     H115176   4.079   4.506   0.118  1.1120  1.8571 -2.5432
 3683SOL     H215177   4.172   4.387   0.121 -0.4609  0.6188 -2.1455
 3683SOL    EPW15178   4.159   4.473   0.137  0.1598  0.4746 -0.8066
 3684SOL      O15179   4.215   2.746   1.074 -0.3733 -0.2703  1.3613
 3684SOL     H115180   4.217   2.826   1.126  0.4525  0.4390  0.2599
 3684SOL     H215181   4.131   2.748   1.028  0.4820  0.9400 -0.1644
 3684SOL    EPW15182   4.206   2.755   1.075 -0.1940 -0.0655  1.0810
 3685SOL      O15183   5.020   2.955   1.927  0.0904 -0.1060  0.4610
 3685SOL     H115184   5.077   2.879   1.936  0.9446  0.1195 -2.6145
 3685SOL     H215185   5.072   3.028   1.959  1.4662  0.0536 -2.0638
 3685SOL    EPW15186   5.031   2.954   1.931  0.3283 -0.0649 -0.1364
 3686SOL      O15187   5.558   2.663   1.956  0.5306 -0.2622  0.3284
 3686SOL     H115188   5.619   2.614   2.011 -0.1932 -2.0178 -0.4158
 3686SOL     H215189   5.504   2.596   1.913  0.3830  1.1039 -1.7029
 3686SOL    EPW15190   5.559   2.651   1.957  0.4377 -0.3038  0.0323
 3687SOL      O15191   3.641   3.805   0.425  0.2295 -0.4157  0.2912
 3687SOL     H115192   3.708   3.856   0.472  1.3890 -1.3639 -0.3104
 3687SOL     H215193   3.691   3.746   0.369 -1.1313  1.1461 -2.6679
 3687SOL    EPW15194   3.654   3.804   0.424  0.2081 -0.3503 -0.0886
 3688SOL      O15195   4.638   2.135   0.217  0.2225 -0.4635 -0.1370
 3688SOL     H115196   4.657   2.056   0.268  0.5165 -0.3614 -0.0854
 3688SOL     H215197   4.652   2.207   0.279 -1.1483 -0.4249  0.1330
 3688SOL    EPW15198   4.642   2.134   0.229  0.1077 -0.4485 -0.1027
 3689SOL      O15199   4.090   3.980   1.363  0.3819  0.0395  0.1377
 3689SOL     H115200   4.077   3.949   1.273  1.7887  1.9745 -0.7733
 3689SOL     H215201   4.184   3.990   1.372  0.2127  0.3861  1.6686
 3689SOL    EPW15202   4.098   3.978   1.354  0.5139  0.2829  0.2038
 3690SOL      O15203   4.602   1.773   0.776  0.1228 -0.2782  0.1673
 3690SOL     H115204   4.532   1.751   0.837  0.0969  0.7496  0.5257
 3690SOL     H215205   4.563   1.763   0.690 -0.8167  1.3296  0.3776
 3690SOL    EPW15206   4.591   1.770   0.774  0.0198  0.0029  0.2280
 3691SOL      O15207   4.821   3.347   1.303  0.0196  0.2400 -0.2674
 3691SOL     H115208   4.764   3.415   1.339 -1.3218 -1.2933  0.6044
 3691SOL     H215209   4.842   3.292   1.378 -1.1181 -1.8256 -1.4175
 3691SOL    EPW15210   4.817   3.349   1.315 -0.2449 -0.1439 -0.2971
 3692SOL      O15211   3.534   3.742   1.836 -0.2240 -0.8128 -0.2238
 3692SOL     H115212   3.571   3.683   1.902 -1.5628 -0.9021  0.4663
 3692SOL     H215213   3.536   3.828   1.876 -2.1838 -1.0531  0.4491
 3692SOL    EPW15214   3.538   3.745   1.847 -0.5759 -0.8479 -0.0784
 3693SOL      O15215   5.266   1.468   1.469  0.1684  0.9966 -0.0228
 3693SOL     H115216   5.247   1.536   1.403 -0.7393  2.4069  1.6520
 3693SOL     H215217   5.329   1.410   1.425 -0.5472  1.7913 -2.1969
 3693SOL    EPW15218   5.271   1.469   1.457 -0.0048  1.2318 -0.0760
 3694SOL      O15219   5.454   2.747   3.246  0.7948 -0.4873  0.1906
 3694SOL     H115220   5.489   2.681   3.187  2.5390 -1.3889  2.1577
 3694SOL     H215221   5.367   2.716   3.270  0.8071 -1.0274 -0.4723
 3694SOL    EPW15222   5.449   2.737   3.242  0.9822 -0.6411  0.3298
 3695SOL      O15223   5.137   2.165   2.191 -0.7088 -0.3717 -0.3153
 3695SOL     H115224   5.174   2.218   2.262 -1.1280 -1.1896  0.5238
 3695SOL     H215225   5.200   2.094   2.179 -1.0281 -0.6728 -0.2237
 3695SOL    EPW15226   5.148   2.163   2.197 -0.7875 -0.4910 -0.2160
 3696SOL      O15227   5.329   3.670   0.100 -0.0827 -0.3803 -0.8194
 3696SOL     H115228   5.377   3.605   0.050 -1.9757 -2.0994 -0.4710
 3696SOL     H215229   5.237   3.655   0.077 -0.7209  0.7831  0.8579
 3696SOL    EPW15230   5.324   3.662   0.092 -0.3527 -0.4396 -0.6033
 3697SOL      O15231   0.504   5.326   4.141 -0.2813  0.1763  0.3969
 3697SOL     H115232   0.582   5.282   4.105 -1.7307 -1.1071 -1.3012
 3697SOL     H215233   0.529   5.418   4.146  0.6653  0.1143 -2.1605
 3697SOL    EPW15234   0.515   5.331   4.137 -0.3350  0.0327 -0.0571
 3698SOL      O15235   5.484   1.691   0.394  0.7056 -0.3334 -0.1814
 3698SOL     H115236   5.526   1.736   0.321  3.2080 -0.7535  0.9405
 3698SOL     H215237   5.451   1.761   0.451  1.4978  0.0383 -0.1770
 3698SOL    EPW15238   5.485   1.703   0.392  1.0570 -0.3386 -0.0613
 3699SOL      O15239   3.855   1.267   0.348 -0.3376 -0.0126 -0.4286
 3699SOL     H115240   3.851   1.187   0.295  1.2189  0.2635 -1.0028
 3699SOL     H215241   3.897   1.239   0.429  1.7971  0.5314 -1.3035
 3699SOL    EPW15242   3.859   1.255   0.351  0.0562  0.0749 -0.5832
 3700SOL      O15243   5.020   1.106   1.048  0.2274  0.0742  0.0688
 3700SOL     H115244   5.075   1.185   1.051 -0.7352  1.0340 -3.7677
 3700SOL     H215245   5.075   1.040   1.007  0.4916 -0.7857  1.7906
 3700SOL    EPW15246   5.031   1.108   1.044  0.1529  0.0849 -0.1567
 3701SOL      O15247   5.458   4.782   0.175  0.9119 -0.6299  0.4706
 3701SOL     H115248   5.509   4.822   0.244 -0.2440  0.8978  0.4664
 3701SOL     H215249   5.408   4.713   0.219  1.8835 -1.1892  0.7199
 3701SOL    EPW15250   5.458   4.779   0.187  0.8922 -0.5266  0.4968
 3702SOL      O15251   1.839   0.081   3.586  0.2356 -0.0613  0.4172
 3702SOL     H115252   1.778   0.076   3.512 -0.6073 -0.7191  1.1375
 3702SOL     H215253   1.834   0.172   3.615 -0.6505 -0.1765  0.6586
 3702SOL    EPW15254   1.832   0.090   3.581  0.0511 -0.1438  0.5198
 3703SOL      O15255   2.665   4.192   3.547 -0.0009 -0.1256  0.9790
 3703SOL     H115256   2.637   4.132   3.479  1.5697  1.8896 -1.5313
 3703SOL     H215257   2.761   4.186   3.547  0.0074 -0.6955  3.6057
 3703SOL    EPW15258   2.672   4.185   3.540  0.1676  0.0285  0.9914
 3704SOL      O15259   0.413   2.559   0.856 -0.3202  0.2128  0.2392
 3704SOL     H115260   0.429   2.585   0.765 -0.4731 -0.8733 -0.1017
 3704SOL     H215261   0.422   2.464   0.856  0.3583  0.2660  1.5029
 3704SOL    EPW15262   0.416   2.552   0.846 -0.2641  0.1026  0.3376
 3705SOL      O15263   4.977   1.458   1.426 -0.0708 -0.2569  0.1296
 3705SOL     H115264   5.069   1.453   1.450  0.5602  2.9178 -1.4047
 3705SOL     H215265   4.949   1.366   1.421  3.2328 -1.3126 -0.3447
 3705SOL    EPW15266   4.984   1.448   1.428  0.3489 -0.0309 -0.0847
 3706SOL      O15267   5.625   3.056   0.142  0.0291 -0.2787 -0.3842
 3706SOL     H115268   5.638   2.970   0.183 -0.3281  0.9063  2.3203
 3706SOL     H215269   5.712   3.095   0.141 -0.2786  0.4736  1.0931
 3706SOL    EPW15270   5.636   3.051   0.146 -0.0418 -0.0721  0.0619
 3707SOL      O15271   4.533   3.158   0.511  0.4025  0.0686  0.2411
 3707SOL     H115272   4.557   3.149   0.603 -1.5000  1.1046  0.8599
 3707SOL     H215273   4.569   3.243   0.485  1.2042 -0.3588 -0.0740
 3707SOL    EPW15274   4.540   3.166   0.518  0.2850  0.1335  0.2735
 3708SOL      O15275   4.234   0.976   1.648  0.2178  0.0474 -0.5498
 3708SOL     H115276   4.294   0.976   1.574 -0.1163  1.9925 -0.8663
 3708SOL     H215277   4.147   0.986   1.609 -0.0538  0.0116  0.0297
 3708SOL    EPW15278   4.231   0.977   1.636  0.1532  0.2511 -0.5218
 3709SOL      O15279   4.549   1.730   1.396 -0.5261  0.0493  0.0112
 3709SOL     H115280   4.486   1.723   1.324 -0.7277  2.6571 -0.1199
 3709SOL     H215281   4.635   1.716   1.354 -0.8341 -1.2296 -0.2156
 3709SOL    EPW15282   4.552   1.728   1.384 -0.5805  0.1911 -0.0270
 3710SOL      O15283   4.171   2.643   1.504  0.2802 -0.4256  0.4993
 3710SOL     H115284   4.161   2.657   1.598 -0.2266 -0.7574  0.4953
 3710SOL     H215285   4.189   2.550   1.495 -0.2956 -0.5125  0.2218
 3710SOL    EPW15286   4.172   2.635   1.513  0.1647 -0.4703  0.4693
 3711SOL      O15287   1.351   4.605   4.061 -0.2892  0.6646  0.7145
 3711SOL     H115288   1.306   4.550   4.124  1.3973 -0.6949  0.7659
 3711SOL     H215289   1.290   4.612   3.987 -1.5641  0.8608  1.7715
 3711SOL    EPW15290   1.340   4.600   4.060 -0.2453  0.5405  0.8328
 3712SOL      O15291   1.578   5.734   2.782  0.7618 -0.1977 -0.1765
 3712SOL     H115292   1.536   5.750   2.867 -0.2897 -0.8504 -0.5671
 3712SOL     H215293   1.648   5.672   2.802  0.5006 -0.3680  0.2089
 3712SOL    EPW15294   1.581   5.729   2.793  0.6218 -0.2855 -0.1771
 3713SOL      O15295   3.599   2.915   0.324 -0.9002  0.3131 -0.2037
 3713SOL     H115296   3.690   2.898   0.299 -0.9942 -2.5925  1.2732
 3713SOL     H215297   3.604   2.981   0.393  0.1252 -0.0800  0.1007
 3713SOL    EPW15298   3.609   2.920   0.328 -0.8009 -0.0388 -0.0137
 3714SOL      O15299   4.752   3.487   1.852  0.1578  0.3695  0.6797
 3714SOL     H115300   4.679   3.544   1.826  0.0596  0.0073  0.1573
 3714SOL     H215301   4.815   3.546   1.894  0.0786  0.8686  0.0992
 3714SOL    EPW15302   4.751   3.499   1.854  0.1389  0.3841  0.5621
 3715SOL      O15303   4.956   0.005   0.294 -0.8338  0.3203  0.2098
 3715SOL     H115304   4.906  -0.057   0.241 -1.3272  0.3747  0.6036
 3715SOL     H215305   4.915   0.089   0.278 -1.3928  0.2399  1.1559
 3715SOL    EPW15306   4.946   0.007   0.287 -0.9460  0.3175  0.3527
 3716SOL      O15307   1.023   4.660   3.636  0.1951 -0.4630 -0.1049
 3716SOL     H115308   0.961   4.588   3.652  0.5003 -1.0096 -1.3172
 3716SOL     H215309   0.973   4.724   3.586  0.6661 -1.0128 -1.2959
 3716SOL    EPW15310   1.011   4.659   3.632  0.2779 -0.5799 -0.3613
 3717SOL      O15311   0.517   2.570   1.579  0.1185  0.8507  0.2634
 3717SOL     H115312   0.519   2.658   1.541 -0.6543  1.2691  1.1827
 3717SOL     H215313   0.434   2.566   1.626 -0.6699 -0.9906 -1.2161
 3717SOL    EPW15314   0.509   2.579   1.580 -0.0481  0.6989  0.2037
 3718SOL      O15315   4.373   1.484   2.505  0.5250 -0.5438 -0.8611
 3718SOL     H115316   4.371   1.532   2.422 -1.9028  1.7901  0.4721
 3718SOL     H215317   4.287   1.443   2.511  0.1150  0.5256  1.1537
 3718SOL    EPW15318   4.364   1.485   2.497  0.2222 -0.1807 -0.5039
 3719SOL      O15319   4.427   1.784   1.170  0.5212 -0.2669  0.4007
 3719SOL     H115320   4.447   1.875   1.147 -1.9766  0.4322  0.8640
 3719SOL     H215321   4.398   1.745   1.088 -0.2712 -0.1091  0.6065
 3719SOL    EPW15322   4.426   1.790   1.159  0.1702 -0.1755  0.4721
 3720SOL      O15323   3.982   2.546   0.007  0.0131 -0.0308  0.1118
 3720SOL     H115324   3.927   2.543   0.085 -2.0689  1.0787 -1.2635
 3720SOL     H215325   3.938   2.487  -0.055  2.3170 -1.8761  0.1661
 3720SOL    EPW15326   3.972   2.539   0.009  0.0368 -0.1093 -0.0291
 3721SOL      O15327   4.813   5.483   2.826 -0.5106 -0.1856 -0.4388
 3721SOL     H115328   4.806   5.575   2.804  1.0942 -0.4533 -2.1771
 3721SOL     H215329   4.829   5.439   2.742 -2.4895 -2.1891  0.1675
 3721SOL    EPW15330   4.814   5.488   2.815 -0.5505 -0.4279 -0.5595
 3722SOL      O15331   4.089   2.894   1.406  0.5316  0.2477  0.1674
 3722SOL     H115332   4.008   2.891   1.355  0.9627  1.1616 -0.5585
 3722SOL     H215333   4.109   2.802   1.423 -1.4422  0.0199  1.6038
 3722SOL    EPW15334   4.082   2.884   1.403  0.3670  0.3209  0.2432
 3723SOL      O15335   5.389   0.874   1.484  0.1111 -0.0017 -0.0167
 3723SOL     H115336   5.436   0.933   1.426 -2.1067  0.1797 -1.6963
 3723SOL     H215337   5.364   0.929   1.559 -0.7076  0.8673 -0.9067
 3723SOL    EPW15338   5.391   0.886   1.486 -0.2128  0.1104 -0.2908
 3724SOL      O15339   4.932   2.740   1.587  0.3317  0.1162 -0.1451
 3724SOL     H115340   4.955   2.698   1.670 -0.8866 -0.1159  0.0786
 3724SOL     H215341   5.017   2.763   1.549  0.9519 -0.8124  0.6211
 3724SOL    EPW15342   4.944   2.738   1.592  0.2679 -0.0076 -0.0395
 3725SOL      O15343   3.513   3.571   0.539  0.5043  0.0157  0.3645
 3725SOL     H115344   3.439   3.596   0.484  1.8885 -2.0088 -2.5863
 3725SOL     H215345   3.578   3.640   0.526  1.4638 -1.2596 -1.9471
 3725SOL    EPW15346   3.512   3.581   0.531  0.7543 -0.3363 -0.1969
 3726SOL      O15347   5.347   2.784   1.656 -0.5965  0.1787 -0.4970
 3726SOL     H115348   5.284   2.790   1.585 -2.7374  0.1667  1.3360
 3726SOL     H215349   5.324   2.857   1.714  1.7112  0.7609 -0.2703
 3726SOL    EPW15350   5.338   2.793   1.655 -0.5787  0.2396 -0.2773
 3727SOL      O15351   4.454   3.772   2.040 -0.0393 -0.2394 -0.1253
 3727SOL     H115352   4.524   3.745   2.100 -0.1778 -0.4047 -0.0340
 3727SOL     H215353   4.476   3.731   1.957  0.4225  0.4133 -0.3203
 3727SOL    EPW15354   4.464   3.765   2.038 -0.0048 -0.1874 -0.1363
 3728SOL      O15355   2.852   2.954   1.420  0.1352 -0.8571  0.5080
 3728SOL     H115356   2.913   2.901   1.370  1.3621  2.6441 -1.9362
 3728SOL     H215357   2.908   3.005   1.479 -0.5510  1.0388 -0.4370
 3728SOL    EPW15358   2.865   2.954   1.421  0.1929 -0.2813  0.1464
 3729SOL      O15359   4.015   3.313   2.667  0.9363 -0.6901 -0.3464
 3729SOL     H115360   4.002   3.406   2.685  1.1332 -0.6954 -0.1692
 3729SOL     H215361   3.975   3.299   2.581 -0.5971 -0.8066  0.3810
 3729SOL    EPW15362   4.009   3.322   2.659  0.7938 -0.7031 -0.2499
 3730SOL      O15363   4.673   3.795   0.028  0.0462  0.0813 -0.0418
 3730SOL     H115364   4.639   3.867  -0.025 -2.4652 -1.5463 -0.7394
 3730SOL     H215365   4.641   3.813   0.117  0.3370  0.3880  0.0013
 3730SOL    EPW15366   4.666   3.804   0.032 -0.1907 -0.0596 -0.1116
 3731SOL      O15367   2.301   5.721   4.023 -0.6445 -0.5228  0.2473
 3731SOL     H115368   2.265   5.809   4.015  2.0935  0.4350 -2.6170
 3731SOL     H215369   2.232   5.664   3.988 -1.6263  0.6833  0.1756
 3731SOL    EPW15370   2.290   5.724   4.018 -0.4572 -0.2919 -0.0659
 3732SOL      O15371   3.461   1.282   2.161 -1.0935 -0.3069 -0.5069
 3732SOL     H115372   3.552   1.254   2.170 -1.4457 -1.1301  0.6534
 3732SOL     H215373   3.446   1.339   2.236 -2.1523 -1.9014  0.5192
 3732SOL    EPW15374   3.469   1.285   2.170 -1.2440 -0.5648 -0.2737
 3733SOL      O15375   3.138   1.355   3.595  0.3819  0.0096 -0.5063
 3733SOL     H115376   3.080   1.324   3.664  1.3248  0.1092  0.3349
 3733SOL     H215377   3.085   1.417   3.545 -0.5114 -0.5753 -0.2812
 3733SOL    EPW15378   3.126   1.359   3.597  0.3872 -0.0422 -0.3925
 3734SOL      O15379   4.915   2.767   2.191 -0.4881  0.2087  0.0109
 3734SOL     H115380   4.985   2.826   2.218 -1.4510  1.7030 -0.6728
 3734SOL     H215381   4.856   2.822   2.139 -2.0403 -1.0728  0.3757
 3734SOL    EPW15382   4.916   2.779   2.188 -0.7564  0.2314 -0.0231
 3735SOL      O15383   1.140   4.167   3.593 -0.3274  0.4838 -0.1156
 3735SOL     H115384   1.221   4.201   3.555 -1.2749  1.5195 -1.2500
 3735SOL     H215385   1.154   4.073   3.598  1.1542  0.7075  0.2037
 3735SOL    EPW15386   1.150   4.161   3.589 -0.2704  0.6181 -0.2025
 3736SOL      O15387   2.836   5.068   3.943 -0.4516  0.0576  0.2025
 3736SOL     H115388   2.851   5.030   3.856  3.3704  0.8113  0.4462
 3736SOL     H215389   2.837   4.993   4.002 -0.2714 -0.1832 -0.1030
 3736SOL    EPW15390   2.837   5.056   3.940 -0.0246  0.1123  0.1959
 3737SOL      O15391   0.158   2.342   2.465 -0.4079 -0.3900 -0.3490
 3737SOL     H115392   0.128   2.426   2.431 -0.7594 -0.2278  0.3499
 3737SOL     H215393   0.247   2.358   2.495 -1.7478  0.7322  3.2831
 3737SOL    EPW15394   0.164   2.353   2.464 -0.5883 -0.2529  0.1130
 3738SOL      O15395   5.791   2.182   3.925 -0.3744 -0.2260 -0.1138
 3738SOL     H115396   5.794   2.169   3.830 -1.4758 -1.5557  0.0192
 3738SOL     H215397   5.872   2.228   3.946 -0.5214  0.8374 -1.8093
 3738SOL    EPW15398   5.800   2.186   3.917 -0.5076 -0.2544 -0.2805
 3739SOL      O15399   4.600   2.371   2.222 -0.0844 -0.0966 -0.0264
 3739SOL     H115400   4.647   2.287   2.223 -1.7341 -1.0627 -0.7596
 3739SOL     H215401   4.657   2.431   2.270  1.1085 -1.6483  0.5496
 3739SOL    EPW15402   4.611   2.368   2.227 -0.1331 -0.3652 -0.0432
 3740SOL      O15403   4.410   2.328   3.321 -0.0190 -0.1422  0.1523
 3740SOL     H115404   4.321   2.299   3.340  0.3842 -2.3883 -1.2992
 3740SOL     H215405   4.465   2.278   3.380  0.3216  1.0122  0.8247
 3740SOL    EPW15406   4.406   2.320   3.329  0.0603 -0.2587  0.0692
 3741SOL      O15407   5.813   3.950   4.003  0.1570  0.3446  0.3632
 3741SOL     H115408   5.815   3.875   3.943 -0.1210  0.9679 -0.4371
 3741SOL     H215409   5.896   3.945   4.050 -0.0164 -0.6769  0.5914
 3741SOL    EPW15410   5.822   3.941   4.002  0.1088  0.3022  0.3022
 3742SOL      O15411   5.011   3.163   3.225 -0.3670  0.3784 -0.2783
 3742SOL     H115412   5.102   3.145   3.200  0.0323  0.4232  1.1088
 3742SOL     H215413   4.996   3.253   3.196  0.0575  0.4040 -0.4250
 3742SOL    EPW15414   5.019   3.171   3.219 -0.2791  0.3859 -0.1459
 3743SOL      O15415   2.652   2.841   1.128 -0.1138  0.0026  0.3451
 3743SOL     H115416   2.671   2.785   1.203 -1.3230  1.7341  1.9821
 3743SOL     H215417   2.738   2.864   1.093  0.5957  1.4286  2.9105
 3743SOL    EPW15418   2.663   2.837   1.132 -0.1671  0.3394  0.7934
 3744SOL      O15419   3.002   2.621   3.740 -0.1732 -0.0413  0.4220
 3744SOL     H115420   2.984   2.641   3.648  0.0211 -1.7234  0.0075
 3744SOL     H215421   3.074   2.679   3.763  0.4094 -0.2695 -0.7613
 3744SOL    EPW15422   3.007   2.629   3.732 -0.0903 -0.2450  0.2515
 3745SOL      O15423   4.604   2.693   2.031 -0.3153  0.7074  0.0923
 3745SOL     H115424   4.556   2.691   2.114 -1.4183  0.4405 -0.5291
 3745SOL     H215425   4.671   2.759   2.043 -0.1165  0.2779  1.3883
 3745SOL    EPW15426   4.606   2.700   2.041 -0.4118  0.6331  0.1643
 3746SOL      O15427   5.161   2.196   3.794  0.8466 -0.0388  0.5148
 3746SOL     H115428   5.111   2.142   3.734 -0.1959  0.6699  0.7345
 3746SOL     H215429   5.231   2.234   3.740  0.7133 -0.4588  0.0487
 3746SOL    EPW15430   5.163   2.195   3.782  0.7212 -0.0080  0.4885
 3747SOL      O15431   3.583   1.876   3.492  0.8170 -0.2798  0.4875
 3747SOL     H115432   3.623   1.868   3.406  1.3570 -0.1523  0.7254
 3747SOL     H215433   3.611   1.797   3.539  1.0734 -0.0313  0.7631
 3747SOL    EPW15434   3.590   1.867   3.488  0.9019 -0.2397  0.5422
 3748SOL      O15435   5.095   2.772   4.030 -0.4027  0.0370  0.1954
 3748SOL     H115436   5.013   2.734   3.998 -0.0686 -0.1795 -0.4206
 3748SOL     H215437   5.137   2.809   3.952  1.5118 -2.5347 -0.0912
 3748SOL    EPW15438   5.091   2.772   4.018 -0.1628 -0.2604  0.0991
 3749SOL      O15439   3.841   1.198   3.777  0.3563  0.1397  0.3900
 3749SOL     H115440   3.832   1.106   3.802  1.1438 -0.2814 -0.8103
 3749SOL     H215441   3.915   1.229   3.829 -1.7364  0.9173  2.9735
 3749SOL    EPW15442   3.848   1.191   3.785  0.2170  0.1777  0.5376
 3750SOL      O15443   4.600   1.096   2.652 -0.4917  0.3566  0.7986
 3750SOL     H115444   4.575   1.048   2.573 -0.0329 -1.3189  1.6368
 3750SOL     H215445   4.538   1.168   2.658 -1.5220 -0.4325 -0.2321
 3750SOL    EPW15446   4.591   1.098   2.645 -0.5527  0.0937  0.7781
 3751SOL      O15447   4.769   2.781   3.253  0.4647 -0.0768  1.0193
 3751SOL     H115448   4.770   2.822   3.339  1.4303  1.1518  0.4343
 3751SOL     H215449   4.838   2.826   3.204 -0.9280  0.1253 -0.8032
 3751SOL    EPW15450   4.777   2.790   3.257  0.4191  0.0758  0.7625
 3752SOL      O15451   4.639   3.360   3.071  0.2100  0.3622  0.3652
 3752SOL     H115452   4.616   3.448   3.040  1.8062  0.4553 -0.6277
 3752SOL     H215453   4.654   3.310   2.991 -2.8387 -1.4785  0.8289
 3752SOL    EPW15454   4.638   3.364   3.059  0.0550  0.1758  0.3088
 3753SOL      O15455   4.358   3.952   3.004 -0.4668 -0.3103 -0.0543
 3753SOL     H115456   4.453   3.951   2.997 -0.5206 -2.8020 -0.8136
 3753SOL     H215457   4.328   3.982   2.918 -0.4080 -1.4171 -0.4632
 3753SOL    EPW15458   4.365   3.955   2.994 -0.4663 -0.6941 -0.1789
 3754SOL      O15459   1.214   2.226   1.938  1.0433 -0.7647  0.0822
 3754SOL     H115460   1.197   2.318   1.915 -0.0235 -0.5076  1.8292
 3754SOL     H215461   1.290   2.202   1.885  1.2340  1.0778 -0.5220
 3754SOL    EPW15462   1.220   2.233   1.930  0.9498 -0.5407  0.2041
 3755SOL      O15463   4.636   1.154   2.054 -0.3974 -0.3730  0.7263
 3755SOL     H115464   4.597   1.158   1.967 -0.0557 -2.2601  0.4642
 3755SOL     H215465   4.718   1.203   2.047 -0.5739 -0.1698  0.1002
 3755SOL    EPW15466   4.641   1.160   2.044 -0.3798 -0.5526  0.6316
 3756SOL      O15467   4.142   3.172   2.015 -0.0988  0.6144  0.4792
 3756SOL     H115468   4.209   3.103   2.009 -0.0048  0.5588  1.9249
 3756SOL     H215469   4.192   3.253   2.028 -0.2471  0.8469 -0.3462
 3756SOL    EPW15470   4.155   3.173   2.016 -0.1046  0.6332  0.5453
 3757SOL      O15471   4.303   3.394   2.029 -0.0194  0.6575 -0.0948
 3757SOL     H115472   4.380   3.372   2.082 -1.4889 -0.3818  1.6588
 3757SOL     H215473   4.282   3.484   2.053 -0.4205  0.3355  0.7527
 3757SOL    EPW15474   4.309   3.401   2.037 -0.2189  0.5123  0.1827
 3758SOL      O15475   1.025   3.091   2.187  0.2206  0.2334  0.0628
 3758SOL     H115476   0.947   3.042   2.159  0.2776  0.6480 -0.8408
 3758SOL     H215477   1.054   3.136   2.108  1.4405  0.0044  0.3811
 3758SOL    EPW15478   1.020   3.090   2.175  0.3568  0.2532  0.0004
 3759SOL      O15479   4.055   2.248   1.701 -0.3491 -0.1003  0.6293
 3759SOL     H115480   4.150   2.252   1.711 -0.3361  1.6789  0.1232
 3759SOL     H215481   4.026   2.182   1.764  1.1085  0.2270  1.6584
 3759SOL    EPW15482   4.062   2.242   1.709 -0.1922  0.1244  0.6851
 3760SOL      O15483   5.223   2.617   3.359  0.1888  0.6543  0.2433
 3760SOL     H115484   5.289   2.548   3.353  0.1933  0.9006 -5.4974
 3760SOL     H215485   5.140   2.573   3.342 -0.0467  1.6635 -1.3608
 3760SOL    EPW15486   5.221   2.605   3.356  0.1641  0.7882 -0.5402
 3761SOL      O15487   0.425   1.003   0.617  0.2358 -0.6397  0.3634
 3761SOL     H115488   0.452   0.922   0.575 -0.3361  0.1544 -1.6316
 3761SOL     H215489   0.344   1.028   0.572 -0.8519 -0.1457  2.5051
 3761SOL    EPW15490   0.419   0.997   0.608  0.0587 -0.5023  0.3791
 3762SOL      O15491   2.559   5.213   0.129 -0.0524  0.0848 -0.1521
 3762SOL     H115492   2.643   5.258   0.135  0.1395 -0.2070 -0.6478
 3762SOL     H215493   2.562   5.166   0.046 -0.5138 -0.3123  0.0489
 3762SOL    EPW15494   2.568   5.213   0.121 -0.0812  0.0113 -0.1835
 3763SOL      O15495   3.868   2.386   2.785  0.4494 -0.2132  0.1504
 3763SOL     H115496   3.920   2.418   2.711 -1.8692 -1.2066 -1.9464
 3763SOL     H215497   3.841   2.298   2.760 -1.0324 -0.2652  1.8557
 3763SOL    EPW15498   3.871   2.380   2.775  0.0440 -0.3247  0.1087
 3764SOL      O15499   0.183   2.391   3.951  0.0637 -0.2616  0.0053
 3764SOL     H115500   0.233   2.310   3.942  1.0952  0.3580 -0.0353
 3764SOL     H215501   0.210   2.444   3.876 -1.1370 -0.1510 -0.3618
 3764SOL    EPW15502   0.191   2.388   3.942  0.0457 -0.1837 -0.0382
 3765SOL      O15503   5.213   2.154   0.321 -0.2389 -0.5718  0.4722
 3765SOL     H115504   5.185   2.245   0.308 -0.2024 -0.2822  2.2477
 3765SOL     H215505   5.148   2.102   0.275  0.3418  0.3857 -1.4845
 3765SOL    EPW15506   5.203   2.158   0.315 -0.1731 -0.4387  0.4528
 3766SOL      O15507   5.063   3.163   1.719  0.5143  0.5895 -0.2406
 3766SOL     H115508   5.049   3.234   1.781  3.3891  0.7483  0.2691
 3766SOL     H215509   5.041   3.084   1.767 -0.1310  0.9284  0.0256
 3766SOL    EPW15510   5.059   3.162   1.731  0.7522  0.6426 -0.1578
 3767SOL      O15511   1.914   5.016   0.082  0.4170 -0.0461  0.3398
 3767SOL     H115512   1.972   4.958   0.033  1.0832  0.6649  0.2754
 3767SOL     H215513   1.965   5.044   0.157 -0.9387 -1.8809  1.9717
 3767SOL    EPW15514   1.926   5.013   0.084  0.3435 -0.1660  0.5070
 3768SOL      O15515   5.808   2.000   2.882 -0.7645  0.3360 -0.1131
 3768SOL     H115516   5.874   2.048   2.832 -0.9474  1.5460  0.7676
 3768SOL     H215517   5.859   1.949   2.945 -0.5629 -0.7235 -1.1193
 3768SOL    EPW15518   5.820   2.000   2.884 -0.7625  0.3521 -0.1265
 3769SOL      O15519   4.280   3.633   2.179 -0.0932  0.0504  0.0118
 3769SOL     H115520   4.228   3.702   2.221  0.9894 -0.0352  1.5173
 3769SOL     H215521   4.343   3.681   2.124 -1.2009  0.1708 -1.1951
 3769SOL    EPW15522   4.281   3.646   2.177 -0.0958  0.0541  0.0436
 3770SOL      O15523   5.310   0.945   2.941  0.2527  0.3244 -0.7593
 3770SOL     H115524   5.269   1.020   2.983  1.6030  0.9693 -0.5807
 3770SOL     H215525   5.330   0.974   2.853 -1.3252 -0.5879 -1.4409
 3770SOL    EPW15526   5.308   0.956   2.936  0.2284  0.2959 -0.8129
 3771SOL      O15527   5.509   2.140   2.057 -0.0599  0.4558 -0.4303
 3771SOL     H115528   5.544   2.213   2.109  0.7143 -1.3274  1.6469
 3771SOL     H215529   5.569   2.068   2.075 -1.3677 -0.9787 -1.6934
 3771SOL    EPW15530   5.519   2.140   2.064 -0.1168  0.1125 -0.3434
 3772SOL      O15531   5.038   1.772   1.297  0.5657 -0.1856  0.5560
 3772SOL     H115532   4.981   1.845   1.320  0.6784 -0.9379  3.3666
 3772SOL     H215533   5.124   1.796   1.331  1.5173  0.0606 -1.9244
 3772SOL    EPW15534   5.041   1.782   1.303  0.6792 -0.2396  0.5912
 3773SOL      O15535   4.820   2.818   3.525  0.4665  0.2033 -0.2617
 3773SOL     H115536   4.767   2.856   3.595 -1.0240 -0.4255 -1.0110
 3773SOL     H215537   4.899   2.785   3.568 -0.3410  0.0077  1.0774
 3773SOL    EPW15538   4.823   2.818   3.537  0.2214  0.1154 -0.1988
 3774SOL      O15539   5.046   1.008   2.677  0.0412 -0.1185  0.3373
 3774SOL     H115540   5.044   0.915   2.652  1.3548  0.3598 -1.5668
 3774SOL     H215541   4.993   1.011   2.757 -0.6572 -2.3833  0.0113
 3774SOL    EPW15542   5.040   0.998   2.683  0.1068 -0.3090  0.0994
 3775SOL      O15543   4.698   2.651   2.639 -0.0290 -0.2298 -0.5686
 3775SOL     H115544   4.619   2.660   2.691  0.1149  1.7495 -0.6284
 3775SOL     H215545   4.719   2.741   2.612  2.3980 -0.6699 -0.3085
 3775SOL    EPW15546   4.692   2.662   2.641  0.2453 -0.0656 -0.5473
 3776SOL      O15547   4.405   2.966   3.655  0.1357  0.8607  0.0857
 3776SOL     H115548   4.349   2.889   3.644 -0.0192  0.8199  1.1094
 3776SOL     H215549   4.421   2.997   3.566  1.8337 -1.5170 -0.4947
 3776SOL    EPW15550   4.401   2.961   3.644  0.3004  0.6027  0.1330
 3777SOL      O15551   5.018   3.430   3.122  0.4955 -0.4019 -0.3477
 3777SOL     H115552   4.979   3.508   3.083 -1.2097 -0.7063  0.7195
 3777SOL     H215553   5.106   3.458   3.148  0.9226  0.3753 -2.4647
 3777SOL    EPW15554   5.023   3.442   3.120  0.3592 -0.3514 -0.4596
 3778SOL      O15555   5.179   2.223   4.068 -0.7519  0.3899  0.1327
 3778SOL     H115556   5.110   2.157   4.076  1.9951 -2.5937  0.2197
 3778SOL     H215557   5.193   2.231   3.973 -0.1276 -0.1922  0.1752
 3778SOL    EPW15558   5.173   2.217   4.058 -0.3923  0.0096  0.1465
 3779SOL      O15559   5.330   1.733   3.110 -0.8651  0.2440  0.6237
 3779SOL     H115560   5.249   1.772   3.143 -1.7729 -0.4041 -0.7736
 3779SOL     H215561   5.395   1.802   3.120 -1.0497  0.0300  3.8481
 3779SOL    EPW15562   5.328   1.745   3.115 -0.9816  0.1520  0.8186
 3780SOL      O15563   4.540   0.491   2.893 -0.2925  0.4121 -0.0059
 3780SOL     H115564   4.455   0.447   2.892  0.2252 -0.6172  0.4763
 3780SOL     H215565   4.577   0.473   2.806 -0.4285  0.5890 -0.1007
 3780SOL    EPW15566   4.535   0.485   2.883 -0.2518  0.3212  0.0354
 3781SOL      O15567   5.421   2.322   2.586 -0.2764 -0.0481  0.2971
 3781SOL     H115568   5.425   2.226   2.596  1.9727  0.0136  0.3572
 3781SOL     H215569   5.402   2.355   2.674  1.9613 -0.3250  0.9167
 3781SOL    EPW15570   5.420   2.315   2.596  0.2023 -0.0711  0.3696
 3782SOL      O15571   4.537   3.654   1.800  0.0644 -0.1609  0.3326
 3782SOL     H115572   4.481   3.598   1.745 -0.5378 -0.3649  1.1334
 3782SOL     H215573   4.547   3.735   1.750 -0.4728 -0.3447 -0.0796
 3782SOL    EPW15574   4.532   3.656   1.789 -0.0571 -0.2023  0.3741
 3783SOL      O15575   1.531   1.611   0.354 -0.2171  0.1462 -0.6891
 3783SOL     H115576   1.580   1.560   0.290 -0.7644 -0.3871 -0.6833
 3783SOL     H215577   1.507   1.691   0.307 -1.2419 -0.5609 -1.3866
 3783SOL    EPW15578   1.534   1.614   0.342 -0.3848  0.0139 -0.7629
 3784SOL      O15579   4.742   2.561   2.356 -0.5932  0.2049 -0.2458
 3784SOL     H115580   4.678   2.622   2.320 -0.8589  0.4506  0.6269
 3784SOL     H215581   4.730   2.566   2.451 -0.1703 -0.7166 -0.1323
 3784SOL    EPW15582   4.734   2.568   2.363 -0.5765  0.1328 -0.1406
 3785SOL      O15583   1.293   3.021   2.761 -0.1501  0.3581 -0.2460
 3785SOL     H115584   1.294   3.003   2.667  1.4127  1.5419 -0.4712
 3785SOL     H215585   1.382   3.000   2.791 -0.2493  1.2346  0.7149
 3785SOL    EPW15586   1.303   3.017   2.754  0.0060  0.5779 -0.1675
 3786SOL      O15587   5.335   2.645   1.382 -0.0154 -0.0927  0.0092
 3786SOL     H115588   5.272   2.587   1.338 -1.4810  1.4744 -0.0309
 3786SOL     H215589   5.420   2.607   1.363 -0.9483 -2.4714  0.3322
 3786SOL    EPW15590   5.337   2.635   1.376 -0.2712 -0.1793  0.0394
 3787SOL      O15591   4.561   3.167   2.866  0.1152 -0.2151  0.3502
 3787SOL     H115592   4.576   3.130   2.779 -0.2081 -0.8788  0.5723
 3787SOL     H215593   4.467   3.184   2.869  0.0613 -0.5709  0.7158
 3787SOL    EPW15594   4.552   3.165   2.857  0.0749 -0.3238  0.4129
 3788SOL      O15595   4.891   2.600   1.816  0.0722 -0.0033  0.2554
 3788SOL     H115596   4.863   2.572   1.903  2.5260 -0.4800  0.9388
 3788SOL     H215597   4.810   2.622   1.770 -1.2431  0.4401  2.7166
 3788SOL    EPW15598   4.879   2.599   1.821  0.1936 -0.0069  0.5909
 3789SOL      O15599   5.319   0.591   3.067 -0.2010  0.4127  0.2428
 3789SOL     H115600   5.347   0.603   3.157  1.0130  0.3719 -0.1234
 3789SOL     H215601   5.275   0.673   3.044  2.4265  1.7330 -0.1915
 3789SOL    EPW15602   5.317   0.601   3.074  0.2088  0.5492  0.1574
 3790SOL      O15603   3.556   2.944   2.999  0.7572  0.0946 -0.5228
 3790SOL     H115604   3.491   2.897   2.946  1.9253 -1.4098 -0.6514
 3790SOL     H215605   3.636   2.941   2.946  0.8891  2.1045 -0.4497
 3790SOL    EPW15606   3.557   2.938   2.987  0.8959  0.1485 -0.5287
 3791SOL      O15607   3.915   2.325   2.215 -0.2613  0.0615  0.3013
 3791SOL     H115608   3.876   2.402   2.175  0.2510 -0.0694 -0.4621
 3791SOL     H215609   3.860   2.308   2.292 -1.1347  0.4392 -0.2220
 3791SOL    EPW15610   3.905   2.331   2.219 -0.2998  0.0878  0.1640
 3792SOL      O15611   0.674   5.331   0.501 -0.1656 -0.6426 -0.2176
 3792SOL     H115612   0.713   5.362   0.583  1.3058  1.0774 -1.5324
 3792SOL     H215613   0.584   5.363   0.503  0.1003  0.0857  0.3641
 3792SOL    EPW15614   0.669   5.338   0.510  0.0198 -0.3814 -0.2958
 3793SOL      O15615   4.777   0.840   1.809  0.2301 -0.3247  0.6954
 3793SOL     H115616   4.764   0.811   1.719 -0.0797 -0.3013  0.7335
 3793SOL     H215617   4.837   0.915   1.801  0.6570 -0.6814  0.5583
 3793SOL    EPW15618   4.782   0.845   1.798  0.2426 -0.3603  0.6848
 3794SOL      O15619   4.362   2.895   2.769  0.3930 -0.0640 -0.1066
 3794SOL     H115620   4.411   2.813   2.777 -0.3338 -0.3918  1.2023
 3794SOL     H215621   4.362   2.914   2.675  1.5183 -0.9752 -0.3022
 3794SOL    EPW15622   4.367   2.888   2.760  0.4355 -0.1962  0.0122
 3795SOL      O15623   3.834   1.369   2.531  0.1578  0.1409  0.5222
 3795SOL     H115624   3.884   1.427   2.588  0.3577 -0.5526  1.0500
 3795SOL     H215625   3.743   1.382   2.558  0.1410  0.6789  0.2134
 3795SOL    EPW15626   3.829   1.377   2.540  0.1773  0.1243  0.5456
 3796SOL      O15627   4.373   2.301   2.351 -0.2979  0.0101 -0.2676
 3796SOL     H115628   4.402   2.210   2.354  0.1160  0.1868  1.2056
 3796SOL     H215629   4.442   2.347   2.304  1.4031  0.2585  2.3989
 3796SOL    EPW15630   4.383   2.296   2.346 -0.0722  0.0554  0.1740
 3797SOL      O15631   1.690   0.347   0.763 -0.0186 -0.3263  0.4030
 3797SOL     H115632   1.762   0.409   0.756 -1.2745  1.1008 -0.2073
 3797SOL     H215633   1.644   0.373   0.843 -0.1583 -0.9063  0.5146
 3797SOL    EPW15634   1.693   0.356   0.771 -0.1675 -0.2359  0.3498
 3798SOL      O15635   4.231   3.123   3.032  0.4641  0.0782  0.1279
 3798SOL     H115636   4.183   3.040   3.025  1.8342 -0.6369 -1.0124
 3798SOL     H215637   4.194   3.166   3.109 -0.5045 -1.4415  0.5222
 3798SOL    EPW15638   4.222   3.119   3.039  0.5069 -0.1602  0.0483
 3799SOL      O15639   4.740   3.565   4.147  0.6688  0.0448  0.2508
 3799SOL     H115640   4.667   3.518   4.106  2.7104 -0.0063 -3.5711
 3799SOL     H215641   4.789   3.497   4.193 -0.0028 -0.4106  0.3121
 3799SOL    EPW15642   4.737   3.553   4.148  0.8149 -0.0092 -0.1504
 3800SOL      O15643   0.142   2.076   3.453  0.2181  0.5096  0.1180
 3800SOL     H115644   0.229   2.039   3.437  0.3190  0.2932  1.1772
 3800SOL     H215645   0.082   2.009   3.421  0.4297  0.4271 -0.1104
 3800SOL    EPW15646   0.145   2.065   3.448  0.2514  0.4777  0.2067
 3801SOL      O15647   4.395   3.850   1.543 -0.1870 -0.5074  0.1525
 3801SOL     H115648   4.344   3.905   1.602 -0.3847 -0.4316 -0.0862
 3801SOL     H215649   4.413   3.906   1.467  2.2160  0.2040  1.2161
 3801SOL    EPW15650   4.391   3.862   1.541  0.0482 -0.4234  0.2405
 3802SOL      O15651   5.281   0.731   2.085 -0.4512 -0.7676 -0.0200
 3802SOL     H115652   5.250   0.803   2.030 -0.6601 -1.4023 -0.7441
 3802SOL     H215653   5.214   0.723   2.154  1.5424  2.3101  2.4228
 3802SOL    EPW15654   5.270   0.738   2.087 -0.2608 -0.5070  0.1633
 3803SOL      O15655   3.667   1.563   4.006 -0.9685  0.9991  0.5020
 3803SOL     H115656   3.586   1.613   4.013 -2.0921 -0.7554  0.3432
 3803SOL     H215657   3.639   1.475   3.983  1.0049  0.4077  0.2470
 3803SOL    EPW15658   3.656   1.559   4.004 -0.8778  0.7489  0.4578
 3804SOL      O15659   5.072   3.109   2.777 -0.3493 -0.1089 -0.5910
 3804SOL     H115660   5.113   3.098   2.692  1.1064  0.5517  0.0090
 3804SOL     H215661   5.085   3.025   2.821  0.0416 -0.0262 -0.5455
 3804SOL    EPW15662   5.077   3.099   2.773 -0.1523 -0.0296 -0.5221
 3805SOL      O15663   4.518   3.372   3.842 -0.4432 -0.0378  0.3490
 3805SOL     H115664   4.499   3.461   3.814 -0.4694 -0.2890 -0.4470
 3805SOL     H215665   4.451   3.318   3.799  0.7390 -0.6656 -0.7598
 3805SOL    EPW15666   4.509   3.375   3.834 -0.3199 -0.1316  0.1458
 3806SOL      O15667   5.334   3.646   3.507  0.2773  0.0133 -0.6816
 3806SOL     H115668   5.385   3.674   3.431  0.9766  0.1524 -0.1664
 3806SOL     H215669   5.332   3.722   3.564  1.3551 -0.6550  0.2788
 3806SOL    EPW15670   5.339   3.657   3.505  0.4669 -0.0431 -0.5242
 3807SOL      O15671   4.851   2.721   2.872 -0.1959 -0.2409 -0.3925
 3807SOL     H115672   4.801   2.711   2.791  0.0407  2.7178 -0.9731
 3807SOL     H215673   4.798   2.782   2.925  1.3105  0.5605  0.2298
 3807SOL    EPW15674   4.840   2.727   2.869 -0.0099  0.1602 -0.3880
 3808SOL      O15675   5.221   2.331   2.363 -0.3936 -0.0834 -0.2112
 3808SOL     H115676   5.142   2.375   2.395 -0.0207  0.3985  0.0506
 3808SOL     H215677   5.280   2.329   2.438  0.6176  1.3743 -0.9426
 3808SOL    EPW15678   5.219   2.335   2.374 -0.2459  0.1235 -0.2613
 3809SOL      O15679   4.888   3.162   1.505  0.4481  0.3950 -0.1171
 3809SOL     H115680   4.952   3.169   1.576 -1.6601  0.4439  1.8359
 3809SOL     H215681   4.867   3.069   1.500 -0.8097  0.6229  0.6376
 3809SOL    EPW15682   4.892   3.153   1.512  0.0890  0.4246  0.1718
 3810SOL      O15683   3.814   2.537   2.084 -0.6773  0.5118  0.1843
 3810SOL     H115684   3.822   2.545   1.989 -0.3832 -0.3644  0.1345
 3810SOL     H215685   3.797   2.626   2.114 -0.9535  0.7634 -0.7083
 3810SOL    EPW15686   3.813   2.547   2.077 -0.6754  0.4452  0.0837
 3811SOL      O15687   4.736   3.088   3.376  0.7300 -0.0758  0.5174
 3811SOL     H115688   4.791   3.021   3.418  0.8016 -2.0660 -2.6072
 3811SOL     H215689   4.797   3.138   3.322  0.0523  0.0308 -0.1455
 3811SOL    EPW15690   4.749   3.086   3.375  0.6654 -0.2767  0.1133
 3812SOL      O15691   4.379   3.481   3.165 -0.3043  0.0907 -0.1956
 3812SOL     H115692   4.456   3.520   3.122 -0.3129  0.9846  0.5824
 3812SOL     H215693   4.310   3.484   3.098 -0.4871  2.0375  0.0600
 3812SOL    EPW15694   4.380   3.486   3.153 -0.3248  0.3938 -0.0853
 3813SOL      O15695   3.691   3.905   2.626  0.1422 -0.0042  0.6171
 3813SOL     H115696   3.769   3.897   2.571  0.0484  0.1229  0.4643
 3813SOL     H215697   3.667   3.997   2.620  0.0007 -0.0355  0.6930
 3813SOL    EPW15698   3.697   3.914   2.620  0.1171  0.0060  0.6089
 3814SOL      O15699   4.428   2.966   3.194  0.4909 -0.1828  0.0743
 3814SOL     H115700   4.389   3.006   3.117  1.1448  1.0439  0.3700
 3814SOL     H215701   4.521   2.960   3.173  0.6850  0.2308  0.7984
 3814SOL    EPW15702   4.434   2.969   3.183  0.5814 -0.0078  0.1831
 3815SOL      O15703   3.095   3.085   3.882 -0.4391 -0.6475 -0.5698
 3815SOL     H115704   3.048   3.127   3.954 -0.8616 -0.7122 -0.8063
 3815SOL     H215705   3.042   3.105   3.804 -0.2722 -1.0368 -0.7814
 3815SOL    EPW15706   3.084   3.092   3.881 -0.4663 -0.6959 -0.6176
 3816SOL      O15707   5.540   1.906   3.149 -0.3804 -0.1557 -0.2939
 3816SOL     H115708   5.554   2.001   3.142 -0.1650 -0.1665 -0.0501
 3816SOL     H215709   5.607   1.877   3.211 -0.2032 -0.5264 -0.6580
 3816SOL    EPW15710   5.549   1.913   3.155 -0.3385 -0.1964 -0.3067
 3817SOL      O15711   4.430   1.817   1.785  0.5283 -0.0911 -0.0964
 3817SOL     H115712   4.440   1.760   1.861 -0.7265 -0.0601  0.0936
 3817SOL     H215713   4.407   1.902   1.822 -1.5232 -0.4194 -0.5688
 3817SOL    EPW15714   4.429   1.820   1.797  0.1756 -0.1228 -0.1265
 3818SOL      O15715   3.561   0.905   1.305 -0.2311 -0.3172 -0.3817
 3818SOL     H115716   3.479   0.930   1.347 -0.1350  1.3785 -1.1502
 3818SOL     H215717   3.556   0.943   1.217  0.6928 -1.5554 -0.9819
 3818SOL    EPW15718   3.552   0.912   1.300 -0.1223 -0.2684 -0.5277
 3819SOL      O15719   0.113   2.366   3.491  0.7714 -0.0826 -0.5287
 3819SOL     H115720   0.030   2.352   3.536  0.7171 -1.2384 -0.9878
 3819SOL     H215721   0.154   2.280   3.489  1.2592  0.1746 -1.7366
 3819SOL    EPW15722   0.108   2.356   3.496  0.8176 -0.1785 -0.7065
 3820SOL      O15723   2.360   3.430   3.187  0.0708  0.4466 -0.1929
 3820SOL     H115724   2.284   3.488   3.181 -1.0741 -1.1111 -1.2474
 3820SOL     H215725   2.405   3.441   3.103  1.1517  1.4979  0.4955
 3820SOL    EPW15726   2.357   3.438   3.177  0.0640  0.3926 -0.2319
 3821SOL      O15727   3.151   5.763   3.601 -0.3412 -0.3567  0.1692
 3821SOL     H115728   3.120   5.678   3.570 -0.6156  0.1470 -0.9708
 3821SOL     H215729   3.108   5.775   3.685 -1.5455 -0.6447 -0.3915
 3821SOL    EPW15730   3.143   5.755   3.606 -0.4989 -0.3337 -0.0123
 3822SOL      O15731   5.829   4.021   3.662 -0.0664 -0.5879  0.0826
 3822SOL     H115732   5.848   4.008   3.569 -2.2480  0.0599 -0.4827
 3822SOL     H215733   5.747   4.070   3.663  1.2812  1.7170  2.3315
 3822SOL    EPW15734   5.822   4.025   3.652 -0.1554 -0.2730  0.2622
 3823SOL      O15735   3.947   3.401   3.835  0.4462  0.0760  0.2413
 3823SOL     H115736   3.856   3.371   3.826  0.7051 -0.7799  0.4164
 3823SOL     H215737   3.999   3.325   3.807  1.1131  0.3841  0.6631
 3823SOL    EPW15738   3.943   3.389   3.831  0.5450  0.0176  0.3050
 3824SOL      O15739   3.832   2.878   2.893  0.3799  0.2964  0.2517
 3824SOL     H115740   3.847   2.972   2.901 -0.2845  0.2418  2.2797
 3824SOL     H215741   3.861   2.841   2.977 -0.8311 -1.1186  0.0755
 3824SOL    EPW15742   3.837   2.884   2.903  0.1798  0.1397  0.4493
 3825SOL      O15743   5.473   2.286   0.715 -0.0125 -0.1261 -0.4207
 3825SOL     H115744   5.401   2.228   0.692  0.3665 -1.5778  1.9689
 3825SOL     H215745   5.547   2.254   0.662  0.0342 -1.4371  0.4241
 3825SOL    EPW15746   5.473   2.276   0.707  0.0329 -0.4209 -0.0757
 3826SOL      O15747   3.748   3.576   2.489 -0.8230 -0.3232  0.0555
 3826SOL     H115748   3.828   3.552   2.536  0.7057  1.5616 -1.4925
 3826SOL     H215749   3.751   3.672   2.483 -2.8867 -0.2687 -0.5579
 3826SOL    EPW15750   3.757   3.584   2.493 -0.8801 -0.1163 -0.1750
 3827SOL      O15751   4.069   0.847   3.899  0.5863 -0.0250 -0.4988
 3827SOL     H115752   4.106   0.802   3.975  2.0458  0.8314 -0.6749
 3827SOL     H215753   4.146   0.877   3.850 -0.3508  0.6787 -1.5509
 3827SOL    EPW15754   4.081   0.845   3.902  0.6420  0.1414 -0.6298
 3828SOL      O15755   4.901   2.269   3.442  0.5982 -0.2045  0.1153
 3828SOL     H115756   4.918   2.355   3.482  3.6090 -0.8819  0.4465
 3828SOL     H215757   4.885   2.288   3.350 -3.1947  1.0753  0.9482
 3828SOL    EPW15758   4.901   2.281   3.437  0.5148 -0.1403  0.2394
 3829SOL      O15759   0.929   0.975   0.348 -0.5316 -0.5209 -0.5571
 3829SOL     H115760   0.851   1.012   0.307 -0.6599  1.2580  1.2276
 3829SOL     H215761   0.903   0.957   0.438  1.4696  1.4307  0.4777
 3829SOL    EPW15762   0.918   0.977   0.354 -0.3318 -0.1229 -0.2563
 3830SOL      O15763   4.419   0.959   3.009  0.5397  0.0444  0.2739
 3830SOL     H115764   4.431   1.041   2.962  1.0776 -0.3511 -0.2896
 3830SOL     H215765   4.463   0.972   3.093 -1.4624  1.1775  1.1771
 3830SOL    EPW15766   4.425   0.969   3.013  0.3835  0.1231  0.3101
 3831SOL      O15767   1.181   0.380   0.413 -0.0545 -0.8338 -0.0852
 3831SOL     H115768   1.177   0.391   0.508 -0.3878 -0.4708 -0.1416
 3831SOL     H215769   1.092   0.355   0.388 -0.4458  0.9643 -0.5381
 3831SOL    EPW15770   1.171   0.378   0.421 -0.1318 -0.6032 -0.1395
 3832SOL      O15771   3.672   2.100   3.982  0.0997 -0.2683  0.2305
 3832SOL     H115772   3.754   2.129   4.021 -0.4369  0.1753  1.0550
 3832SOL     H215773   3.636   2.177   3.939 -0.9534  0.1174  1.7654
 3832SOL    EPW15774   3.677   2.111   3.982 -0.0699 -0.1798  0.4822
 3833SOL      O15775   1.812   0.738   0.582 -0.0896 -1.0844 -0.4830
 3833SOL     H115776   1.844   0.649   0.596 -0.5415 -1.6471 -2.7100
 3833SOL     H215777   1.889   0.793   0.597  0.6546 -1.9995 -0.8187
 3833SOL    EPW15778   1.824   0.734   0.585 -0.0584 -1.2420 -0.7564
 3834SOL      O15779   2.021   3.144   1.146 -0.1092  0.1254  0.8022
 3834SOL     H115780   2.063   3.079   1.203  0.7761  0.8111  0.9406
 3834SOL     H215781   1.947   3.177   1.198 -0.7402 -0.9673  0.6216
 3834SOL    EPW15782   2.017   3.141   1.158 -0.0821  0.0820  0.7977
 3835SOL      O15783   3.445   2.891   0.799 -0.0205 -0.2155 -0.1990
 3835SOL     H115784   3.383   2.938   0.744 -0.9577  0.2524  1.2195
 3835SOL     H215785   3.528   2.898   0.753 -1.2291 -1.9009 -2.7268
 3835SOL    EPW15786   3.447   2.897   0.788 -0.2494 -0.3454 -0.3173
 3836SOL      O15787   5.797   4.678   3.115 -0.1210  0.0313 -0.5721
 3836SOL     H115788   5.748   4.685   3.197  0.1689  1.8017 -0.5290
 3836SOL     H215789   5.867   4.742   3.124  0.4273 -0.3832 -1.8532
 3836SOL    EPW15790   5.799   4.686   3.125 -0.0316  0.1759 -0.7042
 3837SOL      O15791   1.168   5.349   0.010  0.3461  0.1978 -0.1973
 3837SOL     H115792   1.243   5.377  -0.042 -0.5000  1.1616 -0.9238
 3837SOL     H215793   1.200   5.349   0.100  2.0770 -2.3296 -0.7603
 3837SOL    EPW15794   1.179   5.352   0.014  0.4405  0.0310 -0.3349
 3838SOL      O15795   0.417   2.290   3.668 -0.0505  0.3260 -0.3269
 3838SOL     H115796   0.382   2.239   3.741 -0.9348  0.1193 -0.8937
 3838SOL     H215797   0.495   2.241   3.640  1.7679  1.7305  2.0688
 3838SOL    EPW15798   0.422   2.279   3.673  0.0491  0.4538 -0.1318
 3839SOL      O15799   4.475   2.651   2.816  0.4033  0.2057 -0.0083
 3839SOL     H115800   4.422   2.572   2.821 -0.7440  1.0409  1.7695
 3839SOL     H215801   4.515   2.659   2.903  0.2585  1.7278 -0.0662
 3839SOL    EPW15802   4.474   2.644   2.826  0.2654  0.4572  0.1752
 3840SOL      O15803   3.197   2.629   2.582  0.2634 -0.0256  0.0973
 3840SOL     H115804   3.107   2.645   2.611  0.6667 -0.4890  1.6376
 3840SOL     H215805   3.187   2.569   2.507 -0.7611  0.8146 -0.4560
 3840SOL    EPW15806   3.186   2.624   2.577  0.1971  0.0146  0.2026
 3841SOL      O15807   0.032   5.145   0.199 -0.3530  0.2860 -0.1153
 3841SOL     H115808   0.082   5.129   0.279 -2.7419  0.0868  1.3832
 3841SOL     H215809   0.060   5.232   0.171  0.6511  0.2831  0.8200
 3841SOL    EPW15810   0.040   5.152   0.205 -0.5007  0.2644  0.1444
 3842SOL      O15811   4.932   2.145   2.511 -0.0044  0.7208  0.1435
 3842SOL     H115812   4.978   2.061   2.507  1.3110  1.3471  1.5352
 3842SOL     H215813   4.839   2.122   2.508  0.3185 -0.8603  1.6330
 3842SOL    EPW15814   4.927   2.133   2.510  0.1704  0.6189  0.4509
 3843SOL      O15815   4.962   2.474   2.902  0.0660 -0.0393 -0.1445
 3843SOL     H115816   4.918   2.558   2.914  0.2786 -0.0757  0.9010
 3843SOL     H215817   4.926   2.440   2.819 -1.2230  0.3388  0.2452
 3843SOL    EPW15818   4.953   2.479   2.894 -0.0489 -0.0028  0.0086
 3844SOL      O15819   5.593   1.720   2.581  0.2638 -0.4352 -0.2222
 3844SOL     H115820   5.540   1.640   2.584  0.8804 -0.9061 -1.5222
 3844SOL     H215821   5.625   1.724   2.491 -1.5244  2.4431 -0.7959
 3844SOL    EPW15822   5.591   1.712   2.572  0.1388 -0.1784 -0.4221
 3845SOL      O15823   5.448   2.921   3.987 -0.8857  0.1424  0.1049
 3845SOL     H115824   5.366   2.889   3.949  0.3719 -0.0634 -2.5442
 3845SOL     H215825   5.459   3.008   3.950  0.3390 -0.0160  0.0832
 3845SOL    EPW15826   5.440   2.927   3.979 -0.6209  0.1036 -0.1800
 3846SOL      O15827   4.527   2.764   1.551 -0.2529  0.6790  0.3588
 3846SOL     H115828   4.598   2.826   1.531  1.5166 -1.3537  0.1265
 3846SOL     H215829   4.475   2.760   1.471  0.3569  0.9268 -0.0509
 3846SOL    EPW15830   4.529   2.770   1.541  0.0010  0.4886  0.2903
 3847SOL      O15831   2.256   5.403   0.042  0.4968  1.1139 -0.3279
 3847SOL     H115832   2.195   5.398   0.116  2.3455  0.7660  1.2219
 3847SOL     H215833   2.246   5.319  -0.003 -0.3172  1.1431 -0.2067
 3847SOL    EPW15834   2.249   5.394   0.045  0.6072  1.0799 -0.1496
 3848SOL      O15835   3.614   4.220   2.433 -0.7572 -0.0871  0.6054
 3848SOL     H115836   3.638   4.199   2.524 -0.5039  0.3611  0.6436
 3848SOL     H215837   3.627   4.315   2.426 -2.0347  0.0750  0.4671
 3848SOL    EPW15838   3.618   4.228   2.442 -0.8665 -0.0220  0.5947
 3849SOL      O15839   3.129   1.003   4.018  0.2762 -0.0003 -0.0551
 3849SOL     H115840   3.169   0.968   4.098  0.2544 -1.1599 -0.5382
 3849SOL     H215841   3.145   1.097   4.023  1.0303 -0.1630  0.8942
 3849SOL    EPW15842   3.135   1.009   4.027  0.3543 -0.1414 -0.0054
 3850SOL      O15843   3.482   0.365   0.780 -0.5222  0.3077  0.1313
 3850SOL     H115844   3.577   0.356   0.790 -0.4588  2.4427  1.8601
 3850SOL     H215845   3.464   0.456   0.804 -2.5673  1.0860 -3.9680
 3850SOL    EPW15846   3.490   0.373   0.784 -0.7336  0.6185 -0.1216
 3851SOL      O15847   3.937   1.779   3.791 -0.1993  0.1329 -0.4317
 3851SOL     H115848   4.013   1.799   3.736 -0.1584  0.7264 -0.1659
 3851SOL     H215849   3.875   1.737   3.732 -0.6767  1.9189 -1.2477
 3851SOL    EPW15850   3.939   1.777   3.779 -0.2459  0.3867 -0.4904
 3852SOL      O15851   4.624   1.552   1.977 -0.0593  0.7100  0.7192
 3852SOL     H115852   4.529   1.553   1.989  0.0916 -0.3563  2.1344
 3852SOL     H215853   4.651   1.642   1.994 -0.9614  1.3543 -1.1183
 3852SOL    EPW15854   4.617   1.561   1.980 -0.1395  0.6650  0.6741
 3853SOL      O15855   2.053   5.073   0.294  0.0374  0.5096  0.0547
 3853SOL     H115856   2.113   5.013   0.250 -0.8655  0.6822 -1.4400
 3853SOL     H215857   2.031   5.028   0.376  1.4093  0.0027  0.1562
 3853SOL    EPW15858   2.057   5.062   0.298  0.0874  0.4739 -0.0939
 3854SOL      O15859   4.176   2.834   2.956 -0.3547 -0.5391  0.8961
 3854SOL     H115860   4.256   2.861   2.910 -0.4330  1.3852  1.8452
 3854SOL     H215861   4.120   2.799   2.887 -0.2314  1.7434 -0.4138
 3854SOL    EPW15862   4.179   2.833   2.944 -0.3499 -0.0903  0.8576
 3855SOL      O15863   4.689   2.503   3.504 -0.1727  0.0873 -0.2605
 3855SOL     H115864   4.631   2.514   3.429  1.5761 -0.0624 -1.6626
 3855SOL     H215865   4.757   2.569   3.492  0.8663 -0.8311  0.4641
 3855SOL    EPW15866   4.690   2.511   3.495  0.1247 -0.0266 -0.3328
 3856SOL      O15867   4.039   2.788   3.974 -0.3785 -0.3013 -0.3238
 3856SOL     H115868   3.973   2.829   3.918  1.2805  0.8126 -1.5102
 3856SOL     H215869   3.996   2.710   4.008 -1.8077 -0.4201 -2.3134
 3856SOL    EPW15870   4.027   2.784   3.972 -0.3540 -0.1952 -0.6626
 3857SOL      O15871   5.529   1.719   2.083 -0.9789 -0.3705 -0.4536
 3857SOL     H115872   5.446   1.766   2.085 -0.2169  0.9420  2.7866
 3857SOL     H215873   5.593   1.782   2.049 -0.7914 -0.4787 -0.3092
 3857SOL    EPW15874   5.527   1.730   2.079 -0.8776 -0.2420 -0.0925
 3858SOL      O15875   5.400   3.150   3.819  0.0732  0.4746  0.3795
 3858SOL     H115876   5.475   3.193   3.860  0.6489  0.4356 -0.5998
 3858SOL     H215877   5.328   3.162   3.880  0.4605  2.0050  0.5490
 3858SOL    EPW15878   5.400   3.156   3.830  0.1759  0.6337  0.2931
 3859SOL      O15879   5.119   2.847   2.868 -0.4583  0.0191  0.5088
 3859SOL     H115880   5.171   2.790   2.812  1.5252  0.9628  1.3358
 3859SOL     H215881   5.046   2.793   2.897 -0.0484 -1.2675 -0.8461
 3859SOL    EPW15882   5.117   2.835   2.865 -0.2030 -0.0175  0.4525
 3860SOL      O15883   5.086   1.266   3.280 -0.1304  0.7618 -0.0937
 3860SOL     H115884   4.997   1.241   3.256  0.2926 -0.0446 -0.8876
 3860SOL     H215885   5.123   1.187   3.320 -0.1084  1.4177  1.1923
 3860SOL    EPW15886   5.081   1.255   3.282 -0.0829  0.7457 -0.0412
 3861SOL      O15887   5.126   1.860   3.801 -0.0307 -0.5187  0.1347
 3861SOL     H115888   5.197   1.802   3.776 -0.8138 -1.0856 -0.8300
 3861SOL     H215889   5.099   1.901   3.718 -1.2621 -0.8132  0.3829
 3861SOL    EPW15890   5.130   1.858   3.789 -0.2456 -0.6106  0.0582
 3862SOL      O15891   4.661   2.866   3.760 -0.5126 -0.3116 -0.2649
 3862SOL     H115892   4.581   2.903   3.722  0.8953  0.7202 -2.3216
 3862SOL     H215893   4.718   2.942   3.775  1.4866 -1.3709 -2.2510
 3862SOL    EPW15894   4.659   2.878   3.758 -0.1492 -0.3145 -0.6962
 3863SOL      O15895   1.226   1.182   1.985 -0.0120  0.1156 -0.4179
 3863SOL     H115896   1.247   1.150   1.897  2.9032  0.0551  0.2470
 3863SOL     H215897   1.250   1.275   1.983 -0.0069  0.1280  0.2964
 3863SOL    EPW15898   1.231   1.188   1.975  0.2995  0.1105 -0.2708
 3864SOL      O15899   4.584   3.138   2.002  1.0238  0.1380 -0.3811
 3864SOL     H115900   4.665   3.177   1.967  2.7575 -2.3180  0.7282
 3864SOL     H215901   4.546   3.207   2.056  3.0498  0.9611  0.0595
 3864SOL    EPW15902   4.589   3.150   2.004  1.4249 -0.0362 -0.2157
 3865SOL      O15903   5.221   2.896   3.831 -0.5248 -0.1139 -0.6820
 3865SOL     H115904   5.221   2.981   3.786  0.5302 -0.7654 -1.9460
 3865SOL     H215905   5.267   2.838   3.771 -0.4209 -1.3619  0.5993
 3865SOL    EPW15906   5.226   2.899   3.819 -0.4012 -0.3166 -0.6802
 3866SOL      O15907   1.020   4.417   0.147 -0.0969  0.4143 -0.4080
 3866SOL     H115908   1.106   4.391   0.178 -0.1248  0.5589 -0.2078
 3866SOL     H215909   0.992   4.346   0.090 -0.2558 -0.1000  0.2982
 3866SOL    EPW15910   1.026   4.407   0.144 -0.1168  0.3749 -0.3113
 3867SOL      O15911   4.358   2.720   3.127 -0.6960 -0.5235 -0.5465
 3867SOL     H115912   4.394   2.809   3.131 -0.7753 -0.5418  0.5567
 3867SOL     H215913   4.278   2.729   3.074 -0.1319 -0.1309 -1.3319
 3867SOL    EPW15914   4.353   2.730   3.121 -0.6443 -0.4836 -0.5126
 3868SOL      O15915   5.639   3.317   3.125  0.5924 -0.0890 -0.6071
 3868SOL     H115916   5.626   3.256   3.052 -0.9786  0.2093 -0.5800
 3868SOL     H215917   5.728   3.297   3.156  0.3562 -1.9093 -1.0248
 3868SOL    EPW15918   5.647   3.308   3.121  0.3996 -0.2513 -0.6488
 3869SOL      O15919   0.133   1.649   3.381  0.1717 -0.2406  0.4391
 3869SOL     H115920   0.210   1.692   3.418  1.5707 -0.6204 -1.9693
 3869SOL     H215921   0.068   1.719   3.373  1.5772  0.9117 -1.1058
 3869SOL    EPW15922   0.134   1.661   3.384  0.4709 -0.1582  0.0173
 3870SOL      O15923   1.707   5.456   0.205  0.0322  0.0029  0.5069
 3870SOL     H115924   1.783   5.514   0.194  0.4323 -0.4548  0.8204
 3870SOL     H215925   1.631   5.514   0.199  0.3334  0.2416 -1.4287
 3870SOL    EPW15926   1.707   5.468   0.203  0.1070 -0.0204  0.3339
 3871SOL      O15927   0.128   2.608   2.398 -0.3607 -0.3658  0.3263
 3871SOL     H115928   0.199   2.656   2.441 -0.0368  1.0388 -1.7388
 3871SOL     H215929   0.066   2.675   2.370 -1.1014 -1.3530 -0.4491
 3871SOL    EPW15930   0.129   2.620   2.400 -0.4052 -0.3213  0.0233
 3872SOL      O15931   0.433   4.226   3.440  0.6135 -0.3847  0.0673
 3872SOL     H115932   0.476   4.235   3.525  1.9944  1.1182 -0.7681
 3872SOL     H215933   0.370   4.298   3.437  1.8294  0.6576 -0.9019
 3872SOL    EPW15934   0.431   4.234   3.449  0.8905 -0.1132 -0.1252
 3873SOL      O15935   5.394   1.205   3.969  0.0830  0.4142  0.0875
 3873SOL     H115936   5.319   1.192   3.910  0.6222 -1.8741 -0.1094
 3873SOL     H215937   5.364   1.173   4.054  0.8902 -0.7104 -0.0402
 3873SOL    EPW15938   5.382   1.201   3.971  0.2266  0.0501  0.0529
 3874SOL      O15939   4.136   1.897   1.060  0.1577  0.1205  0.7238
 3874SOL     H115940   4.206   1.946   1.018  1.0123  0.3171  2.3410
 3874SOL     H215941   4.085   1.963   1.107 -1.7013  0.1127 -1.2093
 3874SOL    EPW15942   4.138   1.909   1.060  0.0505  0.1407  0.6901
 3875SOL      O15943   5.698   3.141   3.725 -0.0898  0.4219 -0.2203
 3875SOL     H115944   5.622   3.116   3.672 -0.1706  0.1611  0.0180
 3875SOL     H215945   5.695   3.237   3.725  0.0275  0.4272 -0.8479
 3875SOL    EPW15946   5.689   3.149   3.720 -0.0859  0.3947 -0.2618
 3876SOL      O15947   5.244   1.962   3.461 -0.8146 -0.3810 -0.6547
 3876SOL     H115948   5.287   2.043   3.489  1.4401 -1.5604 -0.6453
 3876SOL     H215949   5.153   1.973   3.489 -0.6192  2.2929 -0.9873
 3876SOL    EPW15950   5.239   1.972   3.467 -0.5532 -0.2216 -0.6892
 3877SOL      O15951   4.630   2.040   2.535  0.4411  0.0135 -0.2058
 3877SOL     H115952   4.638   2.087   2.618  2.5528  0.4315 -0.6186
 3877SOL     H215953   4.603   1.951   2.561  0.4251  0.3297  0.8745
 3877SOL    EPW15954   4.628   2.035   2.547  0.6647  0.0918 -0.1346
 3878SOL      O15955   5.786   1.160   3.047 -0.5979 -0.1344 -0.0108
 3878SOL     H115956   5.755   1.070   3.040  0.2515 -0.3310 -1.5215
 3878SOL     H215957   5.706   1.212   3.053 -1.1275 -0.9103 -0.2009
 3878SOL    EPW15958   5.774   1.156   3.047 -0.5638 -0.2381 -0.1923
 3879SOL      O15959   3.401   2.665   3.973  0.1412  0.4429  0.6904
 3879SOL     H115960   3.414   2.572   3.995  0.4334  0.2995 -0.0832
 3879SOL     H215961   3.481   2.708   4.002  0.2588  0.3575  0.4910
 3879SOL    EPW15962   3.411   2.659   3.978  0.1849  0.4185  0.5866
 3880SOL      O15963   1.712   4.941   0.649 -0.3337 -0.2430 -0.2935
 3880SOL     H115964   1.660   4.982   0.579  0.3941  0.5807 -0.3595
 3880SOL     H215965   1.680   4.851   0.652 -0.4901 -0.2506 -1.5851
 3880SOL    EPW15966   1.703   4.936   0.642 -0.2728 -0.1559 -0.4383
 3881SOL      O15967   2.499   4.226   0.419  0.1364  0.1826  0.5410
 3881SOL     H115968   2.505   4.228   0.514 -2.3342 -3.4959  0.8710
 3881SOL     H215969   2.585   4.255   0.389  1.1813  0.7398  3.8634
 3881SOL    EPW15970   2.509   4.230   0.426 -0.0157 -0.1504  0.9307
 3882SOL      O15971   4.501   1.358   2.182  0.6250 -1.0059  0.5110
 3882SOL     H115972   4.459   1.302   2.248 -2.1180 -0.8611 -1.0505
 3882SOL     H215973   4.515   1.300   2.107 -1.6483  0.1824 -0.8884
 3882SOL    EPW15974   4.498   1.346   2.181  0.0898 -0.8637  0.1951
 3883SOL      O15975   0.966   2.168   1.698 -0.2828 -0.0393  0.5830
 3883SOL     H115976   0.980   2.080   1.732 -2.5765 -1.6607 -2.3535
 3883SOL     H215977   0.900   2.205   1.756 -1.4655 -1.3949  0.1520
 3883SOL    EPW15978   0.960   2.162   1.708 -0.6536 -0.3569  0.2238
 3884SOL      O15979   4.695   2.083   2.137  0.1052 -0.1399 -0.4728
 3884SOL     H115980   4.716   1.995   2.106  0.8859 -0.1338  0.0135
 3884SOL     H215981   4.775   2.112   2.181 -0.7425  0.1093  0.9380
 3884SOL    EPW15982   4.706   2.077   2.139  0.0981 -0.1126 -0.2704
 3885SOL      O15983   2.492   4.489   2.412  0.1802  1.0565 -0.1313
 3885SOL     H115984   2.509   4.439   2.492 -0.4698  0.1686 -0.5391
 3885SOL     H215985   2.471   4.423   2.346  0.9253  1.7680 -1.0940
 3885SOL    EPW15986   2.491   4.477   2.413  0.1903  1.0377 -0.2775
 3886SOL      O15987   4.368   2.269   3.695  0.6901 -0.2898 -0.1048
 3886SOL     H115988   4.336   2.242   3.781 -0.3612  0.3082 -0.2953
 3886SOL     H215989   4.391   2.187   3.651  0.9745 -0.6154  0.6425
 3886SOL    EPW15990   4.367   2.257   3.700  0.6083 -0.2608 -0.0454
 3887SOL      O15991   4.551   1.831   3.329 -0.1698 -0.4391 -0.5610
 3887SOL     H115992   4.617   1.776   3.286  2.1497  1.2362  0.7066
 3887SOL     H215993   4.490   1.855   3.260  2.6992  1.0783 -2.6495
 3887SOL    EPW15994   4.552   1.827   3.317  0.3837 -0.0985 -0.6486
 3888SOL      O15995   1.255   0.365   0.093 -0.0498  0.4123  0.9687
 3888SOL     H115996   1.273   0.361  -0.001 -1.2298 -0.8817  0.7766
 3888SOL     H215997   1.179   0.422   0.101 -0.8120 -0.5829  0.9830
 3888SOL    EPW15998   1.249   0.370   0.083 -0.2570  0.1681  0.9497
 3889SOL      O15999   2.575   4.062   4.024 -0.2583 -0.2665 -0.3985
 3889SOL     H116000   2.590   4.055   3.930  0.6994  0.6148 -0.3147
 3889SOL     H216001   2.513   3.991   4.044 -0.7379 -0.2333 -1.7405
 3889SOL    EPW16002   2.570   4.054   4.016 -0.2073 -0.1690 -0.5327
 3890SOL      O16003   5.538   2.569   2.404  0.6669 -0.2748 -0.0818
 3890SOL     H116004   5.490   2.499   2.448 -1.2795  1.8642  1.2842
 3890SOL     H216005   5.599   2.602   2.470  0.7855  0.0909 -0.3739
 3890SOL    EPW16006   5.539   2.565   2.415  0.4719 -0.0076  0.0327
 3891SOL      O16007   1.231   2.990   3.041  0.1529 -0.4426 -0.7533
 3891SOL     H116008   1.243   2.983   2.946  0.8637  1.8779 -0.8552
 3891SOL     H216009   1.162   3.055   3.052  0.1127 -0.6683  0.3262
 3891SOL    EPW16010   1.225   2.996   3.032  0.2244 -0.2191 -0.6490
 3892SOL      O16011   4.813   2.698   3.979  0.3174  0.3821  0.3971
 3892SOL     H116012   4.742   2.708   3.916 -0.6007 -0.1071  1.3576
 3892SOL     H216013   4.830   2.604   3.982 -0.7273  0.2289  2.0626
 3892SOL    EPW16014   4.807   2.689   3.972  0.1080  0.3135  0.6772
 3893SOL      O16015   4.949   1.060   2.271  0.1130  0.1019 -0.3452
 3893SOL     H116016   4.959   1.077   2.365  1.4748  0.3702 -0.5223
 3893SOL     H216017   4.918   0.970   2.265  0.9189 -0.2164  0.3241
 3893SOL    EPW16018   4.947   1.052   2.280  0.3442  0.0966 -0.2927
 3894SOL      O16019   4.455   1.600   3.730  0.0883 -0.4317 -0.5114
 3894SOL     H116020   4.500   1.613   3.646 -0.3565  0.4073 -0.6272
 3894SOL     H216021   4.478   1.678   3.781 -2.7266  0.9234 -1.2543
 3894SOL    EPW16022   4.463   1.610   3.727 -0.2594 -0.1977 -0.6030
 3895SOL      O16023   4.809   1.563   2.841  0.4238  0.1499 -0.4068
 3895SOL     H116024   4.817   1.564   2.745 -0.1757 -2.5564 -0.5323
 3895SOL     H216025   4.862   1.637   2.870  0.8173  0.8683 -2.8224
 3895SOL    EPW16026   4.816   1.571   2.834  0.4018 -0.0621 -0.6779
 3896SOL      O16027   3.420   3.230   2.416 -0.6488  0.1444 -0.0912
 3896SOL     H116028   3.423   3.134   2.416  0.2617  0.1679 -0.9371
 3896SOL     H216029   3.333   3.251   2.449 -1.0823 -0.9877 -0.4928
 3896SOL    EPW16030   3.411   3.222   2.419 -0.5979  0.0261 -0.2243
 3897SOL      O16031   4.678   3.788   3.172 -0.0614 -0.1620 -0.8799
 3897SOL     H116032   4.665   3.882   3.156  0.7505 -0.0361 -0.8381
 3897SOL     H216033   4.635   3.772   3.255  1.6006  0.6289  0.1635
 3897SOL    EPW16034   4.672   3.796   3.179  0.2025 -0.0642 -0.7642
 3898SOL      O16035   4.454   2.054   2.321  0.3238  0.5010  0.1140
 3898SOL     H116036   4.522   2.047   2.389 -0.1115 -1.2232  0.4182
 3898SOL     H216037   4.501   2.051   2.239  0.7638  1.2604  0.3401
 3898SOL    EPW16038   4.466   2.053   2.320  0.3243  0.3981  0.1706
 3899SOL      O16039   4.648   2.111   2.978  0.2216 -0.1542 -0.4746
 3899SOL     H116040   4.592   2.149   3.045  0.7302  1.5302 -0.9850
 3899SOL     H216041   4.604   2.030   2.953 -1.2762  0.4661  0.0875
 3899SOL    EPW16042   4.638   2.106   2.982  0.1161  0.0917 -0.4691
 3900SOL      O16043   5.162   2.677   2.492 -0.4477  0.8121 -0.6511
 3900SOL     H116044   5.120   2.763   2.497 -2.1076  0.2171 -3.1417
 3900SOL     H216045   5.090   2.617   2.473  1.0175 -0.8172 -1.1347
 3900SOL    EPW16046   5.150   2.680   2.491 -0.4684  0.5749 -0.9684
 3901SOL      O16047   4.056   4.148   2.019  0.4317 -0.2823  0.2418
 3901SOL     H116048   4.079   4.181   1.933  0.5102 -1.4339 -0.1925
 3901SOL     H216049   4.130   4.092   2.044  0.6908  0.5302  1.3173
 3901SOL    EPW16050   4.066   4.145   2.013  0.4677 -0.3185  0.3102
 3902SOL      O16051   3.995   2.538   3.497 -0.0941  0.2093  0.7154
 3902SOL     H116052   3.958   2.623   3.521 -0.3838  0.6322 -1.1443
 3902SOL     H216053   4.057   2.518   3.567  1.0853  2.6572  0.4229
 3902SOL    EPW16054   3.998   2.545   3.507  0.0008  0.5156  0.4858
 3903SOL      O16055   3.764   3.348   3.502  0.0029 -0.2350 -0.3839
 3903SOL     H116056   3.778   3.442   3.495 -0.4585 -0.1921 -0.7138
 3903SOL     H216057   3.852   3.310   3.494  0.6113  0.3279  2.6886
 3903SOL    EPW16058   3.775   3.354   3.501  0.0186 -0.1704 -0.0914
 3904SOL      O16059   4.675   1.800   1.616  0.2236  0.5215 -1.0573
 3904SOL     H116060   4.634   1.785   1.530 -0.8639  1.8560 -0.8027
 3904SOL     H216061   4.602   1.802   1.677  0.8096  1.3649 -0.3669
 3904SOL    EPW16062   4.663   1.799   1.613  0.1701  0.7538 -0.9565
 3905SOL      O16063   4.652   2.953   3.035 -0.0127 -0.0800  0.1115
 3905SOL     H116064   4.627   3.019   2.970 -0.1582 -0.2543 -0.0126
 3905SOL     H216065   4.741   2.977   3.061 -0.4404  0.7567  0.8261
 3905SOL    EPW16066   4.659   2.963   3.031 -0.0739 -0.0093  0.1745
 3906SOL      O16067   0.040   2.826   3.539  0.5184  0.3686  0.2993
 3906SOL     H116068  -0.023   2.875   3.592  0.0936  1.1762 -0.9234
 3906SOL     H216069   0.005   2.737   3.536 -1.7930  1.2543 -2.1358
 3906SOL    EPW16070   0.030   2.822   3.544  0.2265  0.5492 -0.0909
 3907SOL      O16071   4.823   2.893   2.626  0.4733 -0.5493 -0.1259
 3907SOL     H116072   4.914   2.911   2.652 -0.5980 -0.0995  3.5244
 3907SOL     H216073   4.781   2.979   2.626 -0.9722 -1.2210  2.4576
 3907SOL    EPW16074   4.829   2.904   2.628  0.2048 -0.5730  0.5391
 3908SOL      O16075   5.699   1.948   2.136  0.5063  0.2957 -0.1194
 3908SOL     H116076   5.758   1.974   2.065  0.6738  0.3185  0.0271
 3908SOL     H216077   5.752   1.958   2.215  1.2408 -2.3524 -0.2019
 3908SOL    EPW16078   5.711   1.952   2.137  0.6025  0.0156 -0.1125
 3909SOL      O16079   5.368   2.313   3.663 -0.3857  0.0087 -0.1032
 3909SOL     H116080   5.392   2.267   3.582  1.5001 -0.2110  0.5658
 3909SOL     H216081   5.446   2.307   3.718 -1.1879  1.3497  1.2079
 3909SOL    EPW16082   5.379   2.307   3.660 -0.2701  0.1283  0.1080
 3910SOL      O16083   5.247   3.272   2.928 -0.5809  0.8315 -0.3224
 3910SOL     H116084   5.182   3.225   2.875  0.5703 -0.4272 -0.6385
 3910SOL     H216085   5.236   3.364   2.904  0.9580  0.1299 -3.9206
 3910SOL    EPW16086   5.239   3.277   2.920 -0.2940  0.6224 -0.7400
 3911SOL      O16087   5.187   0.943   3.882  0.2208 -0.6851  0.4503
 3911SOL     H116088   5.142   0.952   3.966  1.8583  0.5902  1.2073
 3911SOL     H216089   5.208   1.032   3.855  0.2674 -1.1168 -1.0322
 3911SOL    EPW16090   5.185   0.953   3.888  0.4004 -0.5951  0.3729
 3912SOL      O16091   3.123   1.482   0.979  0.0735  0.6417 -0.2075
 3912SOL     H116092   3.207   1.526   0.996  0.4080 -0.3191  0.6812
 3912SOL     H216093   3.128   1.401   1.029 -0.1839 -0.8575 -2.5365
 3912SOL    EPW16094   3.133   1.478   0.986  0.0817  0.3793 -0.3612
 3913SOL      O16095   3.914   1.314   2.997 -0.0484 -0.1333  0.4404
 3913SOL     H116096   3.906   1.223   3.025 -0.8092 -0.8121 -1.8823
 3913SOL     H216097   4.006   1.322   2.972 -0.1725 -0.5189 -0.1580
 3913SOL    EPW16098   3.923   1.305   2.997 -0.1428 -0.2469  0.1287
 3914SOL      O16099   3.997   2.102   1.189 -0.6102  0.2149  0.1319
 3914SOL     H116100   4.012   2.182   1.139  0.1445 -0.0003  0.0150
 3914SOL     H216101   4.038   2.117   1.273  0.4422 -0.4432 -0.2567
 3914SOL    EPW16102   4.003   2.112   1.192 -0.4174  0.1217  0.0780
 3915SOL      O16103   4.797   3.413   3.284 -0.1911 -0.0657 -0.2250
 3915SOL     H116104   4.732   3.387   3.218  1.5479 -0.4074 -1.8301
 3915SOL     H216105   4.879   3.420   3.236  1.2031 -0.7126  1.9826
 3915SOL    EPW16106   4.799   3.411   3.272  0.1432 -0.1711 -0.1608
 3916SOL      O16107   0.326   2.993   3.813 -0.6962  0.0502 -0.3828
 3916SOL     H116108   0.246   2.941   3.823 -0.9803  0.4906 -0.3230
 3916SOL     H216109   0.313   3.068   3.872 -0.1791  0.0530 -0.2690
 3916SOL    EPW16110   0.316   2.996   3.821 -0.6714  0.0974 -0.3643
 3917SOL      O16111   5.608   2.039   3.569  0.1233 -0.0140 -0.0464
 3917SOL     H116112   5.645   1.969   3.515  0.6580 -1.1815  1.7789
 3917SOL     H216113   5.539   1.996   3.619  1.8808  0.2503  2.6647
 3917SOL    EPW16114   5.605   2.027   3.568  0.3678 -0.1104  0.4375
 3918SOL      O16115   4.422   0.833   1.760 -0.8801 -0.4432  0.0216
 3918SOL     H116116   4.477   0.872   1.828 -0.3309  0.5059 -0.9550
 3918SOL     H216117   4.353   0.897   1.745 -0.7997 -0.4856 -0.5612
 3918SOL    EPW16118   4.421   0.844   1.766 -0.8129 -0.3464 -0.1448
 3919SOL      O16119   5.726   3.489   2.913 -0.9341 -0.3962  0.3521
 3919SOL     H116120   5.655   3.554   2.912 -1.0126 -0.4830 -0.2706
 3919SOL     H216121   5.703   3.429   2.984 -1.0473  0.0605  0.6972
 3919SOL    EPW16122   5.716   3.489   2.920 -0.9546 -0.3568  0.3225
 3920SOL      O16123   3.371   3.008   3.877  0.7504 -0.5611  0.1064
 3920SOL     H116124   3.388   3.042   3.789  0.4815 -1.0580 -0.1433
 3920SOL     H216125   3.282   3.036   3.896  0.6861 -0.7414  0.0775
 3920SOL    EPW16126   3.363   3.015   3.869  0.7149 -0.6333  0.0767
 3921SOL      O16127   4.086   1.606   3.430 -0.2412  0.4185  0.1820
 3921SOL     H116128   4.137   1.556   3.367  0.1659  1.8238 -0.6207
 3921SOL     H216129   4.129   1.589   3.514  1.1360  1.0383 -0.3881
 3921SOL    EPW16130   4.096   1.599   3.432 -0.0509  0.6346  0.0356
 3922SOL      O16131   4.403   2.949   2.501  0.1284  0.0052  0.0958
 3922SOL     H116132   4.348   2.881   2.463  1.4213 -1.0764  0.1361
 3922SOL     H216133   4.394   3.023   2.442  0.2754 -0.8710 -1.0326
 3922SOL    EPW16134   4.396   2.950   2.491  0.2820 -0.2037 -0.0203
 3923SOL      O16135   2.990   1.402   1.760  0.4527 -0.6268  0.1222
 3923SOL     H116136   3.012   1.392   1.667  0.8889  0.4292  0.1097
 3923SOL     H216137   3.036   1.481   1.787 -2.8389  1.2930  0.2887
 3923SOL    EPW16138   2.998   1.409   1.753  0.1481 -0.3093  0.1386
 3924SOL      O16139   3.487   3.438   2.241 -0.0377 -0.0147  0.2537
 3924SOL     H116140   3.474   3.415   2.149  0.7663 -1.1196  0.4064
 3924SOL     H216141   3.474   3.355   2.289 -0.1744  0.4922  1.1105
 3924SOL    EPW16142   3.484   3.427   2.236  0.0335 -0.0785  0.3614
 3925SOL      O16143   1.905   0.169   0.148 -0.7502  0.3507 -0.3765
 3925SOL     H116144   1.845   0.141   0.079  0.3567  0.3710 -1.3709
 3925SOL     H216145   1.902   0.264   0.146  0.6595  0.3802 -1.6484
 3925SOL    EPW16146   1.898   0.176   0.141 -0.4817  0.3560 -0.6183
 3926SOL      O16147   4.992   2.766   3.719 -0.8427 -0.2395 -0.5187
 3926SOL     H116148   5.080   2.802   3.733 -1.0594  0.2984 -0.5215
 3926SOL     H216149   4.934   2.842   3.723 -1.2455 -0.5091 -1.1500
 3926SOL    EPW16150   4.995   2.778   3.721 -0.9088 -0.2109 -0.5863
 3927SOL      O16151   5.361   4.427   0.598 -0.2126 -0.2809 -0.5267
 3927SOL     H116152   5.388   4.352   0.651 -1.1899 -1.7495 -2.0855
 3927SOL     H216153   5.384   4.403   0.509  1.2600  2.1071 -0.8425
 3927SOL    EPW16154   5.367   4.416   0.595 -0.1597 -0.1828 -0.7267
 3928SOL      O16155   0.746   0.550   0.651  0.2568 -0.0987  0.1708
 3928SOL     H116156   0.756   0.558   0.746  0.1792 -0.8916  0.2466
 3928SOL     H216157   0.752   0.640   0.619  1.0040  0.1006  0.8555
 3928SOL    EPW16158   0.748   0.560   0.657  0.3282 -0.1620  0.2520
 3929SOL      O16159   4.896   4.413   3.356  0.1708 -0.4978 -0.7681
 3929SOL     H116160   4.901   4.495   3.406  0.7856 -0.3592 -1.0402
 3929SOL     H216161   4.975   4.414   3.302 -0.6935 -0.4416 -2.0522
 3929SOL    EPW16162   4.905   4.422   3.355  0.1442 -0.4770 -0.9341
 3930SOL      O16163   2.213   4.927   0.114 -0.0235 -0.4342  0.6924
 3930SOL     H116164   2.171   4.841   0.118 -0.1834 -0.3692  0.4023
 3930SOL     H216165   2.269   4.923   0.036 -0.2771 -0.1604  0.4977
 3930SOL    EPW16166   2.215   4.917   0.106 -0.0676 -0.3981  0.6407
 3931SOL      O16167   3.363   1.073   0.386  0.4280  0.6888  0.3783
 3931SOL     H116168   3.387   0.982   0.402  0.2595  0.9597  2.3902
 3931SOL     H216169   3.441   1.123   0.412  0.2556  1.1585 -0.0043
 3931SOL    EPW16170   3.374   1.069   0.391  0.3917  0.7678  0.5521
 3932SOL      O16171   3.146   3.557   2.503 -0.3926  0.2378 -0.0002
 3932SOL     H116172   3.188   3.601   2.429  1.3174 -1.7318 -0.2400
 3932SOL     H216173   3.052   3.569   2.489 -0.0628  0.1722 -2.3202
 3932SOL    EPW16174   3.141   3.563   2.494 -0.1750  0.0207 -0.2733
 3933SOL      O16175   3.168   1.844   0.841 -0.1548  0.0445 -0.5286
 3933SOL     H116176   3.155   1.898   0.763  0.0539  0.3069 -0.3815
 3933SOL     H216177   3.260   1.856   0.863 -1.1157  3.2290  2.1617
 3933SOL    EPW16178   3.176   1.851   0.835 -0.2350  0.4122 -0.2259
 3934SOL      O16179   4.871   0.869   3.287 -0.2506 -0.0264 -0.2662
 3934SOL     H116180   4.934   0.925   3.332 -1.4209 -0.8303  2.4865
 3934SOL     H216181   4.912   0.848   3.203  2.3889  0.8297  0.7847
 3934SOL    EPW16182   4.882   0.873   3.282 -0.0939 -0.0209  0.1395
 3935SOL      O16183   0.183   4.097   3.834 -0.3831  0.3918  0.4645
 3935SOL     H116184   0.188   4.179   3.785  0.6454  0.1552  0.1627
 3935SOL     H216185   0.110   4.050   3.795  0.0042  0.4982 -0.4007
 3935SOL    EPW16186   0.176   4.101   3.824 -0.2321  0.3779  0.3400
 3936SOL      O16187   1.323   1.149   1.018 -0.6458  0.0565  0.1985
 3936SOL     H116188   1.384   1.195   0.960 -1.6357 -0.7353 -1.5234
 3936SOL     H216189   1.322   1.059   0.985 -0.7693 -0.5577  1.8401
 3936SOL    EPW16190   1.329   1.144   1.008 -0.7646 -0.0935  0.1899
 3937SOL      O16191   3.667   2.671   4.127  0.2213  0.3220 -0.5270
 3937SOL     H116192   3.746   2.633   4.087  0.8568  0.3367  0.6987
 3937SOL     H216193   3.613   2.595   4.149 -0.7077  0.3620 -2.5456
 3937SOL    EPW16194   3.670   2.659   4.125  0.1900  0.3278 -0.6115
 3938SOL      O16195   4.315   3.213   3.734 -0.5303  0.0205  0.1102
 3938SOL     H116196   4.338   3.123   3.714 -0.0645 -0.0113  0.7624
 3938SOL     H216197   4.327   3.260   3.652 -0.3295 -0.4244 -0.1156
 3938SOL    EPW16198   4.319   3.209   3.723 -0.4592 -0.0303  0.1557
 3939SOL      O16199   4.487   1.330   4.073  0.1782 -0.3061  0.9192
 3939SOL     H116200   4.401   1.308   4.107  0.1915 -0.4310  0.8734
 3939SOL     H216201   4.515   1.406   4.125 -0.2111  0.1050  0.5262
 3939SOL    EPW16202   4.481   1.336   4.082  0.1381 -0.2756  0.8724
 3940SOL      O16203   4.995   0.094   0.775  0.0119  0.5114  0.0506
 3940SOL     H116204   5.081   0.051   0.780 -0.1362  0.0727 -1.0929
 3940SOL     H216205   4.986   0.119   0.683 -2.3615 -2.1273 -0.5270
 3940SOL    EPW16206   5.004   0.092   0.766 -0.2571  0.1831 -0.1330
 3941SOL      O16207   4.019   3.151   3.771 -0.5191  0.3661  0.8576
 3941SOL     H116208   4.108   3.153   3.806 -0.4321  0.0287  0.6672
 3941SOL     H216209   4.028   3.177   3.679 -0.8468  1.9825  1.2731
 3941SOL    EPW16210   4.029   3.154   3.765 -0.5448  0.5026  0.8816
 3942SOL      O16211   3.308   4.502   2.985  0.1858  0.6293  0.3340
 3942SOL     H116212   3.381   4.478   2.926  0.5325  1.0649  0.5816
 3942SOL     H216213   3.350   4.550   3.056 -0.8015  4.7572 -1.7025
 3942SOL    EPW16214   3.321   4.505   2.986  0.1175  1.1161  0.1432
 3943SOL      O16215   4.581   1.611   2.988 -0.1833  0.9243 -0.0682
 3943SOL     H116216   4.644   1.557   2.940 -0.4240  0.3149  0.2889
 3943SOL     H216217   4.587   1.697   2.948  0.4116  0.6992 -0.4631
 3943SOL    EPW16218   4.588   1.614   2.978 -0.1455  0.8353 -0.0723
 3944SOL      O16219   4.227   4.061   3.505  0.0090 -0.0168  0.2212
 3944SOL     H116220   4.266   3.987   3.553  0.5828  0.4355  0.4619
 3944SOL     H216221   4.209   4.026   3.418  0.0919 -0.5008  0.3940
 3944SOL    EPW16222   4.229   4.049   3.501  0.0791 -0.0202  0.2653
 3945SOL      O16223   2.124   3.455   0.179  0.2515  0.3424 -0.0072
 3945SOL     H116224   2.054   3.500   0.227 -3.3065 -1.6744 -2.9886
 3945SOL     H216225   2.109   3.480   0.088  3.5550 -0.0870 -0.7053
 3945SOL    EPW16226   2.115   3.462   0.175  0.2244  0.0814 -0.3997
 3946SOL      O16227   0.932   4.789   0.431 -0.2621 -0.4088  0.1165
 3946SOL     H116228   0.957   4.699   0.411 -0.4058 -0.2253 -0.9296
 3946SOL     H216229   0.939   4.835   0.347  3.1548  1.3259  1.2499
 3946SOL    EPW16230   0.936   4.784   0.420  0.0871 -0.2041  0.1258
 3947SOL      O16231   3.735   2.947   3.224 -0.1029 -0.3839  0.0231
 3947SOL     H116232   3.672   2.929   3.155 -3.0543 -0.2918  2.5925
 3947SOL     H216233   3.706   2.894   3.298  0.9700  2.0430  2.2656
 3947SOL    EPW16234   3.725   2.940   3.225 -0.3033 -0.1151  0.5364
 3948SOL      O16235   4.226   2.649   3.839 -0.0885  0.3310 -0.0537
 3948SOL     H116236   4.308   2.694   3.862  0.7510 -0.5882 -1.1643
 3948SOL     H216237   4.158   2.713   3.856  0.8957  1.2319  0.5785
 3948SOL    EPW16238   4.228   2.661   3.843  0.1061  0.3291 -0.1047
 3949SOL      O16239   1.972   5.557   0.168  0.1316  0.3024 -0.1136
 3949SOL     H116240   2.033   5.602   0.226 -1.4089  3.0826 -0.5791
 3949SOL     H216241   2.012   5.566   0.081  0.8214 -1.0384  0.0478
 3949SOL    EPW16242   1.983   5.563   0.165  0.0408  0.4560 -0.1461
 3950SOL      O16243   3.745   3.358   2.984 -0.0872 -0.7048 -0.3615
 3950SOL     H116244   3.664   3.364   2.932 -0.4982  1.3551  0.4469
 3950SOL     H216245   3.716   3.370   3.074  1.1678  0.6881 -0.1185
 3950SOL    EPW16246   3.733   3.360   2.988  0.0029 -0.3365 -0.2494
 3951SOL      O16247   4.761   3.328   3.753  0.0808  0.4262  0.4478
 3951SOL     H116248   4.742   3.374   3.671 -1.4717  0.1224  0.6261
 3951SOL     H216249   4.685   3.346   3.809  0.9025  0.2306  1.6567
 3951SOL    EPW16250   4.751   3.335   3.750  0.0028  0.3730  0.5958
 3952SOL      O16251   1.031   5.790   0.633 -0.4149 -0.4599  0.5825
 3952SOL     H116252   0.982   5.838   0.566  1.7194  0.0032 -0.7084
 3952SOL     H216253   0.964   5.752   0.689 -2.1976  2.2939  0.4174
 3952SOL    EPW16254   1.018   5.791   0.631 -0.3774 -0.1168  0.4271
 3953SOL      O16255   0.720   4.645   0.763 -0.4422  0.1231  0.3002
 3953SOL     H116256   0.662   4.656   0.837 -1.3726  2.2891 -0.7035
 3953SOL     H216257   0.747   4.734   0.740  2.9980 -0.7914  0.5205
 3953SOL    EPW16258   0.717   4.656   0.768 -0.1745  0.2566  0.2167
 3954SOL      O16259   2.761   0.546   0.628  0.3353  0.1845  0.1804
 3954SOL     H116260   2.689   0.494   0.664  0.1501  0.9333  0.9002
 3954SOL     H216261   2.722   0.595   0.556  0.2129  0.3038  0.3287
 3954SOL    EPW16262   2.749   0.545   0.624  0.3025  0.2771  0.2730
 3955SOL      O16263   3.449   2.403   4.080 -0.0615 -0.1931  0.5133
 3955SOL     H116264   3.422   2.322   4.037  0.3755 -1.1580  2.0434
 3955SOL     H216265   3.503   2.375   4.153  0.0742  1.4877  1.0801
 3955SOL    EPW16266   3.452   2.392   4.083 -0.0004 -0.1167  0.7370
 3956SOL      O16267   2.817   2.516   2.045  0.6583 -0.0105  0.8173
 3956SOL     H116268   2.910   2.529   2.065  1.0941 -1.0630 -0.4459
 3956SOL     H216269   2.813   2.515   1.949 -0.2926 -2.4230  0.8557
 3956SOL    EPW16270   2.827   2.518   2.037  0.6033 -0.3802  0.6867
 3957SOL      O16271   2.460   0.695   0.306  0.1071  0.8278 -0.1795
 3957SOL     H116272   2.552   0.701   0.334  0.4597  0.0219 -1.1405
 3957SOL     H216273   2.440   0.781   0.270  0.4870  1.0092  0.0375
 3957SOL    EPW16274   2.468   0.704   0.305  0.1852  0.7612 -0.2589
 3958SOL      O16275   3.989   1.828   2.221 -0.2145 -0.1554  0.1484
 3958SOL     H116276   3.979   1.759   2.156  0.8555  0.1114 -0.2962
 3958SOL     H216277   3.913   1.885   2.208  1.5470  1.6106 -2.9407
 3958SOL    EPW16278   3.980   1.827   2.213  0.0876  0.0615 -0.2286
 3959SOL      O16279   4.939   3.696   3.029 -0.4172  0.0023  0.5869
 3959SOL     H116280   4.933   3.658   2.942  1.0865 -0.5497  0.7064
 3959SOL     H216281   4.911   3.787   3.018  0.5500  0.1645 -0.6496
 3959SOL    EPW16282   4.935   3.702   3.019 -0.1536 -0.0393  0.4677
 3960SOL      O16283   1.834   4.072   0.264  0.0347 -0.3663 -0.0660
 3960SOL     H116284   1.799   4.034   0.184  0.7120 -0.9425 -0.0969
 3960SOL     H216285   1.782   4.150   0.278  1.0917  0.7514 -2.0753
 3960SOL    EPW16286   1.825   4.076   0.257  0.2197 -0.3086 -0.2837
 3961SOL      O16287   5.054   1.003   3.439 -0.0722 -0.4950 -0.3633
 3961SOL     H116288   5.082   0.921   3.480 -0.6552 -1.4755 -1.8784
 3961SOL     H216289   4.998   1.045   3.505 -0.9897 -2.0359 -0.1530
 3961SOL    EPW16290   5.051   0.999   3.450 -0.2323 -0.7640 -0.5025
 3962SOL      O16291   1.975   5.823   0.449 -0.0549  0.0868 -0.1889
 3962SOL     H116292   2.025   5.779   0.380  0.8228 -1.0466  1.1069
 3962SOL     H216293   1.887   5.833   0.414 -0.0595 -2.0128 -0.8503
 3962SOL    EPW16294   1.971   5.819   0.438  0.0382 -0.2581 -0.1212
 3963SOL      O16295   4.010   2.107   3.838 -0.1199 -0.3692 -0.0820
 3963SOL     H116296   4.098   2.117   3.874  0.1338  0.4382 -0.9009
 3963SOL     H216297   3.993   2.013   3.842  0.0796 -0.3501  1.6979
 3963SOL    EPW16298   4.017   2.098   3.843 -0.0715 -0.2810  0.0205
 3964SOL      O16299   3.398   2.095   3.280  0.5255  0.4040  0.4626
 3964SOL     H116300   3.494   2.088   3.277  0.4959  0.1484  0.0149
 3964SOL     H216301   3.380   2.131   3.367  1.0183  0.2570  0.6343
 3964SOL    EPW16302   3.407   2.098   3.289  0.5749  0.3611  0.4332
 3965SOL      O16303   0.319   5.552   0.749  0.1853  0.5288  0.1706
 3965SOL     H116304   0.270   5.478   0.785 -0.4174 -0.2754 -2.1744
 3965SOL     H216305   0.252   5.609   0.711  0.7193  1.8323  1.1806
 3965SOL    EPW16306   0.307   5.550   0.749  0.1779  0.5820  0.0282
 3966SOL      O16307   3.428   2.092   3.745 -0.0274  0.3047 -0.2207
 3966SOL     H116308   3.476   2.144   3.681  0.6867 -0.3411 -0.2081
 3966SOL     H216309   3.482   2.014   3.759 -1.3270 -0.6991 -0.6262
 3966SOL    EPW16310   3.439   2.089   3.740 -0.0898  0.1287 -0.2626
 3967SOL      O16311   3.030   0.927   0.668  0.3696 -0.3655  0.3819
 3967SOL     H116312   3.071   1.011   0.648  0.8745 -0.9021 -0.8414
 3967SOL     H216313   2.999   0.937   0.758 -0.1755  1.3694  0.0196
 3967SOL    EPW16314   3.031   0.937   0.676  0.3653 -0.2376  0.2127
 3968SOL      O16315   0.142   2.983   1.832 -0.4798 -0.1177  0.3878
 3968SOL     H116316   0.123   3.076   1.825  1.1392  0.2139  0.2831
 3968SOL     H216317   0.178   2.959   1.746 -1.1737 -0.9162  0.3033
 3968SOL    EPW16318   0.144   2.990   1.822 -0.3811 -0.1675  0.3676
 3969SOL      O16319   5.153   5.507   1.852 -0.3532  0.0004 -0.3310
 3969SOL     H116320   5.227   5.549   1.808 -2.1215  1.1914 -2.2695
 3969SOL     H216321   5.143   5.423   1.807 -0.1836 -0.1790 -0.0398
 3969SOL    EPW16322   5.160   5.502   1.842 -0.5237  0.1083 -0.5067
 3970SOL      O16323   3.587   5.372   1.116  0.2020  0.7327  0.2464
 3970SOL     H116324   3.563   5.426   1.040  0.5453  2.0578  1.0660
 3970SOL     H216325   3.524   5.299   1.114 -0.3392  1.2172 -0.8099
 3970SOL    EPW16326   3.578   5.370   1.108  0.1809  0.9257  0.2212
 3971SOL      O16327   2.237   3.323   3.948 -0.0644 -0.4217  0.2183
 3971SOL     H116328   2.206   3.357   4.031 -1.1953  0.7810 -0.6696
 3971SOL     H216329   2.246   3.229   3.961  1.1846 -0.0506  2.1319
 3971SOL    EPW16330   2.235   3.317   3.958 -0.0518 -0.2538  0.3277
 3972SOL      O16331   5.020   5.047   1.387 -0.4464  0.0293 -0.5983
 3972SOL     H116332   4.962   5.009   1.321 -0.9838  0.9721 -0.6904
 3972SOL     H216333   4.997   5.003   1.468  1.6242 -2.5934 -1.3837
 3972SOL    EPW16334   5.011   5.038   1.388 -0.2828 -0.1499 -0.6919
 3973SOL      O16335   4.445   3.533   1.579  0.2803  0.0833 -0.3285
 3973SOL     H116336   4.372   3.583   1.543 -0.0489  0.1961  0.4748
 3973SOL     H216337   4.404   3.458   1.621  0.6852 -0.2394 -0.5099
 3973SOL    EPW16338   4.433   3.531   1.580  0.2883  0.0609 -0.2621
 3974SOL      O16339   3.999   3.538   0.790  0.7283  0.2058 -0.0560
 3974SOL     H116340   4.007   3.509   0.880 -0.9431 -0.3058 -0.0671
 3974SOL     H216341   3.905   3.536   0.771  0.8812  2.0183 -1.2402
 3974SOL    EPW16342   3.990   3.535   0.797  0.5663  0.3446 -0.1835
 3975SOL      O16343   4.573   3.192   1.573  0.3310  0.3282  0.3288
 3975SOL     H116344   4.664   3.166   1.564 -0.5049 -2.5879 -0.2884
 3975SOL     H216345   4.545   3.156   1.657 -0.8263 -0.7471 -0.4873
 3975SOL    EPW16346   4.579   3.186   1.581  0.1184 -0.0976  0.1759
 3976SOL      O16347   4.019   4.990   0.961  0.0849 -0.8228 -0.8176
 3976SOL     H116348   4.059   5.016   1.044  1.4294 -0.5399 -1.5386
 3976SOL     H216349   3.937   4.948   0.986  0.6169 -1.0098  0.6753
 3976SOL    EPW16350   4.015   4.988   0.973  0.2851 -0.8126 -0.7353
 3977SOL      O16351   4.485   4.026   0.748 -0.6660  0.4186 -0.2332
 3977SOL     H116352   4.423   4.047   0.818 -1.5903 -0.0714 -0.8894
 3977SOL     H216353   4.491   4.105   0.696 -0.2767  0.6585  0.1711
 3977SOL    EPW16354   4.479   4.036   0.750 -0.7230  0.3920 -0.2601
 3978SOL      O16355   0.228   3.625   3.847 -0.3231 -0.4096 -0.3601
 3978SOL     H116356   0.260   3.611   3.758  0.7394  2.5738 -0.5071
 3978SOL     H216357   0.153   3.683   3.836  1.6762  2.5507  0.8192
 3978SOL    EPW16358   0.224   3.630   3.837  0.0035  0.2244 -0.2500
 3979SOL      O16359   2.905   0.490   1.280 -0.2488  0.2717  0.1714
 3979SOL     H116360   2.931   0.398   1.272 -1.1716 -0.0503  0.7923
 3979SOL     H216361   2.940   0.532   1.201  2.0985 -0.1444  0.9520
 3979SOL    EPW16362   2.912   0.485   1.270 -0.0969  0.1930  0.3209
 3980SOL      O16363   4.667   4.928   0.010  0.2898  0.0289  0.4830
 3980SOL     H116364   4.749   4.964   0.043  0.6975  0.6516 -1.1603
 3980SOL     H216365   4.601   4.959   0.071  1.0175  1.1793  0.7085
 3980SOL    EPW16366   4.669   4.935   0.020  0.4109  0.2180  0.3318
 3981SOL      O16367   4.087   5.208   1.521  0.4623  0.3787  0.0053
 3981SOL     H116368   4.092   5.115   1.499 -1.4221 -0.2811  2.1898
 3981SOL     H216369   4.025   5.244   1.458 -1.4215 -0.5679  1.2733
 3981SOL    EPW16370   4.081   5.202   1.512  0.0603  0.2074  0.3736
 3982SOL      O16371   3.073   4.768   1.344  0.4890  0.5877  0.1256
 3982SOL     H116372   3.156   4.761   1.298 -0.1343  0.1973 -0.9572
 3982SOL     H216373   3.013   4.807   1.280 -0.7345 -1.2072  0.1525
 3982SOL    EPW16374   3.075   4.771   1.332  0.2920  0.3546  0.0129
 3983SOL      O16375   0.665   4.082   1.547 -0.6737 -0.0544 -0.6821
 3983SOL     H116376   0.741   4.059   1.494  0.7714 -0.9908  1.7060
 3983SOL     H216377   0.682   4.172   1.574  0.6556 -0.9133  1.5109
 3983SOL    EPW16378   0.675   4.089   1.544 -0.3777 -0.2459 -0.1934
 3984SOL      O16379   1.475   0.553   3.960  0.2526 -0.1472 -0.0520
 3984SOL     H116380   1.539   0.523   4.025  1.4720  0.8427 -0.7902
 3984SOL     H216381   1.474   0.648   3.969 -0.4421 -0.0907 -0.6870
 3984SOL    EPW16382   1.481   0.560   3.968  0.3086 -0.0356 -0.1985
 3985SOL      O16383   2.102   2.293   4.060  0.0252  0.0485  0.4586
 3985SOL     H116384   2.161   2.217   4.064 -0.0661 -0.0617 -0.2772
 3985SOL     H216385   2.141   2.356   4.121  0.1800 -0.5331  0.9682
 3985SOL    EPW16386   2.113   2.291   4.067  0.0320 -0.0253  0.4345
 3986SOL      O16387   4.608   3.398   0.341  0.0170 -0.0792  0.5891
 3986SOL     H116388   4.675   3.342   0.302  0.1437 -0.0650  0.7868
 3986SOL     H216389   4.656   3.455   0.402 -0.1607 -0.0106  0.6661
 3986SOL    EPW16390   4.620   3.398   0.344  0.0116 -0.0704  0.6184
 3987SOL      O16391   3.354   5.189   0.259  0.3083  0.0120 -0.6045
 3987SOL     H116392   3.380   5.122   0.322 -0.4824 -1.6252 -1.9606
 3987SOL     H216393   3.426   5.252   0.259  0.2098  0.1486  2.0601
 3987SOL    EPW16394   3.365   5.189   0.265  0.2134 -0.1481 -0.4649
 3988SOL      O16395   4.996   4.180   1.174 -0.8114  0.0609  0.0052
 3988SOL     H116396   5.008   4.088   1.199  1.7880 -0.1494 -1.8676
 3988SOL     H216397   5.016   4.229   1.254  3.1150 -0.8018 -0.3615
 3988SOL    EPW16398   4.999   4.175   1.185 -0.1153 -0.0536 -0.2337
 3989SOL      O16399   5.087   4.932   1.089 -0.4016 -0.4974 -0.0552
 3989SOL     H116400   5.068   4.970   1.003 -1.6940 -2.2961 -0.6007
 3989SOL     H216401   5.002   4.912   1.126  0.1832 -0.5575  1.2768
 3989SOL    EPW16402   5.076   4.933   1.084 -0.4771 -0.6957  0.0287
 3990SOL      O16403   4.157   2.431   3.693  0.3307  0.3667 -0.1298
 3990SOL     H116404   4.245   2.394   3.679  0.5747  1.0167 -0.3321
 3990SOL     H216405   4.169   2.494   3.763 -0.0015  0.3795 -0.0868
 3990SOL    EPW16406   4.168   2.433   3.699  0.3213  0.4374 -0.1468
 3991SOL      O16407   4.114   3.203   1.115 -0.5221 -0.1620 -0.5165
 3991SOL     H116408   4.066   3.284   1.096  0.5653  0.9149  1.1709
 3991SOL     H216409   4.113   3.198   1.211  0.1065 -1.7453 -0.5882
 3991SOL    EPW16410   4.108   3.211   1.123 -0.3391 -0.2160 -0.3441
 3992SOL      O16411   4.591   5.162   1.026  0.5143 -0.1377 -0.0506
 3992SOL     H116412   4.625   5.248   1.050 -1.8088  0.4279  1.3688
 3992SOL     H216413   4.539   5.179   0.948  0.5278 -0.3616 -0.1064
 3992SOL    EPW16414   4.589   5.173   1.020  0.2679 -0.1013  0.0949
 3993SOL      O16415   0.107   4.315   2.251  0.2440 -0.1331  0.4492
 3993SOL     H116416   0.051   4.243   2.221  1.4867 -1.4143  1.1373
 3993SOL     H216417   0.103   4.380   2.180  0.7981 -1.8139 -1.1596
 3993SOL    EPW16418   0.100   4.314   2.240  0.4357 -0.4490  0.3510
 3994SOL      O16419   4.785   3.500   0.529 -0.1226  0.0244  0.2541
 3994SOL     H116420   4.851   3.434   0.548 -1.2597 -1.0514  0.5545
 3994SOL     H216421   4.806   3.573   0.587  0.4790 -0.5145  0.7202
 3994SOL    EPW16422   4.794   3.500   0.537 -0.1797 -0.1479  0.3359
 3995SOL      O16423   1.803   2.538   3.536 -0.0229 -0.1909 -0.4742
 3995SOL     H116424   1.823   2.458   3.488 -0.7552 -0.6225 -0.0613
 3995SOL     H216425   1.868   2.542   3.606  1.1115  0.4892 -1.5499
 3995SOL    EPW16426   1.812   2.530   3.538  0.0200 -0.1644 -0.5449
 3996SOL      O16427   4.987   4.940   0.352 -0.1153  0.2051  0.6894
 3996SOL     H116428   4.936   4.983   0.284 -2.5719 -0.4419  2.0248
 3996SOL     H216429   4.950   4.975   0.434  0.9287 -1.0437  1.7069
 3996SOL    EPW16430   4.977   4.948   0.354 -0.2660  0.0029  0.9404
 3997SOL      O16431   4.444   4.366   1.737 -0.0353  0.1890  0.3142
 3997SOL     H116432   4.478   4.434   1.679 -0.9069  0.5798  0.2501
 3997SOL     H216433   4.365   4.404   1.774  1.2183  0.4894  2.8184
 3997SOL    EPW16434   4.439   4.377   1.735  0.0055  0.2628  0.5745
 3998SOL      O16435   5.774   3.588   0.825  0.3670  0.0522  0.3321
 3998SOL     H116436   5.806   3.498   0.819 -0.6335 -0.3355  0.7591
 3998SOL     H216437   5.837   3.639   0.774  1.4735 -0.7455  0.8897
 3998SOL    EPW16438   5.784   3.584   0.819  0.3783 -0.0743  0.4371
 3999SOL      O16439   5.072   4.300   1.425  0.2033 -0.4219 -0.0528
 3999SOL     H116440   5.145   4.255   1.467  0.5446  0.4874  0.3631
 3999SOL     H216441   4.994   4.262   1.465  0.4684 -1.0698 -0.1547
 3999SOL    EPW16442   5.071   4.291   1.434  0.2680 -0.3940 -0.0193
 4000SOL      O16443   1.480   3.034   1.563 -0.0879 -0.9450  0.2474
 4000SOL     H116444   1.515   3.072   1.483 -1.1116  0.3467  0.3969
 4000SOL     H216445   1.385   3.031   1.549 -0.2770 -0.7071  1.4000
 4000SOL    EPW16446   1.474   3.038   1.553 -0.2173 -0.7818  0.3863
 4001SOL      O16447   3.259   4.176   0.452  0.2314 -0.0437 -0.1629
 4001SOL     H116448   3.258   4.196   0.359  0.2765  0.0700 -0.1385
 4001SOL     H216449   3.344   4.206   0.483 -0.2869  1.0775  0.1653
 4001SOL    EPW16450   3.268   4.181   0.446  0.1810  0.0880 -0.1253
 4002SOL      O16451   4.914   4.302   1.894 -0.2342  0.2093 -0.0164
 4002SOL     H116452   4.884   4.326   1.982 -1.7349  0.4931 -0.6002
 4002SOL     H216453   4.896   4.379   1.840 -1.4747 -0.7993 -1.0598
 4002SOL    EPW16454   4.909   4.313   1.898 -0.5266  0.1320 -0.1900
 4003SOL      O16455   5.405   4.043   1.967  0.3735 -0.3650 -0.4574
 4003SOL     H116456   5.348   4.038   2.043  0.0531  0.3416 -0.6442
 4003SOL     H216457   5.346   4.068   1.895  0.6490 -1.1450 -0.9556
 4003SOL    EPW16458   5.392   4.045   1.967  0.3687 -0.3728 -0.5305
 4004SOL      O16459   5.351   4.038   0.536  0.1740  0.0356 -0.5266
 4004SOL     H116460   5.447   4.034   0.537  0.1883 -0.0480  1.5741
 4004SOL     H216461   5.329   4.082   0.618 -1.6095 -0.3197 -0.7962
 4004SOL    EPW16462   5.359   4.043   0.545 -0.0147 -0.0112 -0.3313
 4005SOL      O16463   3.458   4.423   0.842 -0.1851 -0.5410 -0.1869
 4005SOL     H116464   3.464   4.396   0.933  0.8336  1.9564  0.5319
 4005SOL     H216465   3.548   4.418   0.810 -0.8741 -3.6801 -1.7772
 4005SOL    EPW16466   3.469   4.420   0.848 -0.1499 -0.6095 -0.2799
 4006SOL      O16467   1.191   0.659   2.751  0.5128  0.1638 -0.5426
 4006SOL     H116468   1.171   0.704   2.833 -1.2623  0.7560 -1.2831
 4006SOL     H216469   1.159   0.718   2.683 -0.1580 -1.3728 -1.5873
 4006SOL    EPW16470   1.185   0.670   2.752  0.2519  0.0630 -0.7330
 4007SOL      O16471   4.685   0.443   1.824  0.4781 -0.1349  0.4745
 4007SOL     H116472   4.772   0.428   1.788  0.2711  1.8025 -0.9120
 4007SOL     H216473   4.682   0.390   1.904  2.4456 -1.2302 -0.1613
 4007SOL    EPW16474   4.694   0.436   1.829  0.6659 -0.0451  0.2588
 4008SOL      O16475   5.714   3.194   0.602  0.2916 -0.2910 -0.4975
 4008SOL     H116476   5.795   3.188   0.552  0.6979 -0.2542  0.1556
 4008SOL     H216477   5.663   3.118   0.574 -0.2460  0.6939 -2.3173
 4008SOL    EPW16478   5.717   3.186   0.593  0.2776 -0.1820 -0.6219
 4009SOL      O16479   1.643   2.859   4.138 -0.2527 -0.2615  0.5725
 4009SOL     H116480   1.564   2.810   4.162 -2.3070  1.6903 -1.8347
 4009SOL     H216481   1.691   2.801   4.080 -0.6993 -0.8637  0.7979
 4009SOL    EPW16482   1.639   2.848   4.135 -0.5195 -0.1175  0.3398
 4010SOL      O16483   5.026   5.594   2.223  0.5550  0.4877 -0.4584
 4010SOL     H116484   5.009   5.597   2.129  1.1021  2.0493 -0.5166
 4010SOL     H216485   4.981   5.514   2.252 -2.3010  1.6405 -1.5125
 4010SOL    EPW16486   5.020   5.586   2.216  0.3087  0.7772 -0.5771
 4011SOL      O16487   0.770   0.785   4.148  0.0120 -0.3247  0.4534
 4011SOL     H116488   0.696   0.827   4.105  0.3551 -0.2285 -0.0475
 4011SOL     H216489   0.816   0.739   4.077  0.3852 -0.4501  0.7731
 4011SOL    EPW16490   0.767   0.784   4.136  0.0884 -0.3278  0.4341
 4012SOL      O16491   3.236   4.189   0.179 -0.4082  0.6539 -0.0093
 4012SOL     H116492   3.270   4.250   0.113 -0.3607 -1.7813 -2.3523
 4012SOL     H216493   3.189   4.123   0.128 -5.6220  1.9082  2.8451
 4012SOL    EPW16494   3.234   4.188   0.166 -0.9593  0.5280  0.0452
 4013SOL      O16495   3.954   4.142   1.509  0.2189  0.2067 -0.4020
 4013SOL     H116496   3.917   4.215   1.459 -1.1240 -0.2268 -0.0548
 4013SOL     H216497   4.005   4.093   1.444 -1.8620 -0.5887 -1.4644
 4013SOL    EPW16498   3.956   4.145   1.497 -0.1463  0.0756 -0.4783
 4014SOL      O16499   5.590   3.603   1.931 -0.2884  0.0088 -0.1226
 4014SOL     H116500   5.505   3.599   1.973  0.2875 -0.4005  1.0138
 4014SOL     H216501   5.615   3.696   1.935 -0.2144 -0.0365  0.4898
 4014SOL    EPW16502   5.584   3.612   1.936 -0.2190 -0.0397  0.0639
 4015SOL      O16503   5.616   5.510   0.719 -0.0587  0.2781  0.0465
 4015SOL     H116504   5.599   5.473   0.633 -0.7198  0.3600  0.1388
 4015SOL     H216505   5.601   5.604   0.708  0.6405  0.3908  0.0530
 4015SOL    EPW16506   5.612   5.516   0.709 -0.0546  0.2989  0.0570
 4016SOL      O16507   5.844   3.462   2.401  0.4062 -0.1169  0.2119
 4016SOL     H116508   5.792   3.440   2.323  0.4243  0.3855  0.0553
 4016SOL     H216509   5.779   3.473   2.471  0.4294 -1.0571  0.3832
 4016SOL    EPW16510   5.831   3.461   2.400  0.4106 -0.1636  0.2135
 4017SOL      O16511   3.695   1.377   0.138 -0.0273  0.2848  0.2169
 4017SOL     H116512   3.739   1.354   0.220 -0.1956  0.8238  0.4622
 4017SOL     H216513   3.766   1.381   0.073  0.1710  0.3336  0.4364
 4017SOL    EPW16514   3.707   1.375   0.140 -0.0241  0.3475  0.2665
 4018SOL      O16515   0.969   2.793   3.037 -0.0015 -0.1850  0.5644
 4018SOL     H116516   1.003   2.835   2.958 -1.0013  0.3114  0.3810
 4018SOL     H216517   0.945   2.866   3.094  0.3582 -0.5382  1.1689
 4018SOL    EPW16518   0.970   2.805   3.034 -0.0698 -0.1697  0.6093
 4019SOL      O16519   0.761   4.511   1.170  0.1790  0.0523  0.2279
 4019SOL     H116520   0.724   4.531   1.255  0.4347  0.0581  0.3393
 4019SOL     H216521   0.773   4.416   1.170  0.6725  0.1111  0.4036
 4019SOL    EPW16522   0.759   4.503   1.179  0.2589  0.0592  0.2585
 4020SOL      O16523   0.350   0.094   0.965  0.1492 -0.1001 -0.6866
 4020SOL     H116524   0.342   0.176   1.014  0.3241 -0.8007  0.5209
 4020SOL     H216525   0.287   0.035   1.006  2.0088 -1.4569  0.2942
 4020SOL    EPW16526   0.342   0.096   0.974  0.3662 -0.3196 -0.4532
 4021SOL      O16527   4.229   3.931   0.556  0.8227 -0.3010 -0.2416
 4021SOL     H116528   4.309   3.880   0.544  1.6909  0.5452  1.7791
 4021SOL     H216529   4.191   3.899   0.638 -0.0509  0.4256 -0.3468
 4021SOL    EPW16530   4.233   3.923   0.563  0.8221 -0.1332 -0.0373
 4022SOL      O16531   1.741   0.530   3.830 -0.6140 -0.3395  0.6292
 4022SOL     H116532   1.647   0.518   3.846 -0.3216 -0.3980  2.3151
 4022SOL     H216533   1.745   0.561   3.739 -2.3152  0.5228  0.8280
 4022SOL    EPW16534   1.731   0.532   3.822 -0.7643 -0.2538  0.8303
 4023SOL      O16535   5.080   4.576   1.453 -0.4141  0.1904 -0.1273
 4023SOL     H116536   5.129   4.609   1.529 -0.5081 -1.1813  0.5333
 4023SOL     H216537   5.071   4.482   1.469 -2.1220  0.2065 -0.9008
 4023SOL    EPW16538   5.085   4.569   1.463 -0.6063  0.0458 -0.1394
 4024SOL      O16539   3.426   3.128   1.734  0.3683  0.6314 -0.0017
 4024SOL     H116540   3.382   3.063   1.788 -1.6270  1.9033 -0.0674
 4024SOL     H216541   3.460   3.192   1.797  0.4811  0.6451 -0.0766
 4024SOL    EPW16542   3.425   3.128   1.746  0.1674  0.7685 -0.0167
 4025SOL      O16543   2.320   1.005   3.261  0.0378  0.0343  0.1310
 4025SOL     H116544   2.267   1.062   3.317  0.5547  0.0170  0.6490
 4025SOL     H216545   2.346   0.932   3.318 -1.2578 -1.1206 -0.7508
 4025SOL    EPW16546   2.317   1.004   3.273 -0.0452 -0.0907  0.0922
 4026SOL      O16547   3.579   5.516   0.898 -0.0219 -0.0319  0.5568
 4026SOL     H116548   3.664   5.515   0.854 -1.0394 -0.6634 -1.4630
 4026SOL     H216549   3.530   5.587   0.855 -0.7501 -0.1215  1.2238
 4026SOL    EPW16550   3.583   5.523   0.888 -0.2081 -0.1088  0.4125
 4027SOL      O16551   5.192   5.564   0.927  0.3783  0.0587 -0.2641
 4027SOL     H116552   5.288   5.559   0.923  0.3262 -0.3687 -0.8912
 4027SOL     H216553   5.166   5.484   0.972  0.3717  0.6290  0.7728
 4027SOL    EPW16554   5.200   5.555   0.932  0.3720  0.0740 -0.2204
 4028SOL      O16555   1.418   1.197   4.050 -0.3128  0.2607 -0.7765
 4028SOL     H116556   1.367   1.134   3.999 -1.5633  1.2668 -0.7692
 4028SOL     H216557   1.363   1.219   4.124  0.6201  0.4740 -0.1368
 4028SOL    EPW16558   1.407   1.192   4.052 -0.3466  0.3908 -0.7075
 4029SOL      O16559   5.179   4.524   0.893  0.3929  0.0809 -0.0151
 4029SOL     H116560   5.093   4.498   0.927  0.8670  1.1533  2.1220
 4029SOL     H216561   5.165   4.611   0.855  0.4026 -0.0169 -0.2437
 4029SOL    EPW16562   5.168   4.530   0.893  0.4445  0.1849  0.1885
 4030SOL      O16563   1.780   2.409   3.855  0.0286 -0.9409 -0.3866
 4030SOL     H116564   1.721   2.337   3.878 -1.2178 -0.0214 -0.6431
 4030SOL     H216565   1.822   2.433   3.937 -1.1015 -0.6004  0.1021
 4030SOL    EPW16566   1.778   2.404   3.866 -0.2249 -0.8065 -0.3618
 4031SOL      O16567   5.660   3.875   1.975 -0.8969 -0.3631  0.1562
 4031SOL     H116568   5.595   3.945   1.968 -0.7022  0.0106  1.9986
 4031SOL     H216569   5.744   3.921   1.984 -0.4355 -0.8452 -1.4441
 4031SOL    EPW16570   5.662   3.887   1.975 -0.8269 -0.3747  0.1820
 4032SOL      O16571   3.979   4.769   0.661 -0.4734  0.0590  0.4180
 4032SOL     H116572   4.015   4.734   0.742 -0.5568 -0.2606  0.3180
 4032SOL     H216573   3.946   4.692   0.614  0.0676  0.1785 -0.1632
 4032SOL    EPW16574   3.979   4.757   0.664 -0.4245  0.0377  0.3453
 4033SOL      O16575   4.856   4.716   1.594  0.1411 -0.0887  0.7819
 4033SOL     H116576   4.940   4.760   1.582  0.5013 -1.3360 -1.3736
 4033SOL     H216577   4.808   4.734   1.513 -1.2588 -0.2976  1.5546
 4033SOL    EPW16578   4.860   4.723   1.584  0.0302 -0.2440  0.6344
 4034SOL      O16579   3.919   4.511   0.580  0.3732 -0.0738 -0.2646
 4034SOL     H116580   3.875   4.546   0.503  0.6964  0.1137 -0.3638
 4034SOL     H216581   4.009   4.498   0.553  0.7511  1.0543  0.4096
 4034SOL    EPW16582   3.924   4.513   0.569  0.4480  0.0666 -0.2033
 4035SOL      O16583   3.761   3.385   1.875  0.1414 -0.1332 -0.3755
 4035SOL     H116584   3.762   3.466   1.825 -1.3732  0.5084  0.5881
 4035SOL     H216585   3.792   3.411   1.962 -0.7054 -0.5233  0.0387
 4035SOL    EPW16586   3.765   3.396   1.879 -0.1105 -0.1063 -0.2285
 4036SOL      O16587   5.159   3.832   1.908  0.3778 -0.3269 -0.6267
 4036SOL     H116588   5.105   3.911   1.899 -1.2568 -1.3914 -0.3281
 4036SOL     H216589   5.180   3.828   2.002  0.3624 -0.3219 -0.6233
 4036SOL    EPW16590   5.155   3.840   1.917  0.2018 -0.4399 -0.5945
 4037SOL      O16591   5.387   3.865   0.886 -0.2994  0.2435 -0.8894
 4037SOL     H116592   5.431   3.781   0.898 -0.6278  0.1032 -0.6560
 4037SOL     H216593   5.396   3.884   0.792 -1.7031 -0.8839 -1.2705
 4037SOL    EPW16594   5.392   3.858   0.877 -0.4842  0.1082 -0.9052
 4038SOL      O16595   0.978   2.242   3.375 -0.7046 -0.1580  0.5999
 4038SOL     H116596   1.006   2.191   3.450  0.8289 -3.4655 -2.0528
 4038SOL     H216597   1.052   2.298   3.354 -0.0951 -1.1484  0.0365
 4038SOL    EPW16598   0.989   2.242   3.380 -0.4760 -0.6165  0.2568
 4039SOL      O16599   5.435   5.457   2.670 -0.0204 -0.8113  0.1672
 4039SOL     H116600   5.347   5.433   2.643 -0.6540  1.9320 -0.3686
 4039SOL     H216601   5.485   5.462   2.588 -0.4051  1.5437  0.0437
 4039SOL    EPW16602   5.431   5.455   2.658 -0.1290 -0.2674  0.0969
 4040SOL      O16603   4.751   4.907   0.891 -0.1204  0.2784  0.2017
 4040SOL     H116604   4.800   4.832   0.924 -1.0036 -0.6727 -0.6119
 4040SOL     H216605   4.706   4.942   0.968 -1.3158 -1.2697  0.2371
 4040SOL    EPW16606   4.752   4.902   0.903 -0.3421  0.0118  0.1186
 4041SOL      O16607   3.933   5.269   0.222 -0.9249 -0.0164  0.2886
 4041SOL     H116608   3.917   5.203   0.290 -0.6856  0.6102  0.9548
 4041SOL     H216609   3.899   5.350   0.260 -1.8546  0.1173 -0.8045
 4041SOL    EPW16610   3.927   5.271   0.234 -0.9986  0.0647  0.2430
 4042SOL      O16611   4.028   3.790   2.010  0.0903 -0.2186  0.7408
 4042SOL     H116612   4.084   3.854   2.054  0.5646 -0.7917  0.9889
 4042SOL     H216613   4.039   3.808   1.917  0.3400 -0.0370  0.8045
 4042SOL    EPW16614   4.035   3.799   2.005  0.1676 -0.2603  0.7741
 4043SOL      O16615   4.638   4.545   1.265  0.2182 -0.4608 -0.2495
 4043SOL     H116616   4.683   4.624   1.293  1.8995 -1.8465  1.0384
 4043SOL     H216617   4.625   4.557   1.171  1.5819  0.7913 -0.2966
 4043SOL    EPW16618   4.641   4.555   1.258  0.5430 -0.4751 -0.1171
 4044SOL      O16619   4.331   2.760   0.608  0.3266  0.3129 -0.5809
 4044SOL     H116620   4.358   2.763   0.700 -0.3081  0.3619 -0.3928
 4044SOL     H216621   4.241   2.791   0.609 -0.3952 -1.7073 -0.9480
 4044SOL    EPW16622   4.324   2.763   0.618  0.1819  0.1026 -0.6000
 4045SOL      O16623   5.632   0.031   0.075 -0.2149  0.3519  0.2862
 4045SOL     H116624   5.551   0.064   0.112 -1.3367 -0.8048 -1.0906
 4045SOL     H216625   5.664  -0.033   0.139 -0.2878  0.9326  0.9082
 4045SOL    EPW16626   5.627   0.028   0.086 -0.3423  0.2904  0.2057
 4046SOL      O16627   5.013   4.663   0.247 -0.0852  0.2294  0.4271
 4046SOL     H116628   5.000   4.756   0.266  1.2183  0.4214  0.4086
 4046SOL     H216629   5.012   4.657   0.152  0.8231  0.3651  0.4131
 4046SOL    EPW16630   5.011   4.672   0.239  0.1507  0.2643  0.4236
 4047SOL      O16631   4.248   3.667   1.440  0.3551 -0.2175  0.0159
 4047SOL     H116632   4.299   3.742   1.470 -0.9086  0.2340  1.1217
 4047SOL     H216633   4.217   3.692   1.353  1.7267 -0.3691 -0.5347
 4047SOL    EPW16634   4.250   3.678   1.434  0.3666 -0.1855  0.0751
 4048SOL      O16635   4.672   3.560   1.431 -0.1435 -0.1493  0.1691
 4048SOL     H116636   4.748   3.538   1.485  0.0906  0.6340  0.1733
 4048SOL     H216637   4.596   3.533   1.484  0.0854  0.5383  0.8552
 4048SOL    EPW16638   4.672   3.555   1.442 -0.0941  0.0076  0.2428
 4049SOL      O16639   5.328   5.404   0.305  0.8083  0.5783  0.0922
 4049SOL     H116640   5.292   5.422   0.218  1.4643  1.1467 -0.0753
 4049SOL     H216641   5.400   5.467   0.313 -0.0007  1.3365  1.5239
 4049SOL    EPW16642   5.332   5.413   0.296  0.7920  0.7198  0.2271
 4050SOL      O16643   0.973   5.281   3.947 -0.5206  0.0613  0.2496
 4050SOL     H116644   0.941   5.190   3.951  1.2099 -0.6015 -0.6589
 4050SOL     H216645   1.068   5.273   3.948 -0.3546  1.9557  1.6841
 4050SOL    EPW16646   0.979   5.270   3.948 -0.3183  0.1927  0.3057
 4051SOL      O16647   2.662   2.853   2.799  0.3938 -0.1282  0.0238
 4051SOL     H116648   2.674   2.945   2.823  0.2427 -0.0471 -0.2010
 4051SOL     H216649   2.697   2.847   2.710 -0.9521  0.0478 -0.5230
 4051SOL    EPW16650   2.667   2.862   2.792  0.2341 -0.1008 -0.0585
 4052SOL      O16651   4.899   3.372   0.923  0.4311 -0.3718  0.6463
 4052SOL     H116652   4.892   3.305   0.991 -3.4095 -1.9594 -1.1812
 4052SOL     H216653   4.928   3.324   0.846  1.5770  0.8301  0.3188
 4052SOL    EPW16654   4.902   3.359   0.922  0.1437 -0.4130  0.4164
 4053SOL      O16655   3.098   0.960   1.912 -0.1121  0.3088 -0.2102
 4053SOL     H116656   3.048   0.991   1.837 -1.5814 -1.3897  0.0395
 4053SOL     H216657   3.183   1.005   1.905  0.4509 -1.2403 -3.8839
 4053SOL    EPW16658   3.102   0.968   1.904 -0.2088 -0.0377 -0.5755
 4054SOL      O16659   3.316   3.664   0.771  0.3031 -0.0650  0.5356
 4054SOL     H116660   3.334   3.581   0.728  0.8809  1.6002 -2.6133
 4054SOL     H216661   3.228   3.688   0.741  0.4533  0.8345  0.7901
 4054SOL    EPW16662   3.309   3.658   0.763  0.3808  0.2086  0.2269
 4055SOL      O16663   4.757   5.743   2.756  0.3459 -0.0944  0.1308
 4055SOL     H116664   4.673   5.780   2.784 -0.2786 -0.7851 -0.7964
 4055SOL     H216665   4.761   5.760   2.662  1.6641  0.7329  0.3228
 4055SOL    EPW16666   4.749   5.749   2.749  0.4199 -0.0798  0.0524
 4056SOL      O16667   3.343   0.296   0.147  0.5657 -0.1748  0.3609
 4056SOL     H116668   3.292   0.217   0.134 -0.2119  0.2774  0.6813
 4056SOL     H216669   3.408   0.294   0.076  0.7591 -1.2564  0.5631
 4056SOL    EPW16670   3.345   0.287   0.138  0.5034 -0.2419  0.4166
 4057SOL      O16671   4.656   4.179   1.042 -0.2721  0.1165  0.2321
 4057SOL     H116672   4.604   4.099   1.045 -0.3972  0.1075 -1.6298
 4057SOL     H216673   4.593   4.248   1.022  0.2569  0.2461 -1.0609
 4057SOL    EPW16674   4.644   4.178   1.040 -0.2290  0.1294 -0.1044
 4058SOL      O16675   4.775   3.879   1.989  0.0240  0.9308  0.1641
 4058SOL     H116676   4.758   3.827   2.068  1.0076 -1.7521 -1.3355
 4058SOL     H216677   4.692   3.879   1.942  0.3400 -0.3738 -0.4218
 4058SOL    EPW16678   4.764   3.873   1.993  0.1626  0.5055 -0.0584
 4059SOL      O16679   5.763   4.090   2.402  0.6288  0.1928  0.3951
 4059SOL     H116680   5.743   4.113   2.493  0.2662  0.1865  0.3163
 4059SOL     H216681   5.795   3.999   2.407  0.8141  0.2643  0.5404
 4059SOL    EPW16682   5.765   4.083   2.413  0.6099  0.1998  0.4022
 4060SOL      O16683   4.424   5.214   2.111 -0.3451 -0.1213  0.4397
 4060SOL     H116684   4.337   5.193   2.076 -0.0059 -0.7146 -0.0613
 4060SOL     H216685   4.484   5.160   2.060  0.2527 -0.2780  1.2965
 4060SOL    EPW16686   4.421   5.206   2.102 -0.2452 -0.2013  0.4776
 4061SOL      O16687   0.468   3.430   1.652 -0.5497 -0.0836 -0.5613
 4061SOL     H116688   0.420   3.421   1.734  0.2992  1.4370  0.1036
 4061SOL     H216689   0.520   3.510   1.662  2.9996 -2.2581 -0.8477
 4061SOL    EPW16690   0.468   3.438   1.662 -0.0805 -0.1534 -0.5209
 4062SOL      O16691   1.404   2.702   2.853  0.5985 -0.2674 -0.0761
 4062SOL     H116692   1.345   2.669   2.920  1.2692 -0.9070  0.2134
 4062SOL     H216693   1.480   2.644   2.858 -0.5544 -2.1905 -3.3605
 4062SOL    EPW16694   1.406   2.692   2.861  0.5471 -0.5408 -0.3956
 4063SOL      O16695   4.598   4.915   0.660  0.5652  0.2851  0.2752
 4063SOL     H116696   4.557   4.830   0.645 -0.4357  0.9638 -0.9760
 4063SOL     H216697   4.635   4.909   0.748  0.1716 -1.3021  0.3496
 4063SOL    EPW16698   4.598   4.906   0.668  0.4164  0.1882  0.1497
 4064SOL      O16699   0.499   3.821   0.185 -0.1632  0.7394 -0.1693
 4064SOL     H116700   0.476   3.728   0.192 -1.1667  0.8651 -1.7580
 4064SOL     H216701   0.465   3.859   0.266  1.2399 -0.4609  1.0253
 4064SOL    EPW16702   0.493   3.815   0.195 -0.1206  0.6248 -0.2114
 4065SOL      O16703   4.794   4.461   1.666  0.8431 -0.5399  0.1656
 4065SOL     H116704   4.726   4.463   1.599  0.1171 -0.5750  0.9002
 4065SOL     H216705   4.850   4.536   1.645  1.2587 -1.1925 -1.1279
 4065SOL    EPW16706   4.793   4.469   1.656  0.8100 -0.6133  0.1059
 4066SOL      O16707   5.346   4.746   1.919 -0.9300  0.1213 -0.0571
 4066SOL     H116708   5.309   4.685   1.855 -1.1649 -0.1567  0.3409
 4066SOL     H216709   5.279   4.752   1.987  0.2512 -1.3543  1.2939
 4066SOL    EPW16710   5.335   4.740   1.919 -0.8291 -0.0658  0.1295
 4067SOL      O16711   5.072   4.912   1.943 -0.1534  0.0731  0.0269
 4067SOL     H116712   5.009   4.975   1.908 -1.0953 -1.6205 -1.4617
 4067SOL     H216713   5.140   4.965   1.984 -1.8453  1.9829  0.4148
 4067SOL    EPW16714   5.073   4.924   1.943 -0.4344  0.0961 -0.0905
 4068SOL      O16715   3.950   3.210   1.803  0.6990 -0.1454  0.3820
 4068SOL     H116716   4.005   3.211   1.882  0.5051  0.6356  0.5066
 4068SOL     H216717   3.871   3.258   1.829 -1.0184 -3.1267  0.9220
 4068SOL    EPW16718   3.947   3.215   1.814  0.4951 -0.3802  0.4529
 4069SOL      O16719   4.131   0.765   2.323  0.5166  0.2937 -0.0482
 4069SOL     H116720   4.044   0.771   2.284  0.1726  3.0037  1.0460
 4069SOL     H216721   4.191   0.786   2.251  0.2183 -0.4157 -0.5100
 4069SOL    EPW16722   4.129   0.768   2.311  0.4481  0.5072  0.0193
 4070SOL      O16723   5.171   4.584   0.001  0.4490  0.5106 -0.5598
 4070SOL     H116724   5.202   4.656  -0.054  1.7370  0.9841  0.7407
 4070SOL     H216725   5.246   4.526   0.010 -0.6228 -1.1107 -1.7185
 4070SOL    EPW16726   5.182   4.586  -0.004  0.4721  0.3881 -0.5447
 4071SOL      O16727   4.572   0.557   0.987 -0.5121 -0.3260 -0.4365
 4071SOL     H116728   4.623   0.615   1.043 -0.8207 -0.6729  0.2041
 4071SOL     H216729   4.632   0.487   0.964 -0.6590 -0.6717  0.2204
 4071SOL    EPW16730   4.583   0.556   0.990 -0.5607 -0.3999 -0.2980
 4072SOL      O16731   5.295   3.655   1.739  0.7888 -0.3778  0.5672
 4072SOL     H116732   5.239   3.689   1.809  2.2148 -0.1989  1.6675
 4072SOL     H216733   5.333   3.576   1.776  1.7310 -0.1515  0.0911
 4072SOL    EPW16734   5.293   3.650   1.751  1.0414 -0.3346  0.6338
 4073SOL      O16735   2.690   4.893   0.373  0.1511 -0.6040 -0.2842
 4073SOL     H116736   2.605   4.919   0.336 -1.5177 -2.0242  2.3525
 4073SOL     H216737   2.731   4.976   0.399 -0.5984  0.0730 -1.2205
 4073SOL    EPW16738   2.685   4.905   0.372 -0.1069 -0.6833 -0.1028
 4074SOL      O16739   4.391   5.315   1.330 -0.2434 -0.2199  0.5913
 4074SOL     H116740   4.398   5.221   1.315 -0.7544 -0.2790  0.6974
 4074SOL     H216741   4.346   5.348   1.252 -1.4069 -0.2849  1.2173
 4074SOL    EPW16742   4.387   5.308   1.320 -0.4220 -0.2331  0.6694
 4075SOL      O16743   3.423   5.734   1.576 -0.0949  0.1812 -0.2236
 4075SOL     H116744   3.482   5.750   1.650  0.1716 -0.0362 -0.3851
 4075SOL     H216745   3.356   5.675   1.611 -0.0886  0.2490 -0.0976
 4075SOL    EPW16746   3.422   5.729   1.588 -0.0658  0.1652 -0.2274
 4076SOL      O16747   3.882   3.718   1.242 -0.1307  0.3777  0.4671
 4076SOL     H116748   3.947   3.768   1.193  0.6198 -1.2805 -0.2976
 4076SOL     H216749   3.897   3.743   1.333  2.8062 -1.2369  0.5034
 4076SOL    EPW16750   3.891   3.726   1.247  0.2626  0.0286  0.3894
 4077SOL      O16751   5.051   3.935   1.274  0.1216 -0.2211  0.4986
 4077SOL     H116752   5.138   3.906   1.247  0.1517  1.2054 -0.9398
 4077SOL     H216753   4.991   3.874   1.230  0.2971  0.1979 -0.3221
 4077SOL    EPW16754   5.054   3.925   1.267  0.1435 -0.0242  0.2576
 4078SOL      O16755   5.356   5.133   2.032  0.6280 -0.6007 -0.2099
 4078SOL     H116756   5.385   5.186   2.106  0.0444 -0.9565  0.2720
 4078SOL     H216757   5.317   5.056   2.071  2.7846 -2.1018 -0.9329
 4078SOL    EPW16758   5.355   5.131   2.044  0.7958 -0.7988 -0.2356
 4079SOL      O16759   0.447   2.209   4.116 -0.2446  0.5096  0.6326
 4079SOL     H116760   0.467   2.206   4.210 -1.2076  2.5451  0.9353
 4079SOL     H216761   0.444   2.117   4.090  1.4750 -0.0543  2.2655
 4079SOL    EPW16762   0.449   2.199   4.124 -0.1639  0.6666  0.8391
 4080SOL      O16763   4.954   3.232   0.515  0.4621 -0.1069 -0.0668
 4080SOL     H116764   5.044   3.264   0.521  0.5235 -0.0533 -1.0658
 4080SOL     H216765   4.930   3.209   0.604  1.6467 -0.6171  0.1278
 4080SOL    EPW16766   4.961   3.233   0.525  0.5950 -0.1556 -0.1526
 4081SOL      O16767   3.345   3.223   0.259 -0.1479  0.0795  0.5407
 4081SOL     H116768   3.365   3.188   0.172  0.6245 -0.1821  0.8186
 4081SOL     H216769   3.295   3.154   0.301  1.8488 -0.9634  1.2884
 4081SOL    EPW16770   3.342   3.212   0.254  0.1475 -0.0596  0.6501
 4082SOL      O16771   1.870   3.285   3.995  0.2135  0.0139 -1.0397
 4082SOL     H116772   1.779   3.270   3.970  0.4314  0.4456 -2.1230
 4082SOL     H216773   1.869   3.368   4.043 -0.2226 -0.8663  0.5125
 4082SOL    EPW16774   1.860   3.292   3.997  0.1903 -0.0340 -0.9897
 4083SOL      O16775   2.545   1.326   4.007  0.0831 -0.3139  0.1361
 4083SOL     H116776   2.636   1.305   4.029 -0.6558 -1.9099  1.8817
 4083SOL     H216777   2.513   1.247   3.962  0.0227  0.8888 -1.9932
 4083SOL    EPW16778   2.551   1.315   4.005 -0.0022 -0.3558  0.0951
 4084SOL      O16779   5.095   3.435   1.867  0.4529 -0.0989 -0.2579
 4084SOL     H116780   5.052   3.511   1.907  1.0823  0.7645 -1.1790
 4084SOL     H216781   5.098   3.369   1.936 -0.5168  0.5527  0.4190
 4084SOL    EPW16782   5.091   3.436   1.878  0.4166  0.0627 -0.2840
 4085SOL      O16783   4.920   4.120   0.727 -0.8412 -0.0392  0.0399
 4085SOL     H116784   4.976   4.190   0.692  0.9816 -1.5078 -0.0830
 4085SOL     H216785   4.980   4.063   0.774 -2.4465 -1.0564  0.9024
 4085SOL    EPW16786   4.932   4.121   0.728 -0.8180 -0.3044  0.1188
 4086SOL      O16787   0.244   5.075   0.865  0.8007 -0.3878 -0.1090
 4086SOL     H116788   0.193   5.059   0.786 -0.0996 -2.6626  0.8912
 4086SOL     H216789   0.182   5.118   0.925  1.5797  1.6532 -0.7459
 4086SOL    EPW16790   0.232   5.078   0.863  0.7878 -0.4127 -0.0702
 4087SOL      O16791   4.358   4.075   0.973 -0.6523 -0.6505 -0.2325
 4087SOL     H116792   4.359   4.165   1.007 -0.6015 -1.2244  1.3420
 4087SOL     H216793   4.266   4.059   0.953 -0.6131 -0.1317 -0.8457
 4087SOL    EPW16794   4.348   4.083   0.975 -0.6427 -0.6564 -0.1300
 4088SOL      O16795   5.213   3.111   1.476 -0.9506  0.1716 -0.0561
 4088SOL     H116796   5.294   3.160   1.461 -0.9612  0.2994  0.3016
 4088SOL     H216797   5.188   3.133   1.566 -0.8382 -0.6662  0.1819
 4088SOL    EPW16798   5.219   3.119   1.484 -0.9397  0.0959  0.0074
 4089SOL      O16799   4.427   5.415   0.121  0.4469 -0.3008  0.3306
 4089SOL     H116800   4.487   5.341   0.133  0.7421  0.0932  1.3798
 4089SOL     H216801   4.340   5.377   0.129  0.5170 -1.0943 -2.4799
 4089SOL    EPW16802   4.424   5.403   0.123  0.4859 -0.3434  0.1427
 4090SOL      O16803   4.453   4.288   1.296  0.2342  0.0838  0.1416
 4090SOL     H116804   4.458   4.317   1.205  1.1706  0.4139  0.2978
 4090SOL     H216805   4.544   4.272   1.321 -0.1756 -2.2422  0.3048
 4090SOL    EPW16806   4.463   4.289   1.289  0.2903 -0.1291  0.1756
 4091SOL      O16807   5.424   0.429   1.789  0.5350 -1.0697 -0.0886
 4091SOL     H116808   5.348   0.431   1.846  0.4047 -0.9751 -0.2626
 4091SOL     H216809   5.471   0.510   1.808  0.0879 -0.6751 -0.6574
 4091SOL    EPW16810   5.421   0.438   1.797  0.4734 -1.0175 -0.1678
 4092SOL      O16811   3.551   2.604   0.101  0.3590  0.1316 -0.2291
 4092SOL     H116812   3.635   2.567   0.126  0.8748  0.8539 -0.8601
 4092SOL     H216813   3.499   2.602   0.182 -0.2142 -3.4423 -0.6298
 4092SOL    EPW16814   3.555   2.600   0.113  0.3529 -0.1726 -0.3391
 4093SOL      O16815   4.403   3.216   1.368 -0.5605  0.0881  0.3627
 4093SOL     H116816   4.476   3.214   1.431 -0.0653 -0.5502 -0.2141
 4093SOL     H216817   4.419   3.294   1.315 -0.4861  0.1401  0.4614
 4093SOL    EPW16818   4.413   3.224   1.369 -0.4997  0.0255  0.3117
 4094SOL      O16819   3.809   4.646   0.357  0.0626  0.2807 -0.1480
 4094SOL     H116820   3.810   4.584   0.285 -0.6332 -1.4184  1.2610
 4094SOL     H216821   3.718   4.673   0.365  0.0839  0.2475  0.2574
 4094SOL    EPW16822   3.800   4.642   0.350 -0.0093  0.0959  0.0456
 4095SOL      O16823   5.421   3.284   1.410  0.1479  0.7228 -0.7402
 4095SOL     H116824   5.459   3.361   1.452 -0.2275  1.5667 -1.9281
 4095SOL     H216825   5.490   3.253   1.350  0.1682  0.3255 -0.5175
 4095SOL    EPW16826   5.433   3.289   1.408  0.1100  0.7705 -0.8431
 4096SOL      O16827   4.586   0.509   0.171 -0.0695 -0.2871  0.4818
 4096SOL     H116828   4.619   0.494   0.260 -1.3838 -0.6094  0.9391
 4096SOL     H216829   4.522   0.579   0.181  2.2895  2.1491 -0.8121
 4096SOL    EPW16830   4.583   0.514   0.182  0.0419 -0.0616  0.3926
 4097SOL      O16831   4.549   4.501   1.530 -0.9096 -0.3381  0.1715
 4097SOL     H116832   4.549   4.517   1.435 -3.4759 -0.0276  0.2073
 4097SOL     H216833   4.507   4.578   1.567  1.2048  0.1318  1.7151
 4097SOL    EPW16834   4.545   4.511   1.524 -0.9578 -0.2549  0.3399
 4098SOL      O16835   0.655   3.662   1.607  0.1121 -0.1074 -0.4603
 4098SOL     H116836   0.574   3.709   1.589 -0.3095 -0.3947  0.6694
 4098SOL     H216837   0.691   3.704   1.684 -0.0759 -1.3871  0.3389
 4098SOL    EPW16838   0.650   3.671   1.613  0.0471 -0.2746 -0.2546
 4099SOL      O16839   1.605   0.534   3.325  0.0526 -0.2030  0.1402
 4099SOL     H116840   1.555   0.456   3.300 -0.3319 -0.0038  0.2927
 4099SOL     H216841   1.552   0.608   3.297 -0.0186  0.0179  0.8337
 4099SOL    EPW16842   1.594   0.534   3.319  0.0040 -0.1582  0.2304
 4100SOL      O16843   5.029   4.432   1.091  0.1148 -0.1019  0.2082
 4100SOL     H116844   5.008   4.495   1.161  0.8441  0.7959 -0.3680
 4100SOL     H216845   5.002   4.348   1.127 -2.2859  0.6902  0.4137
 4100SOL    EPW16846   5.024   4.430   1.103 -0.0635  0.0784  0.1687
 4101SOL      O16847   4.477   5.142   0.562 -0.1294  0.4296  0.0065
 4101SOL     H116848   4.438   5.179   0.641  0.6887  0.6026  0.3372
 4101SOL     H216849   4.535   5.073   0.595 -1.2072 -0.7545 -0.5676
 4101SOL    EPW16850   4.479   5.138   0.574 -0.1571  0.3218 -0.0195
 4102SOL      O16851   3.907   3.474   2.103 -0.3290  0.1384 -0.5296
 4102SOL     H116852   3.978   3.465   2.166  0.6101 -1.0006 -1.7025
 4102SOL     H216853   3.924   3.557   2.059 -1.4509  1.3390  1.2378
 4102SOL    EPW16854   3.916   3.482   2.105 -0.3485  0.1450 -0.4662
 4103SOL      O16855   1.838   2.733   4.011 -0.3242  0.6626  0.0608
 4103SOL     H116856   1.921   2.770   3.979 -0.8705 -0.1890 -2.4774
 4103SOL     H216857   1.860   2.645   4.039 -0.4273  0.2945 -0.9917
 4103SOL    EPW16858   1.849   2.728   4.010 -0.3935  0.5325 -0.3222
 4104SOL      O16859   2.644   3.363   3.410 -0.1746 -0.5130  0.0324
 4104SOL     H116860   2.722   3.405   3.372 -0.9056 -0.8442 -1.8682
 4104SOL     H216861   2.672   3.335   3.497  2.2061 -1.7075 -1.0782
 4104SOL    EPW16862   2.655   3.365   3.415  0.0014 -0.6757 -0.2888
 4105SOL      O16863   4.817   3.926   0.556 -0.1732 -0.2344 -0.0149
 4105SOL     H116864   4.834   3.994   0.621 -1.8213  0.5948 -0.4365
 4105SOL     H216865   4.837   3.844   0.602 -0.1536  0.4145  1.1553
 4105SOL    EPW16866   4.821   3.924   0.568 -0.3469 -0.0767  0.0649
 4106SOL      O16867   5.130   4.763   0.733  0.0256 -0.6271  0.0394
 4106SOL     H116868   5.088   4.848   0.746  0.0036 -0.9084  1.9709
 4106SOL     H216869   5.070   4.715   0.677 -0.8289  0.0233  0.3807
 4106SOL    EPW16870   5.119   4.767   0.729 -0.0679 -0.5877  0.2818
 4107SOL      O16871   4.865   3.774   1.113 -0.3016 -0.3448  0.2589
 4107SOL     H116872   4.783   3.753   1.159 -0.2887  1.4915  1.1936
 4107SOL     H216873   4.895   3.691   1.077 -1.2368 -1.5317  2.1279
 4107SOL    EPW16874   4.859   3.763   1.114 -0.4000 -0.2756  0.5580
 4108SOL      O16875   0.081   4.321   1.018 -0.2054  0.0110 -0.4908
 4108SOL     H116876   0.102   4.233   1.051 -0.2570  0.5278  0.9468
 4108SOL     H216877  -0.010   4.335   1.043  0.3031  1.1303  0.7468
 4108SOL    EPW16878   0.073   4.313   1.024 -0.1566  0.1856 -0.2055
 4109SOL      O16879   4.860   4.192   1.544 -0.1764 -0.2202  0.2307
 4109SOL     H116880   4.794   4.211   1.477  0.8994 -0.6578 -0.9855
 4109SOL     H216881   4.851   4.263   1.607  0.1558  1.3431 -1.4374
 4109SOL    EPW16882   4.852   4.201   1.543 -0.0262 -0.1001 -0.0770
 4110SOL      O16883   5.331   3.212   3.568 -0.1235 -0.6388 -0.0013
 4110SOL     H116884   5.367   3.192   3.654 -0.7081 -0.6503  0.2490
 4110SOL     H216885   5.385   3.283   3.534 -0.0376 -0.4768  0.4789
 4110SOL    EPW16886   5.340   3.218   3.573 -0.1767 -0.6227  0.0766
 4111SOL      O16887   5.333   5.279   3.069  0.6198 -0.0694  0.0908
 4111SOL     H116888   5.384   5.202   3.044 -1.7220 -1.3203 -1.1135
 4111SOL     H216889   5.286   5.252   3.148  0.4614  0.4326  0.1710
 4111SOL    EPW16890   5.333   5.268   3.075  0.3531 -0.1493 -0.0291
 4112SOL      O16891   4.937   5.391   2.367  0.2506  0.0533 -0.3072
 4112SOL     H116892   4.973   5.307   2.338  0.5992 -0.2855  1.0677
 4112SOL     H216893   4.913   5.377   2.459  0.1948  1.4159 -0.0924
 4112SOL    EPW16894   4.938   5.381   2.374  0.2818  0.1625 -0.1376
 4113SOL      O16895   4.419   4.918   2.493 -0.2033  0.3835 -0.0149
 4113SOL     H116896   4.476   4.860   2.443 -0.3606  3.0942 -3.5552
 4113SOL     H216897   4.330   4.887   2.473 -0.1952  0.3445  0.0092
 4113SOL    EPW16898   4.415   4.909   2.486 -0.2192  0.6685 -0.3900
 4114SOL      O16899   4.459   4.505   2.802  0.0045  0.4148  0.4189
 4114SOL     H116900   4.414   4.444   2.743  1.0089 -1.1593  1.2349
 4114SOL     H216901   4.428   4.591   2.775  2.2814 -0.0337 -4.0270
 4114SOL    EPW16902   4.451   4.507   2.793  0.3545  0.1990  0.0317
 4115SOL      O16903   4.024   5.075   3.425 -0.4908  0.1359 -0.4467
 4115SOL     H116904   4.051   5.109   3.339 -0.9663 -0.0843 -0.6863
 4115SOL     H216905   3.937   5.112   3.438 -0.8860 -0.7584 -0.5735
 4115SOL    EPW16906   4.018   5.083   3.417 -0.5837  0.0170 -0.4858
 4116SOL      O16907   4.259   4.434   3.419 -0.0866  0.1939 -0.0691
 4116SOL     H116908   4.288   4.523   3.398 -3.3545  0.9649 -1.6185
 4116SOL     H216909   4.316   4.378   3.366  3.0803  1.2127  2.1461
 4116SOL    EPW16910   4.268   4.438   3.411 -0.0974  0.3848  0.0020
 4117SOL      O16911   1.481   2.045   0.437 -0.2328  0.2529  0.2866
 4117SOL     H116912   1.472   1.972   0.377  0.3510  0.0933  0.3872
 4117SOL     H216913   1.425   2.023   0.511  0.2682 -0.2940  0.5065
 4117SOL    EPW16914   1.474   2.035   0.439 -0.1171  0.1775  0.3208
 4118SOL      O16915   5.302   5.585   2.267  0.5037 -0.0261  0.5371
 4118SOL     H116916   5.208   5.604   2.265  0.5463  0.2636  1.1241
 4118SOL     H216917   5.334   5.635   2.341  1.5051  1.5800 -0.9486
 4118SOL    EPW16918   5.295   5.592   2.275  0.6150  0.1761  0.4413
 4119SOL      O16919   3.750   5.137   2.981  0.1252  0.0656  0.6839
 4119SOL     H116920   3.779   5.047   2.994  0.2121 -0.2484 -1.4927
 4119SOL     H216921   3.663   5.128   2.942  0.1366  0.9188  0.4539
 4119SOL    EPW16922   3.744   5.126   2.978  0.1357  0.1231  0.4272
 4120SOL      O16923   5.064   0.104   3.538 -0.5490 -0.4917  0.1817
 4120SOL     H116924   5.067   0.164   3.613  1.2580 -0.2211 -0.0783
 4120SOL     H216925   5.103   0.153   3.466  3.8521 -2.9619  0.7232
 4120SOL    EPW16926   5.068   0.116   3.539  0.1133 -0.7264  0.2117
 4121SOL      O16927   2.998   3.742   1.889  0.7113 -0.4194 -0.7102
 4121SOL     H116928   3.013   3.832   1.918  1.5161 -1.1744  1.2566
 4121SOL     H216929   3.084   3.710   1.862  0.2888 -0.3429 -2.1668
 4121SOL    EPW16930   3.008   3.748   1.889  0.7521 -0.4918 -0.6557
 4122SOL      O16931   4.397   5.576   2.668 -0.2364  0.2720 -0.4005
 4122SOL     H116932   4.472   5.534   2.711 -0.2138  0.1486 -0.5594
 4122SOL     H216933   4.436   5.648   2.617  0.2326 -2.0099 -3.4228
 4122SOL    EPW16934   4.409   5.579   2.667 -0.1839  0.0154 -0.7399
 4123SOL      O16935   5.604   4.097   1.749 -0.0270  0.4395 -0.1840
 4123SOL     H116936   5.531   4.077   1.808  1.4073 -0.9473  1.1827
 4123SOL     H216937   5.589   4.187   1.722 -2.6925 -0.0887 -0.6003
 4123SOL    EPW16938   5.594   4.104   1.753 -0.1583  0.2352 -0.0826
 4124SOL      O16939   1.427   5.121   1.178 -0.2427 -0.3232 -0.7811
 4124SOL     H116940   1.379   5.039   1.172  2.3493 -1.8365 -1.7696
 4124SOL     H216941   1.500   5.103   1.238 -0.8219  1.8939  0.6703
 4124SOL    EPW16942   1.430   5.111   1.184 -0.0280 -0.2481 -0.7317
 4125SOL      O16943   4.844   5.062   3.426  0.2616 -0.2298 -0.0053
 4125SOL     H116944   4.903   5.106   3.487 -1.6472  1.2580  0.8065
 4125SOL     H216945   4.865   5.099   3.340 -0.1345  1.0124  0.4217
 4125SOL    EPW16946   4.853   5.070   3.423  0.0157  0.0615  0.1268
 4126SOL      O16947   3.963   5.747   2.142  0.1876 -0.2858 -0.2846
 4126SOL     H116948   3.868   5.734   2.141  0.2724 -0.9903 -0.0819
 4126SOL     H216949   3.999   5.658   2.134  0.8275 -0.0106 -0.4841
 4126SOL    EPW16950   3.957   5.736   2.141  0.2649 -0.3316 -0.2843
 4127SOL      O16951   5.070   5.780   3.075 -0.5185 -0.4485 -0.3278
 4127SOL     H116952   5.142   5.843   3.071 -0.1011 -0.9040 -0.1160
 4127SOL     H216953   5.096   5.711   3.014 -1.3329 -0.0472 -1.1242
 4127SOL    EPW16954   5.081   5.779   3.068 -0.5609 -0.4543 -0.3902
 4128SOL      O16955   0.261   0.945   1.252  0.1014 -0.0683  0.6101
 4128SOL     H116956   0.179   0.930   1.206 -0.5621 -1.4920  2.1589
 4128SOL     H216957   0.311   0.864   1.238  0.2286 -0.1810  1.6380
 4128SOL    EPW16958   0.258   0.935   1.246  0.0442 -0.2322  0.8850
 4129SOL      O16959   4.936   5.478   1.618 -0.3247 -0.1216  0.0076
 4129SOL     H116960   4.975   5.406   1.668 -0.2215 -0.7402 -0.9587
 4129SOL     H216961   5.008   5.541   1.608 -0.7888  0.7926  2.0769
 4129SOL    EPW16962   4.948   5.477   1.623 -0.3632 -0.0901  0.1253
 4130SOL      O16963   4.574   4.237   2.976  0.2478 -0.6388 -0.3095
 4130SOL     H116964   4.632   4.238   2.900 -1.3156 -0.3040 -1.5148
 4130SOL     H216965   4.547   4.328   2.987  0.7339 -0.6242  0.8767
 4130SOL    EPW16966   4.577   4.246   2.969  0.1329 -0.6015 -0.3115
 4131SOL      O16967   3.891   0.046   1.917  0.3597  0.1399  0.0360
 4131SOL     H116968   3.928  -0.029   1.964 -1.7534 -0.4380  0.8261
 4131SOL     H216969   3.825   0.008   1.860 -1.6193  1.4939  1.3516
 4131SOL    EPW16970   3.888   0.034   1.916 -0.0768  0.2227  0.2606
 4132SOL      O16971   3.534   5.617   2.271 -0.4123 -0.0169  0.0496
 4132SOL     H116972   3.500   5.528   2.285  0.8648 -0.7316 -1.2480
 4132SOL     H216973   3.600   5.628   2.340 -1.0423  0.1732  0.6208
 4132SOL    EPW16974   3.538   5.609   2.280 -0.3433 -0.0729 -0.0279
 4133SOL      O16975   4.847   3.919   2.914 -0.4637 -1.1562 -0.2989
 4133SOL     H116976   4.873   3.923   2.822 -1.4667  5.8541 -0.5635
 4133SOL     H216977   4.752   3.918   2.912 -0.4887 -1.5179  0.7095
 4133SOL    EPW16978   4.840   3.919   2.904 -0.5734 -0.4470 -0.2195
 4134SOL      O16979   0.817   0.607   2.249 -0.1209 -0.0985 -0.0927
 4134SOL     H116980   0.819   0.701   2.231  1.8464 -0.2784 -0.9041
 4134SOL     H216981   0.753   0.572   2.186  0.0242  0.5440 -0.6033
 4134SOL    EPW16982   0.810   0.613   2.240  0.1045 -0.0492 -0.2337
 4135SOL      O16983   1.396   1.576   0.017  0.0393  0.1054 -0.5821
 4135SOL     H116984   1.460   1.523   0.063 -0.6175 -0.5416 -0.4003
 4135SOL     H216985   1.447   1.645  -0.025  0.8628 -0.4938 -0.5684
 4135SOL    EPW16986   1.408   1.578   0.017  0.0570 -0.0275 -0.5612
 4136SOL      O16987   4.350   2.481   4.062  0.2587 -0.4419  0.9099
 4136SOL     H116988   4.346   2.539   3.986  2.2627  0.1482  1.2130
 4136SOL     H216989   4.424   2.422   4.044 -0.9470 -2.0694  1.1889
 4136SOL    EPW16990   4.358   2.481   4.052  0.3439 -0.5526  0.9720
 4137SOL      O16991   4.369   5.004   2.886  0.1473 -0.2298 -0.1666
 4137SOL     H116992   4.406   4.983   2.972 -1.2371 -4.1313 -0.4626
 4137SOL     H216993   4.277   5.025   2.904 -0.2640 -1.5341 -0.7585
 4137SOL    EPW16994   4.363   5.004   2.897 -0.0442 -0.7852 -0.2613
 4138SOL      O16995   1.666   1.871   0.072  0.1208  0.6040  0.2208
 4138SOL     H116996   1.634   1.831  -0.009 -1.7842  0.7799  0.8562
 4138SOL     H216997   1.753   1.833   0.085 -0.5804 -1.3231 -0.5610
 4138SOL    EPW16998   1.672   1.863   0.064 -0.1572  0.4172  0.2052
 4139SOL      O16999   4.843   3.666   3.935 -0.2852 -0.7340  0.1886
 4139SOL     H117000   4.817   3.625   4.017 -0.9500 -0.7485 -0.0294
 4139SOL     H217001   4.879   3.595   3.882 -2.7889 -1.3314 -0.7599
 4139SOL    EPW17002   4.844   3.654   3.938 -0.6232 -0.7993  0.0641
 4140SOL      O17003   5.264   3.177   3.178 -0.1609 -0.2077 -0.3567
 4140SOL     H117004   5.272   3.218   3.091  0.1925  0.7497  0.1189
 4140SOL     H217005   5.312   3.236   3.236 -1.4608 -0.1665  0.7017
 4140SOL    EPW17006   5.270   3.188   3.175 -0.2619 -0.1012 -0.1930
 4141SOL      O17007   0.300   4.916   4.134 -0.4381  0.4003 -0.8590
 4141SOL     H117008   0.392   4.888   4.139 -0.3457  0.8225  0.0034
 4141SOL     H217009   0.305   5.009   4.114 -0.6110  0.8341  0.9562
 4141SOL    EPW17010   0.311   4.923   4.133 -0.4467  0.4916 -0.5733
 4142SOL      O17011   3.214   4.283   0.889  0.4405 -0.4081  0.2138
 4142SOL     H117012   3.246   4.215   0.830  0.3430 -1.2722  1.1644
 4142SOL     H217013   3.241   4.255   0.976  0.1701  0.6338  0.6378
 4142SOL    EPW17014   3.220   4.273   0.892  0.4013 -0.3891  0.3604
 4143SOL      O17015   4.367   5.189   2.492  0.7099 -0.7200  0.3992
 4143SOL     H117016   4.412   5.106   2.475  1.5781 -0.7577  2.7614
 4143SOL     H217017   4.412   5.227   2.567  0.2498  1.8702 -0.5781
 4143SOL    EPW17018   4.376   5.184   2.498  0.7534 -0.4477  0.5470
 4144SOL      O17019   0.893   4.487   3.330  0.3127  0.1321 -0.4543
 4144SOL     H117020   0.956   4.510   3.398 -0.8347  0.8480  0.3982
 4144SOL     H217021   0.810   4.477   3.377 -0.4658  0.4743 -1.7218
 4144SOL    EPW17022   0.891   4.488   3.342  0.1073  0.2449 -0.4986
 4145SOL      O17023   5.528   5.625   2.861 -0.4483  0.5621 -0.0984
 4145SOL     H117024   5.481   5.610   2.779  2.6879  0.0070 -1.8960
 4145SOL     H217025   5.515   5.718   2.879 -1.1788  0.6872 -1.2092
 4145SOL    EPW17026   5.522   5.633   2.854 -0.1917  0.5162 -0.4087
 4146SOL      O17027   2.880   2.532   0.207 -0.0236  0.2638  0.0461
 4146SOL     H117028   2.956   2.590   0.214  0.0481  0.3409 -1.2395
 4146SOL     H217029   2.819   2.579   0.149  0.7772 -1.7038 -2.4837
 4146SOL    EPW17030   2.881   2.543   0.201  0.0695  0.0622 -0.3609
 4147SOL      O17031   4.488   4.928   3.854  0.0996 -0.1542  0.2550
 4147SOL     H117032   4.460   4.912   3.764 -0.1624 -1.8761  0.6103
 4147SOL     H217033   4.555   4.995   3.847 -0.3629  0.1682 -1.1627
 4147SOL    EPW17034   4.492   4.933   3.844  0.0223 -0.3035  0.1417
 4148SOL      O17035   5.206   5.771   1.096  0.1100  0.3431  0.4779
 4148SOL     H117036   5.121   5.813   1.106 -0.2623 -0.6245  1.4212
 4148SOL     H217037   5.191   5.701   1.033  0.8871  2.0211 -1.6267
 4148SOL    EPW17038   5.195   5.768   1.091  0.1532  0.4189  0.3540
 4149SOL      O17039   3.885   2.874   2.002  0.2367  0.2032 -0.4874
 4149SOL     H117040   3.885   2.957   2.050  0.3631 -0.1881  0.1896
 4149SOL     H217041   3.908   2.899   1.913  1.4499  0.7493 -0.0279
 4149SOL    EPW17042   3.887   2.886   1.998  0.3796  0.2197 -0.3661
 4150SOL      O17043   4.164   5.455   4.034 -0.3603 -0.3147 -0.1136
 4150SOL     H117044   4.183   5.412   3.951 -1.3369 -1.2946  0.1601
 4150SOL     H217045   4.111   5.531   4.011  1.4108  0.7920 -0.6060
 4150SOL    EPW17046   4.161   5.458   4.023 -0.2756 -0.3011 -0.1370
 4151SOL      O17047   4.470   4.937   3.122 -0.2330  0.4967  0.2920
 4151SOL     H117048   4.403   4.976   3.179 -0.0733  0.5226  0.4591
 4151SOL     H217049   4.519   4.878   3.179 -0.1837  0.3920  0.1430
 4151SOL    EPW17050   4.468   4.935   3.134 -0.2107  0.4883  0.2940
 4152SOL      O17051   4.939   4.124   3.083 -0.0166  0.6019 -0.0901
 4152SOL     H117052   4.906   4.060   3.021  1.5916  0.9249 -1.3148
 4152SOL     H217053   5.023   4.088   3.111 -1.1287  0.0048  2.6186
 4152SOL    EPW17054   4.945   4.113   3.080  0.0363  0.5726  0.0682
 4153SOL      O17055   3.311   4.107   1.543 -0.0899 -0.0611 -0.2001
 4153SOL     H117056   3.394   4.114   1.497  0.2588  2.5314  0.6985
 4153SOL     H217057   3.335   4.091   1.634 -0.6418 -1.0600 -0.2210
 4153SOL    EPW17058   3.322   4.106   1.548 -0.1116  0.1089 -0.1065
 4154SOL      O17059   1.154   0.663   0.837 -0.5416 -1.0980 -0.0370
 4154SOL     H117060   1.189   0.743   0.876 -1.0872 -0.2020 -1.3574
 4154SOL     H217061   1.189   0.593   0.892 -0.0380  0.0328  1.1244
 4154SOL    EPW17062   1.161   0.664   0.847 -0.5461 -0.8818 -0.0540
 4155SOL      O17063   3.477   3.671   3.714  0.1491  0.3780 -0.0268
 4155SOL     H117064   3.450   3.636   3.799 -0.5756  1.6198  0.2783
 4155SOL     H217065   3.571   3.688   3.724 -0.1439  1.5379  0.9126
 4155SOL    EPW17066   3.485   3.669   3.724  0.0405  0.6342  0.1060
 4156SOL      O17067   0.894   1.605   1.724 -0.0585 -0.5957 -0.9833
 4156SOL     H117068   0.815   1.639   1.682  0.1070  0.3559 -0.5465
 4156SOL     H217069   0.956   1.595   1.652 -0.4733 -1.0374 -1.2819
 4156SOL    EPW17070   0.892   1.608   1.712 -0.0851 -0.5413 -0.9686
 4157SOL      O17071   4.423   4.402   3.919 -0.0651  0.3182  0.6406
 4157SOL     H117072   4.355   4.372   3.979 -1.2125  0.3472 -0.6254
 4157SOL     H217073   4.394   4.373   3.832  1.9567 -0.4059  0.1783
 4157SOL    EPW17074   4.413   4.396   3.916  0.0282  0.2440  0.4563
 4158SOL      O17075   1.172   3.369   2.934 -0.5903  0.2188  0.0548
 4158SOL     H117076   1.094   3.369   2.879 -0.1731  1.1350 -0.5602
 4158SOL     H217077   1.175   3.456   2.973 -0.6277 -0.2716  1.1825
 4158SOL    EPW17078   1.164   3.378   2.932 -0.5498  0.2642  0.1095
 4159SOL      O17079   5.786   4.421   2.756 -0.1748  0.4263 -0.7687
 4159SOL     H117080   5.798   4.327   2.749  1.6757  0.6611 -0.7827
 4159SOL     H217081   5.728   4.433   2.831  0.6371 -0.6394  0.0244
 4159SOL    EPW17082   5.781   4.413   2.763  0.1092  0.3376 -0.6856
 4160SOL      O17083   3.933   4.463   4.134  0.2109  0.2137 -0.2600
 4160SOL     H117084   3.890   4.379   4.152  0.3255  0.4794  1.2811
 4160SOL     H217085   3.981   4.447   4.053 -0.7926 -0.8315 -0.6705
 4160SOL    EPW17086   3.934   4.452   4.127  0.1161  0.1305 -0.1394
 4161SOL      O17087   3.834   5.331   3.178  0.0405 -0.7240  0.1423
 4161SOL     H117088   3.795   5.279   3.107 -1.2097  0.2164  0.1183
 4161SOL     H217089   3.799   5.420   3.164  0.4350 -0.3595  1.4492
 4161SOL    EPW17090   3.826   5.335   3.169 -0.0508 -0.5848  0.2791
 4162SOL      O17091   4.928   3.668   3.365 -0.1030 -0.1230  0.4685
 4162SOL     H117092   4.903   3.578   3.383 -0.9373  0.1464  0.6656
 4162SOL     H217093   4.907   3.681   3.272 -0.1955 -0.0554  0.4995
 4162SOL    EPW17094   4.923   3.660   3.357 -0.2019 -0.0870  0.4929
 4163SOL      O17095   3.100   4.535   4.122 -0.2950 -0.5855 -0.5422
 4163SOL     H117096   3.162   4.485   4.069 -0.6335 -0.4435 -1.0669
 4163SOL     H217097   3.036   4.569   4.060 -0.7561 -0.5130 -0.0329
 4163SOL    EPW17098   3.100   4.533   4.110 -0.3803 -0.5626 -0.5438
 4164SOL      O17099   4.421   5.427   2.268  0.2193 -0.2158 -0.1661
 4164SOL     H117100   4.413   5.339   2.230 -0.6550 -1.3771  2.5910
 4164SOL     H217101   4.497   5.421   2.326 -0.4601  0.5300  0.8124
 4164SOL    EPW17102   4.428   5.417   2.270  0.0536 -0.2601  0.2324
 4165SOL      O17103   5.608   0.924   3.004  0.1973  0.2968 -0.1209
 4165SOL     H117104   5.633   0.898   2.915  0.4557 -1.7520  0.5460
 4165SOL     H217105   5.513   0.921   3.003  0.2343 -1.1899  0.0941
 4165SOL    EPW17106   5.601   0.921   2.994  0.2288 -0.0804 -0.0268
 4166SOL      O17107   4.434   4.775   2.732  0.1214  0.2137 -0.0502
 4166SOL     H117108   4.439   4.807   2.643  0.5090 -0.3165 -0.2214
 4166SOL     H217109   4.428   4.854   2.786 -1.0678  0.5174 -0.6019
 4166SOL    EPW17110   4.434   4.787   2.729  0.0359  0.1895 -0.1273
 4167SOL      O17111   3.826   4.575   3.807 -0.1066  0.5816  0.1017
 4167SOL     H117112   3.866   4.659   3.788  0.6012  0.4199  0.8513
 4167SOL     H217113   3.898   4.520   3.838 -0.2516 -0.8111 -1.9622
 4167SOL    EPW17114   3.838   4.578   3.808 -0.0466  0.4158 -0.0385
 4168SOL      O17115   4.121   5.833   3.092 -0.4591 -0.2878  0.0326
 4168SOL     H117116   4.058   5.814   3.022 -1.5080 -0.2984  0.9644
 4168SOL     H217117   4.198   5.865   3.047 -1.3658  0.3414 -1.0932
 4168SOL    EPW17118   4.122   5.834   3.080 -0.6677 -0.2218  0.0119
 4169SOL      O17119   5.536   4.294   2.049  0.4913  0.0466  0.1849
 4169SOL     H117120   5.463   4.299   1.988  1.6782  0.8708 -1.1931
 4169SOL     H217121   5.547   4.201   2.066  0.8438 -0.2639 -1.7094
 4169SOL    EPW17122   5.529   4.285   2.044  0.6555  0.1014 -0.1642
 4170SOL      O17123   4.781   4.410   0.893 -0.4129  0.1097  0.0231
 4170SOL     H117124   4.761   4.324   0.931 -1.3642  0.7631  1.0531
 4170SOL     H217125   4.695   4.451   0.882 -0.0418  0.4171 -1.7057
 4170SOL    EPW17126   4.770   4.405   0.896 -0.4748  0.2122 -0.0514
 4171SOL      O17127   5.482   4.883   2.256  0.0368 -0.6373  0.0260
 4171SOL     H117128   5.450   4.793   2.254 -1.7780 -0.0146 -0.3737
 4171SOL     H217129   5.403   4.936   2.270  1.2714  0.8064  1.6502
 4171SOL    EPW17130   5.470   4.879   2.257 -0.0251 -0.4169  0.1566
 4172SOL      O17131   4.842   0.128   2.351  0.4442 -0.3746 -0.0872
 4172SOL     H117132   4.887   0.199   2.305 -0.8010 -1.0079 -2.3161
 4172SOL     H217133   4.774   0.173   2.401  1.1641  0.2192  0.3821
 4172SOL    EPW17134   4.840   0.141   2.352  0.3881 -0.3788 -0.2749
 4173SOL      O17135   2.018   0.990   0.071  0.2305  0.6140  0.7091
 4173SOL     H117136   2.076   0.947   0.133 -0.8498  0.5767  1.7192
 4173SOL     H217137   2.042   0.954  -0.014  0.3991 -0.8256  1.3565
 4173SOL    EPW17138   2.026   0.981   0.069  0.1332  0.4564  0.8859
 4174SOL      O17139   3.955   1.328   3.543  0.2390  0.1865 -0.1354
 4174SOL     H117140   3.907   1.276   3.608  2.0081 -0.4925  0.6544
 4174SOL     H217141   3.891   1.393   3.514 -0.9453 -0.2085  1.4611
 4174SOL    EPW17142   3.943   1.330   3.547  0.3014  0.0719  0.1192
 4175SOL      O17143   4.499   4.023   3.805  0.3023 -0.1474 -0.3223
 4175SOL     H117144   4.583   3.977   3.816  0.0874 -0.8935 -1.6677
 4175SOL     H217145   4.439   3.976   3.863  0.5551 -0.3202 -0.1987
 4175SOL    EPW17146   4.502   4.013   3.812  0.3063 -0.2454 -0.4527
 4176SOL      O17147   0.492   3.554   0.162 -0.1572 -0.3071 -0.4332
 4176SOL     H117148   0.433   3.548   0.237 -1.9952 -1.2089 -1.9169
 4176SOL     H217149   0.579   3.544   0.199 -0.7190  3.2113  2.0882
 4176SOL    EPW17150   0.495   3.553   0.174 -0.4132 -0.0280 -0.3225
 4177SOL      O17151   4.732   4.787   3.124  0.3916 -0.0106 -0.1306
 4177SOL     H117152   4.827   4.796   3.132  0.0636  1.9871  2.3228
 4177SOL     H217153   4.703   4.762   3.212 -1.6433  2.8334  0.0875
 4177SOL    EPW17154   4.739   4.785   3.134  0.1395  0.5059  0.1544
 4178SOL      O17155   0.952   4.526   3.063  0.3154 -0.5518 -0.6410
 4178SOL     H117156   0.966   4.447   3.011  0.8810 -0.7130 -0.2499
 4178SOL     H217157   0.945   4.494   3.153 -0.3835 -0.2466 -0.5816
 4178SOL    EPW17158   0.953   4.514   3.067  0.3012 -0.5364 -0.5929
 4179SOL      O17159   1.274   4.317   0.235  0.4586 -0.0238  0.2918
 4179SOL     H117160   1.282   4.391   0.296 -0.4368  1.0155 -0.8311
 4179SOL     H217161   1.239   4.246   0.288 -0.7662  1.0080  0.8954
 4179SOL    EPW17162   1.271   4.318   0.247  0.2324  0.1971  0.2364
 4180SOL      O17163   4.133   5.075   2.562 -0.4447 -0.0862 -0.1506
 4180SOL     H117164   4.212   5.128   2.557 -1.5451  1.6051 -0.1147
 4180SOL     H217165   4.091   5.086   2.476  0.5183 -2.8965 -1.0524
 4180SOL    EPW17166   4.137   5.082   2.552 -0.4594 -0.2056 -0.2430
 4181SOL      O17167   3.407   4.829   4.126  0.1563  0.0819 -0.9876
 4181SOL     H117168   3.388   4.740   4.157  0.6088  0.4032  0.2179
 4181SOL     H217169   3.502   4.838   4.134  0.0541  0.8531 -0.6237
 4181SOL    EPW17170   3.415   4.820   4.130  0.1937  0.1984 -0.8202
 4182SOL      O17171   5.559   4.242   3.121  0.0457  0.0084  0.5979
 4182SOL     H117172   5.586   4.241   3.029 -0.7671 -3.4073  0.3167
 4182SOL     H217173   5.633   4.279   3.168  0.6581  1.3403 -1.3609
 4182SOL    EPW17174   5.569   4.246   3.116  0.0243 -0.2139  0.3589
 4183SOL      O17175   3.852   1.838   1.844  0.0120  0.0279  0.2179
 4183SOL     H117176   3.934   1.793   1.822  1.0723  1.7340  0.5709
 4183SOL     H217177   3.819   1.870   1.760  0.9696  1.4069  0.3534
 4183SOL    EPW17178   3.857   1.837   1.832  0.2273  0.3570  0.2700
 4184SOL      O17179   4.046   4.182   3.136  0.1537  0.9120 -0.6889
 4184SOL     H117180   4.108   4.127   3.184 -0.0724 -0.0821 -1.5149
 4184SOL     H217181   3.960   4.145   3.157 -0.1568  2.0633  0.1638
 4184SOL    EPW17182   4.043   4.172   3.143  0.0964  0.9287 -0.6861
 4185SOL      O17183   0.368   5.442   2.530 -0.1514 -0.0822 -0.4323
 4185SOL     H117184   0.446   5.483   2.493  1.3091 -0.7860  1.7951
 4185SOL     H217185   0.332   5.508   2.589 -0.8972  0.0005 -0.9738
 4185SOL    EPW17186   0.372   5.453   2.532 -0.0751 -0.1484 -0.2524
 4186SOL      O17187   0.509   4.686   3.438  0.0259 -0.8030  0.0395
 4186SOL     H117188   0.523   4.742   3.362 -0.3996  0.7106  1.0627
 4186SOL     H217189   0.428   4.717   3.477 -0.1464 -2.0432  0.7128
 4186SOL    EPW17190   0.502   4.695   3.434 -0.0379 -0.7738  0.2205
 4187SOL      O17191   3.729   5.609   3.174 -0.5043 -0.5175  0.0405
 4187SOL     H117192   3.751   5.645   3.088 -1.4603  1.1230  0.4631
 4187SOL     H217193   3.634   5.615   3.180 -0.4443 -0.5375  1.2419
 4187SOL    EPW17194   3.721   5.613   3.165 -0.5999 -0.3447  0.2138
 4188SOL      O17195   3.225   4.332   3.983 -0.7132  0.1372 -0.2350
 4188SOL     H117196   3.138   4.301   3.959 -0.0102 -0.7186 -1.7301
 4188SOL     H217197   3.276   4.326   3.902  1.0557 -0.5059  0.8957
 4188SOL    EPW17198   3.221   4.328   3.972 -0.4495 -0.0227 -0.2738
 4189SOL      O17199   4.351   2.498   1.152 -0.0627 -0.4461  0.6435
 4189SOL     H117200   4.292   2.534   1.085 -0.9472 -0.4914  1.3950
 4189SOL     H217201   4.404   2.434   1.105 -0.6792 -0.4751 -0.0169
 4189SOL    EPW17202   4.350   2.495   1.140 -0.2228 -0.4540  0.6532
 4190SOL      O17203   4.458   5.340   3.154 -0.1288 -0.1382  0.5005
 4190SOL     H117204   4.511   5.302   3.084  0.0003  0.5169  0.2371
 4190SOL     H217205   4.390   5.389   3.108 -0.2479  0.0092  0.8343
 4190SOL    EPW17206   4.456   5.342   3.142 -0.1277 -0.0526  0.5080
 4191SOL      O17207   3.689   4.323   3.146 -0.6765 -0.0257  0.1868
 4191SOL     H117208   3.766   4.333   3.202 -1.5364 -3.0967  2.0471
 4191SOL     H217209   3.726   4.300   3.060  0.5884  2.8674 -0.0796
 4191SOL    EPW17210   3.701   4.321   3.143 -0.6333 -0.0447  0.3569
 4192SOL      O17211   5.454   5.049   2.982 -0.0947 -0.2860 -0.7395
 4192SOL     H117212   5.468   5.086   2.894  1.8766 -0.2119 -0.4178
 4192SOL     H217213   5.524   4.985   2.992 -0.1370 -0.0873  0.8888
 4192SOL    EPW17214   5.463   5.046   2.974  0.1111 -0.2569 -0.5315
 4193SOL      O17215   3.479   5.832   3.345 -0.1949 -0.7697 -0.3056
 4193SOL     H117216   3.458   5.777   3.421  0.1974 -0.4190  0.0626
 4193SOL     H217217   3.456   5.778   3.270 -2.6428 -0.3229  0.0731
 4193SOL    EPW17218   3.474   5.820   3.345 -0.4142 -0.6846 -0.2260
 4194SOL      O17219   3.820   4.379   2.066  0.6642  0.0196  0.2355
 4194SOL     H117220   3.838   4.298   2.115  0.2509  0.0211  0.3916
 4194SOL     H217221   3.873   4.446   2.109 -0.5372  0.2490  1.3726
 4194SOL    EPW17222   3.827   4.377   2.076  0.4919  0.0442  0.3735
 4195SOL      O17223   5.406   4.691   3.141  0.4968 -0.6157  0.0820
 4195SOL     H117224   5.350   4.755   3.185  0.7816 -1.9923  2.5359
 4195SOL     H217225   5.375   4.690   3.050 -1.1267  1.1756  0.5921
 4195SOL    EPW17226   5.397   4.698   3.136  0.3540 -0.5715  0.3982
 4196SOL      O17227   3.581   4.100   3.876  0.5487  0.8994 -0.5325
 4196SOL     H117228   3.556   4.190   3.897  0.2700  0.4908  0.8886
 4196SOL     H217229   3.542   4.085   3.789  0.2910  2.0262 -0.6181
 4196SOL    EPW17230   3.574   4.108   3.869  0.4915  0.9760 -0.3900
 4197SOL      O17231   4.441   5.261   2.745  0.1997  0.3126 -0.1733
 4197SOL     H117232   4.499   5.322   2.791 -1.7548  1.4134  0.8496
 4197SOL     H217233   4.378   5.233   2.811 -3.3859  2.7942 -2.3739
 4197SOL    EPW17234   4.441   5.264   2.757 -0.3913  0.6947 -0.2990
 4198SOL      O17235   5.303   3.933   3.548 -0.2748  0.9265  0.5149
 4198SOL     H117236   5.352   3.961   3.472  0.2186 -0.5945  0.2645
 4198SOL     H217237   5.369   3.922   3.617 -0.3864 -0.0559  0.4773
 4198SOL    EPW17238   5.315   3.935   3.548 -0.2341  0.6595  0.4842
 4199SOL      O17239   3.840   4.034   3.202 -0.8375  0.3080  0.2824
 4199SOL     H117240   3.779   4.079   3.261 -0.9664  0.3436  0.1208
 4199SOL     H217241   3.791   4.023   3.121  0.0173  2.0735 -0.5007
 4199SOL    EPW17242   3.829   4.038   3.200 -0.7601  0.5001  0.1817
 4200SOL      O17243   5.086   3.075   3.487  0.5211 -0.4663 -0.3802
 4200SOL     H117244   5.061   3.105   3.399  0.2483  0.3156 -0.0463
 4200SOL     H217245   5.155   3.135   3.514 -0.1590  0.0004  0.3728
 4200SOL    EPW17246   5.090   3.085   3.480  0.4194 -0.3331 -0.2643
 4201SOL      O17247   1.896   0.693   0.291 -0.4861 -0.6120 -1.1630
 4201SOL     H117248   1.983   0.718   0.259  0.5275 -3.9914 -1.2013
 4201SOL     H217249   1.896   0.719   0.383  1.1612 -1.9732 -0.7603
 4201SOL    EPW17250   1.905   0.698   0.297 -0.2022 -1.1177 -1.1241
 4202SOL      O17251   3.518   1.918   0.013  0.1635 -0.2413  0.1351
 4202SOL     H117252   3.534   1.871  -0.069  1.8166  0.9386 -0.2534
 4202SOL     H217253   3.476   1.854   0.070  0.9099 -1.6932 -0.9179
 4202SOL    EPW17254   3.515   1.906   0.010  0.4195 -0.2703 -0.0187
 4203SOL      O17255   4.381   4.638   3.276  0.6714  0.2701 -0.1951
 4203SOL     H117256   4.343   4.616   3.191  0.6782  1.5771 -0.5470
 4203SOL     H217257   4.470   4.606   3.271  1.1045  1.5548 -1.2245
 4203SOL    EPW17258   4.386   4.633   3.266  0.7184  0.5465 -0.3425
 4204SOL      O17259   3.866   5.600   3.654 -0.1452  0.2916 -0.0147
 4204SOL     H117260   3.778   5.627   3.680 -0.6142 -1.2942  0.1012
 4204SOL     H217261   3.866   5.604   3.559  0.1766  1.8198  0.0290
 4204SOL    EPW17262   3.857   5.604   3.647 -0.1609  0.2855  0.0023
 4205SOL      O17263   2.167   1.635   0.604  0.4489 -0.1673 -0.1153
 4205SOL     H117264   2.159   1.584   0.524 -1.7766 -0.7653  0.4468
 4205SOL     H217265   2.143   1.574   0.674  2.4238  0.3248  1.0447
 4205SOL    EPW17266   2.164   1.623   0.603  0.4222 -0.1786  0.0684
 4206SOL      O17267   5.295   0.864   3.292  0.0180  0.2013 -0.2008
 4206SOL     H117268   5.243   0.826   3.221 -0.3442  0.3475 -0.0134
 4206SOL     H217269   5.253   0.833   3.372  0.5426 -0.1227 -0.0491
 4206SOL    EPW17270   5.285   0.857   3.293  0.0353  0.1824 -0.1646
 4207SOL      O17271   5.754   5.660   3.702  0.5137 -0.4970  0.1077
 4207SOL     H117272   5.807   5.738   3.711 -0.0798  0.2904 -2.9825
 4207SOL     H217273   5.796   5.596   3.760  2.6759  1.1978  0.4614
 4207SOL    EPW17274   5.764   5.661   3.709  0.6811 -0.2322 -0.1843
 4208SOL      O17275   4.664   3.430   3.512 -0.0707  0.0274  0.0418
 4208SOL     H117276   4.690   3.425   3.420  1.3628  0.7558  0.3957
 4208SOL     H217277   4.671   3.523   3.534 -0.7961 -0.0879  0.7841
 4208SOL    EPW17278   4.667   3.439   3.504  0.0048  0.0928  0.1587
 4209SOL      O17279   4.104   5.079   3.007 -0.1040  1.3928 -0.2889
 4209SOL     H117280   4.033   5.019   2.985  1.6989 -0.3001 -1.6528
 4209SOL     H217281   4.066   5.166   2.998 -1.8835  0.5226 -1.3583
 4209SOL    EPW17282   4.093   5.081   3.004 -0.1015  1.1194 -0.5485
 4210SOL      O17283   0.659   4.444   3.481 -0.0994 -0.1483 -0.5151
 4210SOL     H117284   0.597   4.382   3.517  0.0169 -1.3904 -2.3802
 4210SOL     H217285   0.605   4.515   3.447 -0.2967  0.2417  0.5866
 4210SOL    EPW17286   0.647   4.445   3.481 -0.1081 -0.2392 -0.5966
 4211SOL      O17287   2.331   0.772   0.010 -0.0910 -0.1704  0.0795
 4211SOL     H117288   2.391   0.804  -0.057  0.2571 -1.1562 -0.0782
 4211SOL     H217289   2.343   0.677   0.010 -1.2353 -0.3223  0.4355
 4211SOL    EPW17290   2.338   0.765   0.003 -0.1759 -0.2918  0.1006
 4212SOL      O17291   3.962   0.154   2.780 -0.1077 -0.1035  0.0257
 4212SOL     H117292   3.896   0.165   2.712  1.2339  0.1702 -1.2544
 4212SOL     H217293   4.029   0.220   2.760 -0.6540  1.3525  2.7936
 4212SOL    EPW17294   3.963   0.162   2.771 -0.0229  0.0810  0.1844
 4213SOL      O17295   5.237   5.202   3.298  0.9093 -0.3731  0.0005
 4213SOL     H117296   5.281   5.239   3.374  0.0524  0.0291  0.3046
 4213SOL     H217297   5.238   5.107   3.313 -1.3477 -0.1713  1.6765
 4213SOL    EPW17298   5.242   5.196   3.307  0.5771 -0.3087  0.2117
 4214SOL      O17299   0.088   2.548   0.534  0.5455  0.4375 -0.2353
 4214SOL     H117300   0.122   2.459   0.538  1.7310  0.9143  0.5453
 4214SOL     H217301   0.013   2.547   0.594  0.2165 -0.1785 -0.6593
 4214SOL    EPW17302   0.083   2.539   0.541  0.6369  0.4226 -0.1973
 4215SOL      O17303   4.589   3.900   2.851  0.1821 -0.5529 -0.2384
 4215SOL     H117304   4.509   3.847   2.859 -0.2001  0.1477  0.7555
 4215SOL     H217305   4.594   3.923   2.759 -0.3557 -1.2285 -0.4428
 4215SOL    EPW17306   4.581   3.896   2.842  0.0839 -0.5502 -0.1542
 4216SOL      O17307   4.351   4.287   3.196 -0.1776 -0.8687  0.7941
 4216SOL     H117308   4.430   4.248   3.158  0.9689 -0.2120  2.4157
 4216SOL     H217309   4.290   4.294   3.123  1.7115 -0.2320 -0.7641
 4216SOL    EPW17310   4.353   4.283   3.185  0.1462 -0.7307  0.8009
 4217SOL      O17311   4.741   3.917   3.849  0.3395  0.3463  0.1402
 4217SOL     H117312   4.759   3.910   3.756 -0.7047  0.4321 -0.0636
 4217SOL     H217313   4.763   3.830   3.884 -0.0968  0.0496 -0.3217
 4217SOL    EPW17314   4.746   3.907   3.843  0.1816  0.3238  0.0692
 4218SOL      O17315   0.507   4.627   2.971 -0.2979  0.3174  0.7169
 4218SOL     H117316   0.599   4.617   2.947 -0.3380 -0.6234  0.9092
 4218SOL     H217317   0.501   4.589   3.059 -1.2128 -1.3189 -0.0139
 4218SOL    EPW17318   0.516   4.622   2.978 -0.3998  0.0425  0.6595
 4219SOL      O17319   3.716   0.037   3.420  0.4198  0.1716  0.0956
 4219SOL     H117320   3.637  -0.008   3.390  1.1048 -0.8045 -0.2621
 4219SOL     H217321   3.748   0.083   3.342 -0.2324  1.2376  0.4387
 4219SOL    EPW17322   3.711   0.037   3.408  0.4233  0.1812  0.0940
 4220SOL      O17323   5.213   5.767   2.663 -0.8633 -0.4008 -0.0266
 4220SOL     H117324   5.129   5.744   2.622 -0.5706 -0.0457 -0.8317
 4220SOL     H217325   5.214   5.863   2.663 -0.2775 -0.4073 -0.3869
 4220SOL    EPW17326   5.204   5.775   2.659 -0.7695 -0.3636 -0.1510
 4221SOL      O17327   3.266   3.999   2.591 -0.8113 -0.2275 -1.0169
 4221SOL     H117328   3.219   4.028   2.513 -1.5016  1.1109 -0.1115
 4221SOL     H217329   3.223   3.917   2.616 -1.1798 -0.1869 -1.5151
 4221SOL    EPW17330   3.256   3.993   2.585 -0.9242 -0.0804 -0.9734
 4222SOL      O17331   1.645   1.291   0.284 -0.0293  0.3676  0.3465
 4222SOL     H117332   1.549   1.283   0.283 -0.0671  0.6800  0.7915
 4222SOL     H217333   1.671   1.254   0.369  0.4134 -1.3486 -0.5248
 4222SOL    EPW17334   1.637   1.286   0.293  0.0139  0.2179  0.3010
 4223SOL      O17335   5.762   5.340   2.215  0.3552  0.2350  0.3309
 4223SOL     H117336   5.744   5.348   2.308 -0.2446 -2.1389  0.4577
 4223SOL     H217337   5.693   5.282   2.182  1.1829  0.1872 -1.3686
 4223SOL    EPW17338   5.753   5.334   2.221  0.3795 -0.0234  0.1631
 4224SOL      O17339   4.043   3.830   3.858 -0.0941 -0.0703 -0.0569
 4224SOL     H117340   4.023   3.748   3.813 -1.3919  0.5213 -0.5883
 4224SOL     H217341   3.959   3.878   3.860  0.6063  1.1773  0.3706
 4224SOL    EPW17342   4.032   3.827   3.853 -0.1578  0.1259 -0.0680
 4225SOL      O17343   5.612   2.174   0.523  0.1994 -0.5419  0.4999
 4225SOL     H117344   5.570   2.117   0.459 -0.6261 -0.5999  1.0848
 4225SOL     H217345   5.674   2.117   0.569  0.3235 -0.6518  0.1995
 4225SOL    EPW17346   5.614   2.162   0.521  0.1246 -0.5598  0.5303
 4226SOL      O17347   4.418   3.663   3.791  0.4307  0.0697 -0.1634
 4226SOL     H117348   4.323   3.664   3.799  0.3688  0.2313 -0.9415
 4226SOL     H217349   4.449   3.662   3.882 -0.3120 -0.4365  0.0896
 4226SOL    EPW17350   4.411   3.663   3.802  0.3449  0.0330 -0.2194
 4227SOL      O17351   5.448   3.333   3.329 -0.2985  0.6190 -0.0797
 4227SOL     H117352   5.496   3.311   3.249  0.4420  1.6407  0.0693
 4227SOL     H217353   5.399   3.412   3.306  1.6334  2.2190  1.1016
 4227SOL    EPW17354   5.448   3.339   3.318 -0.0134  0.8987  0.0622
 4228SOL      O17355   5.789   5.056   1.478 -0.2926 -0.3885  0.3319
 4228SOL     H117356   5.848   4.981   1.483  0.6391  0.2889 -0.3013
 4228SOL     H217357   5.785   5.089   1.567  0.2002 -0.5035  0.3992
 4228SOL    EPW17358   5.795   5.051   1.488 -0.1406 -0.3285  0.2715
 4229SOL      O17359   5.052   4.663   3.683  0.0127 -0.0374 -0.6156
 4229SOL     H117360   5.059   4.587   3.741  0.2462  0.7020  0.3307
 4229SOL     H217361   5.083   4.630   3.598  1.7267 -0.5823  0.1795
 4229SOL    EPW17362   5.056   4.651   3.680  0.2205 -0.0166 -0.4299
 4230SOL      O17363   2.199   3.351   0.650 -0.0223  0.8258  0.1892
 4230SOL     H117364   2.241   3.317   0.729 -0.4952 -0.1221  0.0399
 4230SOL     H217365   2.252   3.427   0.626  2.6691 -1.3165 -0.9756
 4230SOL    EPW17366   2.209   3.356   0.656  0.2144  0.4961  0.0490
 4231SOL      O17367   4.886   4.144   3.406 -0.6161  0.2433 -0.6113
 4231SOL     H117368   4.883   4.234   3.374  1.4646  0.1565 -1.0827
 4231SOL     H217369   4.898   4.091   3.328 -0.1895 -0.3169 -0.1665
 4231SOL    EPW17370   4.887   4.148   3.394 -0.3486  0.1743 -0.6141
 4232SOL      O17371   3.949   5.249   2.687 -0.1298  1.0801  0.3901
 4232SOL     H117372   3.990   5.271   2.770 -1.4480  1.3521  0.9734
 4232SOL     H217373   4.014   5.195   2.642  0.7082  1.1878  1.4625
 4232SOL    EPW17374   3.960   5.245   2.691 -0.1810  1.1206  0.5667
 4233SOL      O17375   4.352   4.718   2.993 -0.0471  0.2323  0.2977
 4233SOL     H117376   4.386   4.798   3.033  0.8450 -0.3146  0.6516
 4233SOL     H217377   4.325   4.745   2.906 -0.6771  1.1326  0.7617
 4233SOL    EPW17378   4.353   4.729   2.988 -0.0192  0.2700  0.3850
 4234SOL      O17379   4.893   5.322   2.625  0.2073 -0.0025  0.2883
 4234SOL     H117380   4.985   5.324   2.649  0.2101  0.3082  0.2551
 4234SOL     H217381   4.854   5.260   2.686  0.7246 -1.3708 -0.7531
 4234SOL    EPW17382   4.898   5.316   2.634  0.2628 -0.1153  0.1736
 4235SOL      O17383   4.987   3.626   0.921 -0.3181  0.0862  0.4064
 4235SOL     H117384   5.067   3.628   0.869 -1.4923  0.7140 -1.4349
 4235SOL     H217385   4.971   3.533   0.937  0.6960 -0.0501  0.6718
 4235SOL    EPW17386   4.994   3.616   0.917 -0.3352  0.1386  0.2383
 4236SOL      O17387   3.341   0.164   2.942 -0.0393 -0.0995 -0.2989
 4236SOL     H117388   3.356   0.170   3.036  1.0551 -1.1907 -0.3950
 4236SOL     H217389   3.270   0.226   2.925  0.6715  1.0867  1.0268
 4236SOL    EPW17390   3.335   0.171   2.950  0.1533 -0.0894 -0.1677
 4237SOL      O17391   4.236   4.476   3.024  0.7484 -0.4491 -0.5367
 4237SOL     H117392   4.228   4.430   2.940  0.7326  0.0024 -0.7799
 4237SOL     H217393   4.292   4.551   3.005 -0.9913  0.8529 -0.6371
 4237SOL    EPW17394   4.241   4.479   3.013  0.5611 -0.2620 -0.5734
 4238SOL      O17395   5.596   4.375   4.035  0.4199  0.1909 -0.3638
 4238SOL     H117396   5.591   4.442   4.104  0.6208  0.6227 -0.7630
 4238SOL     H217397   5.531   4.402   3.971  0.6551  0.1187 -0.6300
 4238SOL    EPW17398   5.589   4.385   4.036  0.4665  0.2293 -0.4348
 4239SOL      O17399   4.758   0.033   2.119 -0.3039 -0.1010 -0.0460
 4239SOL     H117400   4.838   0.026   2.068 -1.1107  0.8265 -1.4558
 4239SOL     H217401   4.788   0.058   2.207  1.0928 -1.9564  0.0279
 4239SOL    EPW17402   4.770   0.035   2.123 -0.2409 -0.2000 -0.1885
 4240SOL      O17403   5.473   4.082   3.374 -0.0483  0.5950  1.3798
 4240SOL     H117404   5.450   4.142   3.445 -1.1794 -0.5303  1.9846
 4240SOL     H217405   5.446   4.128   3.294 -0.0195  1.2967  1.7674
 4240SOL    EPW17406   5.468   4.094   3.373 -0.1659  0.5498  1.4856
 4241SOL      O17407   5.011   5.153   3.630  0.0132 -0.4505 -0.0240
 4241SOL     H117408   5.092   5.202   3.612  0.3837 -0.8224  0.6250
 4241SOL     H217409   4.958   5.214   3.682  0.6723 -0.8939  1.1985
 4241SOL    EPW17410   5.014   5.165   3.634  0.1230 -0.5375  0.1756
 4242SOL      O17411   3.105   0.987   3.607 -0.4212 -0.4630  0.6084
 4242SOL     H117412   3.027   0.998   3.552  0.1904 -0.9138 -0.3557
 4242SOL     H217413   3.074   0.937   3.683 -1.2785  0.2032  0.7127
 4242SOL    EPW17414   3.093   0.983   3.609 -0.4474 -0.4400  0.5167
 4243SOL      O17415   5.361   4.273   3.554  0.5915  0.3288  0.8874
 4243SOL     H117416   5.274   4.250   3.588  0.5751  0.3757  0.8759
 4243SOL     H217417   5.350   4.359   3.515  0.4152 -0.0876  0.0222
 4243SOL    EPW17418   5.351   4.279   3.554  0.5710  0.2894  0.7939
 4244SOL      O17419   5.810   5.665   2.484 -0.1817 -0.0525  0.5886
 4244SOL     H117420   5.866   5.676   2.407  0.8759 -1.2319  1.1725
 4244SOL     H217421   5.721   5.658   2.448  0.5589 -3.2597 -0.7830
 4244SOL    EPW17422   5.806   5.665   2.472  0.0101 -0.5205  0.5046
 4245SOL      O17423   0.859   1.601   1.409  0.1177  1.1218  0.3480
 4245SOL     H117424   0.831   1.676   1.356 -1.0456 -0.4489 -1.3350
 4245SOL     H217425   0.952   1.591   1.388  0.2858  2.0932  0.6022
 4245SOL    EPW17426   0.866   1.608   1.401  0.0115  1.0579  0.1956
 4246SOL      O17427   0.199   4.376   3.427  0.5342  0.7385  0.2938
 4246SOL     H117428   0.153   4.340   3.502  0.7620 -0.9702 -0.3705
 4246SOL     H217429   0.191   4.471   3.437 -3.1742  0.5137  0.1864
 4246SOL    EPW17430   0.193   4.383   3.436  0.1629  0.5322  0.2115
 4247SOL      O17431   3.296   5.169   2.755  0.1734 -0.2472 -0.1129
 4247SOL     H117432   3.246   5.230   2.701 -1.6541  0.4801  2.3089
 4247SOL     H217433   3.298   5.088   2.704 -0.1909  0.8412 -1.9021
 4247SOL    EPW17434   3.291   5.167   2.744 -0.0604 -0.0535 -0.0454
 4248SOL      O17435   4.455   4.151   1.900 -0.0770  0.3581  0.2959
 4248SOL     H117436   4.478   4.215   1.832 -0.7746 -0.3502 -0.6239
 4248SOL     H217437   4.487   4.191   1.981 -2.1978  2.7601  0.0212
 4248SOL    EPW17438   4.461   4.162   1.901 -0.3777  0.5387  0.1685
 4249SOL      O17439   3.273   4.796   1.174  0.2914  0.4382  0.2977
 4249SOL     H117440   3.363   4.824   1.158  0.8022 -2.2166 -1.9873
 4249SOL     H217441   3.249   4.746   1.095 -2.2688 -1.0733  1.9417
 4249SOL    EPW17442   3.280   4.793   1.164  0.0728 -0.0063  0.2293
 4250SOL      O17443   5.207   4.708   2.149 -0.1904  0.1747 -0.9550
 4250SOL     H117444   5.207   4.800   2.175 -0.5264 -0.6825  2.3116
 4250SOL     H217445   5.282   4.670   2.195 -0.5451 -1.3594 -1.6144
 4250SOL    EPW17446   5.215   4.714   2.157 -0.2641 -0.0804 -0.6768
 4251SOL      O17447   2.786   1.879   0.199  0.1562 -0.3796 -0.1384
 4251SOL     H117448   2.878   1.900   0.185  0.1651 -0.2017  0.1979
 4251SOL     H217449   2.777   1.871   0.294  0.8890 -5.0208 -0.3156
 4251SOL    EPW17450   2.795   1.880   0.207  0.2353 -0.8557 -0.1214
 4252SOL      O17451   4.300   5.108   3.992  0.6507  0.4514  0.0664
 4252SOL     H117452   4.352   5.042   3.947  0.4533  0.3227  0.0259
 4252SOL     H217453   4.342   5.118   4.077  1.7094  1.5167 -0.5641
 4252SOL    EPW17454   4.310   5.102   3.996  0.7426  0.5513 -0.0052
 4253SOL      O17455   3.336   0.038   3.790  0.7711  0.1593  0.1713
 4253SOL     H117456   3.347  -0.045   3.838  3.1960  0.6068  0.4228
 4253SOL     H217457   3.263   0.081   3.835 -0.2945 -1.6784  0.2622
 4253SOL    EPW17458   3.329   0.033   3.800  0.9161  0.0110  0.2078
 4254SOL      O17459   4.909   0.088   3.179  0.0976  0.1937 -0.0839
 4254SOL     H117460   4.884   0.107   3.089  0.2936  0.8801  0.0068
 4254SOL     H217461   4.985   0.030   3.171 -0.1486 -0.0938 -0.3564
 4254SOL    EPW17462   4.914   0.084   3.169  0.0922  0.2363 -0.1033
 4255SOL      O17463   3.453   1.413   1.860 -0.2982  0.1428  0.1499
 4255SOL     H117464   3.515   1.463   1.913  0.3704  1.3793 -1.7094
 4255SOL     H217465   3.373   1.410   1.912 -0.3456  3.1853  0.3540
 4255SOL    EPW17466   3.451   1.418   1.871 -0.2319  0.5993 -0.0266
 4256SOL      O17467   3.428   1.733   0.177  0.0810 -0.0684 -0.1350
 4256SOL     H117468   3.449   1.783   0.256  0.7492  0.4620 -0.6438
 4256SOL     H217469   3.391   1.651   0.210  0.7590 -0.0363  0.7457
 4256SOL    EPW17470   3.427   1.729   0.189  0.2246 -0.0084 -0.0954
 4257SOL      O17471   2.209   2.492   0.383 -0.4499  0.2771 -0.4390
 4257SOL     H117472   2.231   2.549   0.309  0.6439 -1.4346 -1.4741
 4257SOL     H217473   2.120   2.518   0.407 -0.7294  1.0389 -2.2080
 4257SOL    EPW17474   2.202   2.501   0.377 -0.3630  0.1757 -0.7382
 4258SOL      O17475   0.551   5.077   3.671 -0.0582 -0.0900 -0.1483
 4258SOL     H117476   0.608   5.007   3.701  0.3107  0.9233  1.6111
 4258SOL     H217477   0.579   5.095   3.582  0.4540 -1.5566 -0.2887
 4258SOL    EPW17478   0.560   5.072   3.665  0.0358 -0.1383  0.0244
 4259SOL      O17479   3.488   3.963   3.647 -0.0958 -0.1489  0.0565
 4259SOL     H117480   3.398   3.957   3.615 -0.7676  0.6710  1.7133
 4259SOL     H217481   3.504   3.880   3.692  0.4987 -0.8867 -1.4745
 4259SOL    EPW17482   3.480   3.954   3.648 -0.1040 -0.1401  0.0699
 4260SOL      O17483   0.152   5.457   3.928 -0.0649  0.2883  0.2498
 4260SOL     H117484   0.188   5.541   3.956  1.1247 -0.6390  1.5610
 4260SOL     H217485   0.225   5.413   3.885  0.2707 -1.3825  2.4385
 4260SOL    EPW17486   0.163   5.461   3.926  0.0978  0.0112  0.6232
 4261SOL      O17487   4.214   3.238   3.982 -0.3060  0.1219  0.2183
 4261SOL     H117488   4.206   3.147   4.011 -2.6922  0.8183  1.8917
 4261SOL     H217489   4.285   3.237   3.918 -0.0740 -2.8484  0.4753
 4261SOL    EPW17490   4.221   3.228   3.979 -0.5358 -0.1207  0.4243
 4262SOL      O17491   1.666   2.959   0.017 -0.5343  0.1054  0.7516
 4262SOL     H117492   1.713   3.020   0.074 -2.9626  0.5914  2.3004
 4262SOL     H217493   1.602   2.917   0.075 -0.6998 -1.9512 -0.8779
 4262SOL    EPW17494   1.664   2.961   0.030 -0.8110 -0.0622  0.7430
 4263SOL      O17495   3.546   2.133   0.268 -0.4493  0.1482  0.1484
 4263SOL     H117496   3.550   2.042   0.297 -2.2966  0.2336  0.7654
 4263SOL     H217497   3.632   2.151   0.231  0.7082 -1.1390  2.1282
 4263SOL    EPW17498   3.556   2.126   0.267 -0.5229  0.0200  0.4255
 4264SOL      O17499   1.894   1.753   0.163 -0.2979 -0.3864 -0.3436
 4264SOL     H117500   1.925   1.732   0.075 -0.5242 -1.4012 -0.1902
 4264SOL     H217501   1.824   1.689   0.179  1.0650 -1.5090  1.3366
 4264SOL    EPW17502   1.890   1.744   0.155 -0.1767 -0.6144 -0.1480
 4265SOL      O17503   3.332   1.919   3.553 -0.8976  0.6155 -0.1090
 4265SOL     H117504   3.415   1.910   3.505 -2.3251  2.4984 -3.0721
 4265SOL     H217505   3.351   1.981   3.622  0.0944  1.3011 -0.9785
 4265SOL    EPW17506   3.343   1.924   3.555 -0.9440  0.8895 -0.5178
 4266SOL      O17507   5.421   3.505   3.773 -0.1068 -0.0007 -0.1090
 4266SOL     H117508   5.339   3.550   3.753 -0.2920 -0.3761 -0.1969
 4266SOL     H217509   5.482   3.537   3.706 -0.4830 -0.5605 -0.7272
 4266SOL    EPW17510   5.419   3.513   3.764 -0.1667 -0.1005 -0.1843
 4267SOL      O17511   0.269   5.179   4.076 -0.6007 -0.0029  0.2129
 4267SOL     H117512   0.347   5.228   4.100 -0.2670  0.5620 -1.8712
 4267SOL     H217513   0.204   5.202   4.142  0.6674  0.3570  1.3466
 4267SOL    EPW17514   0.270   5.187   4.085 -0.4298  0.0957  0.1115
 4268SOL      O17515   4.436   3.863   3.592 -0.0569 -0.4987  0.0673
 4268SOL     H117516   4.460   3.930   3.656  0.5591 -2.4279  1.8838
 4268SOL     H217517   4.432   3.782   3.642 -0.0700 -1.9573 -2.2380
 4268SOL    EPW17518   4.438   3.862   3.604  0.0074 -0.8601  0.0152
 4269SOL      O17519   1.777   1.207   0.516  0.0152  0.8390  0.1561
 4269SOL     H117520   1.865   1.193   0.550  0.0351 -0.1695 -0.3151
 4269SOL     H217521   1.743   1.120   0.499 -0.8285  1.2492 -0.2970
 4269SOL    EPW17522   1.783   1.196   0.518 -0.0727  0.7751  0.0575
 4270SOL      O17523   2.407   0.772   0.554 -0.1337 -0.3501  0.3740
 4270SOL     H117524   2.427   0.745   0.464 -1.6223  1.5285 -0.5537
 4270SOL     H217525   2.312   0.784   0.555 -0.0330  0.4715  1.9525
 4270SOL    EPW17526   2.399   0.771   0.545 -0.2817 -0.0620  0.4434
 4271SOL      O17527   4.676   4.064   3.175  0.1868 -0.0121 -0.1508
 4271SOL     H117528   4.631   4.118   3.110  1.4490 -0.3551 -1.3392
 4271SOL     H217529   4.768   4.084   3.163  0.3159  2.2214  3.6320
 4271SOL    EPW17530   4.681   4.072   3.167  0.3352  0.1896  0.1260
 4272SOL      O17531   1.656   2.853   0.763 -0.6755 -0.4348 -0.1232
 4272SOL     H117532   1.733   2.811   0.725  0.9389  1.4270  1.0097
 4272SOL     H217533   1.677   2.861   0.856 -2.4413 -0.3295  0.2785
 4272SOL    EPW17534   1.667   2.849   0.769 -0.6916 -0.2250  0.0406
 4273SOL      O17535   4.271   5.102   3.602 -0.0595  0.2970  0.3366
 4273SOL     H117536   4.190   5.095   3.552 -1.0941  0.5855  1.9346
 4273SOL     H217537   4.302   5.011   3.611  0.4230  0.2980 -1.2692
 4273SOL    EPW17538   4.266   5.091   3.598 -0.1184  0.3279  0.3358
 4274SOL      O17539   2.473   1.679   0.283 -0.5027  0.2615  0.0466
 4274SOL     H117540   2.562   1.661   0.255 -0.7279  2.0784 -2.0209
 4274SOL     H217541   2.418   1.639   0.216 -1.2147  0.2746  0.6109
 4274SOL    EPW17542   2.476   1.673   0.273 -0.6027  0.4567 -0.1138
 4275SOL      O17543   4.632   3.724   3.438 -0.4086  0.1174  0.9005
 4275SOL     H117544   4.710   3.766   3.475  0.4782 -1.1663  0.5320
 4275SOL     H217545   4.559   3.761   3.488  0.4781  0.9911  1.5677
 4275SOL    EPW17546   4.632   3.732   3.448 -0.2194  0.0737  0.9324
 4276SOL      O17547   1.971   0.555   1.002 -0.1567  0.4979  0.2367
 4276SOL     H117548   2.039   0.491   1.025  0.4655  1.3905  0.9304
 4276SOL     H217549   2.008   0.640   1.027 -2.0813  0.8764  1.9779
 4276SOL    EPW17550   1.982   0.557   1.007 -0.2957  0.6335  0.4965
 4277SOL      O17551   0.082   3.525   3.200  0.0112  0.4117  0.6329
 4277SOL     H117552   0.056   3.526   3.108 -2.5165 -1.0355  1.2639
 4277SOL     H217553   0.150   3.458   3.205 -1.2594 -0.9676  0.1111
 4277SOL    EPW17554   0.086   3.518   3.191 -0.3940  0.1102  0.6445
 4278SOL      O17555   3.000   1.383   1.499  0.4639  0.5485  0.3683
 4278SOL     H117556   2.950   1.450   1.452 -1.6494  0.3048  2.1848
 4278SOL     H217557   2.982   1.302   1.451  1.2913  0.9158 -0.5659
 4278SOL    EPW17558   2.993   1.381   1.489  0.3268  0.5617  0.4624
 4279SOL      O17559   4.747   0.738   1.132  0.0680 -0.0196  0.3679
 4279SOL     H117560   4.790   0.789   1.063 -2.7495  1.6278 -0.2484
 4279SOL     H217561   4.708   0.803   1.189  0.3961 -1.4396  2.2472
 4279SOL    EPW17562   4.748   0.750   1.130 -0.1976  0.0046  0.5027
 4280SOL      O17563   4.916   4.248   4.080  0.7724 -0.0098 -0.2310
 4280SOL     H117564   4.931   4.176   4.019  0.2471  1.2589 -1.9148
 4280SOL     H217565   4.904   4.206   4.165 -1.0677 -2.0357 -1.4373
 4280SOL    EPW17566   4.916   4.236   4.082  0.5201 -0.0906 -0.5393
 4281SOL      O17567   0.379   2.009   0.443 -0.4230 -0.0531 -0.3973
 4281SOL     H117568   0.301   1.980   0.491 -0.7339  1.6422  0.1545
 4281SOL     H217569   0.349   2.019   0.353 -0.6239 -0.2136 -0.3489
 4281SOL    EPW17570   0.367   2.007   0.439 -0.4776  0.1106 -0.3333
 4282SOL      O17571   5.208   5.413   3.916 -0.4320 -0.4014 -0.4066
 4282SOL     H117572   5.144   5.482   3.934 -0.6060 -0.3962 -1.0524
 4282SOL     H217573   5.205   5.401   3.821 -0.4289 -1.3249 -0.2922
 4282SOL    EPW17574   5.201   5.419   3.908 -0.4503 -0.4994 -0.4633
 4283SOL      O17575   5.292   4.684   3.978  0.0583  0.2289 -0.5974
 4283SOL     H117576   5.361   4.736   4.019  0.8439  1.7325 -3.6876
 4283SOL     H217577   5.338   4.608   3.942 -0.4254 -0.4367  0.1812
 4283SOL    EPW17578   5.305   4.682   3.978  0.0905  0.3183 -0.8440
 4284SOL      O17579   4.369   1.954   4.151 -0.1285 -0.6004 -0.0602
 4284SOL     H117580   4.436   1.891   4.176 -0.4957 -1.0300 -0.1452
 4284SOL     H217581   4.290   1.924   4.196 -0.2658 -0.1168  0.0167
 4284SOL    EPW17582   4.367   1.944   4.158 -0.1823 -0.5947 -0.0610
 4285SOL      O17583   0.464   2.293   0.054 -0.0675 -0.4477  0.2904
 4285SOL     H117584   0.402   2.363   0.072  0.7439  1.0565 -2.5564
 4285SOL     H217585   0.540   2.313   0.109 -0.3318  0.2139  0.4123
 4285SOL    EPW17586   0.466   2.302   0.062 -0.0091 -0.2166 -0.0003
 4286SOL      O17587   5.625   4.853   2.948 -0.6749 -0.2647 -0.0144
 4286SOL     H117588   5.548   4.807   2.915 -1.1063  0.0982  0.4723
 4286SOL     H217589   5.675   4.786   2.995 -0.7370 -0.4779 -0.2473
 4286SOL    EPW17590   5.622   4.841   2.949 -0.7275 -0.2488  0.0127
 4287SOL      O17591   4.614   5.528   3.575 -0.5078  0.4548  0.0031
 4287SOL     H117592   4.576   5.597   3.519  0.1956 -2.0163 -3.7046
 4287SOL     H217593   4.708   5.542   3.569 -0.3372 -1.2182 -1.3174
 4287SOL    EPW17594   4.620   5.537   3.568 -0.4145  0.0128 -0.5333
 4288SOL      O17595   1.024   2.337   1.141 -0.8374 -0.2736 -0.4414
 4288SOL     H117596   1.061   2.276   1.078 -0.0801 -0.3129  0.0297
 4288SOL     H217597   0.931   2.314   1.146 -0.4855 -1.6204 -0.0076
 4288SOL    EPW17598   1.018   2.328   1.135 -0.7191 -0.4214 -0.3449
 4289SOL      O17599   0.567   1.722   3.246  0.2464  0.0987  0.0573
 4289SOL     H117600   0.647   1.736   3.298  0.7638  2.5987 -1.3087
 4289SOL     H217601   0.595   1.730   3.155 -1.5197  0.9027 -0.4508
 4289SOL    EPW17602   0.578   1.725   3.242  0.1132  0.4512 -0.1426
 4290SOL      O17603   5.203   4.901   3.663  1.2979 -0.4174  0.3644
 4290SOL     H117604   5.163   4.980   3.700 -0.3954 -0.2167 -1.7764
 4290SOL     H217605   5.153   4.829   3.702  1.0211 -0.3074  0.2146
 4290SOL    EPW17606   5.193   4.902   3.671  1.0877 -0.3843  0.1200
 4291SOL      O17607   2.084   1.477   0.813  0.4324 -0.1697 -0.1588
 4291SOL     H117608   2.120   1.392   0.837 -0.4805 -0.5370 -0.0850
 4291SOL     H217609   1.990   1.463   0.809  0.3687  0.5433 -1.3294
 4291SOL    EPW17610   2.078   1.467   0.815  0.3282 -0.1328 -0.2758
 4292SOL      O17611   4.174   5.658   3.273  0.2477  0.4455  0.3884
 4292SOL     H117612   4.094   5.662   3.325 -0.3600 -0.8585 -0.4132
 4292SOL     H217613   4.166   5.731   3.211 -1.7359 -1.3936 -1.6214
 4292SOL    EPW17614   4.165   5.666   3.272 -0.0287  0.1102  0.0885
 4293SOL      O17615   0.511   1.786   0.428 -0.0232 -0.1632  0.2593
 4293SOL     H117616   0.434   1.730   0.434 -0.1815  0.0198 -0.0402
 4293SOL     H217617   0.476   1.873   0.409  0.1814  0.1722  1.4102
 4293SOL    EPW17618   0.499   1.789   0.427 -0.0183 -0.1079  0.3502
 4294SOL      O17619   3.497   5.524   4.059  0.1072 -0.0771  0.2068
 4294SOL     H117620   3.560   5.462   4.022  2.4194  1.3757  1.6248
 4294SOL     H217621   3.472   5.484   4.142 -0.4013 -0.3667 -0.0835
 4294SOL    EPW17622   3.501   5.513   4.064  0.2996  0.0470  0.3271
 4295SOL      O17623   0.101   5.361   2.718  0.3586  0.4742  0.1307
 4295SOL     H117624   0.023   5.328   2.763  0.4849 -0.5610 -0.4116
 4295SOL     H217625   0.139   5.424   2.780  0.3467 -0.6990  1.3418
 4295SOL    EPW17626   0.097   5.364   2.730  0.3708  0.2386  0.2021
 4296SOL      O17627   4.151   5.202   2.088 -0.3534  0.3759  0.8239
 4296SOL     H117628   4.165   5.267   2.020 -1.1483  0.4035  0.6747
 4296SOL     H217629   4.081   5.147   2.053 -1.1650  0.7380  1.8650
 4296SOL    EPW17630   4.145   5.203   2.077 -0.5248  0.4175  0.9191
 4297SOL      O17631   2.866   2.531   4.027  0.1547 -0.3721 -0.1489
 4297SOL     H117632   2.911   2.449   4.009 -0.9194 -1.5387  2.3526
 4297SOL     H217633   2.937   2.594   4.045  0.8871 -1.9186  2.6637
 4297SOL    EPW17634   2.879   2.529   4.027  0.1183 -0.6615  0.4180
 4298SOL      O17635   5.842   5.659   1.206 -0.8377 -0.1159 -0.1032
 4298SOL     H117636   5.752   5.687   1.222 -1.5490 -1.0280 -2.3734
 4298SOL     H217637   5.839   5.616   1.121  1.6601 -0.5962  0.0217
 4298SOL    EPW17638   5.832   5.657   1.199 -0.6472 -0.2644 -0.3320
 4299SOL      O17639   2.401   2.618   3.139 -0.3597 -0.2076 -0.6381
 4299SOL     H117640   2.353   2.693   3.172 -2.6916 -1.2500 -1.5331
 4299SOL     H217641   2.390   2.623   3.044  2.2127  0.0928 -0.9702
 4299SOL    EPW17642   2.395   2.626   3.132 -0.3341 -0.2868 -0.7690
 4300SOL      O17643   5.018   5.000   0.834 -0.2416 -0.3297  0.2307
 4300SOL     H117644   5.022   5.094   0.821  1.9796 -0.2563  1.1949
 4300SOL     H217645   4.935   4.985   0.878 -0.3857  1.2424  0.5187
 4300SOL    EPW17646   5.010   5.008   0.838 -0.0200 -0.1542  0.3643
 4301SOL      O17647   3.223   0.612   1.006  0.0007  0.6352 -0.2520
 4301SOL     H117648   3.313   0.631   1.035 -0.8448  1.9710  1.6084
 4301SOL     H217649   3.225   0.627   0.912  1.9692 -0.3137 -0.3986
 4301SOL    EPW17650   3.233   0.616   0.999  0.1205  0.6765 -0.0692
 4302SOL      O17651   4.112   5.647   1.311 -0.0489  0.1778 -0.1100
 4302SOL     H117652   4.101   5.613   1.400  1.2691 -0.6254 -0.2429
 4302SOL     H217653   4.063   5.587   1.256  1.2647 -0.8415 -0.2020
 4302SOL    EPW17654   4.106   5.637   1.315  0.2318 -0.0166 -0.1340
 4303SOL      O17655   3.671   5.641   1.489  0.1962  0.2228 -0.5746
 4303SOL     H117656   3.709   5.721   1.526 -0.3636  0.0130  0.5021
 4303SOL     H217657   3.576   5.653   1.500  0.0542 -0.0925 -1.4529
 4303SOL    EPW17658   3.665   5.651   1.494  0.1213  0.1668 -0.5534
 4304SOL      O17659   0.239   0.338   2.311 -0.3986  0.2143 -0.3136
 4304SOL     H117660   0.302   0.269   2.292  1.2659  1.9012 -1.0994
 4304SOL     H217661   0.175   0.332   2.240  0.8269  0.7028 -1.4986
 4304SOL    EPW17662   0.239   0.330   2.301 -0.0903  0.4464 -0.5239
 4305SOL      O17663   5.648   5.749   3.361 -0.2917  0.4398  0.0867
 4305SOL     H117664   5.670   5.708   3.445 -2.5172  1.5425  1.2359
 4305SOL     H217665   5.714   5.715   3.300  1.7093  0.0898  2.3963
 4305SOL    EPW17666   5.657   5.741   3.363 -0.3157  0.5201  0.4557
 4306SOL      O17667   0.416   5.437   1.110  0.4670  0.1472  0.0369
 4306SOL     H117668   0.458   5.369   1.058 -1.6743 -1.3603  0.1882
 4306SOL     H217669   0.423   5.405   1.200 -0.7633 -0.0119  0.0846
 4306SOL    EPW17670   0.421   5.426   1.114  0.1073 -0.0306  0.0581
 4307SOL      O17671   2.791   0.408   0.217  0.2042 -0.5758 -0.6937
 4307SOL     H117672   2.791   0.325   0.170  0.9835 -0.7826 -0.3398
 4307SOL     H217673   2.858   0.397   0.284  0.3046  0.3404 -0.6428
 4307SOL    EPW17674   2.798   0.398   0.219  0.2981 -0.5001 -0.6505
 4308SOL      O17675   4.985   5.392   1.346 -0.4113 -0.2870 -0.3936
 4308SOL     H117676   4.931   5.452   1.295 -2.1211 -1.1668  0.3525
 4308SOL     H217677   4.960   5.408   1.436  0.3028 -1.0001 -0.0633
 4308SOL    EPW17678   4.977   5.400   1.350 -0.5175 -0.4570 -0.2788
 4309SOL      O17679   1.751   3.266   3.605 -0.3103  0.5581  0.1769
 4309SOL     H117680   1.845   3.249   3.610 -0.0840  1.3742 -0.9779
 4309SOL     H217681   1.727   3.298   3.692  0.4731  0.3353  0.4783
 4309SOL    EPW17682   1.758   3.268   3.615 -0.2026  0.6214  0.0859
 4310SOL      O17683   5.325   1.042   1.704  0.2373  0.6310 -0.1361
 4310SOL     H117684   5.278   1.126   1.694 -1.9014 -0.6012 -0.8369
 4310SOL     H217685   5.273   0.994   1.768  0.6712 -0.6809 -0.7577
 4310SOL    EPW17686   5.314   1.046   1.709  0.0554  0.3596 -0.2771
 4311SOL      O17687   4.660   5.523   1.598 -0.3437 -0.6759 -0.2545
 4311SOL     H117688   4.685   5.532   1.690  0.3582  0.1977 -0.5221
 4311SOL     H217689   4.738   5.490   1.554 -0.8096 -1.5008 -0.4660
 4311SOL    EPW17690   4.671   5.520   1.603 -0.3186 -0.6707 -0.3056
 4312SOL      O17691   4.360   5.371   1.826 -0.2957  0.1199  0.5042
 4312SOL     H117692   4.444   5.329   1.846 -0.0310  1.2812  1.9772
 4312SOL     H217693   4.380   5.431   1.754  0.3671  1.0869  1.4768
 4312SOL    EPW17694   4.371   5.373   1.821 -0.1967  0.3470  0.7651
 4313SOL      O17695   4.665   0.023   0.528  0.0516 -0.0367  0.6625
 4313SOL     H117696   4.648  -0.067   0.501 -2.3384  0.0287  1.8168
 4313SOL     H217697   4.649   0.075   0.449 -0.9722 -0.4131  0.6087
 4313SOL    EPW17698   4.662   0.019   0.516 -0.3125 -0.0699  0.7799
 4314SOL      O17699   4.359   0.285   1.042  0.5363  0.1047  0.2828
 4314SOL     H117700   4.357   0.250   0.952 -0.6650  1.2323 -0.1509
 4314SOL     H217701   4.332   0.211   1.096 -0.8793  0.0044 -0.5180
 4314SOL    EPW17702   4.356   0.273   1.038  0.2572  0.2143  0.1511
 4315SOL      O17703   1.090   1.596   3.984  0.4222  0.1347 -0.3909
 4315SOL     H117704   1.041   1.603   4.066  0.9542  0.6336 -0.1191
 4315SOL     H217705   1.072   1.678   3.939  0.0201 -0.1960 -0.8393
 4315SOL    EPW17706   1.083   1.606   3.988  0.4361  0.1527 -0.4097
 4316SOL      O17707   4.826   3.689   0.720  0.1769  0.1457  0.0405
 4316SOL     H117708   4.767   3.753   0.760 -0.9958 -0.6046 -0.4649
 4316SOL     H217709   4.882   3.660   0.792  0.7444  1.7463  0.2739
 4316SOL    EPW17710   4.826   3.693   0.732  0.1123  0.2364  0.0115
 4317SOL      O17711   2.615   3.307   3.947 -0.2029 -0.5609 -0.0939
 4317SOL     H117712   2.708   3.322   3.964 -0.5052  0.2523  0.8504
 4317SOL     H217713   2.614   3.232   3.887  0.9596 -2.6896  2.4556
 4317SOL    EPW17714   2.625   3.300   3.942 -0.1111 -0.7012  0.2788
 4318SOL      O17715   4.096   5.185   1.191 -0.4811  0.1289  0.4868
 4318SOL     H117716   4.167   5.203   1.253 -0.8175  1.6629  0.4378
 4318SOL     H217717   4.131   5.211   1.106 -0.6454 -0.3285  0.2779
 4318SOL    EPW17718   4.107   5.189   1.188 -0.5345  0.2438  0.4593
 4319SOL      O17719   4.282   0.487   0.752 -0.0618 -0.0298  0.8929
 4319SOL     H117720   4.276   0.532   0.837  0.6651 -0.4163  1.1495
 4319SOL     H217721   4.294   0.558   0.689 -4.3628  0.6353  0.6270
 4319SOL    EPW17722   4.282   0.499   0.755 -0.4431 -0.0000  0.8919
 4320SOL      O17723   0.087   5.650   0.638 -0.1471  0.3433  0.4045
 4320SOL     H117724   0.072   5.626   0.547  0.9051  1.5474 -0.0904
 4320SOL     H217725   0.044   5.735   0.648 -1.2962 -0.3216  1.3706
 4320SOL    EPW17726   0.081   5.656   0.630 -0.1575  0.4008  0.4548
 4321SOL      O17727   4.093   1.270   3.324  0.1008 -0.0310 -0.1525
 4321SOL     H117728   4.071   1.304   3.411  0.4712  0.2068 -0.1544
 4321SOL     H217729   4.021   1.209   3.304  1.3809 -2.1265  1.4619
 4321SOL    EPW17730   4.083   1.267   3.331  0.2768 -0.2292  0.0195
 4322SOL      O17731   4.000   0.049   2.337  0.6141 -0.7934  0.4015
 4322SOL     H117732   3.974   0.132   2.296  0.2885 -1.1940 -0.2276
 4322SOL     H217733   3.968  -0.018   2.276 -1.6962 -1.4899  2.2946
 4322SOL    EPW17734   3.994   0.050   2.326  0.3329 -0.9104  0.5364
 4323SOL      O17735   4.696   4.511   2.977  0.6294 -0.6631  0.4611
 4323SOL     H117736   4.627   4.500   2.911  0.4522 -1.0079  0.7012
 4323SOL     H217737   4.684   4.600   3.010  1.7107  0.0795 -1.0991
 4323SOL    EPW17738   4.687   4.519   2.973  0.7259 -0.6207  0.3202
 4324SOL      O17739   3.466   0.727   2.436  0.1002  0.4404  0.1954
 4324SOL     H117740   3.384   0.678   2.442  0.4310 -0.3347 -1.4175
 4324SOL     H217741   3.533   0.661   2.418  0.7960  1.3023 -0.4050
 4324SOL    EPW17742   3.464   0.715   2.435  0.2097  0.4496 -0.0407
 4325SOL      O17743   4.996   4.618   0.532  0.0303  0.0897 -0.5905
 4325SOL     H117744   4.987   4.630   0.437  0.4254  0.2621 -0.6052
 4325SOL     H217745   4.910   4.587   0.560 -0.9637  2.6249 -0.6211
 4325SOL    EPW17746   4.985   4.616   0.525 -0.0336  0.3786 -0.5953
 4326SOL      O17747   5.671   0.693   3.167 -0.4187 -0.1283  0.3521
 4326SOL     H117748   5.663   0.774   3.116 -1.4983 -0.2711  0.2732
 4326SOL     H217749   5.758   0.697   3.206  1.0950 -0.7546 -2.7948
 4326SOL    EPW17750   5.679   0.702   3.166 -0.3724 -0.2103  0.0079
 4327SOL      O17751   5.235   5.339   3.666  0.0240  0.7098  0.7910
 4327SOL     H117752   5.260   5.395   3.593  2.3267 -0.8680  0.3315
 4327SOL     H217753   5.310   5.281   3.679 -2.3516 -2.3980  1.1461
 4327SOL    EPW17754   5.246   5.339   3.660  0.0162  0.2099  0.7798
 4328SOL      O17755   0.640   0.080   2.647  0.0833  0.8834 -0.0508
 4328SOL     H117756   0.706   0.143   2.677  0.1355  1.3377 -1.0931
 4328SOL     H217757   0.688  -0.003   2.642  0.4351  1.0952 -0.2576
 4328SOL    EPW17758   0.652   0.078   2.650  0.1264  0.9544 -0.1840
 4329SOL      O17759   4.394   0.150   3.812  0.1791 -0.3451  0.1390
 4329SOL     H117760   4.463   0.108   3.761  0.4063  0.5802 -0.3077
 4329SOL     H217761   4.438   0.185   3.889  0.1501 -0.0531  0.0224
 4329SOL    EPW17762   4.406   0.149   3.815  0.2003 -0.2152  0.0789
 4330SOL      O17763   4.364   1.086   2.344  0.0261  0.1217  0.1534
 4330SOL     H117764   4.344   1.126   2.428  1.2691  0.2548  0.3821
 4330SOL     H217765   4.286   1.104   2.290  0.5431  2.8016  0.2569
 4330SOL    EPW17766   4.353   1.092   2.347  0.2138  0.4218  0.1888
 4331SOL      O17767   3.469   5.667   2.833 -0.3604  0.2519  0.8467
 4331SOL     H117768   3.562   5.667   2.852 -0.0036  3.4208 -0.6795
 4331SOL     H217769   3.461   5.619   2.750 -0.1048 -0.0554  0.9978
 4331SOL    EPW17770   3.478   5.662   2.826 -0.2951  0.5571  0.7000
 4332SOL      O17771   3.998   4.780   3.790  0.4707  0.1134 -0.2804
 4332SOL     H117772   3.948   4.857   3.816  1.7853  1.5357 -1.8521
 4332SOL     H217773   4.034   4.746   3.872 -1.5531  0.0897  0.6516
 4332SOL    EPW17774   3.996   4.785   3.802  0.3951  0.2626 -0.3486
 4333SOL      O17775   4.585   0.215   3.105 -0.7318  0.5167  0.3553
 4333SOL     H117776   4.643   0.207   3.180  0.8343 -0.8362 -0.9595
 4333SOL     H217777   4.574   0.310   3.093  3.5783  0.9509 -1.0764
 4333SOL    EPW17778   4.590   0.225   3.112 -0.1049  0.4187  0.0623
 4334SOL      O17779   4.216   5.857   1.855  0.4217 -0.2507 -0.4538
 4334SOL     H117780   4.125   5.853   1.883  0.9011  0.0602  1.1863
 4334SOL     H217781   4.249   5.768   1.869  0.6862 -0.0724  0.0637
 4334SOL    EPW17782   4.210   5.847   1.859  0.5011 -0.1985 -0.2237
 4335SOL      O17783   4.169   0.824   3.105  0.3601 -0.0175 -0.6956
 4335SOL     H117784   4.102   0.868   3.156  2.3479 -0.3394  2.2957
 4335SOL     H217785   4.217   0.895   3.062  0.7475  0.4898  0.5515
 4335SOL    EPW17786   4.167   0.836   3.106  0.6135  0.0023 -0.2434
 4336SOL      O17787   4.663   0.248   2.497 -0.3179 -0.1547  0.2980
 4336SOL     H117788   4.584   0.286   2.458 -0.1973 -1.1617 -0.9816
 4336SOL     H217789   4.690   0.311   2.563 -2.2995  0.1134  0.8771
 4336SOL    EPW17790   4.657   0.259   2.500 -0.5164 -0.2335  0.2232
 4337SOL      O17791   3.681   4.622   3.481 -0.2416  0.0525 -0.0897
 4337SOL     H117792   3.744   4.689   3.455 -0.5033  0.9169  1.3987
 4337SOL     H217793   3.733   4.544   3.498  0.1360  0.0443 -1.2780
 4337SOL    EPW17794   3.693   4.621   3.480 -0.2292  0.1439 -0.0577
 4338SOL      O17795   4.650   4.840   3.418 -0.1988 -0.5161 -0.3719
 4338SOL     H117796   4.708   4.769   3.444 -0.1433 -1.1077 -2.0452
 4338SOL     H217797   4.707   4.916   3.410  0.3225 -1.0250 -1.7117
 4338SOL    EPW17798   4.662   4.840   3.420 -0.1373 -0.6335 -0.6933
 4339SOL      O17799   4.670   0.807   2.319 -0.3370 -0.0037 -0.2203
 4339SOL     H117800   4.637   0.897   2.322  0.2118  0.1589  1.0263
 4339SOL     H217801   4.591   0.753   2.313 -0.8302  0.4103  2.0967
 4339SOL    EPW17802   4.658   0.811   2.318 -0.3311  0.0578  0.1598
 4340SOL      O17803   0.418   1.150   2.329 -0.3574  0.0983 -0.2647
 4340SOL     H117804   0.440   1.244   2.333 -1.4360  0.4105 -1.4421
 4340SOL     H217805   0.479   1.109   2.391  0.0904  1.5818  0.3082
 4340SOL    EPW17806   0.427   1.156   2.336 -0.4247  0.2898 -0.3292
 4341SOL      O17807   4.062   5.434   3.732  0.5254 -0.1030  0.2063
 4341SOL     H117808   3.988   5.494   3.721  0.0933 -0.6470  0.1470
 4341SOL     H217809   4.118   5.451   3.656 -0.2762 -0.7393 -0.5253
 4341SOL    EPW17810   4.060   5.442   3.723  0.3938 -0.2289  0.1219
 4342SOL      O17811   4.234   0.497   3.434 -0.8276  0.0118 -0.5151
 4342SOL     H117812   4.314   0.446   3.437 -1.0492 -0.3578 -0.7865
 4342SOL     H217813   4.242   0.560   3.505 -0.2533  0.0413 -0.6083
 4342SOL    EPW17814   4.243   0.498   3.442 -0.7900 -0.0244 -0.5540
 4343SOL      O17815   2.962   0.517   3.306  0.6578 -0.0026  0.5684
 4343SOL     H117816   2.983   0.610   3.309 -1.4346  0.4996  0.9817
 4343SOL     H217817   3.014   0.482   3.234  0.6546  1.7128 -0.2840
 4343SOL    EPW17818   2.970   0.523   3.299  0.4343  0.2340  0.5216
 4344SOL      O17819   4.959   0.352   1.773  0.2292  0.2398  0.2077
 4344SOL     H117820   5.001   0.371   1.857  1.2157 -1.3814  0.1022
 4344SOL     H217821   5.029   0.361   1.708  0.8996 -4.0485  0.1992
 4344SOL    EPW17822   4.971   0.355   1.775  0.4059 -0.3906  0.1955
 4345SOL      O17823   5.556   0.745   2.489  0.1012 -0.1458 -0.2080
 4345SOL     H117824   5.503   0.686   2.544  1.1615 -2.4335 -1.5543
 4345SOL     H217825   5.521   0.732   2.401  2.3202 -1.0581 -0.9879
 4345SOL    EPW17826   5.546   0.737   2.485  0.4511 -0.4872 -0.4348
 4346SOL      O17827   4.227   5.005   3.238  0.0748 -0.8742 -0.7378
 4346SOL     H117828   4.175   4.993   3.158 -0.1025 -0.5677 -0.6713
 4346SOL     H217829   4.206   4.928   3.292 -0.5366 -0.6099 -0.5896
 4346SOL    EPW17830   4.219   4.995   3.235 -0.0093 -0.8133 -0.7149
 4347SOL      O17831   1.740   5.762   2.358 -0.3377 -0.1625  0.0682
 4347SOL     H117832   1.809   5.812   2.314  0.2192  0.4440  1.5957
 4347SOL     H217833   1.780   5.734   2.441 -0.9453 -2.3605 -0.3399
 4347SOL    EPW17834   1.752   5.764   2.363 -0.3431 -0.3322  0.1876
 4348SOL      O17835   3.663   0.660   1.290  0.0476 -1.1883 -0.2757
 4348SOL     H117836   3.613   0.740   1.277 -0.5000 -1.3042  0.9983
 4348SOL     H217837   3.648   0.637   1.382  0.4390 -2.5871 -0.5472
 4348SOL    EPW17838   3.656   0.666   1.299  0.0310 -1.3499 -0.1687
 4349SOL      O17839   0.110   5.525   1.860 -0.1474 -0.2206  0.2246
 4349SOL     H117840   0.124   5.447   1.914 -0.4779 -0.7229 -0.3973
 4349SOL     H217841   0.055   5.582   1.913 -0.8653 -0.9137  0.2410
 4349SOL    EPW17842   0.105   5.523   1.871 -0.2592 -0.3481  0.1600
 4350SOL      O17843   4.315   5.302   3.810  0.8195  0.0651 -0.0924
 4350SOL     H117844   4.307   5.250   3.730 -0.3289  0.1212 -0.0231
 4350SOL     H217845   4.321   5.238   3.880  0.3150  0.0185 -0.0900
 4350SOL    EPW17846   4.315   5.290   3.809  0.6432  0.0661 -0.0847
 4351SOL      O17847   3.960   0.548   3.403  0.1671  0.0029 -0.0830
 4351SOL     H117848   4.051   0.535   3.379  0.3202 -0.3234  0.6547
 4351SOL     H217849   3.910   0.499   3.338  0.4800  0.8234 -0.9483
 4351SOL    EPW17850   3.964   0.542   3.394  0.2168  0.0556 -0.0966
 4352SOL      O17851   3.319   5.731   2.403  0.1325  0.2410 -0.0861
 4352SOL     H117852   3.242   5.675   2.399  0.4029 -0.0433 -1.3606
 4352SOL     H217853   3.374   5.703   2.330  1.7542  0.0033  1.2127
 4352SOL    EPW17854   3.317   5.722   2.395  0.3343  0.1854 -0.0835
 4353SOL      O17855   2.289   2.770   0.341  0.4231 -0.1567  0.0042
 4353SOL     H117856   2.341   2.851   0.343  1.7192 -0.9754  0.6816
 4353SOL     H217857   2.296   2.736   0.431 -0.9166 -0.5188 -0.0247
 4353SOL    EPW17858   2.296   2.775   0.351  0.4185 -0.2827  0.0734
 4354SOL      O17859   0.244   5.857   1.312  0.0787 -0.4414  0.0227
 4354SOL     H117860   0.281   5.810   1.386  0.4975 -1.9723 -1.1274
 4354SOL     H217861   0.157   5.883   1.341  0.2393 -1.0171  1.0451
 4354SOL    EPW17862   0.239   5.855   1.323  0.1405 -0.6661  0.0091
 4355SOL      O17863   3.724   3.524   0.728  0.4930 -0.0780 -0.2571
 4355SOL     H117864   3.675   3.487   0.801 -0.1337  0.6342 -0.3009
 4355SOL     H217865   3.656   3.553   0.666  1.0097 -0.4750 -1.0178
 4355SOL    EPW17866   3.711   3.523   0.729  0.4813 -0.0444 -0.3429
 4356SOL      O17867   3.663   0.597   3.571 -0.6827  0.1780 -0.4217
 4356SOL     H117868   3.722   0.635   3.507  0.2942  1.0228  0.9457
 4356SOL     H217869   3.707   0.517   3.601 -1.5905 -0.7394 -1.5021
 4356SOL    EPW17870   3.674   0.592   3.568 -0.6753  0.1703 -0.3911
 4357SOL      O17871   4.695   5.530   1.869  0.1419 -0.2456  0.1348
 4357SOL     H117872   4.644   5.550   1.947 -1.7780 -1.2531 -0.8419
 4357SOL     H217873   4.786   5.545   1.896 -0.6845  2.6311  1.5708
 4357SOL    EPW17874   4.700   5.534   1.880 -0.1510 -0.0462  0.1838
 4358SOL      O17875   2.911   4.750   1.941 -0.3676 -0.0691  0.6628
 4358SOL     H117876   2.900   4.842   1.965 -0.7607  0.5947 -1.9326
 4358SOL     H217877   2.835   4.706   1.980 -0.9203  0.9423  0.7434
 4358SOL    EPW17878   2.902   4.755   1.948 -0.4685  0.1096  0.3945
 4359SOL      O17879   3.780   2.444   0.727  0.3989 -0.1040  0.3637
 4359SOL     H117880   3.707   2.396   0.690  1.0950  0.6952 -2.1084
 4359SOL     H217881   3.740   2.520   0.769 -0.4477 -1.3584  1.8886
 4359SOL    EPW17882   3.768   2.447   0.728  0.3829 -0.1526  0.2627
 4360SOL      O17883   5.508   5.664   2.110 -0.0470  0.0053  0.2574
 4360SOL     H117884   5.463   5.699   2.033  1.1320 -1.4189 -1.1316
 4360SOL     H217885   5.438   5.632   2.166 -0.9672  1.8032  0.1564
 4360SOL    EPW17886   5.496   5.664   2.107 -0.0194  0.0452  0.0985
 4361SOL      O17887   3.589   5.080   3.257  0.5026  1.0801  0.3741
 4361SOL     H117888   3.632   5.098   3.174 -0.0270  3.5934  0.5881
 4361SOL     H217889   3.517   5.143   3.261 -1.8811 -1.5831  1.0100
 4361SOL    EPW17890   3.586   5.089   3.249  0.1918  1.0641  0.4648
 4362SOL      O17891   4.529   5.234   3.601 -0.6177  0.1794 -0.0628
 4362SOL     H117892   4.505   5.322   3.574  0.5851  0.5146 -0.0394
 4362SOL     H217893   4.456   5.179   3.570  0.5035  0.5836 -3.7024
 4362SOL    EPW17894   4.519   5.237   3.595 -0.3698  0.2582 -0.4485
 4363SOL      O17895   1.049   2.761   0.801  0.6664 -0.3188 -0.4320
 4363SOL     H117896   1.091   2.676   0.789  1.5176  0.1153 -0.6307
 4363SOL     H217897   1.091   2.818   0.735 -1.4284 -0.2786 -1.7779
 4363SOL    EPW17898   1.058   2.758   0.793  0.5337 -0.2682 -0.5968
 4364SOL      O17899   5.232   1.875   1.685 -0.0160  0.0766  0.1208
 4364SOL     H117900   5.237   1.868   1.589 -0.9894  0.7052  0.0106
 4364SOL     H217901   5.163   1.940   1.700 -0.7332 -0.9258  1.2694
 4364SOL    EPW17902   5.225   1.881   1.676 -0.1963  0.0367  0.2315
 4365SOL      O17903   3.749   5.570   0.497 -0.8115 -0.3195  0.4097
 4365SOL     H117904   3.682   5.614   0.445  0.1506 -0.4847 -1.0200
 4365SOL     H217905   3.718   5.480   0.506 -0.6935 -0.4448 -0.4134
 4365SOL    EPW17906   3.739   5.565   0.492 -0.6963 -0.3505  0.1694
 4366SOL      O17907   0.100   2.970   1.410 -0.2720  0.1302 -0.2263
 4366SOL     H117908   0.046   2.901   1.448  0.5977 -0.9681 -0.9495
 4366SOL     H217909   0.136   2.931   1.330 -0.8424  1.8762 -1.3643
 4366SOL    EPW17910   0.098   2.959   1.405 -0.2401  0.1993 -0.4248
 4367SOL      O17911   4.410   0.052   0.604 -0.4026 -0.0525 -0.1250
 4367SOL     H117912   4.496   0.056   0.562  0.3890 -1.1620  1.3483
 4367SOL     H217913   4.405  -0.036   0.640 -0.4851  1.2835  3.2985
 4367SOL    EPW17914   4.418   0.043   0.603 -0.3269 -0.0284  0.3974
 4368SOL      O17915   5.148   0.505   0.053 -0.1086 -0.2795  0.1294
 4368SOL     H117916   5.243   0.512   0.049 -0.0876 -0.5350  0.2211
 4368SOL     H217917   5.120   0.590   0.088  0.1396 -0.5130  0.9033
 4368SOL    EPW17918   5.155   0.515   0.056 -0.0799 -0.3317  0.2217
 4369SOL      O17919   5.423   3.249   0.103  0.1043  0.1152  0.3618
 4369SOL     H117920   5.472   3.170   0.128  1.0075  0.9858  1.4051
 4369SOL     H217921   5.425   3.304   0.181  0.5975  1.7185 -0.7438
 4369SOL    EPW17922   5.429   3.246   0.114  0.2533  0.3791  0.3552
 4370SOL      O17923   0.969   1.211   0.903  0.0766  0.2213 -0.0573
 4370SOL     H117924   1.042   1.150   0.904 -1.6538 -1.9334  0.0424
 4370SOL     H217925   0.945   1.219   0.810 -1.5135 -1.5668  0.1639
 4370SOL    EPW17926   0.974   1.206   0.893 -0.2776 -0.1993 -0.0231
 4371SOL      O17927   5.824   4.658   0.935 -0.2242  0.4692  0.0479
 4371SOL     H117928   5.759   4.638   1.001 -1.4715  0.3723 -1.1913
 4371SOL     H217929   5.906   4.667   0.984 -0.7093 -1.7331  1.3440
 4371SOL    EPW17930   5.826   4.657   0.947 -0.4090  0.2239  0.0540
 4372SOL      O17931   2.311   2.002   2.861 -0.1174 -0.1223 -0.0026
 4372SOL     H117932   2.383   1.955   2.819 -0.3156 -1.1249  0.7562
 4372SOL     H217933   2.275   2.057   2.792  0.6738 -0.4342 -0.6784
 4372SOL    EPW17934   2.315   2.003   2.849 -0.0541 -0.2625  0.0063
 4373SOL      O17935   4.592   5.656   0.420  0.0377  0.3037  0.0082
 4373SOL     H117936   4.503   5.621   0.426 -0.1419  0.8359  0.4932
 4373SOL     H217937   4.643   5.604   0.482 -0.6219  2.0999  2.1095
 4373SOL    EPW17938   4.588   5.647   0.427 -0.0518  0.5521  0.2841
 4374SOL      O17939   5.125   2.387   1.765 -0.2254  0.2017  0.0738
 4374SOL     H117940   5.193   2.358   1.826 -0.9445 -2.8334 -0.4888
 4374SOL     H217941   5.074   2.452   1.814  0.2730 -0.9147  2.1136
 4374SOL    EPW17942   5.127   2.391   1.777 -0.2489 -0.2412  0.2314
 4375SOL      O17943   0.752   1.356   0.227  0.2050 -0.1273 -0.2620
 4375SOL     H117944   0.784   1.325   0.142  0.0596 -0.3805 -0.2255
 4375SOL     H217945   0.831   1.376   0.277  0.2927 -0.1094 -0.4068
 4375SOL    EPW17946   0.763   1.355   0.223  0.1988 -0.1524 -0.2735
 4376SOL      O17947   2.477   5.043   3.149  0.2742  0.2497  0.8373
 4376SOL     H117948   2.406   5.021   3.088  1.4140 -2.7349  0.5263
 4376SOL     H217949   2.433   5.051   3.234 -0.4679 -1.7485  0.6836
 4376SOL    EPW17950   2.464   5.041   3.151  0.3166 -0.2819  0.7877
 4377SOL      O17951   4.026   4.288   3.514  0.2446 -0.4701 -0.2813
 4377SOL     H117952   4.094   4.345   3.477  1.3065 -0.3011  1.8714
 4377SOL     H217953   4.065   4.201   3.516 -0.3717 -0.7675 -0.9876
 4377SOL    EPW17954   4.037   4.285   3.510  0.2921 -0.4838 -0.1270
 4378SOL      O17955   0.395   0.568   1.993 -0.5729  0.1669  0.8148
 4378SOL     H117956   0.319   0.539   1.942  0.1145  1.7566 -1.1722
 4378SOL     H217957   0.357   0.610   2.070 -1.6441 -1.3945  1.1671
 4378SOL    EPW17958   0.383   0.570   1.996 -0.6138  0.1699  0.6404
 4379SOL      O17959   4.604   3.259   0.766  0.0182 -0.3393  0.1674
 4379SOL     H117960   4.592   3.352   0.783  0.6486 -0.3965  0.9621
 4379SOL     H217961   4.516   3.226   0.751  0.0155  0.8547 -2.6654
 4379SOL    EPW17962   4.593   3.265   0.766  0.0852 -0.2181 -0.0500
 4380SOL      O17963   5.584   0.876   0.303 -0.3054  0.7251 -0.4423
 4380SOL     H117964   5.658   0.897   0.246 -0.1413  0.6998 -0.2371
 4380SOL     H217965   5.564   0.784   0.284 -0.0989  0.6471 -0.2888
 4380SOL    EPW17966   5.590   0.868   0.295 -0.2659  0.7141 -0.4041
 4381SOL      O17967   0.619   0.641   3.534  0.5286 -0.1927 -0.6848
 4381SOL     H117968   0.660   0.705   3.475 -1.6770  2.7495  0.8436
 4381SOL     H217969   0.613   0.687   3.618 -0.9308 -2.5225  0.5403
 4381SOL    EPW17970   0.623   0.653   3.537  0.1377 -0.1274 -0.3911
 4382SOL      O17971   5.789   2.508   2.015  0.4719  0.5180 -0.1282
 4382SOL     H117972   5.884   2.520   2.021  0.6134 -0.4294 -0.4567
 4382SOL     H217973   5.775   2.468   1.930 -0.2149  0.5058 -0.0124
 4382SOL    EPW17974   5.797   2.505   2.007  0.4137  0.4156 -0.1509
 4383SOL      O17975   5.217   0.936   0.890  0.2147  0.1538  0.0956
 4383SOL     H117976   5.203   0.968   0.801 -0.4934  1.0157  0.5129
 4383SOL     H217977   5.288   0.990   0.924  0.8632 -0.5484 -0.1332
 4383SOL    EPW17978   5.223   0.945   0.884  0.2084  0.1708  0.1157
 4384SOL      O17979   0.321   0.996   2.127  0.2502 -0.4393 -0.7643
 4384SOL     H117980   0.330   1.075   2.181  1.9418 -0.4425 -1.0120
 4384SOL     H217981   0.411   0.972   2.105 -0.2359 -2.5198 -0.5983
 4384SOL    EPW17982   0.331   1.002   2.130  0.3788 -0.6616 -0.7730
 4385SOL      O17983   5.228   2.753   0.611  0.3706 -0.0896  0.3043
 4385SOL     H117984   5.141   2.794   0.607  0.6205  0.4136 -0.0264
 4385SOL     H217985   5.214   2.671   0.659  0.3712  1.6687  3.3723
 4385SOL    EPW17986   5.217   2.748   0.616  0.3973  0.1517  0.5963
 4386SOL      O17987   0.210   5.353   0.372 -0.5577  0.2308 -0.1005
 4386SOL     H117988   0.135   5.411   0.356  0.7674  2.4069  1.3307
 4386SOL     H217989   0.242   5.331   0.285 -1.0129  1.7564 -0.6698
 4386SOL    EPW17990   0.205   5.357   0.361 -0.4649  0.6257 -0.0086
 4387SOL      O17991   1.918   1.273   3.603 -0.4067  0.0991  0.4271
 4387SOL     H117992   1.950   1.362   3.618 -1.5270  0.0499  3.3573
 4387SOL     H217993   1.995   1.218   3.618 -0.2546  0.4228  0.8489
 4387SOL    EPW17994   1.930   1.276   3.606 -0.5100  0.1284  0.7847
 4388SOL      O17995   2.110   3.377   1.033 -0.1255 -0.0315  0.2416
 4388SOL     H117996   2.086   3.300   1.084  1.9833 -0.1674  1.0933
 4388SOL     H217997   2.156   3.433   1.095  1.9314  0.0768 -1.3295
 4388SOL    EPW17998   2.112   3.374   1.045  0.3189 -0.0344  0.1648
 4389SOL      O17999   1.806   4.857   3.545  0.4303 -0.7121 -0.0191
 4389SOL     H118000   1.783   4.822   3.631  1.0989 -0.0009  0.4540
 4389SOL     H218001   1.876   4.800   3.513  1.9562  0.5190  1.0222
 4389SOL    EPW18002   1.811   4.848   3.550  0.6644 -0.5049  0.1424
 4390SOL      O18003   0.853   2.148   2.726 -0.0981 -0.1499 -0.8049
 4390SOL     H118004   0.845   2.139   2.631  1.3574 -2.8167 -0.7294
 4390SOL     H218005   0.946   2.135   2.744 -0.1324  1.6756  0.8863
 4390SOL    EPW18006   0.862   2.145   2.718  0.0535 -0.2396 -0.6164
 4391SOL      O18007   0.404   0.771   1.650  0.1757 -0.3577 -0.1626
 4391SOL     H118008   0.327   0.802   1.697 -0.7622 -1.9222 -0.6273
 4391SOL     H218009   0.376   0.689   1.610  0.8088  1.2077 -3.9519
 4391SOL    EPW18010   0.393   0.765   1.651  0.1432 -0.3576 -0.6164
 4392SOL      O18011   0.938   0.663   3.924 -0.0225  0.4448 -0.3357
 4392SOL     H118012   0.960   0.693   3.836  1.8403 -0.9220 -0.3754
 4392SOL     H218013   1.019   0.673   3.974 -0.8302  0.4141  1.0027
 4392SOL    EPW18014   0.949   0.667   3.920  0.0901  0.2957 -0.1972
 4393SOL      O18015   5.410   5.026   0.078 -0.2058  0.6300 -0.1513
 4393SOL     H118016   5.397   4.945   0.127  0.0328  0.7148  0.0562
 4393SOL     H218017   5.505   5.029   0.062  0.0642  1.8156  1.5165
 4393SOL    EPW18018   5.419   5.018   0.082 -0.1515  0.7656  0.0487
 4394SOL      O18019   0.002   1.461   1.846 -0.0227  0.1851 -0.1636
 4394SOL     H118020   0.037   1.428   1.763  2.0413  0.2746  0.6435
 4394SOL     H218021  -0.030   1.383   1.891 -0.2600  0.0184 -0.6144
 4394SOL    EPW18022   0.002   1.449   1.842  0.1721  0.1769 -0.1256
 4395SOL      O18023   4.625   1.088   2.341 -0.6112  0.0236  0.3128
 4395SOL     H118024   4.644   1.116   2.251 -1.2281  1.1631  0.5284
 4395SOL     H218025   4.529   1.079   2.343 -0.5802 -0.1824  0.8132
 4395SOL    EPW18026   4.617   1.090   2.332 -0.6737  0.1232  0.3892
 4396SOL      O18027   0.624   1.211   1.668  0.0885 -0.2985 -0.0561
 4396SOL     H118028   0.590   1.136   1.620  0.6816 -1.4327  1.2652
 4396SOL     H218029   0.676   1.260   1.604 -1.6984 -0.0591 -1.3647
 4396SOL    EPW18030   0.626   1.209   1.656 -0.0389 -0.3939 -0.0547
 4397SOL      O18031   0.235   0.163   1.945  0.3853 -0.6329 -0.3711
 4397SOL     H118032   0.292   0.090   1.968  0.2259 -0.1886  1.4933
 4397SOL     H218033   0.295   0.235   1.925  0.5049 -0.5430  0.3060
 4397SOL    EPW18034   0.247   0.163   1.945  0.3810 -0.5759 -0.1000
 4398SOL      O18035   0.264   1.420   0.606 -0.0504  0.1870  0.1447
 4398SOL     H118036   0.194   1.479   0.634 -0.2893  0.2349 -0.5278
 4398SOL     H218037   0.307   1.393   0.687 -0.1149  1.0698  0.4876
 4398SOL    EPW18038   0.261   1.424   0.617 -0.0827  0.2863  0.1095
 4399SOL      O18039   5.558   5.701   1.154 -0.3634  0.0160  0.5589
 4399SOL     H118040   5.542   5.644   1.078 -1.1226 -1.5358  1.8547
 4399SOL     H218041   5.509   5.660   1.225  1.7328  0.5042  2.3265
 4399SOL    EPW18042   5.551   5.691   1.153 -0.2208 -0.0975  0.8857
 4400SOL      O18043   3.740   3.287   4.081  0.1264  1.0341  0.1148
 4400SOL     H118044   3.803   3.229   4.039 -1.8690 -2.3162  1.6332
 4400SOL     H218045   3.795   3.348   4.132  2.2036 -1.7352  1.3322
 4400SOL    EPW18046   3.753   3.288   4.082  0.1351  0.3813  0.4067
 4401SOL      O18047   0.085   1.341   3.120 -0.2083  0.1237 -0.1728
 4401SOL     H118048   0.051   1.342   3.210 -1.5565  1.7382 -0.6765
 4401SOL     H218049   0.030   1.277   3.075 -0.0441 -0.1111 -0.0412
 4401SOL    EPW18050   0.076   1.334   3.125 -0.3346  0.2709 -0.2125
 4402SOL      O18051   5.033   1.585   3.656 -0.2633 -0.6256 -0.2553
 4402SOL     H118052   5.100   1.541   3.710 -1.4804 -0.1421  1.7111
 4402SOL     H218053   5.041   1.545   3.570  1.6593 -1.5247  0.3183
 4402SOL    EPW18054   5.041   1.576   3.653 -0.1880 -0.6700  0.0156
 4403SOL      O18055   0.058   2.209   1.603  0.2791  0.1394 -0.2640
 4403SOL     H118056   0.046   2.118   1.628  2.5909  0.1328  0.9962
 4403SOL     H218057   0.023   2.215   1.515  1.2653 -2.2735 -0.8576
 4403SOL    EPW18058   0.053   2.200   1.597  0.6310 -0.1187 -0.1929
 4404SOL      O18059   5.341   2.431   2.855 -0.2783 -0.2483  0.0585
 4404SOL     H118060   5.289   2.512   2.859  0.2877  0.1335 -0.1342
 4404SOL     H218061   5.294   2.369   2.911 -0.6051  0.2808  0.3774
 4404SOL    EPW18062   5.330   2.433   2.861 -0.2528 -0.1511  0.0720
 4405SOL      O18063   0.604   0.911   2.130  0.0523 -0.2856  0.3404
 4405SOL     H118064   0.647   0.995   2.143 -0.2876 -0.3201  1.7788
 4405SOL     H218065   0.645   0.874   2.052 -0.7791  1.8324 -1.1144
 4405SOL    EPW18066   0.613   0.916   2.123 -0.0726 -0.0633  0.3387
 4406SOL      O18067   0.942   2.974   3.239  0.0930 -0.1755  0.5644
 4406SOL     H118068   0.928   3.068   3.223 -0.8656  0.1764  3.1985
 4406SOL     H218069   1.023   2.970   3.291  0.7726 -0.9128 -0.5325
 4406SOL    EPW18070   0.949   2.984   3.243  0.0633 -0.2166  0.7284
 4407SOL      O18071   5.597   1.677   1.656 -0.4252 -0.8162 -0.2167
 4407SOL     H118072   5.579   1.770   1.667  1.8765 -0.3832  0.2398
 4407SOL     H218073   5.544   1.634   1.724 -2.5128  0.0072 -1.2884
 4407SOL    EPW18074   5.590   1.682   1.665 -0.4024 -0.6822 -0.2824
 4408SOL      O18075   0.399   0.671   3.353 -0.5455  0.2355 -0.5164
 4408SOL     H118076   0.480   0.654   3.400 -0.7247  1.0454  0.0939
 4408SOL     H218077   0.396   0.604   3.285  1.7840  1.6393 -2.0449
 4408SOL    EPW18078   0.407   0.662   3.351 -0.3161  0.4717 -0.6144
 4409SOL      O18079   4.956   1.118   3.703 -0.0035  0.0448 -1.1581
 4409SOL     H118080   5.051   1.118   3.718 -0.1823  1.5207  0.1432
 4409SOL     H218081   4.919   1.078   3.781 -0.4884  0.0796 -1.3690
 4409SOL    EPW18082   4.963   1.114   3.713 -0.0743  0.2059 -1.0418
 4410SOL      O18083   5.332   0.726   3.802 -0.1237 -0.3422  0.3493
 4410SOL     H118084   5.293   0.802   3.845  1.1390 -0.3000  1.4753
 4410SOL     H218085   5.426   0.745   3.801 -0.0817 -0.5398 -2.0761
 4410SOL    EPW18086   5.338   0.736   3.807  0.0155 -0.3588  0.2107
 4411SOL      O18087   0.088   1.952   4.042 -0.2144 -0.6857  0.3252
 4411SOL     H118088   0.010   2.006   4.034  0.3639  0.3573  1.5470
 4411SOL     H218089   0.141   1.996   4.108  0.4151 -2.5733  1.1213
 4411SOL    EPW18090   0.085   1.962   4.048 -0.0856 -0.7758  0.5404
 4412SOL      O18091   0.273   1.574   3.156  0.2348 -0.0355  0.0017
 4412SOL     H118092   0.227   1.615   3.229  0.7669  2.1818 -0.8749
 4412SOL     H218093   0.360   1.553   3.192 -0.4824 -1.6303  0.8335
 4412SOL    EPW18094   0.278   1.576   3.168  0.2151  0.0309 -0.0031
 4413SOL      O18095   5.285   1.417   2.281  0.0848  0.0905 -0.0587
 4413SOL     H118096   5.218   1.362   2.240  0.0294 -0.4871  0.7974
 4413SOL     H218097   5.276   1.502   2.238  0.3049 -0.6248 -1.5405
 4413SOL    EPW18098   5.277   1.420   2.272  0.1023 -0.0474 -0.1254
 4414SOL      O18099   0.505   3.015   2.986 -0.0753 -0.1690 -0.4064
 4414SOL     H118100   0.421   3.057   3.005  0.3346 -0.9207  3.4368
 4414SOL     H218101   0.571   3.081   3.008  0.4118 -0.9434  0.5198
 4414SOL    EPW18102   0.503   3.026   2.991  0.0203 -0.3318  0.1024
 4415SOL      O18103   0.441   0.201   2.207 -0.5968  0.4392 -0.2265
 4415SOL     H118104   0.481   0.171   2.125 -3.2578  0.4282 -1.5637
 4415SOL     H218105   0.479   0.143   2.274 -0.0142 -0.9867 -1.7491
 4415SOL    EPW18106   0.450   0.191   2.205 -0.8185  0.2859 -0.5316
 4416SOL      O18107   5.324   2.304   1.924  0.7212  0.4189 -0.2417
 4416SOL     H118108   5.378   2.382   1.908  0.1033  1.1524  1.1956
 4416SOL     H218109   5.384   2.242   1.965  1.6095 -0.4559 -2.7746
 4416SOL    EPW18110   5.336   2.306   1.927  0.7500  0.4038 -0.3586
 4417SOL      O18111   5.321   1.559   3.996  0.0780 -0.1059 -0.2684
 4417SOL     H118112   5.339   1.647   4.030  3.7459 -0.3930 -1.2105
 4417SOL     H218113   5.365   1.500   4.058  0.5608 -1.0550 -1.4981
 4417SOL    EPW18114   5.328   1.562   4.007  0.5208 -0.2378 -0.5001
 4418SOL      O18115   5.119   5.245   4.114  0.1372 -0.0222 -0.4999
 4418SOL     H118116   5.171   5.282   4.043  1.1075 -0.5174 -0.0587
 4418SOL     H218117   5.052   5.192   4.071 -0.6164  1.3986 -1.1062
 4418SOL    EPW18118   5.117   5.243   4.102  0.1603  0.0766 -0.5175
 4419SOL      O18119   1.739   3.117   0.968  0.1904 -0.0722 -0.4465
 4419SOL     H118120   1.807   3.051   0.984  0.2223  0.5861  2.3078
 4419SOL     H218121   1.658   3.076   1.001 -0.1498  0.5017 -0.5620
 4419SOL    EPW18122   1.737   3.105   0.973  0.1575  0.0592 -0.1650
 4420SOL      O18123   1.139   1.242   2.845  0.4677  0.7323 -0.1564
 4420SOL     H118124   1.061   1.274   2.889 -0.4347 -0.1341 -1.1024
 4420SOL     H218125   1.175   1.318   2.800 -0.3689  0.9249 -0.4987
 4420SOL    EPW18126   1.135   1.253   2.844  0.2822  0.6604 -0.2939
 4421SOL      O18127   5.405   2.175   3.436  0.1622  0.1094 -0.6556
 4421SOL     H118128   5.467   2.109   3.467  1.2680  1.0673 -0.7497
 4421SOL     H218129   5.457   2.231   3.378 -0.2976  2.0454  0.7318
 4421SOL    EPW18130   5.417   2.174   3.433  0.2311  0.4181 -0.5177
 4422SOL      O18131   0.059   1.628   2.298 -0.1857 -0.0127 -0.0325
 4422SOL     H118132  -0.034   1.650   2.295  0.1747  1.7689  1.0495
 4422SOL     H218133   0.104   1.712   2.288  1.3288 -0.9113 -1.0522
 4422SOL    EPW18134   0.054   1.640   2.296  0.0143  0.0815 -0.0258
 4423SOL      O18135   4.947   0.962   1.291 -0.5540  0.6073  0.0681
 4423SOL     H118136   4.976   1.007   1.212 -1.0934  0.7581 -0.0438
 4423SOL     H218137   4.852   0.953   1.281 -0.8642  2.0221  1.3914
 4423SOL    EPW18138   4.940   0.966   1.282 -0.6446  0.7743  0.1973
 4424SOL      O18139   1.368   2.922   1.280  0.1153  0.0383 -0.2802
 4424SOL     H118140   1.404   2.951   1.197  0.0505  0.0431 -0.3068
 4424SOL     H218141   1.299   2.860   1.256  1.7040 -1.8201 -0.1747
 4424SOL    EPW18142   1.365   2.918   1.269  0.2779 -0.1594 -0.2718
 4425SOL      O18143   2.756   2.045   2.682 -0.6585 -0.0094  0.1416
 4425SOL     H118144   2.847   2.053   2.653 -0.9407 -0.3213 -0.8754
 4425SOL     H218145   2.718   1.981   2.622 -1.6697  0.4502  0.2812
 4425SOL    EPW18146   2.762   2.039   2.672 -0.7965  0.0064  0.0480
 4426SOL      O18147   2.154   0.723   3.725 -0.1602 -0.5950  0.0767
 4426SOL     H118148   2.135   0.798   3.668  1.1021 -2.1641 -2.5355
 4426SOL     H218149   2.073   0.709   3.774 -0.7487  1.8374 -0.1234
 4426SOL    EPW18150   2.143   0.730   3.724 -0.0884 -0.5029 -0.2233
 4427SOL      O18151   0.006   1.169   3.424  0.3008 -0.6946 -0.0330
 4427SOL     H118152  -0.022   1.256   3.399 -0.2623 -0.2954  1.9145
 4427SOL     H218153  -0.065   1.111   3.396 -0.3609 -0.2440  0.6913
 4427SOL    EPW18154  -0.004   1.172   3.418  0.1702 -0.6039  0.2520
 4428SOL      O18155   3.284   5.351   0.826  0.3146 -0.6301 -0.4203
 4428SOL     H118156   3.297   5.396   0.909  0.1161 -0.0812 -0.6781
 4428SOL     H218157   3.189   5.344   0.817  0.3652 -2.7043  0.4494
 4428SOL    EPW18158   3.275   5.355   0.834  0.2988 -0.7929 -0.3551
 4429SOL      O18159   2.100   4.127   0.149 -0.0314 -0.3264  0.1162
 4429SOL     H118160   2.019   4.098   0.191  1.1222  0.8985  3.2999
 4429SOL     H218161   2.075   4.205   0.100 -0.9254 -0.3758  0.4848
 4429SOL    EPW18162   2.089   4.132   0.148 -0.0037 -0.2010  0.4952
 4430SOL      O18163   0.657   0.441   2.844 -0.4659  0.2038 -0.5569
 4430SOL     H118164   0.706   0.522   2.830 -2.7124  1.3847 -1.8350
 4430SOL     H218165   0.613   0.453   2.928  0.3845 -0.3195 -0.0312
 4430SOL    EPW18166   0.658   0.451   2.852 -0.6148  0.2740 -0.6371
 4431SOL      O18167   5.070   0.592   4.091 -0.2083  0.9625  0.1894
 4431SOL     H118168   5.021   0.640   4.024 -0.5439 -0.2462 -0.4573
 4431SOL     H218169   5.056   0.499   4.069  1.9748  0.5825  0.2841
 4431SOL    EPW18170   5.063   0.587   4.081 -0.0112  0.7930  0.1305
 4432SOL      O18171   1.254   2.066   2.464  0.3825 -0.3176  0.0569
 4432SOL     H118172   1.261   1.971   2.467  1.6647 -0.2015  1.2625
 4432SOL     H218173   1.287   2.096   2.549  3.1174  1.3644 -1.5131
 4432SOL    EPW18174   1.259   2.059   2.473  0.8111 -0.1258  0.0180
 4433SOL      O18175   5.600   1.688   1.375  0.1064 -0.6879  0.2589
 4433SOL     H118176   5.666   1.757   1.379  0.0790 -0.4965 -1.8508
 4433SOL     H218177   5.595   1.654   1.464  2.0294  0.2566  0.7559
 4433SOL    EPW18178   5.607   1.692   1.385  0.3086 -0.5667  0.0869
 4434SOL      O18179   5.644   5.432   3.231 -0.0215 -0.0445 -0.1314
 4434SOL     H118180   5.637   5.464   3.321  0.5695  0.2164 -0.1804
 4434SOL     H218181   5.576   5.481   3.184  0.4920  0.7350 -0.0860
 4434SOL    EPW18182   5.636   5.441   3.235  0.0963  0.0665 -0.1318
 4435SOL      O18183   0.059   1.590   2.946  0.6892 -0.1836  0.0314
 4435SOL     H118184   0.015   1.607   2.862 -1.1915  0.5881  1.1274
 4435SOL     H218185   0.005   1.636   3.010  2.4723 -0.2316  1.5960
 4435SOL    EPW18186   0.048   1.597   2.944  0.6788 -0.1064  0.3152
 4436SOL      O18187   1.002   0.202   3.733  0.0816 -0.2208 -0.5207
 4436SOL     H118188   0.969   0.125   3.779 -0.7542  1.4858  1.8454
 4436SOL     H218189   0.990   0.274   3.796  1.0205  1.7927 -2.5907
 4436SOL    EPW18190   0.997   0.202   3.745  0.0926  0.1761 -0.4891
 4437SOL      O18191   2.340   0.060   1.478 -0.1461 -0.1352 -0.1992
 4437SOL     H118192   2.405  -0.001   1.443 -1.0083 -0.8155 -0.6492
 4437SOL     H218193   2.256   0.015   1.465 -0.9250  1.7370 -1.8196
 4437SOL    EPW18194   2.338   0.048   1.473 -0.3212 -0.0080 -0.4201
 4438SOL      O18195   0.704   2.508   1.775  0.3263 -0.1411  0.3023
 4438SOL     H118196   0.681   2.569   1.845  0.8285  0.5699 -0.1438
 4438SOL     H218197   0.636   2.521   1.709  1.3506  1.1639 -0.5304
 4438SOL    EPW18198   0.694   2.516   1.775  0.4892  0.0739  0.1659
 4439SOL      O18199   0.628   1.949   3.552 -0.1134  0.0584 -0.1872
 4439SOL     H118200   0.648   2.037   3.521  0.8057  0.5922  1.7982
 4439SOL     H218201   0.681   1.891   3.497 -0.3096  0.7907 -1.1466
 4439SOL    EPW18202   0.636   1.952   3.543 -0.0363  0.1935 -0.0778
 4440SOL      O18203   2.730   2.876   0.136  0.3226 -0.1805  0.4977
 4440SOL     H118204   2.702   2.961   0.102  0.9677  0.0881  0.6240
 4440SOL     H218205   2.712   2.815   0.065  1.4416  0.3390 -0.2520
 4440SOL    EPW18206   2.725   2.879   0.125  0.5108 -0.0965  0.4312
 4441SOL      O18207   1.077   1.178   4.082  0.3668  0.0898 -0.2330
 4441SOL     H118208   1.164   1.186   4.121 -0.2165  1.7049  0.7873
 4441SOL     H218209   1.094   1.150   3.992  1.7885 -2.4367  0.7914
 4441SOL    EPW18210   1.088   1.176   4.076  0.4562 -0.0074 -0.0149
 4442SOL      O18211   0.288   2.524   3.694  0.2118 -0.4028 -0.5321
 4442SOL     H118212   0.244   2.518   3.610 -1.5609 -0.0209  0.3473
 4442SOL     H218213   0.335   2.441   3.703  0.2396 -0.5262 -1.7804
 4442SOL    EPW18214   0.288   2.515   3.686  0.0257 -0.3752 -0.5715
 4443SOL      O18215   5.405   1.995   3.894  0.4301  0.3853  0.2166
 4443SOL     H118216   5.392   1.918   3.838  0.5386  0.3358  0.2597
 4443SOL     H218217   5.324   2.045   3.885 -0.4049 -0.6649  1.6582
 4443SOL    EPW18218   5.395   1.992   3.887  0.3526  0.2680  0.3750
 4444SOL      O18219   0.101   0.724   3.502  0.2432  0.1653 -0.3747
 4444SOL     H118220   0.185   0.691   3.536 -1.6390 -0.8596  3.5415
 4444SOL     H218221   0.084   0.803   3.552 -1.2647  0.2471 -0.9981
 4444SOL    EPW18222   0.108   0.729   3.511 -0.1184  0.0647 -0.0234
 4445SOL      O18223   5.628   1.113   3.687 -0.0965  0.2101  0.4555
 4445SOL     H118224   5.670   1.029   3.669 -2.8444 -0.9108 -0.9580
 4445SOL     H218225   5.669   1.174   3.626 -3.2986 -1.7611 -3.9472
 4445SOL    EPW18226   5.637   1.111   3.679 -0.7312 -0.1198 -0.1650
 4446SOL      O18227   3.781   0.231   3.901  0.4040  0.1936  0.5000
 4446SOL     H118228   3.746   0.185   3.825 -1.8645  1.0531  1.0015
 4446SOL     H218229   3.715   0.295   3.924  2.7669  2.5989  0.8575
 4446SOL    EPW18230   3.771   0.233   3.896  0.4141  0.5419  0.5916
 4447SOL      O18231   0.599   4.122   4.146  0.3268  0.0917  0.2560
 4447SOL     H118232   0.597   4.165   4.232 -1.0263 -0.5751  0.5819
 4447SOL     H218233   0.691   4.099   4.133  0.6038  0.4980  1.3800
 4447SOL    EPW18234   0.608   4.124   4.154  0.2120  0.0639  0.4107
 4448SOL      O18235   0.119   1.739   3.836 -0.2644 -0.6008  0.1161
 4448SOL     H118236   0.036   1.701   3.807 -0.5399  0.0500  0.0533
 4448SOL     H218237   0.095   1.819   3.882  0.3650 -0.0991 -0.4182
 4448SOL    EPW18238   0.108   1.744   3.838 -0.2267 -0.4779  0.0524
 4449SOL      O18239   4.628   0.537   4.137  0.0843 -0.0521 -0.0906
 4449SOL     H118240   4.667   0.625   4.142  0.3917 -0.0829 -1.8539
 4449SOL     H218241   4.648   0.507   4.049 -1.7748 -1.1002 -0.1693
 4449SOL    EPW18242   4.635   0.544   4.128 -0.0812 -0.1672 -0.2871
 4450SOL      O18243   0.382   0.233   3.456 -0.5456 -0.5245 -0.2818
 4450SOL     H118244   0.460   0.277   3.422  0.4943 -0.3382  2.2135
 4450SOL     H218245   0.387   0.144   3.421  1.7940 -1.0530  1.2495
 4450SOL    EPW18246   0.391   0.228   3.449 -0.1851 -0.5610  0.1478
 4451SOL      O18247   0.051   2.160   2.657  0.1191  0.1152 -0.2708
 4451SOL     H118248  -0.041   2.151   2.633 -0.3481  0.1853  1.4277
 4451SOL     H218249   0.085   2.228   2.598 -1.3189  1.1955  0.1132
 4451SOL    EPW18250   0.045   2.166   2.648 -0.0842  0.2380 -0.0487
 4452SOL      O18251   4.258   1.986   0.406 -0.0488 -0.0832  0.6971
 4452SOL     H118252   4.301   1.917   0.355  0.9600  0.3982  0.8645
 4452SOL     H218253   4.203   2.031   0.342  1.1936  0.5030  0.0021
 4452SOL    EPW18254   4.257   1.984   0.393  0.1913  0.0307  0.6408
 4453SOL      O18255   3.682   0.669   3.995 -0.2205 -0.3853  0.4099
 4453SOL     H118256   3.703   0.723   3.918 -1.4416 -0.2207  0.1887
 4453SOL     H218257   3.758   0.679   4.052  1.1879 -1.3837 -1.2596
 4453SOL    EPW18258   3.692   0.676   3.992 -0.2005 -0.4743  0.2082
 4454SOL      O18259   2.871   5.556   2.932  0.1472 -0.4196  0.0493
 4454SOL     H118260   2.882   5.461   2.935  1.8951 -0.2624 -0.4243
 4454SOL     H218261   2.813   5.576   3.006  1.8406 -1.6081  1.7660
 4454SOL    EPW18262   2.866   5.548   2.940  0.5143 -0.5296  0.1819
 4455SOL      O18263   1.222   3.405   1.435  0.7387 -0.0329  0.1673
 4455SOL     H118264   1.197   3.415   1.344  2.4879  1.2160 -0.1967
 4455SOL     H218265   1.140   3.412   1.483  0.0844  1.7725 -1.1472
 4455SOL    EPW18266   1.211   3.407   1.431  0.8555  0.2929 -0.0117
 4456SOL      O18267   5.607   3.225   1.214  0.0398  0.0086 -0.0708
 4456SOL     H118268   5.702   3.239   1.219 -0.1132  0.7028  1.1528
 4456SOL     H218269   5.595   3.131   1.227  0.5512 -0.0707 -0.1742
 4456SOL    EPW18270   5.616   3.217   1.216  0.0781  0.0742  0.0487
 4457SOL      O18271   5.589   2.515   0.520  0.3036  0.7085  0.4314
 4457SOL     H118272   5.524   2.568   0.474 -0.4235 -0.2580  0.3396
 4457SOL     H218273   5.538   2.464   0.584  1.0272  0.3265  0.7105
 4457SOL    EPW18274   5.577   2.515   0.522  0.3032  0.5647  0.4514
 4458SOL      O18275   5.358   3.147   0.862  0.7162 -0.2088 -0.0134
 4458SOL     H118276   5.392   3.063   0.832  0.2761  0.2210 -1.7876
 4458SOL     H218277   5.263   3.138   0.854  0.7404  1.0626 -1.9174
 4458SOL    EPW18278   5.351   3.137   0.858  0.6718 -0.0273 -0.4058
 4459SOL      O18279   0.723   3.581   0.890  0.1816  0.6357 -0.3826
 4459SOL     H118280   0.775   3.553   0.966  0.3581 -0.5165 -0.9029
 4459SOL     H218281   0.635   3.595   0.925  0.4044  0.7259  0.1498
 4459SOL    EPW18282   0.719   3.579   0.902  0.2242  0.5224 -0.3813
 4460SOL      O18283   5.558   2.241   0.021 -0.1636 -0.4843  0.0945
 4460SOL     H118284   5.637   2.203  -0.018 -0.3774 -1.9653  1.0635
 4460SOL     H218285   5.574   2.335   0.021  0.9836 -0.6718 -1.0677
 4460SOL    EPW18286   5.569   2.247   0.017 -0.0640 -0.6623  0.0739
 4461SOL      O18287   0.964   1.171   1.946 -0.7498 -0.3354 -0.3402
 4461SOL     H118288   1.057   1.157   1.932 -1.0903 -2.4385 -0.5380
 4461SOL     H218289   0.959   1.260   1.983  1.3827 -0.5335  0.4835
 4461SOL    EPW18290   0.973   1.179   1.948 -0.5586 -0.5809 -0.2734
 4462SOL      O18291   4.106   3.451   2.307  0.0857 -0.4022 -0.3773
 4462SOL     H118292   4.165   3.489   2.243 -1.2031  0.4647 -1.0712
 4462SOL     H218293   4.104   3.515   2.379  0.4570 -0.7165 -0.0854
 4462SOL    EPW18294   4.112   3.462   2.308 -0.0122 -0.3432 -0.4202
 4463SOL      O18295   4.970   2.623   0.880  0.0996 -0.1344 -0.5412
 4463SOL     H118296   5.008   2.685   0.941  1.0382 -2.2374  1.1014
 4463SOL     H218297   5.045   2.573   0.846 -0.8510 -2.5161  0.6873
 4463SOL    EPW18298   4.982   2.624   0.883  0.0983 -0.6128 -0.2349
 4464SOL      O18299   5.817   3.312   0.831 -0.1015 -0.0801 -0.5551
 4464SOL     H118300   5.745   3.274   0.881  0.7811 -0.5199  0.3912
 4464SOL     H218301   5.822   3.257   0.752 -0.3211 -0.5099 -0.2733
 4464SOL    EPW18302   5.810   3.302   0.828 -0.0308 -0.1729 -0.4241
 4465SOL      O18303   2.756   0.775   3.947  0.0749 -0.3211  0.3693
 4465SOL     H118304   2.666   0.750   3.966 -0.4174  1.5556  0.5840
 4465SOL     H218305   2.784   0.827   4.023  1.6985 -1.7296  0.7872
 4465SOL    EPW18306   2.750   0.778   3.957  0.1956 -0.2712  0.4368
 4466SOL      O18307   0.259   3.272   2.301 -0.0521  0.1574  0.0456
 4466SOL     H118308   0.190   3.206   2.293  0.4532 -0.4203  0.4635
 4466SOL     H218309   0.217   3.353   2.271 -0.8803 -0.2066  0.1980
 4466SOL    EPW18310   0.247   3.274   2.297 -0.0866  0.0569  0.1064
 4467SOL      O18311   0.777   3.551   0.353  0.6419  0.5722 -0.1084
 4467SOL     H118312   0.853   3.609   0.350 -0.0672  1.6373  1.5070
 4467SOL     H218313   0.753   3.548   0.446 -0.1674 -1.2304 -0.3451
 4467SOL    EPW18314   0.783   3.557   0.363  0.4800  0.4935  0.0387
 4468SOL      O18315   2.696   0.738   3.372 -0.0275  0.4479  0.8205
 4468SOL     H118316   2.666   0.780   3.292  1.5271 -1.2741 -0.7058
 4468SOL     H218317   2.727   0.810   3.427 -3.3984  1.8938  0.9600
 4468SOL    EPW18318   2.696   0.750   3.369 -0.2213  0.4185  0.6725
 4469SOL      O18319   0.598   3.802   2.064 -0.0924  0.6244 -0.3874
 4469SOL     H118320   0.509   3.831   2.045  0.4658  1.4415 -1.8541
 4469SOL     H218321   0.587   3.719   2.110 -1.6191  1.0439  0.0498
 4469SOL    EPW18322   0.588   3.797   2.067 -0.1957  0.7563 -0.4972
 4470SOL      O18323   3.649   3.757   1.552 -0.1258  0.2174  0.6236
 4470SOL     H118324   3.677   3.849   1.552  1.1727 -0.1440  1.7344
 4470SOL     H218325   3.621   3.741   1.642  1.2982 -0.9221  0.8918
 4470SOL    EPW18326   3.649   3.766   1.562  0.1646  0.0573  0.7707
 4471SOL      O18327   0.580   1.224   0.543 -0.0345  0.8158  0.3851
 4471SOL     H118328   0.547   1.267   0.622 -0.5293  0.0772  0.5783
 4471SOL     H218329   0.527   1.145   0.534  1.6984 -0.4249  0.7431
 4471SOL    EPW18330   0.571   1.220   0.550  0.0976  0.6046  0.4439
 4472SOL      O18331   5.350   3.000   1.873  0.0995 -0.1161 -0.0525
 4472SOL     H118332   5.403   3.074   1.847  1.6317 -0.9592  0.5896
 4472SOL     H218333   5.393   2.966   1.952  0.0391 -2.2940 -0.9100
 4472SOL    EPW18334   5.360   3.004   1.879  0.2565 -0.4384 -0.0754
 4473SOL      O18335   4.631   3.622   1.183 -0.6387 -0.0496  0.3685
 4473SOL     H118336   4.632   3.636   1.278  0.9879 -1.3267  0.5596
 4473SOL     H218337   4.600   3.705   1.147 -3.1508 -0.1820  2.1105
 4473SOL    EPW18338   4.628   3.633   1.189 -0.7332 -0.2000  0.5747
 4474SOL      O18339   3.546   5.592   2.559 -0.3380  0.2481 -0.3557
 4474SOL     H118340   3.466   5.621   2.514 -2.0455  0.1096  2.4872
 4474SOL     H218341   3.547   5.497   2.546 -0.4576  0.2864 -0.6611
 4474SOL    EPW18342   3.537   5.585   2.553 -0.5329  0.2374 -0.0850
 4475SOL      O18343   0.274   1.515   1.908 -0.4688  0.6910 -0.2708
 4475SOL     H118344   0.324   1.449   1.956  1.3446  2.5374  0.4299
 4475SOL     H218345   0.183   1.486   1.916  0.3309 -2.0382 -0.4910
 4475SOL    EPW18346   0.269   1.505   1.914 -0.1901  0.5968 -0.2196
 4476SOL      O18347   0.052   1.958   1.940  0.5582 -0.4108 -0.1490
 4476SOL     H118348   0.010   1.897   1.879  0.5655 -1.4895  0.8996
 4476SOL     H218349   0.073   1.904   2.017  1.2270  0.7587  0.5034
 4476SOL    EPW18350   0.050   1.946   1.942  0.6303 -0.4011  0.0325
 4477SOL      O18351   1.242   3.423   1.781  0.0615  0.0470 -0.4153
 4477SOL     H118352   1.303   3.494   1.763  1.4106 -0.8733  0.4874
 4477SOL     H218353   1.188   3.418   1.702  2.9694 -0.9848 -2.4203
 4477SOL    EPW18354   1.242   3.430   1.771  0.5157 -0.1612 -0.5329
 4478SOL      O18355   2.464   0.734   3.918 -0.4524 -0.5425  0.5026
 4478SOL     H118356   2.481   0.660   3.975 -0.6174 -1.1752 -0.2660
 4478SOL     H218357   2.374   0.760   3.938 -0.6552 -1.0315  0.2351
 4478SOL    EPW18358   2.456   0.729   3.926 -0.4916 -0.6621  0.3921
 4479SOL      O18359   5.325   4.144   1.448 -0.0417 -0.6683  0.3689
 4479SOL     H118360   5.348   4.207   1.380 -0.7037  0.6024  1.2865
 4479SOL     H218361   5.277   4.075   1.402 -2.7431  1.4376 -0.1001
 4479SOL    EPW18362   5.323   4.143   1.436 -0.4005 -0.3081  0.4167
 4480SOL      O18363   5.849   2.806   2.003  0.0867  0.2793 -0.4239
 4480SOL     H118364   5.775   2.778   1.949  1.1356 -0.7498 -1.3558
 4480SOL     H218365   5.867   2.895   1.973 -1.3638  0.8970  0.4738
 4480SOL    EPW18366   5.843   2.813   1.994  0.0439  0.2354 -0.4276
 4481SOL      O18367   0.623   3.899   2.599  0.8387  0.1756  0.1260
 4481SOL     H118368   0.690   3.932   2.539  0.1216  0.8970 -0.2883
 4481SOL     H218369   0.569   3.841   2.545  0.0566  1.0006  0.0103
 4481SOL    EPW18370   0.624   3.896   2.587  0.6788  0.3406  0.0694
 4482SOL      O18371   5.505   3.615   0.870  0.2536 -0.2246 -0.0758
 4482SOL     H118372   5.599   3.596   0.874  0.5070  1.1448  1.1730
 4482SOL     H218373   5.471   3.581   0.953 -0.2923 -0.4471 -0.3970
 4482SOL    EPW18374   5.512   3.609   0.879  0.2224 -0.1023  0.0231
 4483SOL      O18375   0.583   2.800   0.924 -0.0085  0.4884  0.0507
 4483SOL     H118376   0.548   2.715   0.898  3.1736 -0.8417 -0.1968
 4483SOL     H218377   0.544   2.818   1.009 -0.5447 -1.3658  0.2152
 4483SOL    EPW18378   0.575   2.793   0.930  0.2737  0.1487  0.0419
 4484SOL      O18379   5.370   2.659   0.397 -0.0679  0.7129  0.1035
 4484SOL     H118380   5.317   2.687   0.323  1.5388  1.2534 -0.8839
 4484SOL     H218381   5.331   2.702   0.473 -1.9798 -0.1778 -0.3534
 4484SOL    EPW18382   5.360   2.666   0.397 -0.1005  0.6755 -0.0506
 4485SOL      O18383   5.386   3.372   1.777  0.5019 -0.0795  0.5441
 4485SOL     H118384   5.291   3.378   1.786  0.6003  1.4345  0.7500
 4485SOL     H218385   5.415   3.329   1.857 -0.0688 -1.1593  0.1778
 4485SOL    EPW18386   5.379   3.368   1.786  0.4515 -0.0332  0.5270
 4486SOL      O18387   0.187   2.846   0.222 -0.6529 -0.7099 -0.4344
 4486SOL     H118388   0.211   2.904   0.295  1.3985 -1.1311 -0.7277
 4486SOL     H218389   0.119   2.790   0.257 -0.8893  0.2270  0.6346
 4486SOL    EPW18390   0.182   2.846   0.234 -0.4593 -0.6549 -0.3516
 4487SOL      O18391   5.165   2.970   2.541  0.4413 -0.1092 -0.3423
 4487SOL     H118392   5.260   2.965   2.552  0.7552  0.4544 -2.6333
 4487SOL     H218393   5.151   2.966   2.447 -1.8699 -0.8738 -0.0026
 4487SOL    EPW18394   5.174   2.969   2.532  0.2282 -0.1306 -0.5505
 4488SOL      O18395   2.417   4.733   4.092 -0.4017 -0.6364 -0.3757
 4488SOL     H118396   2.429   4.757   4.184  1.4818 -1.7776 -0.2966
 4488SOL     H218397   2.341   4.784   4.064  0.5847  1.7415  1.0890
 4488SOL    EPW18398   2.411   4.741   4.099 -0.0956 -0.5045 -0.2110
 4489SOL      O18399   2.121   0.389   0.583 -0.2497 -0.4121  0.0803
 4489SOL     H118400   2.156   0.299   0.583 -0.6367 -0.5772  2.5723
 4489SOL     H218401   2.186   0.440   0.631 -1.6761 -0.0134  1.6105
 4489SOL    EPW18402   2.132   0.385   0.588 -0.4432 -0.3872  0.5094
 4490SOL      O18403   5.002   2.461   3.785 -0.1222 -0.5746  0.7804
 4490SOL     H118404   4.977   2.544   3.745  0.1266 -0.6233  0.5238
 4490SOL     H218405   5.094   2.450   3.761 -0.0638 -0.7631  1.0908
 4490SOL    EPW18406   5.009   2.469   3.779 -0.0894 -0.5999  0.7861
 4491SOL      O18407   4.505   1.871   2.898 -0.6658  0.1281  0.1007
 4491SOL     H118408   4.449   1.883   2.975 -0.0813  0.5729  0.4569
 4491SOL     H218409   4.444   1.876   2.824 -1.0285  1.1236  0.4632
 4491SOL    EPW18410   4.492   1.873   2.898 -0.6421  0.2817  0.1774
 4492SOL      O18411   5.514   3.085   2.294  0.3476  0.3677 -0.2971
 4492SOL     H118412   5.547   3.013   2.241 -0.7123  1.2228 -2.1482
 4492SOL     H218413   5.435   3.115   2.249 -1.2954  0.3367  2.4001
 4492SOL    EPW18414   5.509   3.081   2.284  0.0593  0.4556 -0.2069
 4493SOL      O18415   0.695   4.825   3.638 -0.3329 -0.4252  0.3128
 4493SOL     H118416   0.784   4.825   3.604 -0.9414 -1.5737 -1.3207
 4493SOL     H218417   0.646   4.768   3.579 -2.3112  0.7391  0.7663
 4493SOL    EPW18418   0.699   4.819   3.628 -0.6089 -0.4235  0.1869
 4494SOL      O18419   0.335   3.387   3.177 -0.0757  0.7029  0.5693
 4494SOL     H118420   0.366   3.417   3.092 -0.7092  1.0622  0.4620
 4494SOL     H218421   0.329   3.292   3.168 -0.2335  0.7483  0.1827
 4494SOL    EPW18422   0.338   3.380   3.167 -0.1601  0.7461  0.5166
 4495SOL      O18423   0.524   4.444   3.171  0.3031  0.0044 -0.3438
 4495SOL     H118424   0.454   4.405   3.224 -0.1404  1.5944  0.2799
 4495SOL     H218425   0.595   4.380   3.173 -1.6603 -2.2953 -2.2036
 4495SOL    EPW18426   0.524   4.433   3.177  0.0464 -0.0713 -0.4757
 4496SOL      O18427   4.166   2.754   2.098 -0.3392  0.0455 -0.0413
 4496SOL     H118428   4.224   2.830   2.086 -0.6708  0.2608 -0.3070
 4496SOL     H218429   4.082   2.784   2.063 -1.0648  0.3294  1.9287
 4496SOL    EPW18430   4.163   2.766   2.093 -0.4520  0.0987  0.1405
 4497SOL      O18431   4.960   2.564   3.351 -1.1921  0.0261 -0.4382
 4497SOL     H118432   4.919   2.499   3.293 -3.2188  1.2679 -0.4777
 4497SOL     H218433   4.916   2.646   3.328 -0.1385  1.0220  1.0363
 4497SOL    EPW18434   4.951   2.566   3.342 -1.2959  0.2648 -0.2851
 4498SOL      O18435   5.004   1.639   2.397  0.1779  0.1229 -0.9052
 4498SOL     H118436   4.987   1.729   2.424  0.2495  0.1809 -1.0493
 4498SOL     H218437   5.080   1.645   2.339  0.1231 -0.0180 -0.9939
 4498SOL    EPW18438   5.011   1.649   2.393  0.1797  0.1141 -0.9300
 4499SOL      O18439   0.698   3.124   2.773 -0.3650  0.4717  0.2508
 4499SOL     H118440   0.616   3.077   2.761  0.1569 -0.3949 -0.0163
 4499SOL     H218441   0.723   3.105   2.864  0.1359 -0.2637 -0.0298
 4499SOL    EPW18442   0.692   3.117   2.782 -0.2559  0.3008  0.1924
 4500SOL      O18443   1.567   3.721   4.105  0.3272  0.3183  0.2323
 4500SOL     H118444   1.556   3.633   4.069  0.4239  0.2535  0.3592
 4500SOL     H218445   1.543   3.780   4.034  1.3065  0.2011 -0.2079
 4500SOL    EPW18446   1.563   3.718   4.094  0.4420  0.2989  0.1989
 4501SOL      O18447   0.800   2.673   3.771  0.2459  0.3884 -0.1481
 4501SOL     H118448   0.726   2.664   3.711  0.4074  2.8908 -0.7502
 4501SOL     H218449   0.855   2.596   3.753 -1.3387 -0.6016 -0.8642
 4501SOL    EPW18450   0.798   2.664   3.763  0.0941  0.5497 -0.2887
 4502SOL      O18451   2.754   4.899   0.098  0.0834 -0.0958 -0.4518
 4502SOL     H118452   2.757   4.885   0.192 -1.9226 -0.1180 -0.3796
 4502SOL     H218453   2.671   4.945   0.082  0.2059 -0.4243 -2.2380
 4502SOL    EPW18454   2.746   4.902   0.106 -0.1175 -0.1332 -0.6347
 4503SOL      O18455   5.676   3.372   3.503 -0.0996  0.5189  0.1210
 4503SOL     H118456   5.726   3.294   3.477  0.6273  0.9888  0.1037
 4503SOL     H218457   5.606   3.379   3.438  0.8092  0.8213 -0.8249
 4503SOL    EPW18458   5.674   3.364   3.493  0.0749  0.6013  0.0182
 4504SOL      O18459   1.342   3.448   3.663  0.9959 -0.4050 -0.0906
 4504SOL     H118460   1.265   3.394   3.683  0.4831 -0.2578 -1.6005
 4504SOL     H218461   1.397   3.393   3.608  2.0901 -0.5819  1.1600
 4504SOL    EPW18462   1.339   3.437   3.659  1.0580 -0.4081 -0.1183
 4505SOL      O18463   0.520   4.202   3.710 -0.5391 -0.0294  0.0891
 4505SOL     H118464   0.470   4.139   3.762 -0.2454 -1.2553 -1.0804
 4505SOL     H218465   0.607   4.164   3.703 -0.8489 -0.3704 -2.1289
 4505SOL    EPW18466   0.524   4.192   3.715 -0.5408 -0.1965 -0.2723
 4506SOL      O18467   4.566   0.818   0.207  0.1020 -0.0580  0.0277
 4506SOL     H118468   4.556   0.804   0.113  1.4993 -3.5268  0.3376
 4506SOL     H218469   4.660   0.836   0.218  0.2989 -1.6162  0.9626
 4506SOL    EPW18470   4.575   0.819   0.198  0.2721 -0.5943  0.1605
 4507SOL      O18471   5.055   1.880   2.545  0.1152  0.1125 -0.4335
 4507SOL     H118472   5.045   1.857   2.637 -1.4847 -0.9343 -0.8364
 4507SOL     H218473   5.148   1.867   2.526  0.5162  0.6473  1.0962
 4507SOL    EPW18474   5.064   1.876   2.553 -0.0127  0.0579 -0.3133
 4508SOL      O18475   1.629   0.544   3.002  0.8751 -0.2818  0.3526
 4508SOL     H118476   1.705   0.486   3.004  3.0417  2.4814  0.9111
 4508SOL     H218477   1.650   0.610   2.936 -1.6769 -0.2459 -0.4893
 4508SOL    EPW18478   1.639   0.545   2.995  0.8340  0.0168  0.3224
 4509SOL      O18479   0.103   3.087   2.916  0.3904 -0.0263 -0.4879
 4509SOL     H118480   0.052   3.006   2.910  0.2188  0.1786 -1.9660
 4509SOL     H218481   0.052   3.151   2.866  1.1713  0.6694 -0.4071
 4509SOL    EPW18482   0.092   3.085   2.910  0.4554  0.0698 -0.6370
 4510SOL      O18483   0.661   3.550   3.401  0.3248 -0.1867 -0.1467
 4510SOL     H118484   0.595   3.605   3.443  0.2380 -0.7335  0.4348
 4510SOL     H218485   0.654   3.571   3.308  1.7255  2.3119  0.2771
 4510SOL    EPW18486   0.653   3.558   3.395  0.4650  0.0215 -0.0395
 4511SOL      O18487   1.397   1.787   3.894 -0.1076  0.3556  0.2276
 4511SOL     H118488   1.334   1.838   3.947  0.3776 -1.3182  2.4884
 4511SOL     H218489   1.458   1.752   3.958  0.5822 -1.6540 -1.5058
 4511SOL    EPW18490   1.397   1.789   3.907  0.0178 -0.0373  0.2839
 4512SOL      O18491   0.244   3.759   3.362  0.4635  0.5072 -0.2315
 4512SOL     H118492   0.236   3.668   3.391 -0.2820  0.9509  0.9859
 4512SOL     H218493   0.286   3.753   3.277 -0.0833 -1.0216 -0.4114
 4512SOL    EPW18494   0.247   3.749   3.356  0.3256  0.3914 -0.1208
 4513SOL      O18495   5.629   1.624   2.318  0.5332  0.0380 -0.0381
 4513SOL     H118496   5.584   1.644   2.236  0.2031  0.1503  0.1687
 4513SOL     H218497   5.600   1.535   2.339 -1.5137  1.0063  1.3563
 4513SOL    EPW18498   5.621   1.617   2.311  0.2796  0.1532  0.1327
 4514SOL      O18499   1.928   0.878   0.921 -0.8810 -0.0054  0.3030
 4514SOL     H118500   1.956   0.872   0.829 -0.8132  1.5600  0.2157
 4514SOL     H218501   1.852   0.820   0.927 -1.2336  0.3203 -0.8874
 4514SOL    EPW18502   1.923   0.871   0.912 -0.9114  0.1964  0.1667
 4515SOL      O18503   2.037   4.729   0.171 -0.4067  0.2233  0.3795
 4515SOL     H118504   2.084   4.696   0.247  0.4121  2.0587  0.6752
 4515SOL     H218505   1.945   4.729   0.198 -0.4840 -2.0684  0.2642
 4515SOL    EPW18506   2.032   4.725   0.182 -0.3276  0.1747  0.3988
 4516SOL      O18507   4.902   5.069   4.031  0.7580  0.3697  1.0806
 4516SOL     H118508   4.844   5.089   3.957  0.9551  1.1902  1.1467
 4516SOL     H218509   4.913   4.974   4.027  3.0034  0.6534 -1.6515
 4516SOL    EPW18510   4.897   5.061   4.023  1.0186  0.4875  0.7962
 4517SOL      O18511   0.085   3.678   1.999 -0.1879  0.6461 -0.1183
 4517SOL     H118512   0.016   3.641   1.944  1.9898 -0.2567 -2.3485
 4517SOL     H218513   0.092   3.618   2.073 -1.4826  0.5007 -0.1074
 4517SOL    EPW18514   0.078   3.668   2.001 -0.0937  0.5343 -0.3551
 4518SOL      O18515   1.270   2.004   3.170  0.4223 -0.5157  0.4313
 4518SOL     H118516   1.305   2.060   3.239  0.6808  1.7521 -1.4343
 4518SOL     H218517   1.336   1.936   3.157  0.4150 -0.8874  2.3046
 4518SOL    EPW18518   1.280   2.003   3.176  0.4491 -0.3134  0.4321
 4519SOL      O18519   4.134   2.423   2.339  0.4755 -0.3713  0.6656
 4519SOL     H118520   4.067   2.382   2.284  0.7621 -0.5905  0.4763
 4519SOL     H218521   4.208   2.362   2.337  1.1925  0.5053 -0.2290
 4519SOL    EPW18522   4.135   2.412   2.333  0.5826 -0.3012  0.5499
 4520SOL      O18523   4.966   3.662   1.928  0.0871 -0.3719 -0.8734
 4520SOL     H118524   4.889   3.718   1.945  0.2134  0.1353 -1.9416
 4520SOL     H218525   5.037   3.724   1.913  0.7037 -0.8474  0.1042
 4520SOL    EPW18526   4.965   3.675   1.928  0.1663 -0.3685 -0.8830
 4521SOL      O18527   1.292   2.355   2.846 -0.2402  0.7394 -0.8824
 4521SOL     H118528   1.340   2.363   2.928  1.5087  1.1091 -1.9071
 4521SOL     H218529   1.201   2.370   2.870 -0.1076 -1.8477  1.4058
 4521SOL    EPW18530   1.288   2.358   2.857 -0.0395  0.5029 -0.7476
 4522SOL      O18531   5.527   2.912   3.013 -0.0494  0.3570 -0.6410
 4522SOL     H118532   5.458   2.901   3.078  1.4798 -0.2776  0.9347
 4522SOL     H218533   5.520   3.004   2.986 -2.0168  0.0826 -1.1416
 4522SOL    EPW18534   5.519   2.921   3.017 -0.0962  0.2600 -0.5263
 4523SOL      O18535   1.390   4.609   0.153 -0.5102  0.5929  0.3498
 4523SOL     H118536   1.387   4.678   0.219  0.1961  0.5325  0.4550
 4523SOL     H218537   1.310   4.621   0.102 -2.0755 -0.6104  2.4633
 4523SOL    EPW18538   1.381   4.618   0.154 -0.6018  0.4581  0.5865
 4524SOL      O18539   5.393   1.818   4.090 -0.6020  0.2353  0.0070
 4524SOL     H118540   5.391   1.896   4.035 -1.1656 -0.7988 -1.4781
 4524SOL     H218541   5.483   1.786   4.085 -0.3370  0.8492  0.7266
 4524SOL    EPW18542   5.402   1.823   4.083 -0.6338  0.1905 -0.0747
 4525SOL      O18543   5.018   1.777   2.816 -0.2006  0.2631  0.0334
 4525SOL     H118544   5.058   1.845   2.871 -0.3638 -0.6034  1.2456
 4525SOL     H218545   5.070   1.699   2.832 -0.2906 -0.0093 -1.0087
 4525SOL    EPW18546   5.028   1.776   2.824 -0.2276  0.1416  0.0516
 4526SOL      O18547   0.232   3.747   1.681  0.4924 -0.2448 -0.3618
 4526SOL     H118548   0.176   3.673   1.658 -0.7850  0.0650  1.6281
 4526SOL     H218549   0.293   3.712   1.746 -0.5553  0.6040  1.0918
 4526SOL    EPW18550   0.233   3.736   1.685  0.2443 -0.1212  0.0055
 4527SOL      O18551   1.033   2.083   3.587  0.6407  0.3184  0.7081
 4527SOL     H118552   1.127   2.095   3.605  1.3860 -1.1821 -1.9626
 4527SOL     H218553   1.028   1.999   3.541 -1.4119  2.5639 -3.4575
 4527SOL    EPW18554   1.043   2.075   3.584  0.5013  0.3978 -0.0212
 4528SOL      O18555   2.137   1.505   1.164 -0.0499 -0.1857 -1.0342
 4528SOL     H118556   2.156   1.574   1.101 -2.4561 -1.6795 -3.4948
 4528SOL     H218557   2.042   1.509   1.177  0.2733 -0.4850  1.8989
 4528SOL    EPW18558   2.129   1.513   1.159 -0.2721 -0.3770 -0.9838
 4529SOL      O18559   5.388   3.475   4.028  0.4238  0.0271  0.0852
 4529SOL     H118560   5.417   3.449   3.940  1.8333 -1.3821  0.9319
 4529SOL     H218561   5.294   3.457   4.029  0.3071  0.4811 -1.2737
 4529SOL    EPW18562   5.381   3.470   4.019  0.5618 -0.0748  0.0306
 4530SOL      O18563   0.721   4.263   3.117 -0.3103 -0.1278 -0.3474
 4530SOL     H118564   0.711   4.262   3.022  0.9217  0.6708 -0.4972
 4530SOL     H218565   0.672   4.187   3.147 -1.2404 -0.0235 -1.5670
 4530SOL    EPW18566   0.715   4.255   3.110 -0.2781 -0.0315 -0.4935
 4531SOL      O18567   1.348   4.987   4.083  0.4986  0.3924 -0.0190
 4531SOL     H118568   1.399   4.919   4.040  1.6581  0.5705  1.0379
 4531SOL     H218569   1.406   5.063   4.085  0.9035  0.0530  2.8185
 4531SOL    EPW18570   1.360   4.988   4.079  0.6655  0.3752  0.3965
 4532SOL      O18571   3.133   5.040   0.096 -0.0781  0.1464  0.7513
 4532SOL     H118572   3.205   5.083   0.050  1.5099 -1.7387  1.3927
 4532SOL     H218573   3.146   5.066   0.188  1.0747 -1.8297  1.1946
 4532SOL    EPW18574   3.142   5.047   0.101  0.2143 -0.2655  0.8670
 4533SOL      O18575   5.404   2.415   3.287  0.0628 -0.4312 -0.0958
 4533SOL     H118576   5.339   2.363   3.239 -0.1553 -1.3458  1.1619
 4533SOL     H218577   5.460   2.453   3.219 -1.5406  0.0335 -1.1751
 4533SOL    EPW18578   5.403   2.413   3.275 -0.1315 -0.4792 -0.0768
 4534SOL      O18579   0.848   1.482   3.542 -0.0062  0.4898 -0.2328
 4534SOL     H118580   0.918   1.441   3.491 -0.8722 -2.4937  0.8640
 4534SOL     H218581   0.877   1.474   3.633 -1.7429 -0.8147  0.2399
 4534SOL    EPW18582   0.859   1.476   3.546 -0.2838  0.0323 -0.0653
 4535SOL      O18583   1.603   4.475   0.074 -0.0132 -0.0581 -0.5681
 4535SOL     H118584   1.654   4.434   0.144  1.3622 -0.7604 -1.9399
 4535SOL     H218585   1.535   4.525   0.119 -0.3623 -2.0823  1.2156
 4535SOL    EPW18586   1.601   4.476   0.086  0.0963 -0.3489 -0.5242
 4536SOL      O18587   3.131   0.112   1.060  0.3496  0.2828  0.0477
 4536SOL     H118588   3.098   0.071   0.980 -0.2803 -0.3755  0.6461
 4536SOL     H218589   3.135   0.205   1.039 -1.7701  0.3652 -0.0751
 4536SOL    EPW18590   3.128   0.118   1.049  0.0562  0.2213  0.0985
 4537SOL      O18591   5.318   4.817   1.359  0.4681 -0.5221 -0.0658
 4537SOL     H118592   5.254   4.829   1.429 -1.3762 -1.1769 -1.6348
 4537SOL     H218593   5.287   4.741   1.310  1.1413  0.6220 -2.2943
 4537SOL    EPW18594   5.308   4.810   1.362  0.3432 -0.4699 -0.4709
 4538SOL      O18595   4.623   3.573   0.865 -0.6563 -0.3432  0.0451
 4538SOL     H118596   4.652   3.575   0.956 -0.6467 -4.4110  0.2429
 4538SOL     H218597   4.701   3.591   0.814  0.3682 -2.5695  0.7759
 4538SOL    EPW18598   4.634   3.575   0.869 -0.5460 -1.0147  0.1442
 4539SOL      O18599   5.158   0.230   1.376  0.3195 -0.9722  0.2630
 4539SOL     H118600   5.209   0.153   1.352  2.4914  0.7745 -0.8959
 4539SOL     H218601   5.220   0.288   1.419 -1.2551  0.2190  0.9975
 4539SOL    EPW18602   5.170   0.228   1.378  0.3832 -0.6588  0.2178
 4540SOL      O18603   0.761   3.176   0.285  0.2729 -0.2040 -0.0933
 4540SOL     H118604   0.768   3.178   0.190 -2.9525  2.6266 -0.3778
 4540SOL     H218605   0.819   3.246   0.315 -0.1569  0.1877 -0.1546
 4540SOL    EPW18606   0.768   3.184   0.278 -0.1170  0.1397 -0.1302
 4541SOL      O18607   5.844   3.221   0.186  0.4803 -0.8270 -0.5155
 4541SOL     H118608   5.834   3.252   0.276  1.2784 -0.8330 -0.4189
 4541SOL     H218609   5.938   3.228   0.169  0.7637 -3.5912 -0.3201
 4541SOL    EPW18610   5.853   3.225   0.194  0.5957 -1.1225 -0.4843
 4542SOL      O18611   5.352   3.957   1.130  0.0385  0.1807 -0.0538
 4542SOL     H118612   5.356   3.931   1.038  1.8389  2.6694 -0.7194
 4542SOL     H218613   5.355   3.874   1.178  1.7470 -1.0326 -2.1573
 4542SOL    EPW18614   5.352   3.945   1.125  0.4128  0.3167 -0.3492
 4543SOL      O18615   2.805   2.803   3.277  0.0536  0.1438 -0.5965
 4543SOL     H118616   2.739   2.853   3.325  0.4987 -0.4154  0.6237
 4543SOL     H218617   2.758   2.727   3.243 -0.7825  1.7175 -3.0531
 4543SOL    EPW18618   2.793   2.800   3.279  0.0119  0.2520 -0.7284
 4544SOL      O18619   3.418   1.582   3.185  0.1017  0.5196  0.0693
 4544SOL     H118620   3.402   1.676   3.179  0.0578  0.3934 -2.3477
 4544SOL     H218621   3.331   1.542   3.175  0.3066  0.1939 -0.4540
 4544SOL    EPW18622   3.407   1.587   3.183  0.1189  0.4714 -0.2444
 4545SOL      O18623   2.282   1.288   2.731  0.1626  0.0088 -0.2718
 4545SOL     H118624   2.359   1.245   2.692 -1.0887 -0.7392 -1.9907
 4545SOL     H218625   2.215   1.282   2.663 -0.4162  3.7278 -0.1234
 4545SOL    EPW18626   2.283   1.283   2.720 -0.0326  0.3257 -0.4394
 4546SOL      O18627   0.053   4.074   1.179 -0.9529 -0.1360 -0.4408
 4546SOL     H118628  -0.040   4.079   1.201 -0.5067  1.2207  1.2286
 4546SOL     H218629   0.098   4.102   1.258  0.8668 -0.1605 -1.4413
 4546SOL    EPW18630   0.048   4.078   1.190 -0.7112  0.0061 -0.3695
 4547SOL      O18631   0.091   3.558   1.550  0.4457 -0.3304  0.1849
 4547SOL     H118632   0.058   3.486   1.604 -0.1755 -0.6151 -0.5638
 4547SOL     H218633   0.014   3.588   1.501  1.3229 -1.1030 -1.6904
 4547SOL    EPW18634   0.079   3.553   1.551  0.4730 -0.4432 -0.0950
 4548SOL      O18635   0.650   0.382   3.405  0.5013 -0.1428  0.5089
 4548SOL     H118636   0.645   0.469   3.444  3.0445  0.1409  0.3096
 4548SOL     H218637   0.644   0.399   3.310  2.4738  0.0145  0.3799
 4548SOL    EPW18638   0.649   0.393   3.399  0.9831 -0.0957  0.4739
 4549SOL      O18639   0.971   5.404   1.244  0.4078  0.1363  0.1104
 4549SOL     H118640   0.893   5.446   1.207  0.6538  0.2984 -0.2173
 4549SOL     H218641   0.986   5.327   1.188  0.5762  0.1912  0.0800
 4549SOL    EPW18642   0.964   5.400   1.234  0.4520  0.1595  0.0722
 4550SOL      O18643   5.599   4.709   0.590  0.0101  0.3799 -0.3574
 4550SOL     H118644   5.505   4.719   0.575  0.0309 -0.2463 -0.9159
 4550SOL     H218645   5.625   4.791   0.631 -0.7120  0.7122 -0.5510
 4550SOL    EPW18646   5.591   4.719   0.593 -0.0647  0.3485 -0.4376
 4551SOL      O18647   4.516   4.628   0.614  0.3714 -0.6464  0.5847
 4551SOL     H118648   4.519   4.575   0.693 -0.1374 -1.3308  0.1564
 4551SOL     H218649   4.422   4.644   0.600  0.6184  2.2313  1.9257
 4551SOL    EPW18650   4.506   4.624   0.621  0.3435 -0.4124  0.6821
 4552SOL      O18651   5.768   4.688   2.328  0.1768  0.2502 -0.1829
 4552SOL     H118652   5.714   4.617   2.294 -1.3266  2.1198 -1.7871
 4552SOL     H218653   5.716   4.727   2.399  0.4733  0.5344 -0.1177
 4552SOL    EPW18654   5.757   4.685   2.332  0.0481  0.4799 -0.3471
 4553SOL      O18655   4.989   2.206   0.545 -0.4870 -0.0640  0.3378
 4553SOL     H118656   4.927   2.272   0.514 -1.1061  0.2129  2.0869
 4553SOL     H218657   5.073   2.252   0.548 -0.5018  0.0245 -0.4842
 4553SOL    EPW18658   4.992   2.218   0.542 -0.5546 -0.0250  0.4367
 4554SOL      O18659   0.173   3.522   0.943 -0.1695 -0.2740  0.2539
 4554SOL     H118660   0.155   3.568   0.861  0.3421 -0.3716  0.0847
 4554SOL     H218661   0.184   3.430   0.917 -0.8183 -0.4353  0.5400
 4554SOL    EPW18662   0.172   3.517   0.932 -0.1842 -0.3016  0.2664
 4555SOL      O18663   5.423   5.321   2.276  0.0074  0.6170 -0.1137
 4555SOL     H118664   5.379   5.403   2.252  0.8766  0.6668 -1.5705
 4555SOL     H218665   5.351   5.263   2.301 -0.8096  1.1307 -1.1926
 4555SOL    EPW18666   5.410   5.324   2.276  0.0130  0.6771 -0.3842
 4556SOL      O18667   4.363   5.131   0.849  0.0583  0.5669 -0.4183
 4556SOL     H118668   4.297   5.172   0.905  1.5325 -0.2519  1.9841
 4556SOL     H218669   4.324   5.047   0.823  0.2192 -0.0033  1.1563
 4556SOL    EPW18670   4.352   5.126   0.852  0.2327  0.4188  0.0059
 4557SOL      O18671   5.276   5.112   1.339  0.1253  0.1421 -0.0112
 4557SOL     H118672   5.194   5.077   1.372 -0.2383 -0.6377 -1.6927
 4557SOL     H218673   5.260   5.206   1.328  0.1295  0.3410  1.6044
 4557SOL    EPW18674   5.266   5.118   1.341  0.0869  0.0801 -0.0182
 4558SOL      O18675   3.811   5.136   1.192  0.5725  0.1858 -0.2306
 4558SOL     H118676   3.777   5.142   1.103  2.4708 -0.3051 -1.0133
 4558SOL     H218677   3.906   5.142   1.182  0.7278  2.0565  1.9495
 4558SOL    EPW18678   3.817   5.137   1.181  0.7916  0.3330 -0.0815
 4559SOL      O18679   3.590   0.403   3.972  0.0572 -0.0583 -0.4899
 4559SOL     H118680   3.599   0.487   4.017  1.4345  0.5215 -1.8337
 4559SOL     H218681   3.555   0.344   4.039  2.8118  0.5819  1.5945
 4559SOL    EPW18682   3.587   0.405   3.984  0.4979  0.0719 -0.4109
 4560SOL      O18683   5.398   4.520   1.541  0.3276 -0.7374 -0.1370
 4560SOL     H118684   5.435   4.436   1.567  0.5680 -0.1480  1.5078
 4560SOL     H218685   5.353   4.552   1.620  0.7489  0.9455 -0.5492
 4560SOL    EPW18686   5.397   4.515   1.553  0.3982 -0.4950 -0.0055
 4561SOL      O18687   2.181   1.462   3.956  0.2731  0.3682  0.0288
 4561SOL     H118688   2.094   1.434   3.985  0.2488  0.3603 -0.0513
 4561SOL     H218689   2.197   1.544   4.002 -0.4130  1.1588 -1.1103
 4561SOL    EPW18690   2.173   1.468   3.964  0.1973  0.4517 -0.1012
 4562SOL      O18691   5.346   4.963   1.111 -0.4470  0.2737 -0.5222
 4562SOL     H118692   5.255   4.949   1.087 -0.0997 -2.5663 -0.4017
 4562SOL     H218693   5.395   4.942   1.032  0.2252 -0.8435  0.1747
 4562SOL    EPW18694   5.342   4.959   1.100 -0.3383 -0.1485 -0.4350
 4563SOL      O18695   1.944   3.318   0.525 -0.8287  0.4244 -0.0589
 4563SOL     H118696   2.031   3.325   0.564 -0.5867  0.2990 -0.5786
 4563SOL     H218697   1.897   3.259   0.584 -0.4491  0.2062  0.0325
 4563SOL    EPW18698   1.948   3.312   0.536 -0.7624  0.3877 -0.1046
 4564SOL      O18699   5.739   0.287   1.453 -0.4772  0.2261 -0.2724
 4564SOL     H118700   5.787   0.213   1.417 -1.0461 -0.4350  0.3205
 4564SOL     H218701   5.677   0.248   1.515  0.8472  1.3429  1.8338
 4564SOL    EPW18702   5.738   0.275   1.456 -0.3966  0.2747  0.0155
 4565SOL      O18703   5.783   5.232   0.787 -0.1324  0.2821 -0.2183
 4565SOL     H118704   5.781   5.137   0.790 -1.3047  0.3145  0.1828
 4565SOL     H218705   5.853   5.257   0.847  0.9373 -0.3588 -1.1861
 4565SOL    EPW18706   5.790   5.225   0.794 -0.1434  0.2172 -0.2788
 4566SOL      O18707   5.394   5.712   2.471 -0.0357 -0.7204 -0.3840
 4566SOL     H118708   5.337   5.726   2.547 -0.1947 -2.4652 -0.1708
 4566SOL     H218709   5.451   5.789   2.469 -0.1636 -0.5668  1.4000
 4566SOL    EPW18710   5.394   5.722   2.479 -0.0663 -0.8901 -0.1710
 4567SOL      O18711   4.745   2.653   0.715  0.4461 -0.0961  0.1258
 4567SOL     H118712   4.826   2.624   0.757  1.1125  0.1923 -0.9420
 4567SOL     H218713   4.677   2.595   0.750  0.8071  0.7697  2.3660
 4567SOL    EPW18714   4.746   2.644   0.723  0.5557  0.0270  0.2509
 4568SOL      O18715   3.505   3.308   1.964 -0.0924 -0.4631  0.5474
 4568SOL     H118716   3.547   3.241   2.019  0.4203 -1.5257 -1.1106
 4568SOL     H218717   3.578   3.360   1.931 -0.2368 -1.0258 -0.6754
 4568SOL    EPW18718   3.518   3.306   1.967 -0.0531 -0.6364  0.2401
 4569SOL      O18719   1.044   5.125   0.987 -0.4480 -0.6102 -0.1381
 4569SOL     H118720   1.071   5.203   0.938 -0.2820 -0.8017 -0.3531
 4569SOL     H218721   0.949   5.132   0.993 -0.6899 -1.6601 -2.3361
 4569SOL    EPW18722   1.037   5.134   0.983 -0.4561 -0.7426 -0.3955
 4570SOL      O18723   5.507   5.020   1.474  0.0831 -0.0104  0.2412
 4570SOL     H118724   5.471   5.035   1.562 -1.5839  1.2655 -0.6509
 4570SOL     H218725   5.601   5.036   1.484 -0.3635  2.0498  1.3673
 4570SOL    EPW18726   5.513   5.023   1.485 -0.1424  0.3455  0.2661
 4571SOL      O18727   0.590   5.610   1.431 -0.8310 -0.1695  0.1231
 4571SOL     H118728   0.593   5.652   1.345  0.2432 -0.1551  0.1626
 4571SOL     H218729   0.535   5.533   1.418 -2.4454  0.9944 -0.0601
 4571SOL    EPW18730   0.585   5.606   1.420 -0.8886 -0.0438  0.1078
 4572SOL      O18731   0.167   3.520   2.213  0.0742  0.6800  0.4920
 4572SOL     H118732   0.096   3.514   2.277 -0.1172  1.7675  0.3842
 4572SOL     H218733   0.210   3.603   2.233 -1.3313  2.1167 -2.1662
 4572SOL    EPW18734   0.164   3.528   2.222 -0.0961  0.9493  0.1969
 4573SOL      O18735   5.789   3.428   1.777  0.3150 -0.0670  0.0590
 4573SOL     H118736   5.727   3.495   1.807  0.4413  0.9186 -1.7954
 4573SOL     H218737   5.742   3.382   1.707  1.7155  0.8337 -1.5120
 4573SOL    EPW18738   5.777   3.430   1.773  0.4779  0.1342 -0.3064
 4574SOL      O18739   0.074   4.408   3.138  0.2260  0.0784  0.4802
 4574SOL     H118740   0.034   4.495   3.134  0.9346  0.3936  0.0850
 4574SOL     H218741   0.082   4.388   3.231  1.3153  1.0254  0.5966
 4574SOL    EPW18742   0.071   4.415   3.147  0.4178  0.2131  0.4504
 4575SOL      O18743   5.262   0.101   3.072  0.9408  0.0828 -0.0518
 4575SOL     H118744   5.334   0.097   3.135  0.7950  1.9529  0.2652
 4575SOL     H218745   5.262   0.192   3.042 -0.9709 -0.0206 -0.4313
 4575SOL    EPW18746   5.270   0.110   3.075  0.7213  0.2712 -0.0585
 4576SOL      O18747   0.566   0.533   1.386 -0.6149  0.2620 -0.1523
 4576SOL     H118748   0.580   0.455   1.439 -1.3321  0.4844  0.3589
 4576SOL     H218749   0.533   0.499   1.303  0.2985 -0.0682 -0.3905
 4576SOL    EPW18750   0.564   0.521   1.383 -0.5940  0.2505 -0.1232
 4577SOL      O18751   5.856   5.494   1.613  0.6063 -0.0413  0.1181
 4577SOL     H118752   5.896   5.440   1.681 -1.3928 -2.0796 -0.2625
 4577SOL     H218753   5.795   5.551   1.661 -0.5046 -1.1950  0.0960
 4577SOL    EPW18754   5.854   5.494   1.626  0.2745 -0.3818  0.0752
 4578SOL      O18755   4.817   4.640   3.519  0.3960  0.0443 -0.3247
 4578SOL     H118756   4.885   4.685   3.569 -0.0286  0.8437 -0.4625
 4578SOL     H218757   4.755   4.609   3.585 -0.0318  0.8755 -0.3383
 4578SOL    EPW18758   4.818   4.641   3.531  0.3051  0.2182 -0.3408
 4579SOL      O18759   0.382   5.397   3.802  0.3690  0.5967  0.3527
 4579SOL     H118760   0.466   5.370   3.766  0.3145  0.1532  0.5483
 4579SOL     H218761   0.393   5.490   3.824  0.1584  1.0761 -1.5172
 4579SOL    EPW18762   0.392   5.404   3.801  0.3407  0.6006  0.1741
 4580SOL      O18763   0.189   0.408   3.426  0.4388  0.6430  0.1762
 4580SOL     H118764   0.243   0.330   3.435  1.4099  1.1367 -1.2777
 4580SOL     H218765   0.218   0.466   3.496  0.2750  0.0269  0.7562
 4580SOL    EPW18766   0.198   0.406   3.435  0.5249  0.6300  0.0830
 4581SOL      O18767   5.674   5.629   1.777 -0.3956  0.3047  0.8796
 4581SOL     H118768   5.715   5.632   1.864  0.7898 -0.3038  0.3607
 4581SOL     H218769   5.610   5.558   1.784  1.4268 -1.4107  0.5504
 4581SOL    EPW18770   5.672   5.622   1.787 -0.0747  0.0568  0.7891
 4582SOL      O18771   5.768   2.591   3.528 -0.2980 -0.6510 -0.1076
 4582SOL     H118772   5.769   2.547   3.613 -0.4307 -0.0655  0.1989
 4582SOL     H218773   5.750   2.521   3.465 -1.4568 -0.8900  0.4715
 4582SOL    EPW18774   5.766   2.579   3.530 -0.4358 -0.6141 -0.0132
 4583SOL      O18775   1.240   4.593   2.566 -0.0094  0.2091  0.1289
 4583SOL     H118776   1.274   4.508   2.592 -2.8558 -1.2438 -0.7387
 4583SOL     H218777   1.261   4.599   2.472  0.6526  0.7183  0.3029
 4583SOL    EPW18778   1.246   4.585   2.559 -0.2424  0.1085  0.0549
 4584SOL      O18779   1.550   2.779   0.284  0.3090  0.0850  0.4546
 4584SOL     H118780   1.565   2.848   0.349 -0.4161 -0.3509  1.0955
 4584SOL     H218781   1.459   2.791   0.257  0.4938  0.0239 -0.2006
 4584SOL    EPW18782   1.542   2.788   0.288  0.2514  0.0320  0.4531
 4585SOL      O18783   5.724   5.127   2.498 -0.1723 -0.0848 -0.1185
 4585SOL     H118784   5.643   5.083   2.473  0.1705 -0.9791  0.3414
 4585SOL     H218785   5.744   5.094   2.585  0.3755  0.5856  0.0171
 4585SOL    EPW18786   5.718   5.119   2.504 -0.0773 -0.1087 -0.0549
 4586SOL      O18787   5.008   4.676   1.860  0.0383  0.0135  0.5403
 4586SOL     H118788   4.947   4.709   1.794 -0.6565  0.7970  1.5477
 4586SOL     H218789   5.058   4.754   1.886  0.7913 -0.4341  0.4243
 4586SOL    EPW18790   5.007   4.688   1.856  0.0445  0.0494  0.6354
 4587SOL      O18791   4.746   4.830   2.845 -0.2431  0.1891  0.4393
 4587SOL     H118792   4.707   4.826   2.932 -0.0396 -0.6354  0.4913
 4587SOL     H218793   4.820   4.770   2.849 -0.1541  0.2512 -0.2677
 4587SOL    EPW18794   4.750   4.823   2.855 -0.2119  0.1078  0.3694
 4588SOL      O18795   1.444   2.310   3.141  0.2225  0.0940  0.4956
 4588SOL     H118796   1.373   2.359   3.182 -0.8761 -1.7359  0.8415
 4588SOL     H218797   1.446   2.227   3.188  1.3418 -0.6164 -0.7660
 4588SOL    EPW18798   1.437   2.306   3.150  0.2247 -0.1770  0.3979
 4589SOL      O18799   0.595   0.159   1.969 -0.3505  0.5352 -0.8084
 4589SOL     H118800   0.570   0.223   1.901 -3.7152 -0.3417 -0.4929
 4589SOL     H218801   0.634   0.087   1.920 -0.6216  0.9240 -1.6167
 4589SOL    EPW18802   0.596   0.158   1.956 -0.7383  0.4831 -0.8610
 4590SOL      O18803   0.251   5.479   2.242  0.1228 -0.2582 -0.6881
 4590SOL     H118804   0.222   5.426   2.317 -1.6014  1.7980  0.1516
 4590SOL     H218805   0.206   5.440   2.167  0.6512 -1.3808 -0.4266
 4590SOL    EPW18806   0.243   5.469   2.242 -0.0048 -0.1586 -0.5707
 4591SOL      O18807   3.162   0.677   0.722 -0.0246  0.1478  0.5422
 4591SOL     H118808   3.193   0.609   0.661  2.8567  1.1246  0.8657
 4591SOL     H218809   3.170   0.758   0.672  1.4988  0.8466  1.8827
 4591SOL    EPW18810   3.166   0.678   0.710  0.4453  0.3265  0.7197
 4592SOL      O18811   5.436   4.950   3.524 -0.6289 -0.1569 -0.1200
 4592SOL     H118812   5.354   4.922   3.564 -0.4075  1.8273  1.7965
 4592SOL     H218813   5.504   4.914   3.580 -0.2888  1.4403  0.5252
 4592SOL    EPW18814   5.434   4.943   3.534 -0.5690  0.2252  0.1533
 4593SOL      O18815   0.160   5.762   1.035 -0.9446  0.0805  0.4247
 4593SOL     H118816   0.068   5.774   1.013 -0.4795  2.1119 -0.6201
 4593SOL     H218817   0.166   5.780   1.129 -1.6181 -0.1588  0.5119
 4593SOL    EPW18818   0.151   5.765   1.042 -0.9669  0.2717  0.3225
 4594SOL      O18819   0.125   0.581   3.915 -0.4714  0.1305 -0.2281
 4594SOL     H118820   0.163   0.573   3.827 -1.2901 -0.9075 -0.5031
 4594SOL     H218821   0.033   0.559   3.903  0.1799 -4.1953  1.5522
 4594SOL    EPW18822   0.119   0.578   3.904 -0.4892 -0.4417 -0.0675
 4595SOL      O18823   5.194   5.323   2.602 -0.6816  0.1035  0.2469
 4595SOL     H118824   5.230   5.300   2.516  1.6413 -1.1105  1.4998
 4595SOL     H218825   5.162   5.240   2.637  0.1764  0.2456  1.3708
 4595SOL    EPW18826   5.194   5.312   2.596 -0.3423 -0.0109  0.5004
 4596SOL      O18827   5.301   4.357   1.866  0.0746 -0.1972  0.2519
 4596SOL     H118828   5.240   4.334   1.937 -2.9837  1.3829 -1.7449
 4596SOL     H218829   5.280   4.295   1.796  0.6239  0.4921 -0.5283
 4596SOL    EPW18830   5.292   4.348   1.866 -0.1931  0.0449 -0.0444
 4597SOL      O18831   0.979   4.331   2.882  0.2562  0.1399  0.2324
 4597SOL     H118832   0.884   4.320   2.893  0.4553 -2.8696 -0.5801
 4597SOL     H218833   0.987   4.390   2.807 -1.0026 -0.7177 -0.6057
 4597SOL    EPW18834   0.970   4.336   2.875  0.1432 -0.2726  0.0563
 4598SOL      O18835   5.535   3.047   2.561  0.0056 -0.4159  0.9011
 4598SOL     H118836   5.515   3.054   2.468 -0.4138 -1.8740  0.8683
 4598SOL     H218837   5.557   3.136   2.588  0.4963 -0.0499 -0.6736
 4598SOL    EPW18838   5.535   3.057   2.554  0.0132 -0.5324  0.7296
 4599SOL      O18839   0.045   0.005   4.031  0.1595  0.5990  0.1032
 4599SOL     H118840  -0.035   0.057   4.024 -0.1391  0.2515  0.9253
 4599SOL     H218841   0.066  -0.017   3.940 -0.5541  0.8766 -0.1378
 4599SOL    EPW18842   0.039   0.008   4.020  0.0515  0.5915  0.1652
 4600SOL      O18843   5.782   5.647   2.772  0.1613 -0.1058 -0.3500
 4600SOL     H118844   5.788   5.632   2.678  2.0792 -0.0880 -0.2340
 4600SOL     H218845   5.690   5.631   2.792  0.0436 -1.5967 -1.9613
 4600SOL    EPW18846   5.773   5.644   2.764  0.3534 -0.2629 -0.5095
 4601SOL      O18847   0.383   5.713   2.298  0.2056 -0.0310 -0.3021
 4601SOL     H118848   0.343   5.766   2.367  0.8342  1.2404 -0.9021
 4601SOL     H218849   0.328   5.635   2.294  0.5421 -0.4173  2.0725
 4601SOL    EPW18850   0.373   5.711   2.305  0.3086  0.0634 -0.1128
 4602SOL      O18851   0.299   4.753   3.625  0.7112 -0.2679  0.1323
 4602SOL     H118852   0.239   4.728   3.555  2.5373  0.4284 -1.7259
 4602SOL     H218853   0.289   4.685   3.691 -1.0792 -0.9042 -0.7788
 4602SOL    EPW18854   0.292   4.743   3.625  0.7150 -0.2615 -0.1631
 4603SOL      O18855   2.568   3.190   0.668 -0.4491  0.3227 -0.1359
 4603SOL     H118856   2.577   3.275   0.626 -2.0177  1.6750  2.1411
 4603SOL     H218857   2.473   3.175   0.670 -0.2932 -0.5352  1.2691
 4603SOL    EPW18858   2.558   3.197   0.664 -0.5998  0.3754  0.2568
 4604SOL      O18859   5.767   3.462   2.127  0.0269  0.0595  0.4450
 4604SOL     H118860   5.773   3.367   2.134 -0.0353  0.1735  2.2449
 4604SOL     H218861   5.676   3.478   2.100  0.2545 -0.4069 -0.6402
 4604SOL    EPW18862   5.758   3.454   2.125  0.0445  0.0219  0.5213
 4605SOL      O18863   3.683   0.099   3.687  0.2973  0.2463 -0.2930
 4605SOL     H118864   3.693   0.007   3.712  0.4234  0.5079  0.6290
 4605SOL     H218865   3.697   0.099   3.592  0.0731 -0.7181 -0.3336
 4605SOL    EPW18866   3.686   0.089   3.679  0.2868  0.1713 -0.1990
 4606SOL      O18867   0.121   4.858   1.534 -0.0974 -0.9574  0.0437
 4606SOL     H118868   0.140   4.765   1.527 -2.2991 -1.4646  0.3901
 4606SOL     H218869   0.127   4.878   1.628 -1.3383 -1.1536  0.1726
 4606SOL    EPW18870   0.124   4.850   1.543 -0.4647 -1.0325  0.0944
 4607SOL      O18871   4.586   3.930   1.787  0.6299  0.4614  0.1139
 4607SOL     H118872   4.533   3.916   1.709 -0.5587 -0.2572  1.0330
 4607SOL     H218873   4.553   4.012   1.824  0.9794  0.6371  0.0391
 4607SOL    EPW18874   4.577   3.938   1.783  0.5404  0.4035  0.2040
 4608SOL      O18875   5.618   4.743   3.320 -0.5689  0.4845 -0.3782
 4608SOL     H118876   5.559   4.730   3.246  1.0342  0.8028 -1.7320
 4608SOL     H218877   5.594   4.828   3.356 -3.1353 -0.8133  1.1641
 4608SOL    EPW18878   5.609   4.751   3.316 -0.6717  0.3800 -0.3581
 4609SOL      O18879   5.646   4.966   0.709  0.3536 -0.5191 -0.2160
 4609SOL     H118880   5.569   4.993   0.659 -0.5612 -1.9467  0.3753
 4609SOL     H218881   5.719   4.978   0.650 -0.6003 -1.2233 -1.5618
 4609SOL    EPW18882   5.645   4.970   0.698  0.1543 -0.7465 -0.2965
 4610SOL      O18883   1.446   1.622   3.556 -0.0329  0.0443  0.1650
 4610SOL     H118884   1.409   1.602   3.642  0.7068  0.4450  0.5818
 4610SOL     H218885   1.501   1.547   3.536  0.9975  0.6306  0.7359
 4610SOL    EPW18886   1.448   1.612   3.563  0.1559  0.1496  0.2704
 4611SOL      O18887   0.611   3.884   2.867 -0.3586 -0.0590 -0.5224
 4611SOL     H118888   0.595   3.900   2.774 -0.2164  0.7145 -0.4221
 4611SOL     H218889   0.532   3.917   2.910 -0.4970 -0.5710 -0.3790
 4611SOL    EPW18890   0.601   3.890   2.862 -0.3582 -0.0311 -0.4964
 4612SOL      O18891   5.707   3.830   1.624 -0.1803 -0.2429  0.0021
 4612SOL     H118892   5.631   3.848   1.570 -0.9834 -2.5871  0.2634
 4612SOL     H218893   5.685   3.867   1.710 -0.3002  0.5720 -0.3799
 4612SOL    EPW18894   5.696   3.836   1.628 -0.2788 -0.4060 -0.0108
 4613SOL      O18895   5.396   5.413   3.455 -0.4265  0.2544  0.1623
 4613SOL     H118896   5.350   5.478   3.403 -0.9426  2.3282  3.1137
 4613SOL     H218897   5.482   5.451   3.471 -0.7458  0.2673  1.9425
 4613SOL    EPW18898   5.400   5.424   3.451 -0.5156  0.4770  0.6670
 4614SOL      O18899   3.679   5.857   0.606 -0.1290 -0.5849 -0.3447
 4614SOL     H118900   3.699   5.941   0.648  1.3799 -0.7482 -0.7016
 4614SOL     H218901   3.671   5.878   0.513 -1.2544 -0.5900 -0.2514
 4614SOL    EPW18902   3.680   5.868   0.601 -0.0881 -0.6028 -0.3729
 4615SOL      O18903   3.518   1.783   0.614 -0.0585 -0.2037  0.0313
 4615SOL     H118904   3.447   1.722   0.592  2.0950 -2.7170 -0.2470
 4615SOL     H218905   3.592   1.726   0.637  1.4319  2.3400  1.8217
 4615SOL    EPW18906   3.518   1.770   0.614  0.3302 -0.2005  0.1926
 4616SOL      O18907   0.751   4.487   3.922  0.3884 -0.1418  0.5065
 4616SOL     H118908   0.674   4.432   3.934 -0.0511  0.0530 -1.3160
 4616SOL     H218909   0.793   4.453   3.844  0.8588  1.2493  0.1338
 4616SOL    EPW18910   0.748   4.478   3.915  0.3917  0.0274  0.2723
 4617SOL      O18911   1.022   5.123   3.421 -0.7182  0.0268  0.5753
 4617SOL     H118912   1.078   5.127   3.499  2.5950 -2.8351 -1.5047
 4617SOL     H218913   1.072   5.169   3.353 -0.7209 -2.7453 -1.3839
 4617SOL    EPW18914   1.034   5.128   3.422 -0.3651 -0.5742  0.1444
 4618SOL      O18915   2.158   1.554   0.336 -0.0316 -0.6818 -0.3264
 4618SOL     H118916   2.198   1.555   0.249 -2.2322  1.9865 -1.3843
 4618SOL     H218917   2.070   1.519   0.321 -0.9612  1.2232  0.5080
 4618SOL    EPW18918   2.153   1.551   0.325 -0.3655 -0.1939 -0.3503
 4619SOL      O18919   4.116   0.164   0.091  0.2977 -0.4463 -0.2863
 4619SOL     H118920   4.167   0.228   0.041  1.2156  0.0850  1.3198
 4619SOL     H218921   4.100   0.093   0.028  0.1232  0.8970 -1.7829
 4619SOL    EPW18922   4.120   0.163   0.079  0.3770 -0.2463 -0.2746
 4620SOL      O18923   0.334   4.592   3.872 -0.6876  0.1439  0.0926
 4620SOL     H118924   0.259   4.631   3.917 -0.7952  0.7456 -0.6156
 4620SOL     H218925   0.408   4.648   3.896 -0.7920  0.6231 -0.6931
 4620SOL    EPW18926   0.334   4.602   3.880 -0.7102  0.2592 -0.0668
 4621SOL      O18927   5.395   4.478   3.872  0.4422 -0.4152  0.4290
 4621SOL     H118928   5.456   4.498   3.801  1.6318 -5.3691 -0.1112
 4621SOL     H218929   5.337   4.412   3.837 -1.3421 -0.2637  2.9401
 4621SOL    EPW18930   5.396   4.473   3.861  0.3788 -0.9275  0.6392
 4622SOL      O18931   1.748   0.901   0.086  0.3237  0.0940  0.0995
 4622SOL     H118932   1.766   0.812   0.116  0.4272  0.0582 -0.0672
 4622SOL     H218933   1.833   0.944   0.088  0.4663 -0.1253 -0.8530
 4622SOL    EPW18934   1.759   0.896   0.090  0.3500  0.0668 -0.0199
 4623SOL      O18935   3.488   2.711   0.993  0.5488 -0.3437 -0.1910
 4623SOL     H118936   3.460   2.782   0.935  0.6461 -0.3901 -0.2940
 4623SOL     H218937   3.572   2.742   1.029  0.7398 -0.5357 -0.4659
 4623SOL    EPW18938   3.494   2.722   0.991  0.5796 -0.3691 -0.2313
 4624SOL      O18939   4.558   3.893   1.114 -0.2638  0.2476  0.2340
 4624SOL     H118940   4.622   3.888   1.043 -0.2412  0.2399  0.2556
 4624SOL     H218941   4.473   3.881   1.070 -0.2224 -0.1119  0.2564
 4624SOL    EPW18942   4.556   3.891   1.101 -0.2570  0.2084  0.2387
 4625SOL      O18943   0.408   1.218   0.934  0.1760 -0.3200 -0.2317
 4625SOL     H118944   0.406   1.276   1.010 -0.8194  1.5172 -1.6013
 4625SOL     H218945   0.416   1.130   0.971  1.4453  0.6601  1.9095
 4625SOL    EPW18946   0.408   1.215   0.946  0.2052 -0.0194 -0.1494
 4626SOL      O18947   5.514   5.389   1.726  0.2348 -0.1260 -0.5786
 4626SOL     H118948   5.444   5.324   1.732  0.1620 -0.0304 -0.3815
 4626SOL     H218949   5.529   5.399   1.632  0.3093 -0.4943 -0.6060
 4626SOL    EPW18950   5.508   5.384   1.716  0.2350 -0.1551 -0.5605
 4627SOL      O18951   0.086   0.144   1.723 -0.0499  0.0283 -0.4277
 4627SOL     H118952   0.102   0.134   1.816 -0.7030  0.5583 -0.2489
 4627SOL     H218953   0.048   0.060   1.695 -0.9081  0.2609  0.0230
 4627SOL    EPW18954   0.084   0.134   1.730 -0.2111  0.1096 -0.3606
 4628SOL      O18955   4.576   0.796   0.864  0.3029  0.3918 -0.1705
 4628SOL     H118956   4.556   0.705   0.884  0.3190  0.6140  0.8751
 4628SOL     H218957   4.491   0.835   0.844  0.3489  0.0457 -1.0964
 4628SOL    EPW18958   4.564   0.790   0.864  0.3095  0.3786 -0.1577
 4629SOL      O18959   5.321   5.869   1.327  0.5165 -0.3116  0.0249
 4629SOL     H118960   5.355   5.788   1.366 -2.2818 -1.2512  0.6268
 4629SOL     H218961   5.284   5.841   1.243 -1.1164  0.1908  0.5666
 4629SOL    EPW18962   5.321   5.857   1.322  0.0438 -0.3583  0.1469
 4630SOL      O18963   1.587   3.157   4.126 -0.1594  0.1655  0.1115
 4630SOL     H118964   1.645   3.214   4.177 -0.3893  0.4133  0.0979
 4630SOL     H218965   1.603   3.070   4.161  0.4256  0.1964 -0.0847
 4630SOL    EPW18966   1.595   3.154   4.135 -0.1215  0.1952  0.0891
 4631SOL      O18967   0.029   1.010   2.334 -0.0294 -0.1244 -0.0995
 4631SOL     H118968   0.034   0.982   2.243  0.2055 -1.2557  0.2525
 4631SOL     H218969   0.026   0.928   2.384  1.3094  0.4722  0.9892
 4631SOL    EPW18970   0.029   0.998   2.330  0.1385 -0.1814  0.0542
 4632SOL      O18971   4.884   0.031   1.861 -0.3270  0.6703 -0.1990
 4632SOL     H118972   4.789   0.015   1.856 -0.3673  0.4534  0.9867
 4632SOL     H218973   4.896   0.117   1.821 -1.2892  1.5670  1.3644
 4632SOL    EPW18974   4.875   0.038   1.857 -0.4340  0.7428  0.0943
 4633SOL      O18975   5.131   5.644   1.484  0.9631 -0.0251  0.6278
 4633SOL     H118976   5.089   5.673   1.402  1.9263 -0.6985 -0.1137
 4633SOL     H218977   5.218   5.615   1.457  1.3237 -0.1592  1.9191
 4633SOL    EPW18978   5.136   5.644   1.472  1.1043 -0.1112  0.6864
 4634SOL      O18979   4.518   0.120   2.749 -0.5259  0.2937  0.0230
 4634SOL     H118980   4.578   0.187   2.713 -0.9758  1.2495  1.0258
 4634SOL     H218981   4.510   0.056   2.678  3.2280 -0.8842  0.5241
 4634SOL    EPW18982   4.524   0.121   2.737 -0.1734  0.2700  0.1835
 4635SOL      O18983   5.288   5.744   1.662 -0.3824  0.0444 -0.0942
 4635SOL     H118984   5.363   5.762   1.605 -1.3059  2.8391 -0.4923
 4635SOL     H218985   5.220   5.715   1.602 -1.1919  2.4850 -0.3999
 4635SOL    EPW18986   5.289   5.742   1.650 -0.5673  0.6029 -0.1693
 4636SOL      O18987   4.360   0.658   3.255 -0.1323 -0.1218  0.1829
 4636SOL     H118988   4.315   0.579   3.285 -0.8235  0.9233  1.9493
 4636SOL     H218989   4.291   0.708   3.211 -0.2069  0.4996  1.0033
 4636SOL    EPW18990   4.348   0.655   3.253 -0.2140  0.0560  0.4589
 4637SOL      O18991   0.105   0.929   3.164 -0.7778  0.2306  0.0824
 4637SOL     H118992   0.094   0.837   3.187 -0.4053  0.1201 -0.1712
 4637SOL     H218993   0.022   0.970   3.188 -1.1072 -0.2555 -0.2072
 4637SOL    EPW18994   0.095   0.924   3.169 -0.7732  0.1670  0.0244
 4638SOL      O18995   4.621   0.074   1.261 -0.0657 -0.2249 -0.0865
 4638SOL     H118996   4.564   0.149   1.245  2.6361  1.5747 -1.7120
 4638SOL     H218997   4.668   0.096   1.342  1.6051  0.4417 -1.2116
 4638SOL    EPW18998   4.620   0.084   1.268  0.4008  0.0381 -0.3800
 4639SOL      O18999   0.557   0.608   4.021  0.0450 -0.0423  0.7409
 4639SOL     H119000   0.502   0.661   4.079  0.5350  1.9172 -0.5259
 4639SOL     H219001   0.642   0.605   4.065  0.0732  0.4126  0.7193
 4639SOL    EPW19002   0.560   0.614   4.032  0.1003  0.2153  0.6035
 4640SOL      O19003   4.117   5.749   4.015  0.2703 -0.2354 -0.1478
 4640SOL     H119004   4.114   5.774   3.923 -0.8993  1.6162  0.3474
 4640SOL     H219005   4.030   5.773   4.048  0.2091 -2.1492  1.1134
 4640SOL    EPW19006   4.107   5.755   4.009  0.1390 -0.2420  0.0396
 4641MG      MG19007   0.541   0.645   2.524 -0.0429 -0.3705  0.4162
 4642MG      MG19008   5.426   4.992   1.284 -0.6980 -0.0022  0.0776
 4643MG      MG19009   0.251   4.511   2.535  0.1489  0.2159  0.6937
 4644MG      MG19010   1.454   5.868   0.711  0.5367 -0.6097 -0.0878
 4645MG      MG19011   3.324   0.284   1.533  0.4716  0.0822 -0.3101
 4646MG      MG19012   2.525   0.909   1.976  0.3078  0.0860  0.1171
 4647MG      MG19013   3.279   0.422   3.703  0.2626  0.3980  0.2158
 4648MG      MG19014   2.214   2.006   0.307 -0.1104  0.0599  0.2327
 4649MG      MG19015   3.300   2.279   1.534  0.1099  0.9491  0.1589
 4650MG      MG19016   2.801   4.542   1.578 -0.0042 -0.0438  0.6335
 4651MG      MG19017   4.590   5.554   3.994  0.2175  0.5106  0.1615
 4652MG      MG19018   0.200   1.449   3.000 -0.2205 -0.0072  0.0112
 4653CL-    CL-19019   1.212   0.390   1.015 -0.5507 -0.1480  0.2576
 4654CL-    CL-19020   5.763   1.862   3.368  0.4736  0.1663 -0.3315
 4655CL-    CL-19021   2.826   4.822   1.188  0.4820 -0.3263 -0.0858
 4656CL-    CL-19022   0.507   0.440   3.123  0.2966 -0.1073  0.0278
 4657CL-    CL-19023   5.416   5.574   1.392 -0.3575 -0.0338  0.1715
 4658CL-    CL-19024   0.089   4.024   0.300  0.1267  0.0648  0.2208
 4659CL-    CL-19025   3.197   4.024   3.553  0.0224 -0.1937 -0.1477
 4660CL-    CL-19026   2.081   0.894   0.575 -0.0845 -0.3791 -0.2541
 4661CL-    CL-19027   3.860   4.545   0.077  0.1386  0.4196  0.3309
   5.87690   5.87690   4.15559   0.00000   0.00000   0.00000   0.00000   2.93845   2.93845
