exampleRNA-OH in water
19027
    1A5    HO5'    1   3.728   3.731   1.143  0.2086 -0.4557  0.7042
    1A5     O5'    2   3.636   3.742   1.120  0.2698 -0.4711  0.4496
    1A5     C5'    3   3.637   3.741   0.977 -0.1124  0.4365 -0.1846
    1A5     H5'    4   3.547   3.691   0.943 -0.4213 -0.0225  1.2185
    1A5    H5''    5   3.730   3.690   0.953  2.1357  3.4809  1.2011
    1A5     C4'    6   3.657   3.884   0.927  0.5548 -0.3977  0.1612
    1A5     H4'    7   3.673   3.883   0.819  2.7436  2.0518  0.3664
    1A5     O4'    8   3.539   3.964   0.945 -0.6309 -0.7393  0.6857
    1A5     C1'    9   3.574   4.096   0.980 -0.1152  0.0481 -0.7986
    1A5     H1'   10   3.516   4.161   0.914  0.6721 -1.6936 -3.3491
    1A5      N9   11   3.544   4.135   1.118 -0.9501  0.1911 -0.3293
    1A5      C8   12   3.535   4.050   1.229 -0.0727 -0.0938 -0.3760
    1A5      H8   13   3.542   3.943   1.217  0.2767 -0.1271  0.0921
    1A5      N7   14   3.512   4.117   1.338  0.1146 -0.0887  0.0499
    1A5      C5   15   3.516   4.252   1.301  0.4125 -0.4396 -0.1321
    1A5      C6   16   3.497   4.375   1.367 -0.3717  0.4626 -0.4484
    1A5      N6   17   3.481   4.383   1.492  1.1861  0.5886 -0.3335
    1A5     H61   18   3.492   4.478   1.526  0.1219  0.3272  0.8294
    1A5     H62   19   3.483   4.299   1.548 -1.4283  0.4090 -0.4060
    1A5      N1   20   3.497   4.486   1.296 -0.0138 -0.0719  0.2739
    1A5      C2   21   3.532   4.480   1.165 -0.5501 -0.2254  0.9588
    1A5      H2   22   3.525   4.566   1.100  1.2772 -1.1198 -0.5238
    1A5      N3   23   3.554   4.372   1.090  0.7978 -0.2064  0.2900
    1A5      C4   24   3.545   4.263   1.168 -0.7623 -0.0132  0.4156
    1A5     C3'   25   3.771   3.972   0.987  0.5612  0.0183  0.0870
    1A5     H3'   26   3.766   3.969   1.095  3.2634 -0.5890  0.2714
    1A5     C2'   27   3.721   4.107   0.942  0.2915 -0.3281  0.4658
    1A5     H2'   28   3.774   4.184   0.998  1.9383 -1.5304  0.6523
    1A5     O2'   29   3.726   4.131   0.800 -0.2366 -0.2448 -0.1946
    1A5    HO2'   30   3.798   4.077   0.765  1.2599  2.2935 -1.2828
    1A5     O3'   31   3.896   3.947   0.930 -0.5425  0.1580  0.6097
    2G        P   32   4.034   3.980   1.010 -0.0072 -0.1813 -0.2727
    2G      OP1   33   4.145   3.918   0.938  0.0658 -0.9577  1.6408
    2G      OP2   34   4.020   3.950   1.153  0.2432  0.2423  0.0260
    2G      O5'   35   4.044   4.137   0.997 -0.2852  0.5491  0.0290
    2G      C5'   36   4.048   4.200   0.871  0.4360  0.2379  0.0060
    2G      H5'   37   3.965   4.158   0.813 -0.6981 -0.9701  2.3897
    2G     H5''   38   4.130   4.161   0.810 -0.0302  1.5207 -1.5390
    2G      C4'   39   4.052   4.363   0.876 -0.2621 -0.6616 -0.6558
    2G      H4'   40   4.068   4.392   0.772  0.0016  1.8652  0.0131
    2G      O4'   41   3.920   4.396   0.907 -0.1301 -0.1043  0.0359
    2G      C1'   42   3.925   4.506   1.000 -0.0008  0.7066 -0.6086
    2G      H1'   43   3.869   4.593   0.967 -0.3562 -0.0227 -2.0212
    2G       N9   44   3.890   4.460   1.142  0.2561 -0.5836  0.6855
    2G       C8   45   3.892   4.338   1.202  0.0590 -0.0096 -0.3714
    2G       H8   46   3.920   4.249   1.147 -0.0325  0.8433 -1.8437
    2G       N7   47   3.866   4.338   1.333 -0.4415 -0.7200 -0.0136
    2G       C5   48   3.829   4.469   1.354  0.1540 -0.0695  0.3172
    2G       C6   49   3.778   4.541   1.472 -0.4000  1.0376  0.6143
    2G       O6   50   3.744   4.500   1.585  0.3709  0.4986  0.1751
    2G       N1   51   3.793   4.678   1.463 -0.0626  0.8048 -0.5393
    2G       H1   52   3.777   4.726   1.550 -0.3189 -0.8580  0.3570
    2G       C2   53   3.829   4.745   1.353  0.8788 -0.0635 -0.4626
    2G       N2   54   3.795   4.868   1.340 -0.5074 -0.0432  0.4189
    2G      H21   55   3.776   4.918   1.426  0.5320 -2.7315  2.3441
    2G      H22   56   3.818   4.925   1.260  3.3420 -0.6203  0.9239
    2G       N3   57   3.856   4.689   1.241  0.0942 -0.0361  0.6379
    2G       C4   58   3.849   4.550   1.241 -0.7341  0.6215  0.3169
    2G      C3'   59   4.150   4.427   0.968  0.4448 -0.4382  0.3973
    2G      H3'   60   4.165   4.367   1.058 -0.2499 -1.3192 -0.0579
    2G      C2'   61   4.073   4.551   1.007 -0.1264  0.8330 -0.4870
    2G      H2'   62   4.091   4.582   1.110 -2.4144 -0.9163  0.5487
    2G      O2'   63   4.088   4.658   0.917  0.2078 -0.3267 -0.1877
    2G     HO2'   64   4.180   4.665   0.889 -0.4880  0.9082 -2.4093
    2G      O3'   65   4.267   4.451   0.893  0.1481 -0.7465 -0.5813
    3C        P   66   4.405   4.452   0.960 -0.4399 -0.0177  0.0803
    3C      OP1   67   4.506   4.458   0.853  0.5135  0.0851  0.6040
    3C      OP2   68   4.406   4.334   1.045  0.1259  0.4384  0.5926
    3C      O5'   69   4.418   4.586   1.045 -0.4931 -0.0132 -0.4448
    3C      C5'   70   4.424   4.710   0.978  0.4756 -0.1738  0.3540
    3C      H5'   71   4.352   4.706   0.897  1.3224 -0.2779 -0.4091
    3C     H5''   72   4.523   4.716   0.932  0.8485  1.9906  1.3400
    3C      C4'   73   4.389   4.834   1.069 -0.3375  0.2751 -0.2233
    3C      H4'   74   4.392   4.927   1.012  0.4416  2.1944  2.7549
    3C      O4'   75   4.252   4.822   1.117 -0.5274  0.3383  0.2365
    3C      C1'   76   4.238   4.866   1.247 -0.4513  0.0851 -0.4146
    3C      H1'   77   4.157   4.939   1.243  0.6207  1.2751 -2.1653
    3C       N1   78   4.210   4.765   1.349  0.1935  0.0158 -0.4173
    3C       C6   79   4.231   4.628   1.328 -0.4873 -0.8966  0.6097
    3C       H6   80   4.271   4.594   1.234  1.0317  1.5732  0.2621
    3C       C5   81   4.188   4.539   1.422  0.9466  0.7278 -0.5161
    3C       H5   82   4.193   4.431   1.415  0.5505  0.5435  1.4105
    3C       C4   83   4.126   4.594   1.544 -0.0407 -0.2249 -0.0812
    3C       N4   84   4.092   4.509   1.637  0.1608  0.1025  0.5827
    3C      H41   85   4.105   4.409   1.629 -0.6729  0.0013  0.3819
    3C      H42   86   4.036   4.552   1.708 -1.5054  0.0391 -0.6341
    3C       N3   87   4.103   4.720   1.562 -0.2350 -0.6634  0.3178
    3C       C2   88   4.143   4.807   1.468 -0.1115 -0.0181 -0.2994
    3C       O2   89   4.121   4.930   1.486 -0.5375  0.4251  0.3481
    3C      C3'   90   4.467   4.854   1.195 -0.2450  0.6639 -0.4603
    3C      H3'   91   4.487   4.757   1.240 -0.1975 -0.4077 -2.7065
    3C      C2'   92   4.376   4.934   1.288  0.7050  0.5791  0.4933
    3C      H2'   93   4.398   4.913   1.393  0.2176 -0.6878  0.3627
    3C      O2'   94   4.365   5.068   1.251 -0.7630 -0.2287 -0.5863
    3C     HO2'   95   4.447   5.104   1.216 -0.4085  0.8258  1.1839
    3C      O3'   96   4.588   4.916   1.170 -0.0479  0.0223  0.1971
    4G        P   97   4.718   4.914   1.267 -0.0988 -0.0295  0.4211
    4G      OP1   98   4.821   5.001   1.204  0.2228  0.1940 -0.4168
    4G      OP2   99   4.758   4.771   1.295  0.3117 -0.9339  0.0578
    4G      O5'  100   4.675   4.982   1.401  0.2800 -0.3262 -0.5191
    4G      C5'  101   4.663   5.125   1.417 -0.7549 -0.2587  0.9722
    4G      H5'  102   4.594   5.168   1.344 -0.3565  2.1561  1.9235
    4G     H5''  103   4.761   5.170   1.400  0.1861 -2.1083  1.2754
    4G      C4'  104   4.607   5.165   1.552  0.8273 -0.1854  0.9760
    4G      H4'  105   4.600   5.273   1.559  0.8897 -0.1910  1.1198
    4G      O4'  106   4.483   5.111   1.571 -0.0655 -0.0159  0.0493
    4G      C1'  107   4.471   5.074   1.708 -0.0615 -0.3970  0.2021
    4G      H1'  108   4.381   5.121   1.747 -0.8685 -0.0274 -1.9692
    4G       N9  109   4.456   4.931   1.725 -0.1000 -0.3082 -0.0442
    4G       C8  110   4.485   4.823   1.643  0.1397  0.4290  0.4832
    4G       H8  111   4.532   4.837   1.547  0.5441 -0.4178  0.5511
    4G       N7  112   4.424   4.710   1.670  0.2721  0.6699 -0.2833
    4G       C5  113   4.379   4.735   1.803  0.2694  0.0629  0.2015
    4G       C6  114   4.324   4.647   1.899 -0.0530 -0.0738 -0.4987
    4G       O6  115   4.309   4.528   1.891  0.2459  0.0713 -0.0027
    4G       N1  116   4.278   4.713   2.012 -0.5501 -0.2600 -0.1339
    4G       H1  117   4.232   4.656   2.082  0.4220  0.8953  1.5081
    4G       C2  118   4.298   4.844   2.034  1.2132 -0.2871  0.1032
    4G       N2  119   4.250   4.896   2.140 -0.3130 -0.0911 -0.9144
    4G      H21  120   4.198   4.837   2.204  0.6464 -0.9563 -0.9045
    4G      H22  121   4.265   4.992   2.164  2.2230  0.1222 -2.9563
    4G       N3  122   4.352   4.929   1.949 -0.1560 -0.1357 -0.5919
    4G       C4  123   4.393   4.871   1.830 -1.0311 -0.3695 -0.5406
    4G      C3'  124   4.696   5.110   1.659 -0.4487 -0.0912 -0.1009
    4G      H3'  125   4.720   5.004   1.647  0.9036  0.1592  0.1354
    4G      C2'  126   4.600   5.127   1.779  0.0503  0.3740  0.4127
    4G      H2'  127   4.634   5.068   1.865 -1.0300 -0.3330  0.3790
    4G      O2'  128   4.583   5.266   1.805  0.1893  0.0084  0.3402
    4G     HO2'  129   4.668   5.299   1.835  0.2507 -0.1062  0.2926
    4G      O3'  130   4.813   5.192   1.677 -0.7227  0.1251  0.0772
    5C        P  131   4.942   5.131   1.740 -0.0104 -0.5349  0.1098
    5C      OP1  132   5.046   5.240   1.744  0.2485  0.0806  0.2550
    5C      OP2  133   4.980   5.008   1.666 -0.0418 -0.0376 -0.0207
    5C      O5'  134   4.903   5.094   1.889 -0.2765 -0.6682 -0.2685
    5C      C5'  135   4.885   5.195   1.986 -0.1274  0.4203  0.0827
    5C      H5'  136   4.826   5.270   1.934 -0.4381  0.8637  1.0496
    5C     H5''  137   4.985   5.236   2.004 -0.4921  1.2869  0.1945
    5C      C4'  138   4.827   5.148   2.121 -0.2066 -1.2134 -0.3326
    5C      H4'  139   4.815   5.234   2.187 -1.4707 -0.7493 -1.1294
    5C      O4'  140   4.704   5.080   2.103 -0.0970 -0.5268 -0.0328
    5C      C1'  141   4.689   4.977   2.198  0.2094 -1.0473  0.5033
    5C      H1'  142   4.602   5.010   2.254  0.1497  0.3953 -0.3932
    5C       N1  143   4.671   4.846   2.132  0.7745 -0.6724 -0.2086
    5C       C6  144   4.715   4.815   2.002  0.3977  0.0229 -0.1897
    5C       H6  145   4.772   4.887   1.946  3.1316 -0.7737  1.3769
    5C       C5  146   4.697   4.683   1.957 -0.1273 -0.7459  0.1236
    5C       H5  147   4.721   4.658   1.855 -0.1593  0.2797 -0.1494
    5C       C4  148   4.637   4.591   2.047 -0.5415 -0.9867  0.2467
    5C       N4  149   4.609   4.469   2.010  0.6010  0.6494 -0.4159
    5C      H41  150   4.623   4.439   1.915  0.6945  1.1125 -0.5544
    5C      H42  151   4.557   4.413   2.076 -1.0555  1.6283 -0.8271
    5C       N3  152   4.593   4.625   2.163  0.1111 -0.0333 -0.1903
    5C       C2  153   4.606   4.750   2.212 -0.4485 -0.1739  0.0029
    5C       O2  154   4.568   4.777   2.327 -0.3927  0.3861 -0.5884
    5C      C3'  155   4.912   5.050   2.200 -0.1413  0.5189 -0.2938
    5C      H3'  156   4.947   4.975   2.130 -1.3188  0.5336 -0.9219
    5C      C2'  157   4.808   4.995   2.287  0.1315 -0.8259 -0.5980
    5C      H2'  158   4.843   4.899   2.325  2.0912  0.4176  0.8759
    5C      O2'  159   4.762   5.066   2.402  0.0824 -0.1820  0.1355
    5C     HO2'  160   4.843   5.079   2.452 -0.6264  1.2133  0.9949
    5C      O3'  161   5.018   5.113   2.278  0.0555 -0.2297  0.3662
    6U        P  162   5.154   5.036   2.309  0.2857  0.0133  0.0665
    6U      OP1  163   5.240   5.136   2.383  0.4876 -0.1613  0.1429
    6U      OP2  164   5.204   4.981   2.182 -0.1750 -0.2753  0.3469
    6U      O5'  165   5.128   4.923   2.405 -0.1160 -0.1179  0.2687
    6U      C5'  166   5.107   4.958   2.540  0.5553  0.5231  0.0175
    6U      H5'  167   5.044   5.047   2.548 -0.6675 -0.4601  1.9791
    6U     H5''  168   5.204   4.972   2.589  0.2659  0.3953  0.6373
    6U      C4'  169   5.042   4.845   2.620  0.0764  0.2729  0.1424
    6U      H4'  170   5.008   4.890   2.714  1.2575 -0.2076  0.8203
    6U      O4'  171   4.920   4.793   2.549 -0.9899  0.0993  0.3110
    6U      C1'  172   4.901   4.660   2.592 -1.0741  0.6443  0.6461
    6U      H1'  173   4.804   4.658   2.642 -2.3733 -0.7199 -1.7514
    6U       N1  174   4.893   4.576   2.474 -0.4797 -0.1906 -0.4994
    6U       C6  175   4.937   4.614   2.351  0.2540 -0.0320 -0.0755
    6U       H6  176   4.983   4.710   2.333 -1.6082  0.4683 -2.8692
    6U       C5  177   4.922   4.535   2.243  0.3104 -0.3773 -0.1958
    6U       H5  178   4.954   4.559   2.142 -1.0993  0.5527 -0.4493
    6U       C4  179   4.852   4.411   2.251 -1.2683 -0.2335  0.0942
    6U       O4  180   4.838   4.332   2.160 -0.4963 -0.1684  0.1775
    6U       N3  181   4.792   4.392   2.372 -0.2896 -0.0573 -0.2909
    6U       H3  182   4.736   4.309   2.383  1.0262 -1.2419 -1.9529
    6U       C2  183   4.817   4.457   2.484 -0.1760 -0.1712 -0.4889
    6U       O2  184   4.767   4.417   2.589 -0.2727 -0.2451 -0.4393
    6U      C3'  185   5.127   4.718   2.645 -0.1506  0.1159 -0.5892
    6U      H3'  186   5.170   4.700   2.547  0.2319 -0.8087 -0.2667
    6U      C2'  187   5.019   4.616   2.676  0.4024  0.4472  0.1763
    6U      H2'  188   5.052   4.514   2.655 -2.6910 -0.4231 -0.9738
    6U      O2'  189   4.979   4.630   2.811  0.5414 -0.5952  0.3253
    6U     HO2'  190   4.932   4.550   2.835 -1.5477  0.0115 -1.4312
    6U      O3'  191   5.232   4.729   2.744  0.6374  0.0169 -0.4675
    7U        P  192   5.367   4.660   2.720 -0.2534 -0.0053  0.2033
    7U      OP1  193   5.444   4.686   2.841 -0.1013 -0.0555  0.1446
    7U      OP2  194   5.422   4.708   2.590 -0.0050  0.2474  0.4720
    7U      O5'  195   5.327   4.511   2.708  0.1699  0.4934 -0.0785
    7U      C5'  196   5.279   4.444   2.828  0.6570  0.6513  0.7853
    7U      H5'  197   5.189   4.489   2.870 -1.1549 -0.8866 -1.2379
    7U     H5''  198   5.355   4.448   2.906 -0.5879 -1.2677  2.2073
    7U      C4'  199   5.231   4.301   2.795  1.2007  0.2157  0.3889
    7U      H4'  200   5.196   4.243   2.880  2.3276 -0.7575  0.2145
    7U      O4'  201   5.120   4.302   2.704  0.1947 -0.4368 -0.2272
    7U      C1'  202   5.130   4.193   2.613  0.0499  0.0931 -0.2205
    7U      H1'  203   5.039   4.133   2.614 -1.7269  2.6105 -0.0742
    7U       N1  204   5.146   4.230   2.466 -0.4150 -0.0657  0.1186
    7U       C6  205   5.206   4.348   2.421  0.3609 -1.1052  0.0311
    7U       H6  206   5.245   4.417   2.494 -0.5417 -0.0796 -0.4270
    7U       C5  207   5.212   4.380   2.289  0.5261 -0.5047  0.3050
    7U       H5  208   5.273   4.467   2.274 -0.5031  0.8745  3.2611
    7U       C4  209   5.161   4.297   2.181  0.3325 -0.1292 -0.2466
    7U       O4  210   5.154   4.326   2.059 -0.0037  0.1717 -0.7973
    7U       N3  211   5.104   4.180   2.237  0.9501  0.1397  0.0295
    7U       H3  212   5.053   4.126   2.169  0.3367 -1.5486  1.7271
    7U       C2  213   5.095   4.139   2.374  0.1483 -0.2526 -0.3852
    7U       O2  214   5.048   4.029   2.406  0.0555  0.5551  0.6072
    7U      C3'  215   5.343   4.215   2.730  0.4410 -0.8540 -1.0946
    7U      H3'  216   5.392   4.271   2.651  2.2882 -0.5834  0.1749
    7U      C2'  217   5.256   4.114   2.656  0.5167  0.1009  0.7184
    7U      H2'  218   5.314   4.073   2.573  1.0412  0.1422  1.0615
    7U      O2'  219   5.214   4.013   2.742 -0.7430 -0.4034  0.0257
    7U     HO2'  220   5.162   3.949   2.693  0.7875 -1.2717 -0.5394
    7U      O3'  221   5.438   4.179   2.828  0.2144  0.2088  0.0039
    8U        P  222   5.579   4.113   2.786 -0.6695  0.1310  0.0472
    8U      OP1  223   5.692   4.175   2.861  0.1244 -0.3825 -0.3736
    8U      OP2  224   5.587   4.117   2.639  0.0427 -0.4823  0.0444
    8U      O5'  225   5.572   3.954   2.826 -0.2109  0.1998  0.5107
    8U      C5'  226   5.514   3.859   2.748  0.1847 -0.1770  0.6687
    8U      H5'  227   5.558   3.868   2.649 -0.4072 -0.9659  0.3213
    8U     H5''  228   5.408   3.885   2.748 -0.3829 -2.1421 -1.6695
    8U      C4'  229   5.526   3.707   2.796  0.9775  0.8615  0.2813
    8U      H4'  230   5.621   3.669   2.759  1.0774 -0.4363  1.7892
    8U      O4'  231   5.514   3.696   2.940 -0.1308  0.0469  0.1962
    8U      C1'  232   5.391   3.644   2.976  0.3423  0.1847  0.5429
    8U      H1'  233   5.419   3.546   3.013 -0.3368  0.3412  1.4876
    8U       N1  234   5.318   3.731   3.076 -0.2313  0.4887  0.7289
    8U       C6  235   5.312   3.871   3.056 -0.0585 -0.8435 -0.5835
    8U       H6  236   5.365   3.906   2.969 -0.0716 -1.3085 -0.7818
    8U       C5  237   5.230   3.952   3.137 -0.6992 -0.3832  0.5823
    8U       H5  238   5.232   4.059   3.128  0.6032 -0.4460 -0.1457
    8U       C4  239   5.150   3.894   3.243  0.4890 -0.3616 -0.8525
    8U       O4  240   5.068   3.955   3.317 -0.4536 -0.2228 -0.1303
    8U       N3  241   5.166   3.756   3.259 -0.0769  0.6026  0.2721
    8U       H3  242   5.127   3.710   3.339  0.7059 -1.0293 -0.2477
    8U       C2  243   5.243   3.679   3.178  0.4915 -0.1225  0.0626
    8U       O2  244   5.241   3.562   3.208 -0.4135 -0.1032 -0.2004
    8U      C3'  245   5.415   3.619   2.740 -0.0528 -0.2543 -0.4445
    8U      H3'  246   5.375   3.647   2.642 -0.0702 -0.8239 -0.6032
    8U      C2'  247   5.310   3.636   2.845  0.0060  0.4606 -0.6338
    8U      H2'  248   5.257   3.730   2.827  0.7072  0.9979  0.0823
    8U      O2'  249   5.216   3.532   2.851 -0.4529  0.5447  0.1249
    8U     HO2'  250   5.124   3.557   2.850 -0.8648 -0.8278  0.4200
    8U      O3'  251   5.458   3.478   2.737  0.4248 -0.3562 -0.2319
    9C        P  252   5.525   3.414   2.619  0.1106 -0.1969  0.5409
    9C      OP1  253   5.555   3.272   2.645  0.5896 -0.1718  0.4896
    9C      OP2  254   5.632   3.509   2.589 -0.2203 -0.2772 -0.1015
    9C      O5'  255   5.418   3.419   2.500 -0.0399  0.7026 -0.1361
    9C      C5'  256   5.300   3.350   2.490 -1.2411 -0.4933  0.2188
    9C      H5'  257   5.256   3.387   2.583 -1.7356  0.6114 -0.4264
    9C     H5''  258   5.319   3.243   2.485 -0.2357 -0.5573  3.5257
    9C      C4'  259   5.214   3.414   2.375 -1.0051 -0.2037  0.4776
    9C      H4'  260   5.111   3.378   2.388 -0.6771 -1.3762 -0.0288
    9C      O4'  261   5.207   3.554   2.390 -0.4251 -0.0793  0.5156
    9C      C1'  262   5.236   3.611   2.264 -0.4420  0.0563 -0.2408
    9C      H1'  263   5.140   3.606   2.212  0.3244 -0.3558 -1.6578
    9C       N1  264   5.287   3.752   2.285 -0.2960  0.4828 -0.0566
    9C       C6  265   5.392   3.767   2.372 -0.1720  0.5739  0.3795
    9C       H6  266   5.427   3.681   2.427 -0.3508 -0.2003 -0.6981
    9C       C5  267   5.464   3.886   2.378 -0.0055  0.7194 -0.2255
    9C       H5  268   5.560   3.886   2.427  0.0332  2.1797 -0.2465
    9C       C4  269   5.412   3.988   2.296  0.4210 -0.0063 -0.3148
    9C       N4  270   5.458   4.110   2.305 -0.3918  0.3448 -0.1263
    9C      H41  271   5.425   4.182   2.242 -2.7737 -0.3761  0.1651
    9C      H42  272   5.531   4.127   2.372  2.6981 -2.2356 -2.5439
    9C       N3  273   5.295   3.979   2.229 -0.9295  0.0001 -0.0625
    9C       C2  274   5.228   3.857   2.229  0.4937 -1.1931  0.1270
    9C       O2  275   5.121   3.856   2.167 -0.7642 -0.0502 -0.3186
    9C      C3'  276   5.275   3.386   2.234  0.6405 -0.1406 -0.2217
    9C      H3'  277   5.342   3.300   2.229 -0.3246 -0.8637 -1.4753
    9C      C2'  278   5.334   3.521   2.202 -1.0470  0.1411  0.3204
    9C      H2'  279   5.430   3.522   2.253 -0.9809 -2.4679  0.3769
    9C      O2'  280   5.348   3.542   2.058  0.0219 -0.1835 -0.7278
    9C     HO2'  281   5.336   3.452   2.028 -0.7671 -1.1652  2.1843
    9C      O3'  282   5.165   3.363   2.145 -0.0457  0.1904 -0.1546
   10G        P  283   5.116   3.218   2.106  0.0866 -0.3346 -0.0555
   10G      OP1  284   5.236   3.136   2.101  0.2394 -0.2125 -0.3948
   10G      OP2  285   5.034   3.225   1.983 -0.2219  0.3095 -0.5899
   10G      O5'  286   5.027   3.174   2.228 -0.1527  0.3866 -0.3821
   10G      C5'  287   4.903   3.233   2.255  0.2634  0.2018  0.2278
   10G      H5'  288   4.836   3.198   2.177  0.5943  1.7603 -0.8093
   10G     H5''  289   4.913   3.342   2.257  0.7698  0.1605 -0.0689
   10G      C4'  290   4.839   3.195   2.395 -0.2392  0.2434 -0.0326
   10G      H4'  291   4.817   3.088   2.401  0.1437  0.2247  1.9305
   10G      O4'  292   4.931   3.230   2.498  0.3905 -0.0042 -0.5540
   10G      C1'  293   4.862   3.270   2.608  0.2594 -0.2107 -0.3265
   10G      H1'  294   4.891   3.195   2.681  1.8505 -1.3338 -2.0089
   10G       N9  295   4.894   3.403   2.666  0.2768  0.8185  0.5179
   10G       C8  296   4.909   3.442   2.795  0.0870  0.8739 -0.2383
   10G       H8  297   4.894   3.367   2.872  0.5594  1.1324  0.1076
   10G       N7  298   4.947   3.565   2.809 -0.2206 -0.4954  0.1263
   10G       C5  299   4.961   3.614   2.674 -0.7234 -0.2622  0.5347
   10G       C6  300   4.982   3.744   2.632 -0.0742 -0.5556  0.7497
   10G       O6  301   5.016   3.845   2.693 -0.3145 -0.4400 -0.1953
   10G       N1  302   4.963   3.762   2.496 -0.4307 -0.0003  0.2529
   10G       H1  303   4.959   3.856   2.459 -1.5854 -0.7781 -1.7684
   10G       C2  304   4.918   3.667   2.413 -0.2146 -0.0711  0.2541
   10G       N2  305   4.912   3.687   2.284 -0.3277  0.5393  0.5240
   10G      H21  306   4.898   3.607   2.224  0.8382 -1.0064  2.2054
   10G      H22  307   4.920   3.776   2.235  1.3191  0.1844  0.0599
   10G       N3  308   4.895   3.543   2.453 -0.3264 -0.5809  0.3018
   10G       C4  309   4.918   3.517   2.588 -0.1082 -0.2986  0.4706
   10G      C3'  310   4.711   3.273   2.426  0.4371 -0.0445  0.0594
   10G      H3'  311   4.725   3.374   2.388 -1.4633  0.6820  1.1163
   10G      C2'  312   4.715   3.260   2.582  0.6538 -0.1134  0.1138
   10G      H2'  313   4.651   3.334   2.631 -0.4228 -0.2742 -1.0216
   10G      O2'  314   4.682   3.126   2.629 -0.2768 -0.1717 -0.4405
   10G     HO2'  315   4.611   3.087   2.576  1.7029 -1.0216 -2.6445
   10G      O3'  316   4.605   3.205   2.367 -0.4434 -0.0503  0.3651
   11A        P  317   4.481   3.282   2.296 -0.1618 -0.2869 -0.4484
   11A      OP1  318   4.368   3.189   2.301  0.0643 -0.3712  0.6254
   11A      OP2  319   4.520   3.354   2.165  0.1786 -0.4607  0.1188
   11A      O5'  320   4.439   3.399   2.398  0.0632  0.6409  0.5805
   11A      C5'  321   4.390   3.372   2.528  0.5511  0.3801 -0.5824
   11A      H5'  322   4.439   3.285   2.571 -0.4490  0.4741  0.8124
   11A     H5''  323   4.283   3.350   2.522  0.4452  1.0371 -1.2737
   11A      C4'  324   4.419   3.501   2.616  0.3747  0.8394 -0.9651
   11A      H4'  325   4.405   3.476   2.721 -0.9697  1.4346 -0.9819
   11A      O4'  326   4.549   3.545   2.606  0.4514  0.3833  0.0159
   11A      C1'  327   4.549   3.686   2.608 -0.5691 -0.3166  0.4096
   11A      H1'  328   4.633   3.714   2.672  1.0574 -2.6281 -0.5682
   11A       N9  329   4.583   3.748   2.478  0.0581 -0.2841 -0.0626
   11A       C8  330   4.587   3.700   2.349  1.0974  0.7546 -0.2048
   11A       H8  331   4.562   3.597   2.325 -2.5126  1.2432  0.8461
   11A       N7  332   4.613   3.795   2.256  0.0910 -0.3654  0.2020
   11A       C5  333   4.641   3.907   2.334  0.1685  0.0491 -0.7790
   11A       C6  334   4.689   4.036   2.310  0.8915 -0.4890  0.2430
   11A       N6  335   4.712   4.080   2.189  0.5576 -0.6240  0.3272
   11A      H61  336   4.748   4.172   2.165 -1.2366  0.1133  0.2800
   11A      H62  337   4.680   4.018   2.116 -0.7680 -2.4922  2.3567
   11A       N1  338   4.701   4.118   2.409 -0.8364 -0.3237 -0.1996
   11A       C2  339   4.683   4.080   2.536  0.0543  0.6869 -0.4673
   11A       H2  340   4.699   4.157   2.610  1.1451  0.8313 -0.8214
   11A       N3  341   4.653   3.958   2.577 -0.8312  0.3284 -0.2712
   11A       C4  342   4.630   3.877   2.464 -0.4786  0.0928  0.0665
   11A      C3'  343   4.325   3.614   2.590  0.2231 -0.7203 -0.1360
   11A      H3'  344   4.316   3.637   2.484  0.2474 -2.7791 -0.6414
   11A      C2'  345   4.414   3.726   2.649 -0.1655 -0.7474  0.1333
   11A      H2'  346   4.394   3.822   2.602 -1.9867 -2.4180 -2.7487
   11A      O2'  347   4.427   3.731   2.797  0.5653  0.2105 -0.2893
   11A     HO2'  348   4.341   3.728   2.839  0.8980  1.0233  0.4707
   11A      O3'  349   4.204   3.604   2.654  0.1410  0.4742 -0.2096
   12G        P  350   4.065   3.671   2.604  0.0731  0.6563 -0.0125
   12G      OP1  351   3.953   3.609   2.683 -0.2824  0.4086 -0.4463
   12G      OP2  352   4.066   3.663   2.456 -0.2637 -0.1340 -0.1305
   12G      O5'  353   4.094   3.818   2.646 -0.0695  0.4910 -0.7155
   12G      C5'  354   4.084   3.853   2.781 -0.6077 -0.1606  0.1239
   12G      H5'  355   4.159   3.791   2.832  1.7693  1.1554 -1.5667
   12G     H5''  356   3.988   3.841   2.831 -0.4181  0.0438  0.5357
   12G      C4'  357   4.142   3.992   2.804 -0.1820  0.8575  0.3325
   12G      H4'  358   4.150   4.016   2.911  1.4686 -1.3502  0.7574
   12G      O4'  359   4.267   4.001   2.745  0.4833 -0.0424  0.1076
   12G      C1'  360   4.285   4.133   2.713 -0.4086  0.6363  0.3127
   12G      H1'  361   4.364   4.183   2.769  0.6715  1.3982 -1.7785
   12G       N9  362   4.302   4.141   2.564  0.2893  0.1965  0.2988
   12G       C8  363   4.293   4.042   2.470  0.4491  0.1438  0.9223
   12G       H8  364   4.252   3.944   2.486 -0.4831  0.5778  1.2696
   12G       N7  365   4.322   4.076   2.348 -0.4048  1.1676 -0.2005
   12G       C5  366   4.372   4.203   2.370 -0.1595  0.2880 -0.1818
   12G       C6  367   4.430   4.299   2.273 -0.0730  0.0443  0.3501
   12G       O6  368   4.464   4.288   2.156 -0.4426  0.3759  0.1559
   12G       N1  369   4.447   4.423   2.322  0.0126  0.1118  0.2232
   12G       H1  370   4.487   4.494   2.261  3.4451 -1.7126  0.0955
   12G       C2  371   4.442   4.449   2.456  0.0980  0.7156  0.1049
   12G       N2  372   4.471   4.572   2.501  0.8530  0.4279 -0.6764
   12G      H21  373   4.518   4.634   2.437  1.5244  1.7709  1.0274
   12G      H22  374   4.468   4.595   2.600  1.3929 -2.7338  0.2142
   12G       N3  375   4.372   4.378   2.540  0.2938  0.1094 -0.2789
   12G       C4  376   4.342   4.252   2.494  0.3938 -0.6671 -0.0310
   12G      C3'  377   4.063   4.105   2.741  0.6141  0.2964  0.1071
   12G      H3'  378   4.039   4.074   2.640 -1.6005 -0.2456  0.7472
   12G      C2'  379   4.165   4.214   2.758  0.4641  0.4026 -0.2635
   12G      H2'  380   4.153   4.292   2.682 -0.1783 -0.1492 -0.7490
   12G      O2'  381   4.192   4.258   2.894  0.5874 -0.1748  0.3522
   12G     HO2'  382   4.109   4.249   2.942  1.4358 -1.1614  1.7106
   12G      O3'  383   3.950   4.134   2.822 -0.1091 -0.1538  0.4445
   13C        P  384   3.823   4.206   2.763  0.2984 -0.1850  0.0589
   13C      OP1  385   3.720   4.225   2.869 -0.3391  0.2979  0.7247
   13C      OP2  386   3.788   4.147   2.629 -0.1429  0.1911  0.1085
   13C      O5'  387   3.875   4.354   2.734 -0.4058  0.6065  0.3701
   13C      C5'  388   3.912   4.444   2.839 -0.4907  0.3839  0.0946
   13C      H5'  389   3.995   4.401   2.894  0.7738 -0.5425 -2.4155
   13C     H5''  390   3.825   4.469   2.901 -1.0405 -0.4558 -0.3174
   13C      C4'  391   3.967   4.578   2.774  0.1325  0.2674  0.4979
   13C      H4'  392   3.990   4.651   2.851  0.0445  0.7309  0.0873
   13C      O4'  393   4.083   4.555   2.700 -0.1798  0.4514  0.3124
   13C      C1'  394   4.096   4.644   2.597  0.1415 -0.3530  0.0878
   13C      H1'  395   4.187   4.700   2.622  0.5350  0.1351 -2.1730
   13C       N1  396   4.112   4.571   2.467 -0.1749 -0.2791 -0.8578
   13C       C6  397   4.060   4.446   2.445 -0.2174 -0.0032 -0.0701
   13C       H6  398   4.001   4.400   2.524  1.2842 -0.6422  0.7157
   13C       C5  399   4.066   4.384   2.321  0.0130  0.5894  1.1698
   13C       H5  400   4.017   4.288   2.313 -0.7346  0.6906  3.5709
   13C       C4  401   4.126   4.451   2.220  0.2029  0.4104  0.0959
   13C       N4  402   4.160   4.397   2.107 -0.4213 -0.1342  0.1462
   13C      H41  403   4.151   4.297   2.097 -0.1731 -0.1194 -0.2454
   13C      H42  404   4.194   4.464   2.039  0.5786  0.0978  0.8420
   13C       N3  405   4.167   4.578   2.238  0.1570  0.1539  0.1656
   13C       C2  406   4.165   4.640   2.359 -0.5808  0.3820 -0.4387
   13C       O2  407   4.212   4.755   2.367 -0.3778 -0.1224 -0.3388
   13C      C3'  408   3.869   4.650   2.681 -0.6949 -0.2477  0.4407
   13C      H3'  409   3.819   4.574   2.621  0.1683 -0.0445 -0.5827
   13C      C2'  410   3.976   4.737   2.598  0.0413  0.2438 -0.2462
   13C      H2'  411   3.941   4.762   2.498 -0.8232 -1.1300 -0.3179
   13C      O2'  412   4.013   4.862   2.667 -0.4862 -0.4650  0.2654
   13C     HO2'  413   4.033   4.930   2.603  1.1094 -1.5928 -0.5051
   13C      O3'  414   3.766   4.726   2.747  0.1013  0.7492 -0.2332
   14G        P  415   3.627   4.772   2.667  0.0407 -0.3005 -0.2962
   14G      OP1  416   3.534   4.819   2.774 -0.1455 -0.2680 -0.3222
   14G      OP2  417   3.584   4.656   2.593  0.1285  0.5270 -0.1046
   14G      O5'  418   3.661   4.886   2.556 -0.3000  0.3070 -0.2396
   14G      C5'  419   3.694   5.014   2.585 -0.6902  0.4461 -0.5581
   14G      H5'  420   3.761   5.017   2.671  1.3347  1.6346 -2.0884
   14G     H5''  421   3.598   5.061   2.605 -0.7646 -0.2334  0.8438
   14G      C4'  422   3.775   5.080   2.475  1.1080  0.1089 -0.4176
   14G      H4'  423   3.795   5.178   2.520  3.3780 -0.4863  0.0138
   14G      O4'  424   3.896   5.005   2.437  0.0289  0.0535  0.6702
   14G      C1'  425   3.920   5.018   2.293 -0.4725 -0.1767  0.1198
   14G      H1'  426   4.024   5.050   2.284  0.1251 -1.5590  1.6862
   14G       N9  427   3.900   4.898   2.207 -0.2923  0.2027  0.2659
   14G       C8  428   3.832   4.781   2.234 -0.3909 -0.4222  0.8929
   14G       H8  429   3.783   4.762   2.328 -2.1707  1.6283  0.4489
   14G       N7  430   3.865   4.683   2.150 -0.4174 -0.4985 -0.7416
   14G       C5  431   3.925   4.749   2.046 -0.2329  0.2316  0.0886
   14G       C6  432   3.970   4.700   1.916 -0.6519 -0.8002  0.1305
   14G       O6  433   3.957   4.592   1.860 -0.1507 -0.0040  0.0773
   14G       N1  434   4.015   4.804   1.838  0.6575 -0.0401 -0.2019
   14G       H1  435   4.018   4.772   1.742  2.4757  1.8432 -0.8293
   14G       C2  436   4.021   4.935   1.875  0.4358  0.3627  0.3798
   14G       N2  437   4.052   5.014   1.784 -0.4467 -0.4415  0.8015
   14G      H21  438   4.082   4.976   1.696  2.6434  0.5443  1.3241
   14G      H22  439   4.065   5.113   1.800 -0.4459  0.0508 -1.7778
   14G       N3  440   3.988   4.982   1.994  0.7846  0.3898 -0.5702
   14G       C4  441   3.939   4.882   2.078 -0.4242 -0.0116  0.3660
   14G      C3'  442   3.698   5.104   2.346  0.1756 -0.1816 -0.0321
   14G      H3'  443   3.641   5.016   2.318  1.7674 -0.1136 -4.2853
   14G      C2'  444   3.816   5.120   2.244  0.3627 -0.3155  0.2183
   14G      H2'  445   3.783   5.097   2.143 -0.1239  0.0678  0.2864
   14G      O2'  446   3.867   5.253   2.254  0.2416  0.1149 -0.1406
   14G     HO2'  447   3.804   5.315   2.292  1.0743 -0.7526  2.9278
   14G      O3'  448   3.619   5.224   2.362 -0.4609 -0.4288  0.4230
   15C        P  449   3.488   5.229   2.267  0.3141  0.1054 -0.1920
   15C      OP1  450   3.417   5.353   2.308 -0.1937 -0.0671 -0.0543
   15C      OP2  451   3.415   5.101   2.280  0.4145 -0.1783 -0.5712
   15C      O5'  452   3.535   5.245   2.110 -0.7115 -0.7269  0.0817
   15C      C5'  453   3.596   5.364   2.065 -0.0779  0.8168 -0.3226
   15C      H5'  454   3.670   5.389   2.141  0.8808  1.7880 -1.5524
   15C     H5''  455   3.522   5.444   2.061 -0.8180  0.1105 -1.2676
   15C      C4'  456   3.653   5.355   1.925  0.0435 -0.2639  0.1738
   15C      H4'  457   3.694   5.449   1.889  0.5112 -1.1862 -1.8102
   15C      O4'  458   3.749   5.253   1.910 -0.7190  0.4162 -0.3029
   15C      C1'  459   3.729   5.194   1.780 -0.1565  0.0244 -0.2403
   15C      H1'  460   3.827   5.201   1.734  1.2664 -1.6520  2.3028
   15C       N1  461   3.692   5.050   1.787 -0.8388 -0.3817 -0.4575
   15C       C6  462   3.641   4.995   1.901  0.5247 -0.6420  0.1155
   15C       H6  463   3.629   5.059   1.988  2.4987  0.7181 -0.5423
   15C       C5  464   3.626   4.865   1.914  0.0736  0.0750 -0.0971
   15C       H5  465   3.593   4.821   2.007 -1.0849  3.0196  0.9903
   15C       C4  466   3.655   4.785   1.806  0.1472 -0.4557 -0.3009
   15C       N4  467   3.657   4.658   1.821 -0.1361  0.0494  0.9202
   15C      H41  468   3.635   4.618   1.911  1.6984 -2.9375  0.1966
   15C      H42  469   3.699   4.597   1.753  0.6556 -0.3673  1.7656
   15C       N3  470   3.697   4.839   1.694 -0.2607  0.0275 -0.0214
   15C       C2  471   3.726   4.971   1.683  0.1834  0.3315 -0.0173
   15C       O2  472   3.782   5.011   1.578  0.0547  0.0331 -0.0978
   15C      C3'  473   3.544   5.331   1.821  0.8248 -0.2173 -0.0324
   15C      H3'  474   3.473   5.255   1.853 -1.1155  0.8980 -1.5204
   15C      C2'  475   3.621   5.276   1.708  0.5142  0.2041  0.0305
   15C      H2'  476   3.564   5.218   1.636  0.6190 -0.3483  0.3863
   15C      O2'  477   3.691   5.380   1.641  0.5147 -0.0420 -0.0444
   15C     HO2'  478   3.635   5.458   1.638  1.8469  0.9277 -1.8690
   15C      O3'  479   3.480   5.450   1.781  0.0484  0.0776  0.4380
   16U3       P  480   3.326   5.437   1.731 -0.1438  0.4224  0.0666
   16U3     OP1  481   3.275   5.580   1.715 -0.2837  0.5793  0.3752
   16U3     OP2  482   3.244   5.346   1.820 -0.2950 -0.2958  0.3405
   16U3     O5'  483   3.326   5.362   1.592 -0.3850  0.6224 -0.2050
   16U3     C5'  484   3.370   5.434   1.477 -0.0196 -0.2034  0.6197
   16U3     H5'  485   3.461   5.493   1.491 -0.0817  0.4603 -1.4474
   16U3    H5''  486   3.300   5.513   1.450  0.8066  0.6106  0.7622
   16U3     C4'  487   3.393   5.344   1.350 -0.1172  0.2561 -0.7752
   16U3     H4'  488   3.428   5.397   1.262  2.2126  0.5028  0.2323
   16U3     O4'  489   3.484   5.233   1.384 -0.1318  0.4806 -0.1132
   16U3     C1'  490   3.440   5.115   1.308 -0.0665 -0.2731  0.5559
   16U3     H1'  491   3.506   5.099   1.223 -2.0383 -1.3140 -0.8476
   16U3      N1  492   3.442   4.994   1.394  0.6785  0.3395  0.1080
   16U3      C6  493   3.390   4.993   1.523 -0.1215  0.0906 -0.2740
   16U3      H6  494   3.344   5.080   1.569 -1.9057 -1.5278  1.1463
   16U3      C5  495   3.383   4.876   1.595 -0.0604 -0.3445  0.3173
   16U3      H5  496   3.349   4.873   1.698  2.2184 -0.9656  1.1040
   16U3      C4  497   3.435   4.753   1.541 -0.6802 -0.0372 -0.1355
   16U3      O4  498   3.441   4.642   1.608  0.1468 -0.8498 -0.3476
   16U3      N3  499   3.469   4.758   1.410  0.1140 -0.1944 -0.5055
   16U3      H3  500   3.509   4.671   1.378  0.0259 -1.5188  2.6327
   16U3      C2  501   3.475   4.874   1.331  0.1157 -0.3696  0.1733
   16U3      O2  502   3.497   4.871   1.212 -0.7645 -0.8222 -0.0169
   16U3     C3'  503   3.260   5.266   1.323  0.0511 -0.5558 -0.6046
   16U3     H3'  504   3.228   5.230   1.421  0.4854  0.7919  0.0609
   16U3     C2'  505   3.305   5.147   1.241 -0.1029 -0.4618 -0.5631
   16U3     H2'  506   3.238   5.062   1.255 -1.2059  0.3095 -1.0515
   16U3     O2'  507   3.333   5.178   1.104 -0.4735 -0.6028 -0.2965
   16U3    HO2'  508   3.258   5.175   1.043  1.0351  3.2956 -2.7411
   16U3     O3'  509   3.172   5.345   1.257  0.1859  0.1427 -0.5861
   16U3    HO3'  510   3.117   5.281   1.212 -0.5479  0.1057  0.3496
   17SOL      O  511   0.669   2.936   2.249  0.9206  0.1343 -0.2453
   17SOL     H1  512   0.715   2.921   2.332 -0.5737 -2.5503  0.2277
   17SOL     H2  513   0.579   2.956   2.276  0.6748  0.3541 -1.2097
   17SOL    EPW  514   0.664   2.937   2.261  0.7350 -0.1287 -0.2977
   18SOL      O  515   2.205   4.756   1.467 -0.6503  0.2752  0.4571
   18SOL     H1  516   2.286   4.711   1.439 -0.7771 -0.1088  0.6952
   18SOL     H2  517   2.135   4.706   1.426 -0.7604  0.7990 -0.0076
   18SOL    EPW  518   2.206   4.746   1.459 -0.6756  0.2901  0.4329
   19SOL      O  519   3.492   0.742   4.120 -0.1201  0.5275 -0.7509
   19SOL     H1  520   3.433   0.813   4.095 -2.2443  0.5002  3.3195
   19SOL     H2  521   3.548   0.781   4.188 -0.3293 -1.2400  0.4912
   19SOL    EPW  522   3.492   0.754   4.125 -0.3690  0.3360 -0.1841
   20SOL      O  523   1.608   4.235   3.193  0.1167  0.3772  0.3053
   20SOL     H1  524   1.623   4.143   3.171  0.8040  0.3155  1.0046
   20SOL     H2  525   1.513   4.241   3.204 -0.3044  0.3994 -2.5429
   20SOL    EPW  526   1.599   4.226   3.192  0.1451  0.3730  0.0760
   21SOL      O  527   5.448   0.897   2.289 -0.0055 -0.0704  0.0894
   21SOL     H1  528   5.448   0.980   2.242 -0.5152  0.1715  0.5158
   21SOL     H2  529   5.540   0.882   2.311 -0.0420  0.9308  0.9768
   21SOL    EPW  530   5.458   0.904   2.286 -0.0638  0.0622  0.2295
   22SOL      O  531   5.641   4.422   3.206  0.4529  0.0158  0.3799
   22SOL     H1  532   5.546   4.411   3.218  0.7196 -1.3730  1.4694
   22SOL     H2  533   5.650   4.509   3.169 -1.2724  0.0910  0.0329
   22SOL    EPW  534   5.632   4.430   3.203  0.2973 -0.1244  0.4591
   23SOL      O  535   0.795   3.034   3.018 -0.2101  0.2331  0.1830
   23SOL     H1  536   0.808   3.019   2.924 -1.7375 -0.2666  0.0156
   23SOL     H2  537   0.866   2.985   3.060  0.0233 -0.1961 -0.6902
   23SOL    EPW  538   0.804   3.027   3.012 -0.3482  0.1340  0.0720
   24SOL      O  539   0.528   1.856   1.605 -0.3632 -0.2196 -0.5607
   24SOL     H1  540   0.580   1.794   1.555  1.0892  1.6414 -1.4876
   24SOL     H2  541   0.475   1.901   1.539  0.2238  1.0176 -0.2166
   24SOL    EPW  542   0.528   1.854   1.593 -0.1456  0.1109 -0.6229
   25SOL      O  543   2.873   2.034   0.871  0.7942 -0.3743 -0.1234
   25SOL     H1  544   2.928   2.062   0.797  0.6783  2.8585  0.8596
   25SOL     H2  545   2.797   1.995   0.829  0.5136  1.7648 -1.8432
   25SOL    EPW  546   2.871   2.033   0.858  0.7519  0.1988 -0.2020
   26SOL      O  547   2.001   3.621   0.226 -0.3496  0.0189  0.4240
   26SOL     H1  548   2.094   3.642   0.235 -0.2530 -0.9844  2.5880
   26SOL     H2  549   1.957   3.706   0.227  0.5048  0.4753 -0.0751
   26SOL    EPW  550   2.006   3.633   0.227 -0.2482 -0.0395  0.6016
   27SOL      O  551   0.731   2.204   1.371  0.2105 -0.2726  0.6649
   27SOL     H1  552   0.712   2.226   1.280 -2.4988  0.9611  1.4046
   27SOL     H2  553   0.648   2.169   1.404  1.0310 -0.3940  2.7460
   27SOL    EPW  554   0.720   2.203   1.365  0.0090 -0.1540  0.9658
   28SOL      O  555   4.716   0.462   0.405  0.0898 -0.0178 -0.2918
   28SOL     H1  556   4.640   0.405   0.398  0.4898 -0.5145 -0.7146
   28SOL     H2  557   4.750   0.446   0.493  1.1635 -1.7120 -0.9565
   28SOL    EPW  558   4.712   0.454   0.414  0.2470 -0.2515 -0.4078
   29SOL      O  559   2.090   2.505   3.331  0.4069 -0.0749  0.4158
   29SOL     H1  560   2.030   2.533   3.262  0.0011  0.2151  0.8868
   29SOL     H2  561   2.137   2.431   3.292 -1.3994 -1.3783  0.6084
   29SOL    EPW  562   2.089   2.500   3.319  0.1710 -0.1830  0.4866
   30SOL      O  563   4.976   3.248   3.685  0.3172  0.5018 -0.9011
   30SOL     H1  564   4.967   3.343   3.686 -0.2802  0.4656 -1.7511
   30SOL     H2  565   4.921   3.218   3.758  1.3587  0.8521  0.0562
   30SOL    EPW  566   4.969   3.255   3.693  0.3646  0.5353 -0.8896
   31SOL      O  567   3.809   5.858   3.061  0.8350 -0.2281 -0.1962
   31SOL     H1  568   3.732   5.914   3.058  1.0139 -0.0046 -0.7565
   31SOL     H2  569   3.858   5.889   3.137  1.3213  0.9123 -0.9526
   31SOL    EPW  570   3.806   5.867   3.069  0.9059 -0.0826 -0.3366
   32SOL      O  571   4.570   0.079   2.465  0.2905 -0.6723  0.5436
   32SOL     H1  572   4.560  -0.016   2.468 -0.9651 -0.5396  1.8096
   32SOL     H2  573   4.552   0.102   2.374  1.2248 -1.6816  0.0751
   32SOL    EPW  574   4.567   0.071   2.456  0.2562 -0.7658  0.6286
   33SOL      O  575   3.242   2.658   2.626  0.3821  0.1568 -0.5029
   33SOL     H1  576   3.280   2.684   2.710  1.0862 -0.7724 -0.5203
   33SOL     H2  577   3.260   2.564   2.620 -1.7001 -0.2794 -0.6413
   33SOL    EPW  578   3.248   2.650   2.635  0.2351  0.0112 -0.5196
   34SOL      O  579   2.529   5.662   0.764 -0.3069 -0.0132  0.0621
   34SOL     H1  580   2.595   5.648   0.831 -1.2123 -1.9811  0.6240
   34SOL     H2  581   2.572   5.717   0.698  1.5709 -0.4989  0.8273
   34SOL    EPW  582   2.540   5.666   0.764 -0.2031 -0.2749  0.2036
   35SOL      O  583   3.297   1.520   0.158 -0.3329  0.0108 -0.1535
   35SOL     H1  584   3.309   1.443   0.102  0.7031 -1.2732  1.7163
   35SOL     H2  585   3.209   1.509   0.195 -0.6950  0.4283 -0.8765
   35SOL    EPW  586   3.289   1.511   0.156 -0.2610 -0.0816 -0.0312
   36SOL      O  587   2.942   1.750   2.764 -0.0850 -0.3027 -0.1952
   36SOL     H1  588   2.957   1.841   2.740 -0.2790 -0.4848 -1.0124
   36SOL     H2  589   2.881   1.717   2.698 -1.1225 -0.6391  0.8858
   36SOL    EPW  590   2.937   1.756   2.755 -0.2164 -0.3580 -0.1670
   37SOL      O  591   3.882   3.531   3.764  0.2037  0.2243 -0.3829
   37SOL     H1  592   3.929   3.614   3.756 -0.4285  0.5089 -1.3965
   37SOL     H2  593   3.798   3.555   3.802 -0.3402  0.1983 -1.5430
   37SOL    EPW  594   3.878   3.543   3.767  0.0783  0.2519 -0.6148
   38SOL      O  595   0.084   3.007   0.991  0.0912 -0.0664 -0.5561
   38SOL     H1  596   0.030   3.076   1.029 -0.3011 -0.4486 -0.4112
   38SOL     H2  597   0.126   3.048   0.916 -0.6112  0.1648 -0.8312
   38SOL    EPW  598   0.083   3.019   0.987 -0.0256 -0.0825 -0.5700
   39SOL      O  599   5.289   0.772   2.494 -0.2464  0.1789 -0.2089
   39SOL     H1  600   5.198   0.746   2.483 -0.2126  0.2946 -0.7603
   39SOL     H2  601   5.310   0.822   2.415 -0.0815  1.2196  0.4783
   39SOL    EPW  602   5.282   0.775   2.485 -0.2252  0.3022 -0.1944
   40SOL      O  603   5.540   5.106   1.168  0.2691  0.6854 -0.5341
   40SOL     H1  604   5.496   5.175   1.119  1.9386  0.4522 -2.5080
   40SOL     H2  605   5.513   5.025   1.124  0.4666  0.3296 -0.0005
   40SOL    EPW  606   5.533   5.105   1.158  0.4683  0.6226 -0.6877
   41SOL      O  607   4.631   2.020   1.697  0.6912  0.8053  0.3678
   41SOL     H1  608   4.649   2.014   1.603 -0.0257 -1.5818  0.2984
   41SOL     H2  609   4.715   2.004   1.739  0.5290 -1.1855  0.0612
   41SOL    EPW  610   4.642   2.018   1.692  0.5974  0.3383  0.3277
   42SOL      O  611   3.382   2.596   3.847 -0.3212  0.1968  0.3274
   42SOL     H1  612   3.475   2.579   3.860  0.0256  0.3334 -1.6050
   42SOL     H2  613   3.341   2.509   3.844  0.2877 -0.0811 -2.0148
   42SOL    EPW  614   3.387   2.585   3.848 -0.2192  0.1817 -0.1286
   43SOL      O  615   5.283   1.976   2.259 -0.2277 -0.3926 -0.6466
   43SOL     H1  616   5.205   2.013   2.217  0.0056 -0.5165 -1.1988
   43SOL     H2  617   5.278   1.882   2.240 -1.1097 -0.7783  1.2098
   43SOL    EPW  618   5.274   1.970   2.253 -0.2969 -0.4470 -0.5075
   44SOL      O  619   1.736   5.430   2.815 -0.3320 -0.2827  0.1492
   44SOL     H1  620   1.702   5.502   2.867 -1.2339  0.8710 -1.9430
   44SOL     H2  621   1.816   5.403   2.861 -1.1952  0.5095  2.2139
   44SOL    EPW  622   1.741   5.434   2.825 -0.5203 -0.0751  0.1463
   45SOL      O  623   5.750   2.893   4.137  0.1829 -0.2318 -0.5955
   45SOL     H1  624   5.815   2.834   4.175 -1.8914 -2.6467 -0.5022
   45SOL     H2  625   5.697   2.920   4.212  1.9275  3.0898 -0.3875
   45SOL    EPW  626   5.751   2.890   4.149  0.1477 -0.1351 -0.5633
   46SOL      O  627   1.904   4.356   0.025  0.2386 -0.3973  0.2383
   46SOL     H1  628   1.982   4.327   0.073 -0.2153 -0.5903  0.8635
   46SOL     H2  629   1.831   4.325   0.077 -0.2640  0.9142  0.3527
   46SOL    EPW  630   1.905   4.350   0.035  0.1366 -0.2780  0.3172
   47SOL      O  631   2.352   2.248   0.806 -0.5509 -0.2716  0.2532
   47SOL     H1  632   2.311   2.315   0.862  0.0982  1.4086 -1.1992
   47SOL     H2  633   2.315   2.264   0.719  0.0132 -1.4975 -0.2307
   47SOL    EPW  634   2.343   2.257   0.803 -0.4215 -0.2231  0.0466
   48SOL      O  635   3.202   1.471   2.247  0.2266 -0.4467  0.1163
   48SOL     H1  636   3.237   1.458   2.159  0.0667 -0.8614  0.1097
   48SOL     H2  637   3.262   1.534   2.287  0.3552 -0.3251 -0.2559
   48SOL    EPW  638   3.212   1.476   2.242  0.2232 -0.4779  0.0759
   49SOL      O  639   4.020   0.796   3.868 -0.0736  1.0077  0.3690
   49SOL     H1  640   3.961   0.738   3.820  2.3572 -0.0041 -1.6792
   49SOL     H2  641   4.071   0.738   3.924  1.0088  1.4000 -0.1735
   49SOL    EPW  642   4.019   0.784   3.868  0.3012  0.9416  0.0926
   50SOL      O  643   0.025   4.452   3.628  0.4178  1.1300 -0.0378
   50SOL     H1  644   0.074   4.510   3.686  1.2808  0.6162 -0.2345
   50SOL     H2  645   0.011   4.373   3.680  0.8493  0.8186 -0.3991
   50SOL    EPW  646   0.029   4.450   3.640  0.5559  1.0420 -0.0973
   51SOL      O  647   0.734   2.379   0.206 -0.4758 -0.2586  0.1361
   51SOL     H1  648   0.804   2.316   0.225  1.4076  1.9557  0.9945
   51SOL     H2  649   0.754   2.409   0.117 -0.1464  0.5885  0.4912
   51SOL    EPW  650   0.744   2.375   0.198 -0.2397  0.0679  0.2655
   52SOL      O  651   4.677   3.435   1.982 -0.7682  0.1186  0.1356
   52SOL     H1  652   4.619   3.499   1.940 -2.9094 -1.2045  0.9046
   52SOL     H2  653   4.627   3.405   2.058  2.0397  0.7811  2.3875
   52SOL    EPW  654   4.665   3.439   1.986 -0.6971  0.0482  0.4579
   53SOL      O  655   4.228   5.350   3.552 -0.5848  0.4612  0.2188
   53SOL     H1  656   4.150   5.325   3.602 -1.7556  0.3508 -1.5558
   53SOL     H2  657   4.260   5.268   3.515 -0.4382  0.6792 -0.1475
   53SOL    EPW  658   4.223   5.339   3.553 -0.6941  0.4727 -0.0096
   54SOL      O  659   0.717   5.127   1.476 -0.3073  0.4205  0.3886
   54SOL     H1  660   0.762   5.211   1.462  0.3844 -0.2106 -1.5466
   54SOL     H2  661   0.745   5.099   1.563  0.4022  1.6458  0.5719
   54SOL    EPW  662   0.725   5.133   1.484 -0.1578  0.4839  0.2017
   55SOL      O  663   0.203   2.357   3.043 -0.3489  0.1779 -0.9752
   55SOL     H1  664   0.256   2.434   3.026 -1.3678  0.8941 -1.0351
   55SOL     H2  665   0.138   2.387   3.107 -1.0811 -0.4815 -1.3895
   55SOL    EPW  666   0.201   2.369   3.048 -0.5357  0.1839 -1.0258
   56SOL      O  667   5.838   3.764   2.484 -0.1603  0.2546 -0.4481
   56SOL     H1  668   5.776   3.703   2.443  0.3419  1.1060 -2.6265
   56SOL     H2  669   5.806   3.850   2.459  0.5469  0.8018  0.4877
   56SOL    EPW  670   5.828   3.766   2.477 -0.0313  0.4038 -0.5807
   57SOL      O  671   4.592   0.305   0.162  0.3615  0.3548 -0.0055
   57SOL     H1  672   4.648   0.357   0.220  1.6323 -0.1437 -0.7445
   57SOL     H2  673   4.592   0.217   0.202  1.7398 -0.1518 -1.0249
   57SOL    EPW  674   4.598   0.301   0.173  0.6441  0.2476 -0.1931
   58SOL      O  675   4.800   0.217   2.493 -0.8061  0.7290  0.9426
   58SOL     H1  676   4.717   0.169   2.488 -0.7408  0.7359 -1.3147
   58SOL     H2  677   4.867   0.149   2.500 -0.7528  0.3924 -1.7200
   58SOL    EPW  678   4.798   0.204   2.493 -0.7935  0.6938  0.4178
   59SOL      O  679   5.822   4.484   1.343  0.3990 -0.1491  0.4032
   59SOL     H1  680   5.748   4.456   1.289  1.1552 -1.1835 -0.1186
   59SOL     H2  681   5.886   4.520   1.282  1.7707 -2.4236  0.3968
   59SOL    EPW  682   5.821   4.485   1.331  0.6260 -0.5021  0.3468
   60SOL      O  683   3.980   2.785   0.632 -0.3037 -0.2117  0.7752
   60SOL     H1  684   3.955   2.721   0.566  1.5826 -1.1365  0.8849
   60SOL     H2  685   3.997   2.865   0.582  0.1751 -0.6356  0.2487
   60SOL    EPW  686   3.979   2.787   0.620 -0.0514 -0.3556  0.7307
   61SOL      O  687   0.002   3.603   2.718  0.3358  0.3083  0.3973
   61SOL     H1  688   0.018   3.543   2.792 -0.7853  1.0733  1.3006
   61SOL     H2  689  -0.089   3.585   2.693  0.2224  1.1242  0.2111
   61SOL    EPW  690  -0.006   3.594   2.724  0.2041  0.4769  0.4738
   62SOL      O  691   5.619   3.909   0.527  0.5809 -0.0711 -0.0811
   62SOL     H1  692   5.649   4.000   0.537  2.0673 -0.4484 -0.8847
   62SOL     H2  693   5.697   3.856   0.540 -0.1669 -1.2260 -0.1543
   62SOL    EPW  694   5.630   3.913   0.530  0.6597 -0.2346 -0.1746
   63SOL      O  695   4.135   0.616   4.057  0.0370  0.3646 -0.3488
   63SOL     H1  696   4.118   0.632   4.150 -0.1451  0.6077 -0.4216
   63SOL     H2  697   4.229   0.626   4.047  0.2703 -1.1961  0.1026
   63SOL    EPW  698   4.143   0.619   4.066  0.0425  0.2241 -0.3084
   64SOL      O  699   1.502   0.780   1.185 -0.3506  0.0236  0.0414
   64SOL     H1  700   1.556   0.809   1.111 -0.3779 -1.2158 -0.4974
   64SOL     H2  701   1.414   0.813   1.165  0.0153  1.3506  0.5145
   64SOL    EPW  702   1.498   0.786   1.175 -0.3145  0.0329  0.0344
   65SOL      O  703   3.064   3.756   3.140 -0.7780 -0.1285  1.0775
   65SOL     H1  704   3.083   3.815   3.213  0.7721 -0.5222  1.0361
   65SOL     H2  705   3.148   3.714   3.121 -1.1317 -0.0445 -0.9216
   65SOL    EPW  706   3.075   3.758   3.146 -0.6504 -0.1616  0.8598
   66SOL      O  707   0.491   2.498   1.514 -0.0883  0.7858 -0.0934
   66SOL     H1  708   0.572   2.450   1.531 -0.2807 -0.0848 -1.4658
   66SOL     H2  709   0.466   2.533   1.599 -0.3840 -2.2194  1.1815
   66SOL    EPW  710   0.497   2.497   1.525 -0.1404  0.3724 -0.1038
   67SOL      O  711   2.022   0.892   2.120  0.3672  0.5874 -0.1243
   67SOL     H1  712   2.036   0.801   2.147  0.5452  0.1574 -1.5631
   67SOL     H2  713   1.969   0.885   2.041  1.5483  1.6569 -1.0428
   67SOL    EPW  714   2.018   0.881   2.114  0.5122  0.6556 -0.3757
   68SOL      O  715   2.948   1.110   1.329 -0.1203 -0.3646 -0.2408
   68SOL     H1  716   2.853   1.102   1.341 -0.3886  0.1568 -1.8058
   68SOL     H2  717   2.985   1.048   1.392 -1.5315 -1.2151 -0.1978
   68SOL    EPW  718   2.942   1.103   1.337 -0.2994 -0.3997 -0.4031
   69SOL      O  719   2.354   2.008   1.770 -0.3438 -0.0841 -0.0382
   69SOL     H1  720   2.371   1.950   1.844 -1.0808  0.1239  0.2954
   69SOL     H2  721   2.306   2.082   1.807  0.0803  0.4730 -0.5635
   69SOL    EPW  722   2.351   2.010   1.782 -0.3772 -0.0025 -0.0587
   70SOL      O  723   5.368   4.390   3.281 -0.2599  0.7891  0.0204
   70SOL     H1  724   5.382   4.325   3.349  0.2403 -0.0216 -0.8356
   70SOL     H2  725   5.290   4.360   3.234  1.2555 -0.5282 -1.8276
   70SOL    EPW  726   5.361   4.380   3.283 -0.0449  0.5621 -0.2680
   71SOL      O  727   5.302   3.140   0.821 -0.4075 -0.5761 -0.5325
   71SOL     H1  728   5.218   3.155   0.777 -1.3838 -0.1062  1.3642
   71SOL     H2  729   5.284   3.159   0.914  2.3193  1.6473 -0.3192
   71SOL    EPW  730   5.291   3.144   0.826 -0.2208 -0.2888 -0.3074
   72SOL      O  731   4.191   5.672   3.109 -0.1047  0.3847  0.0401
   72SOL     H1  732   4.133   5.668   3.033  0.1758  1.3378 -0.2473
   72SOL     H2  733   4.132   5.685   3.183 -0.3418  0.0747 -0.0928
   72SOL    EPW  734   4.179   5.673   3.109 -0.1000  0.4533 -0.0047
   73SOL      O  735   2.502   5.214   1.729  0.4076 -0.3882 -0.5331
   73SOL     H1  736   2.457   5.150   1.674 -0.9272 -1.4539  1.6823
   73SOL     H2  737   2.565   5.163   1.779 -1.5707 -0.3536  2.2241
   73SOL    EPW  738   2.504   5.202   1.728  0.0541 -0.4982 -0.0026
   74SOL      O  739   2.473   4.883   0.849 -0.1095  0.5767  0.2574
   74SOL     H1  740   2.564   4.877   0.876  0.2759 -2.4142 -1.2568
   74SOL     H2  741   2.477   4.910   0.757 -0.3311 -2.9796 -0.9746
   74SOL    EPW  742   2.483   4.885   0.842 -0.0920 -0.1217 -0.0356
   75SOL      O  743   4.508   5.243   2.545 -0.2495  0.5093 -0.2870
   75SOL     H1  744   4.595   5.267   2.513 -0.6326  0.3314 -1.5107
   75SOL     H2  745   4.517   5.151   2.572  0.3582  0.9783  1.2296
   75SOL    EPW  746   4.519   5.236   2.544 -0.2255  0.5404 -0.2558
   76SOL      O  747   3.306   2.498   2.953 -0.6096 -0.6901  0.3071
   76SOL     H1  748   3.238   2.474   2.890 -0.8713 -1.9695  1.0354
   76SOL     H2  749   3.258   2.517   3.034 -0.1044 -1.9710  0.9315
   76SOL    EPW  750   3.293   2.497   2.955 -0.5836 -0.9632  0.4514
   77SOL      O  751   3.525   5.447   2.957  0.3430  0.2092 -0.3233
   77SOL     H1  752   3.573   5.386   2.902  0.4119  0.2636 -0.3254
   77SOL     H2  753   3.584   5.463   3.031  0.0307 -0.2702  0.0300
   77SOL    EPW  754   3.536   5.442   2.959  0.3170  0.1639 -0.2858
   78SOL      O  755   2.920   2.218   3.535  0.5523  0.5622  0.1922
   78SOL     H1  756   2.975   2.265   3.597  1.1936 -1.9021  1.5943
   78SOL     H2  757   2.840   2.199   3.584 -0.3355  1.4232 -0.8521
   78SOL    EPW  758   2.917   2.221   3.547  0.5260  0.3912  0.2304
   79SOL      O  759   0.390   5.324   1.755 -0.1490 -0.0021 -0.1786
   79SOL     H1  760   0.471   5.276   1.736  0.7144  1.4121 -0.2156
   79SOL     H2  761   0.349   5.334   1.669  0.5889  0.8989 -0.4406
   79SOL    EPW  762   0.395   5.320   1.744  0.0218  0.2449 -0.2105
   80SOL      O  763   1.295   0.178   4.073 -0.1212  0.0277 -0.0645
   80SOL     H1  764   1.374   0.137   4.036 -0.2374 -1.3167  1.0939
   80SOL     H2  765   1.261   0.232   4.001  1.3993  0.0078 -0.8515
   80SOL    EPW  766   1.300   0.179   4.061  0.0286 -0.1179 -0.0249
   81SOL      O  767   2.898   1.661   1.380  0.1581 -0.0710 -0.6590
   81SOL     H1  768   2.867   1.571   1.387 -0.3610  0.1657  0.2861
   81SOL     H2  769   2.830   1.705   1.329 -1.5829  0.6172  2.0185
   81SOL    EPW  770   2.887   1.656   1.376 -0.0830  0.0277 -0.2726
   82SOL      O  771   3.381   3.974   0.681 -0.3518  1.2072  0.7158
   82SOL     H1  772   3.385   3.973   0.777 -1.0893  0.4178  0.7441
   82SOL     H2  773   3.302   3.925   0.659  0.8368 -0.3531 -0.3421
   82SOL    EPW  774   3.373   3.968   0.689 -0.3037  0.9565  0.6060
   83SOL      O  775   3.882   1.830   3.960 -0.4859  0.6790  0.5484
   83SOL     H1  776   3.916   1.771   4.027  0.5029 -0.4654 -0.8978
   83SOL     H2  777   3.857   1.773   3.888 -3.9025  1.6449  0.8102
   83SOL    EPW  778   3.883   1.818   3.960 -0.7449  0.6599  0.4221
   84SOL      O  779   5.821   0.454   1.119  0.1527  0.1136  0.5545
   84SOL     H1  780   5.783   0.381   1.169 -1.6717  0.4584 -0.2404
   84SOL     H2  781   5.862   0.411   1.043  1.7948 -0.2947  1.6088
   84SOL    EPW  782   5.821   0.441   1.116  0.1333  0.1068  0.5822
   85SOL      O  783   0.703   2.624   2.282 -0.1103  0.1796 -0.2848
   85SOL     H1  784   0.683   2.712   2.252 -0.2423 -0.0886 -0.9972
   85SOL     H2  785   0.619   2.577   2.276  0.0727 -0.1341 -0.4114
   85SOL    EPW  786   0.692   2.628   2.278 -0.1048  0.1175 -0.3743
   86SOL      O  787   3.620   1.986   0.803  0.0109 -0.0494  0.1246
   86SOL     H1  788   3.639   1.999   0.710  1.5450 -1.2392  0.2336
   86SOL     H2  789   3.668   1.907   0.826  0.1471  0.5646  2.0762
   86SOL    EPW  790   3.627   1.979   0.795  0.1891 -0.1108  0.3445
   87SOL      O  791   5.259   1.671   1.171 -0.2472  0.0014  0.4631
   87SOL     H1  792   5.330   1.629   1.220  1.0592  1.6440  0.0707
   87SOL     H2  793   5.262   1.631   1.085  0.0320 -0.1373  0.5369
   87SOL    EPW  794   5.267   1.662   1.167 -0.0780  0.1618  0.4291
   88SOL      O  795   4.545   5.717   3.450 -0.3435 -0.5994 -0.0285
   88SOL     H1  796   4.467   5.768   3.473 -0.0001 -0.1546  0.1642
   88SOL     H2  797   4.542   5.712   3.354 -0.7039 -0.7390 -0.0123
   88SOL    EPW  798   4.536   5.722   3.442 -0.3453 -0.5668 -0.0062
   89SOL      O  799   3.615   3.568   0.099 -0.1309  0.1333  0.0591
   89SOL     H1  800   3.587   3.478   0.084  1.1838  0.0593 -2.3477
   89SOL     H2  801   3.546   3.621   0.060  0.5944  0.0647 -1.3606
   89SOL    EPW  802   3.604   3.564   0.094  0.0867  0.1181 -0.3491
   90SOL      O  803   0.197   1.628   3.621 -0.4034  0.8958  0.1759
   90SOL     H1  804   0.211   1.685   3.698 -0.7786  1.1650  0.0461
   90SOL     H2  805   0.236   1.545   3.647  1.1398  1.5139 -0.0387
   90SOL    EPW  806   0.203   1.625   3.632 -0.2788  0.9904  0.1392
   91SOL      O  807   2.435   2.749   3.940 -0.2091  0.1872 -0.0485
   91SOL     H1  808   2.427   2.844   3.946 -1.5315  0.2776 -2.2916
   91SOL     H2  809   2.384   2.725   3.863 -0.1585 -2.3955  0.6183
   91SOL    EPW  810   2.429   2.757   3.933 -0.3448 -0.0787 -0.2167
   92SOL      O  811   1.418   2.164   0.524 -0.7775 -0.6485  0.1680
   92SOL     H1  812   1.493   2.135   0.576  0.8322  4.3144  1.1654
   92SOL     H2  813   1.342   2.145   0.580  0.3337 -0.8155  1.6863
   92SOL    EPW  814   1.418   2.159   0.536 -0.4872 -0.1369  0.4364
   93SOL      O  815   1.144   1.407   1.347 -0.3686  0.1110  0.0930
   93SOL     H1  816   1.230   1.420   1.308 -0.5572 -2.0524 -1.1693
   93SOL     H2  817   1.162   1.400   1.441  0.4171  2.6102  0.2034
   93SOL    EPW  818   1.155   1.408   1.353 -0.3049  0.1468 -0.0298
   94SOL      O  819   2.316   0.060   3.126  0.0122 -0.0891 -0.4648
   94SOL     H1  820   2.242   0.027   3.177  1.0984 -0.6554  0.8039
   94SOL     H2  821   2.290   0.047   3.035 -1.6949  0.3017 -0.0614
   94SOL    EPW  822   2.306   0.055   3.122 -0.0540 -0.1079 -0.2865
   95SOL      O  823   4.078   0.545   0.908 -0.2390  0.0371  0.3646
   95SOL     H1  824   4.041   0.617   0.959 -1.2433 -0.4898  0.4214
   95SOL     H2  825   4.001   0.501   0.870  0.4798  0.7341 -2.0806
   95SOL    EPW  826   4.066   0.548   0.909 -0.2694  0.0553  0.1098
   96SOL      O  827   5.073   4.036   1.652  0.8861  0.3544  0.1627
   96SOL     H1  828   5.026   4.117   1.635 -0.0771 -0.0079  0.9896
   96SOL     H2  829   5.086   4.035   1.747 -0.1849 -1.0036  0.3325
   96SOL    EPW  830   5.069   4.045   1.660  0.6691  0.1709  0.2690
   97SOL      O  831   2.289   0.819   1.980 -0.1027 -0.2601  0.7443
   97SOL     H1  832   2.216   0.787   1.927  0.8268 -0.3600 -0.4922
   97SOL     H2  833   2.282   0.914   1.977  0.8941 -0.2149 -0.9425
   97SOL    EPW  834   2.280   0.826   1.974  0.1028 -0.2659  0.4324
   98SOL      O  835   5.165   1.330   3.916  0.5307  0.4214  0.1505
   98SOL     H1  836   5.176   1.425   3.926 -0.8929  0.3938  2.9499
   98SOL     H2  837   5.072   1.319   3.896  0.1542 -0.4341  2.1469
   98SOL    EPW  838   5.156   1.339   3.915  0.3387  0.3272  0.6621
   99SOL      O  839   5.771   2.010   3.599  0.7584 -0.0592 -0.0374
   99SOL     H1  840   5.736   1.952   3.667  0.8027 -0.8495 -0.6807
   99SOL     H2  841   5.737   1.975   3.517  0.8537  0.7816 -0.4495
   99SOL    EPW  842   5.763   2.000   3.598  0.7733 -0.0538 -0.1500
  100SOL      O  843   0.079   2.996   0.309 -0.4658  0.1284  0.1572
  100SOL     H1  844   0.033   3.080   0.316  0.7699  0.8500 -0.0209
  100SOL     H2  845   0.170   3.020   0.291 -0.4303 -1.2835 -1.9072
  100SOL    EPW  846   0.083   3.007   0.308 -0.3302  0.0548 -0.0820
  101SOL      O  847   0.934   2.162   2.369 -0.7153  0.5750 -0.4235
  101SOL     H1  848   0.851   2.146   2.323 -1.5234  0.0187  1.1171
  101SOL     H2  849   0.954   2.078   2.411 -0.0188  1.0532  0.2174
  101SOL    EPW  850   0.927   2.151   2.369 -0.7272  0.5667 -0.1907
  102SOL      O  851   0.373   2.065   1.911 -0.2780  0.0942  0.0518
  102SOL     H1  852   0.379   2.160   1.899 -2.5949  0.0688 -1.9570
  102SOL     H2  853   0.410   2.050   1.998  0.8491  2.7268  0.1154
  102SOL    EPW  854   0.378   2.073   1.919 -0.4049  0.3723 -0.1557
  103SOL      O  855   0.484   3.577   1.414 -0.6631 -0.1564 -0.2047
  103SOL     H1  856   0.394   3.553   1.393 -0.8611  1.9821 -2.1266
  103SOL     H2  857   0.520   3.612   1.332  1.1535  1.2698  1.1054
  103SOL    EPW  858   0.478   3.578   1.403 -0.4905  0.2239 -0.2700
  104SOL      O  859   2.344   0.447   3.092 -0.1497  0.3261  0.4638
  104SOL     H1  860   2.282   0.377   3.072  0.2025  0.1914 -0.1716
  104SOL     H2  861   2.320   0.476   3.180 -0.8839  0.0322  0.3637
  104SOL    EPW  862   2.335   0.442   3.100 -0.1905  0.2804  0.3853
  105SOL      O  863   3.161   1.507   1.943 -0.7467  0.2076  0.2788
  105SOL     H1  864   3.220   1.530   1.871 -1.2597  0.0518 -0.1940
  105SOL     H2  865   3.074   1.511   1.906 -0.9857 -0.3976  0.7495
  105SOL    EPW  866   3.158   1.510   1.932 -0.8269  0.1264  0.2786
  106SOL      O  867   4.310   5.141   3.384  0.0971 -0.1589 -0.7088
  106SOL     H1  868   4.272   5.066   3.337 -0.3673  0.7004 -1.7600
  106SOL     H2  869   4.370   5.181   3.321  1.4224 -0.4559  0.3309
  106SOL    EPW  870   4.312   5.137   3.372  0.1889 -0.0989 -0.7101
  107SOL      O  871   5.089   1.346   1.584  0.1759  0.2303 -0.9780
  107SOL     H1  872   5.022   1.334   1.652  0.6363 -1.8801 -0.8307
  107SOL     H2  873   5.172   1.341   1.632  0.4727  1.3820 -1.3563
  107SOL    EPW  874   5.091   1.344   1.596  0.2567  0.1280 -1.0026
  108SOL      O  875   4.891   4.214   0.398  0.1343  0.0465  0.1875
  108SOL     H1  876   4.908   4.167   0.479 -0.5037  1.4154  1.1348
  108SOL     H2  877   4.797   4.229   0.397 -0.3812 -2.4120 -2.2284
  108SOL    EPW  878   4.883   4.211   0.406  0.0112 -0.0697  0.0308
  109SOL      O  879   1.692   0.434   0.447  0.0553 -0.7159  0.4242
  109SOL     H1  880   1.766   0.494   0.447 -0.1238 -0.4390 -1.2745
  109SOL     H2  881   1.718   0.363   0.388  0.2305 -2.3477  2.3124
  109SOL    EPW  882   1.702   0.433   0.441  0.0549 -0.8604  0.4444
  110SOL      O  883   3.041   5.720   0.203 -0.2930 -0.4796  0.2617
  110SOL     H1  884   3.065   5.679   0.120  0.4102 -1.0046  0.7176
  110SOL     H2  885   3.086   5.805   0.203 -1.0160 -0.0820 -0.2774
  110SOL    EPW  886   3.048   5.725   0.194 -0.2951 -0.4932  0.2528
  111SOL      O  887   3.793   2.782   1.355  0.2378  0.6036  0.2974
  111SOL     H1  888   3.866   2.742   1.308  1.0051  0.7348  1.3349
  111SOL     H2  889   3.732   2.710   1.369 -0.6833  0.8256 -2.0572
  111SOL    EPW  890   3.794   2.770   1.351  0.2214  0.6413  0.1569
  112SOL      O  891   5.661   0.708   2.865 -0.0999 -0.2731  0.6350
  112SOL     H1  892   5.580   0.660   2.848  0.3791 -1.0155  0.3690
  112SOL     H2  893   5.685   0.684   2.955  0.5907 -1.2434  0.2124
  112SOL    EPW  894   5.655   0.700   2.873  0.0249 -0.4558  0.5616
  113SOL      O  895   5.271   1.873   0.238  0.2964 -0.0386 -0.0715
  113SOL     H1  896   5.250   1.947   0.294  1.6986  1.4994 -1.4717
  113SOL     H2  897   5.186   1.835   0.216 -0.4831  1.3604  0.4056
  113SOL    EPW  898   5.259   1.877   0.241  0.3628  0.2747 -0.1699
  114SOL      O  899   3.800   0.478   3.340  0.1885  0.2780  0.1944
  114SOL     H1  900   3.888   0.441   3.347 -0.2704 -1.4510 -2.1043
  114SOL     H2  901   3.743   0.411   3.379 -0.1709  1.4987  1.9137
  114SOL    EPW  902   3.803   0.467   3.345  0.1012  0.2238  0.1326
  115SOL      O  903   0.488   0.775   3.602  0.3768  0.2020 -0.4430
  115SOL     H1  904   0.467   0.683   3.618 -0.1019  0.3332 -0.3237
  115SOL     H2  905   0.584   0.776   3.592  0.2214 -0.6192 -2.4551
  115SOL    EPW  906   0.496   0.765   3.602  0.3091  0.1284 -0.6449
  116SOL      O  907   5.768   3.707   3.351 -0.3786  0.2353  0.3484
  116SOL     H1  908   5.728   3.750   3.276 -0.3788  0.0845  0.2612
  116SOL     H2  909   5.700   3.647   3.383  0.5714 -1.8124 -1.2645
  116SOL    EPW  910   5.757   3.705   3.347 -0.2773  0.0008  0.1670
  117SOL      O  911   1.035   5.201   1.181  0.6480 -0.0809  0.0582
  117SOL     H1  912   1.084   5.206   1.099  0.7989 -3.2593 -0.1580
  117SOL     H2  913   1.097   5.228   1.248  1.3933 -0.1058 -0.6102
  117SOL    EPW  914   1.047   5.204   1.179  0.7436 -0.4226 -0.0361
  118SOL      O  915   0.724   2.154   2.164 -0.6413  0.0237 -0.7310
  118SOL     H1  916   0.708   2.236   2.118  0.4114  2.1100  2.3146
  118SOL     H2  917   0.637   2.117   2.179 -1.5608  2.6556  1.1628
  118SOL    EPW  918   0.713   2.159   2.161 -0.6271  0.5270 -0.2040
  119SOL      O  919   0.871   1.152   4.086 -0.2467  0.1892  0.2396
  119SOL     H1  920   0.850   1.069   4.130 -0.8449  0.3063  0.1883
  119SOL     H2  921   0.949   1.133   4.035 -0.5604 -0.4360 -0.0236
  119SOL    EPW  922   0.877   1.141   4.085 -0.3440  0.1350  0.2061
  120SOL      O  923   4.237   0.282   0.350  0.1198 -0.0267 -0.4209
  120SOL     H1  924   4.219   0.372   0.323 -0.9513 -0.0587  0.1675
  120SOL     H2  925   4.329   0.283   0.376  0.0113  0.9928 -0.0361
  120SOL    EPW  926   4.245   0.291   0.350 -0.0060  0.0786 -0.3171
  121SOL      O  927   1.088   2.093   3.472  0.0952 -0.0619  0.1719
  121SOL     H1  928   1.155   2.082   3.404  0.5811 -0.1290  0.6606
  121SOL     H2  929   1.055   2.004   3.487  0.3530 -0.1217  0.3921
  121SOL    EPW  930   1.092   2.082   3.466  0.1746 -0.0754  0.2475
  122SOL      O  931   0.479   4.320   0.334 -0.9112  0.0299  0.0066
  122SOL     H1  932   0.442   4.355   0.252 -1.8394 -1.6252 -0.3332
  122SOL     H2  933   0.439   4.374   0.402 -3.2923 -1.0329 -0.4180
  122SOL    EPW  934   0.471   4.330   0.332 -1.2642 -0.2600 -0.0750
  123SOL      O  935   1.702   3.224   3.288  0.3077 -0.3451  0.2281
  123SOL     H1  936   1.630   3.281   3.317  0.6258 -0.2511  0.8455
  123SOL     H2  937   1.780   3.265   3.325  0.5088 -1.3671  0.9534
  123SOL    EPW  938   1.703   3.235   3.295  0.3631 -0.4441  0.3714
  124SOL      O  939   0.620   1.406   2.547 -0.0672  0.1991  0.0517
  124SOL     H1  940   0.532   1.402   2.509 -0.4074 -1.3223  0.9153
  124SOL     H2  941   0.676   1.365   2.481 -0.2444 -0.1426  0.1113
  124SOL    EPW  942   0.617   1.401   2.536 -0.1224  0.0003  0.1502
  125SOL      O  943   1.224   3.641   3.645 -0.3596  0.1808 -0.3706
  125SOL     H1  944   1.268   3.723   3.668  0.7410 -0.2430 -0.9068
  125SOL     H2  945   1.290   3.591   3.597 -0.7858 -1.3169  0.5383
  125SOL    EPW  946   1.236   3.645   3.643 -0.2877 -0.0242 -0.3308
  126SOL      O  947   4.426   1.643   2.315 -0.1367 -0.6604  0.2458
  126SOL     H1  948   4.488   1.707   2.350 -0.3428  0.7284 -1.7521
  126SOL     H2  949   4.387   1.602   2.393 -1.7764  3.3227  1.7893
  126SOL    EPW  950   4.429   1.646   2.327 -0.3336 -0.0873  0.1973
  127SOL      O  951   4.994   1.685   0.845  0.2676  0.3332  0.2173
  127SOL     H1  952   4.958   1.742   0.777  0.8853  0.9732  0.4122
  127SOL     H2  953   4.918   1.649   0.890 -0.1369  0.6278 -0.2213
  127SOL    EPW  954   4.982   1.687   0.842  0.2904  0.4329  0.1913
  128SOL      O  955   5.408   3.870   4.126 -0.4459 -0.5493  1.1070
  128SOL     H1  956   5.403   3.904   4.215 -1.4542 -0.7296  1.1351
  128SOL     H2  957   5.461   3.791   4.133 -0.4836 -0.5361  1.5429
  128SOL    EPW  958   5.413   3.865   4.136 -0.5575 -0.5671  1.1565
  129SOL      O  959   5.437   3.430   4.039  0.1588  0.1372 -0.0677
  129SOL     H1  960   5.492   3.354   4.060 -1.6178 -0.3640  3.5317
  129SOL     H2  961   5.411   3.416   3.948  1.4491 -2.5645 -0.1206
  129SOL    EPW  962   5.440   3.420   4.031  0.1069 -0.2045  0.3106
  130SOL      O  963   3.529   1.969   3.691 -0.1214 -0.0174  0.1449
  130SOL     H1  964   3.570   2.056   3.693 -1.4228  0.6942 -1.5550
  130SOL     H2  965   3.478   1.969   3.610 -1.0561 -1.9659  0.6860
  130SOL    EPW  966   3.528   1.978   3.683 -0.3600 -0.1493  0.0213
  131SOL      O  967   3.041   2.703   0.643 -0.0534  0.5594  0.2235
  131SOL     H1  968   3.056   2.702   0.738 -0.3735 -0.1167  0.2733
  131SOL     H2  969   3.088   2.781   0.612  1.6743 -0.2355  0.6866
  131SOL    EPW  970   3.048   2.711   0.650  0.0967  0.4025  0.2782
  132SOL      O  971   3.076   0.954   2.734  0.0043 -0.0416 -0.1687
  132SOL     H1  972   3.087   1.017   2.805  1.8836 -0.2180 -0.2482
  132SOL     H2  973   3.084   1.005   2.654 -0.6717 -0.0619 -0.2552
  132SOL    EPW  974   3.078   0.966   2.733  0.1326 -0.0626 -0.1864
  133SOL      O  975   1.815   0.493   2.416 -0.0042 -0.1779 -0.0101
  133SOL     H1  976   1.841   0.579   2.383  0.3338 -0.5871 -0.8551
  133SOL     H2  977   1.847   0.491   2.506 -1.2634  1.1060  0.4976
  133SOL    EPW  978   1.821   0.502   2.422 -0.1025 -0.0846 -0.0461
  134SOL      O  979   2.795   2.330   0.443 -0.1422 -0.2012  0.7236
  134SOL     H1  980   2.781   2.294   0.530 -0.3901 -0.3577  0.6228
  134SOL     H2  981   2.821   2.420   0.458  0.7705 -0.4974  0.9896
  134SOL    EPW  982   2.796   2.336   0.454 -0.0712 -0.2495  0.7412
  135SOL      O  983   1.101   4.464   1.008 -0.0006 -0.3990  0.0379
  135SOL     H1  984   1.141   4.502   0.929  1.4963 -0.1408  0.8702
  135SOL     H2  985   1.155   4.497   1.080 -1.4600 -0.4552  1.2073
  135SOL    EPW  986   1.111   4.472   1.007  0.0034 -0.3775  0.2514
  136SOL      O  987   0.435   1.558   2.984 -0.0423  0.5206 -0.1646
  136SOL     H1  988   0.437   1.603   2.900 -4.4269  1.1831 -0.1159
  136SOL     H2  989   0.400   1.472   2.965 -0.4752  0.4419  0.8984
  136SOL    EPW  990   0.432   1.554   2.973 -0.5562  0.5829 -0.0460
  137SOL      O  991   3.140   1.643   0.529 -0.0418 -0.2514 -0.6798
  137SOL     H1  992   3.211   1.580   0.525 -1.4035 -1.8129 -1.7654
  137SOL     H2  993   3.067   1.595   0.569 -0.6831  1.1117 -0.1346
  137SOL    EPW  994   3.139   1.631   0.533 -0.2554 -0.2726 -0.7374
  138SOL      O  995   2.574   1.406   0.407  0.4748  0.0537 -0.2383
  138SOL     H1  996   2.539   1.424   0.320 -1.9881 -0.7397  0.4866
  138SOL     H2  997   2.594   1.492   0.443  0.1489  0.4883 -1.0573
  138SOL    EPW  998   2.572   1.417   0.401  0.1773  0.0154 -0.2484
  139SOL      O  999   4.449   0.387   3.707  0.0420 -0.0030 -0.5802
  139SOL     H1 1000   4.383   0.452   3.684  0.0929  0.3622  0.2699
  139SOL     H2 1001   4.529   0.420   3.665  0.0563  0.4639 -0.1974
  139SOL    EPW 1002   4.451   0.398   3.700  0.0490  0.0857 -0.4487
  140SOL      O 1003   0.941   0.448   3.898 -0.1826  0.1966 -0.7576
  140SOL     H1 1004   0.959   0.450   3.991  1.2615 -1.5482 -0.9495
  140SOL     H2 1005   0.939   0.540   3.871  2.7152  0.6899  0.4100
  140SOL    EPW 1006   0.943   0.458   3.905  0.2806  0.0631 -0.6535
  141SOL      O 1007   1.878   2.214   2.049 -0.0951 -0.4070  0.4384
  141SOL     H1 1008   1.885   2.119   2.050  0.2230 -0.4010 -0.2046
  141SOL     H2 1009   1.893   2.238   1.957 -1.6291  0.1623  0.3022
  141SOL    EPW 1010   1.881   2.207   2.039 -0.2248 -0.3457  0.3553
  142SOL      O 1011   1.720   2.780   2.216 -0.3431  0.0643  0.3907
  142SOL     H1 1012   1.687   2.806   2.130 -0.6173  0.0024  0.4758
  142SOL     H2 1013   1.661   2.710   2.244 -1.0948  0.9926  1.2170
  142SOL    EPW 1014   1.710   2.775   2.210 -0.4526  0.1567  0.4879
  143SOL      O 1015   4.086   3.474   0.594 -0.1744 -0.2466 -0.1833
  143SOL     H1 1016   4.123   3.415   0.529  0.2892 -0.3249  0.1496
  143SOL     H2 1017   4.153   3.542   0.605 -0.8206  0.4982 -0.7747
  143SOL    EPW 1018   4.097   3.475   0.588 -0.1939 -0.1755 -0.2109
  144SOL      O 1019   1.247   0.929   3.812 -0.0336 -0.1857 -0.4345
  144SOL     H1 1020   1.179   0.994   3.830 -0.1292 -0.2497 -0.5566
  144SOL     H2 1021   1.234   0.862   3.879  1.6556  1.1087  1.2680
  144SOL    EPW 1022   1.238   0.929   3.821  0.1364 -0.0544 -0.2659
  145SOL      O 1023   5.508   1.961   3.243 -0.6583  0.8788  0.1110
  145SOL     H1 1024   5.545   2.049   3.236  0.9408  0.1296 -2.3103
  145SOL     H2 1025   5.504   1.930   3.153 -2.0716 -1.2147  0.8237
  145SOL    EPW 1026   5.512   1.967   3.233 -0.6385  0.5756 -0.0712
  146SOL      O 1027   3.847   2.903   0.846  0.2717  0.3657 -0.5843
  146SOL     H1 1028   3.920   2.911   0.908  1.8465  2.0397 -2.5133
  146SOL     H2 1029   3.887   2.871   0.766 -1.4080 -0.1244 -1.2604
  146SOL    EPW 1030   3.859   2.901   0.844  0.2605  0.4920 -0.8622
  147SOL      O 1031   5.598   3.188   1.300  0.3278 -0.5532 -0.4359
  147SOL     H1 1032   5.533   3.213   1.234 -0.6338 -3.8897 -0.9644
  147SOL     H2 1033   5.595   3.259   1.364 -2.2453  0.4947 -1.5592
  147SOL    EPW 1034   5.590   3.198   1.300 -0.0493 -0.7973 -0.6121
  148SOL      O 1035   4.039   5.303   1.793 -0.1612 -0.3795  0.2340
  148SOL     H1 1036   4.028   5.303   1.888 -0.7211 -1.9097  0.2074
  148SOL     H2 1037   4.121   5.351   1.778 -0.1357 -0.0120  1.4698
  148SOL    EPW 1038   4.047   5.308   1.801 -0.2182 -0.5035  0.3630
  149SOL      O 1039   1.814   3.874   3.856 -0.2492  0.8762 -0.3679
  149SOL     H1 1040   1.756   3.872   3.932  0.8952 -0.5458  0.5259
  149SOL     H2 1041   1.786   3.799   3.804 -0.1503  1.0522 -0.6745
  149SOL    EPW 1042   1.804   3.866   3.859 -0.1166  0.7433 -0.3053
  150SOL      O 1043   2.694   5.609   0.994  0.0389 -0.2792 -0.1556
  150SOL     H1 1044   2.726   5.552   0.924  1.3364 -0.1823  0.3462
  150SOL     H2 1045   2.770   5.660   1.021 -0.4146 -0.3793  1.4159
  150SOL    EPW 1046   2.705   5.609   0.989  0.1289 -0.2796  0.0656
  151SOL      O 1047   0.229   4.905   2.824  0.2170 -0.3608 -0.1998
  151SOL     H1 1048   0.185   4.975   2.871  1.4405 -0.6523  1.4608
  151SOL     H2 1049   0.270   4.851   2.892  0.7998 -1.6716 -1.5156
  151SOL    EPW 1050   0.229   4.906   2.836  0.4097 -0.5317 -0.1630
  152SOL      O 1051   3.363   0.057   3.990 -0.3571 -0.0106  0.6189
  152SOL     H1 1052   3.440   0.107   3.963 -1.4539  1.5841  0.3453
  152SOL     H2 1053   3.349  -0.005   3.919  0.0783  0.3795  0.1822
  152SOL    EPW 1054   3.370   0.056   3.980 -0.4277  0.2012  0.5431
  153SOL      O 1055   5.129   1.599   3.966  0.0482  0.2253 -0.4416
  153SOL     H1 1056   5.038   1.616   3.989  0.2454  0.2069  0.4262
  153SOL     H2 1057   5.163   1.683   3.938  0.5196  0.9611  2.0382
  153SOL    EPW 1058   5.123   1.609   3.966  0.1195  0.3018 -0.0845
  154SOL      O 1059   2.138   4.582   2.298  0.4330  1.0230 -0.2655
  154SOL     H1 1060   2.196   4.658   2.299 -1.1313  2.2537  0.5849
  154SOL     H2 1061   2.127   4.562   2.205  2.4872  0.4939 -0.4447
  154SOL    EPW 1062   2.143   4.588   2.288  0.4852  1.0979 -0.1939
  155SOL      O 1063   3.685   3.500   0.765 -0.3624 -0.2964  0.6579
  155SOL     H1 1064   3.627   3.443   0.714  1.4217  0.0384 -1.9771
  155SOL     H2 1065   3.675   3.587   0.724  0.4263  0.2252  1.5258
  155SOL    EPW 1066   3.678   3.504   0.755 -0.0880 -0.2050  0.4694
  156SOL      O 1067   0.171   4.809   3.970 -0.1313 -0.1144 -1.2343
  156SOL     H1 1068   0.215   4.894   3.971  1.7567 -1.0425 -1.0668
  156SOL     H2 1069   0.197   4.768   4.052 -0.7759 -0.9814 -1.4478
  156SOL    EPW 1070   0.179   4.813   3.979  0.0014 -0.3059 -1.2392
  157SOL      O 1071   2.807   2.781   0.258  0.3137  0.3978  0.9340
  157SOL     H1 1072   2.806   2.707   0.318  2.2958 -0.2954  0.1820
  157SOL     H2 1073   2.783   2.744   0.173 -0.1287  0.9174  0.8226
  157SOL    EPW 1074   2.804   2.769   0.255  0.4779  0.3792  0.8419
  158SOL      O 1075   2.156   0.893   2.633 -0.6029  0.0080  0.4708
  158SOL     H1 1076   2.098   0.941   2.573  0.6186  0.3762 -0.4660
  158SOL     H2 1077   2.221   0.958   2.660  0.0154 -0.6655  0.6251
  158SOL    EPW 1078   2.157   0.905   2.629 -0.4066 -0.0246  0.3873
  159SOL      O 1079   3.173   1.402   1.039 -0.5569  0.4756 -0.4639
  159SOL     H1 1080   3.151   1.321   1.086 -1.5786  1.1094  0.1932
  159SOL     H2 1081   3.263   1.421   1.065 -0.8857  0.4523  0.7337
  159SOL    EPW 1082   3.181   1.395   1.047 -0.7010  0.5407 -0.2661
  160SOL      O 1083   4.022   0.920   0.405 -0.2341 -0.5010 -0.0754
  160SOL     H1 1084   4.098   0.905   0.348  0.4228 -0.8217  0.8628
  160SOL     H2 1085   4.046   0.878   0.488 -1.8719 -1.5145 -0.0879
  160SOL    EPW 1086   4.033   0.914   0.408 -0.3387 -0.6433  0.0233
  161SOL      O 1087   5.360   5.457   1.142  0.5127  0.4256 -0.4618
  161SOL     H1 1088   5.341   5.375   1.097 -0.7179  0.8963 -0.8642
  161SOL     H2 1089   5.274   5.488   1.173  1.1281  0.8942  0.8592
  161SOL    EPW 1090   5.348   5.452   1.141  0.4470  0.5258 -0.3638
  162SOL      O 1091   5.275   0.703   1.006 -0.0615  0.7041 -0.2460
  162SOL     H1 1092   5.333   0.643   1.053 -1.8161 -2.5329 -1.8957
  162SOL     H2 1093   5.206   0.724   1.069  0.2062  0.4597  0.1348
  162SOL    EPW 1094   5.274   0.699   1.018 -0.2201  0.3327 -0.3814
  163SOL      O 1095   3.228   4.211   1.724  0.2344  0.4758 -0.1293
  163SOL     H1 1096   3.310   4.177   1.759 -0.9021 -0.9671  1.2305
  163SOL     H2 1097   3.205   4.150   1.654 -0.3099  0.1234  0.3470
  163SOL    EPW 1098   3.235   4.201   1.720  0.0551  0.2843  0.0666
  164SOL      O 1099   0.514   0.072   1.013 -0.2454  0.4328  0.3204
  164SOL     H1 1100   0.544  -0.005   0.966  2.7169  1.0963  0.9132
  164SOL     H2 1101   0.450   0.113   0.954 -1.9921 -2.4325  0.0562
  164SOL    EPW 1102   0.510   0.068   1.002 -0.1158  0.1979  0.3555
  165SOL      O 1103   0.827   3.300   2.623 -0.2858 -0.5564  0.2722
  165SOL     H1 1104   0.740   3.299   2.664 -0.5521 -1.2595 -0.3029
  165SOL     H2 1105   0.853   3.392   2.627 -1.3721 -0.2057 -0.1938
  165SOL    EPW 1106   0.820   3.310   2.628 -0.4301 -0.5940  0.1611
  166SOL      O 1107   0.441   5.472   2.828  0.1382 -0.2492 -0.0748
  166SOL     H1 1108   0.402   5.559   2.833 -0.3428 -0.4748  0.1953
  166SOL     H2 1109   0.502   5.477   2.755  1.5549  0.8753  1.1005
  166SOL    EPW 1110   0.443   5.482   2.821  0.2380 -0.1533  0.0794
  167SOL      O 1111   3.968   1.048   3.253 -0.2190 -0.0662  0.1849
  167SOL     H1 1112   3.985   1.091   3.170 -1.3520 -0.9070 -0.5062
  167SOL     H2 1113   4.040   1.077   3.310 -0.7954  2.5441 -0.2778
  167SOL    EPW 1114   3.978   1.056   3.251 -0.4014  0.1226  0.0618
  168SOL      O 1115   2.625   0.299   2.219  0.2976 -0.2154 -0.4230
  168SOL     H1 1116   2.655   0.227   2.164 -0.5803 -1.4661  0.6881
  168SOL     H2 1117   2.699   0.319   2.276  0.7159  0.1274 -1.0722
  168SOL    EPW 1118   2.636   0.294   2.219  0.2486 -0.3122 -0.3738
  169SOL      O 1119   4.934   0.741   1.598  0.7947  0.1215  0.0714
  169SOL     H1 1120   4.946   0.807   1.665  0.1465 -0.1180  0.4328
  169SOL     H2 1121   4.978   0.776   1.521  1.4147  0.4635  0.5737
  169SOL    EPW 1122   4.940   0.751   1.597  0.7917  0.1324  0.1636
  170SOL      O 1123   0.045   3.887   2.749 -0.3049 -0.5735 -0.1221
  170SOL     H1 1124   0.042   3.879   2.844  0.3124  1.2498  0.1113
  170SOL     H2 1125   0.040   3.982   2.733 -0.5657 -0.8460 -1.9120
  170SOL    EPW 1126   0.044   3.897   2.757 -0.2669 -0.4081 -0.2881
  171SOL      O 1127   5.581   3.654   4.140 -0.1050 -0.2408 -0.4790
  171SOL     H1 1128   5.528   3.591   4.091  1.3455 -1.4548 -0.5875
  171SOL     H2 1129   5.608   3.607   4.219  0.4591  0.4885 -0.2214
  171SOL    EPW 1130   5.579   3.642   4.143  0.1099 -0.2925 -0.4631
  172SOL      O 1131   1.107   0.679   3.409  0.0825  0.3798  0.4421
  172SOL     H1 1132   1.150   0.607   3.455 -0.8400 -0.4550  0.0347
  172SOL     H2 1133   1.103   0.750   3.473  1.8314  0.4141  0.5641
  172SOL    EPW 1134   1.111   0.679   3.421  0.1706  0.2944  0.4117
  173SOL      O 1135   0.148   4.673   0.124 -0.1725 -0.0976  0.0621
  173SOL     H1 1136   0.093   4.614   0.174 -0.9843  0.9773  0.4896
  173SOL     H2 1137   0.095   4.695   0.047  0.5414 -0.7233 -0.6245
  173SOL    EPW 1138   0.136   4.669   0.121 -0.1829 -0.0497  0.0345
  174SOL      O 1139   4.647   1.607   0.656 -0.1126  0.3388  0.6173
  174SOL     H1 1140   4.641   1.685   0.601  0.4971 -0.0255  0.0138
  174SOL     H2 1141   4.643   1.534   0.594  0.9158 -0.0710  1.0083
  174SOL    EPW 1142   4.646   1.608   0.643  0.0622  0.2562  0.5946
  175SOL      O 1143   5.018   2.787   0.418  0.3680  0.4140 -0.1872
  175SOL     H1 1144   5.018   2.882   0.425  1.5550  0.3492  1.1030
  175SOL     H2 1145   4.946   2.758   0.474 -0.4790  0.5447 -1.1618
  175SOL    EPW 1146   5.010   2.794   0.424  0.4043  0.4211 -0.1535
  176SOL      O 1147   5.729   1.127   0.330 -0.4503 -0.1015  0.0089
  176SOL     H1 1148   5.663   1.058   0.327 -1.2649  0.6770 -0.1543
  176SOL     H2 1149   5.686   1.200   0.373 -0.9306  1.6573 -3.1220
  176SOL    EPW 1150   5.718   1.127   0.334 -0.5885  0.1692 -0.3425
  177SOL      O 1151   5.478   5.589   3.577  0.0219  0.3467 -0.5874
  177SOL     H1 1152   5.454   5.680   3.557 -1.6666 -0.1234 -0.8105
  177SOL     H2 1153   5.448   5.576   3.667 -0.5951 -0.2615 -0.8759
  177SOL    EPW 1154   5.472   5.597   3.584 -0.2241  0.2317 -0.6420
  178SOL      O 1155   0.865   1.651   1.426  0.1822  0.1194  0.3279
  178SOL     H1 1156   0.903   1.565   1.406 -0.7786 -0.1583 -0.3960
  178SOL     H2 1157   0.775   1.632   1.454 -0.2258  0.9066 -0.3839
  178SOL    EPW 1158   0.859   1.640   1.427  0.0362  0.1737  0.1747
  179SOL      O 1159   4.747   5.505   1.792  0.5165  0.3086  0.3246
  179SOL     H1 1160   4.667   5.537   1.749  0.9054  3.0305  1.4423
  179SOL     H2 1161   4.804   5.478   1.719 -0.2332  1.2872 -0.6594
  179SOL    EPW 1162   4.744   5.506   1.779  0.4780  0.7034  0.3388
  180SOL      O 1163   2.951   5.719   0.610  0.2371 -0.3094 -0.1805
  180SOL     H1 1164   2.888   5.650   0.633 -0.1257 -0.2495 -0.9601
  180SOL     H2 1165   2.936   5.734   0.517 -0.0403  1.1726  0.0851
  180SOL    EPW 1166   2.943   5.713   0.603  0.1688 -0.1449 -0.2354
  181SOL      O 1167   4.864   4.493   0.423 -0.2697  0.3187  0.2625
  181SOL     H1 1168   4.947   4.540   0.435 -0.9756  1.9148 -0.8279
  181SOL     H2 1169   4.889   4.400   0.423  1.9222  0.7777 -2.4619
  181SOL    EPW 1170   4.876   4.488   0.425 -0.1112  0.5379 -0.1445
  182SOL      O 1171   1.064   2.091   0.176  0.2913  0.6202 -0.5375
  182SOL     H1 1172   0.986   2.047   0.209  1.0038 -0.2092  0.1000
  182SOL     H2 1173   1.131   2.023   0.174  1.1755  1.4613 -0.4331
  182SOL    EPW 1174   1.063   2.079   0.179  0.4617  0.6214 -0.4584
  183SOL      O 1175   5.852   5.628   0.157  0.0631  0.6808  0.3800
  183SOL     H1 1176   5.935   5.656   0.196  0.2204 -0.5865  0.9917
  183SOL     H2 1177   5.878   5.578   0.079  0.0713 -1.8944  1.9024
  183SOL    EPW 1178   5.864   5.626   0.153  0.0808  0.2709  0.6077
  184SOL      O 1179   3.022   1.262   3.662 -0.7674  0.1613  0.5897
  184SOL     H1 1180   3.050   1.230   3.576 -2.6161  0.8934 -0.3374
  184SOL     H2 1181   3.063   1.202   3.724 -0.2014 -1.0002 -0.8423
  184SOL    EPW 1182   3.029   1.252   3.660 -0.9042  0.1155  0.3381
  185SOL      O 1183   0.974   1.999   1.124  0.6110 -0.2806  0.0699
  185SOL     H1 1184   0.976   2.012   1.030  2.2519  2.1253  0.3576
  185SOL     H2 1185   1.061   2.025   1.154  0.3724 -1.6548  2.2068
  185SOL    EPW 1186   0.984   2.003   1.118  0.7606 -0.1705  0.3285
  186SOL      O 1187   4.584   2.661   1.984  0.1367  0.0692  0.2114
  186SOL     H1 1188   4.615   2.657   1.894 -0.2211 -0.7092  0.1179
  186SOL     H2 1189   4.640   2.727   2.025  0.7241 -0.0235 -0.4155
  186SOL    EPW 1190   4.593   2.668   1.979  0.1612 -0.0237  0.1345
  187SOL      O 1191   1.915   3.717   2.642 -0.2542  0.7634  0.2577
  187SOL     H1 1192   1.991   3.678   2.597 -1.1134 -0.8482  0.1389
  187SOL     H2 1193   1.896   3.796   2.591  0.1170  0.1066 -0.9462
  187SOL    EPW 1194   1.921   3.721   2.631 -0.3063  0.5214  0.1166
  188SOL      O 1195   5.117   5.570   0.836  0.6329 -0.2106  0.3969
  188SOL     H1 1196   5.051   5.538   0.775 -1.7960 -0.3737  2.9444
  188SOL     H2 1197   5.183   5.612   0.780 -1.6681  0.1229 -2.2662
  188SOL    EPW 1198   5.117   5.571   0.823  0.1284 -0.1924  0.3846
  189SOL      O 1199   2.721   4.037   2.455 -0.0010 -0.4608 -0.2515
  189SOL     H1 1200   2.699   4.130   2.452 -2.7351 -1.0251 -0.3026
  189SOL     H2 1201   2.695   4.004   2.370  2.0641 -1.1400 -0.6922
  189SOL    EPW 1202   2.716   4.044   2.446 -0.0724 -0.5935 -0.3039
  190SOL      O 1203   5.749   3.292   3.215  0.6867 -0.0673 -0.5111
  190SOL     H1 1204   5.747   3.327   3.304  2.5386 -2.8534  0.7701
  190SOL     H2 1205   5.669   3.240   3.207  1.5968 -1.6785  0.4439
  190SOL    EPW 1206   5.740   3.290   3.223  0.9814 -0.5364 -0.2725
  191SOL      O 1207   0.437   4.752   3.729 -0.1698 -0.3287  0.2512
  191SOL     H1 1208   0.521   4.783   3.696 -0.2216 -0.9344 -0.4982
  191SOL     H2 1209   0.458   4.708   3.811 -0.1432  1.9304  1.5494
  191SOL    EPW 1210   0.448   4.751   3.734 -0.1725 -0.1523  0.3098
  192SOL      O 1211   0.164   1.525   0.103  0.1017  0.5493 -0.2503
  192SOL     H1 1212   0.144   1.609   0.144  0.5290  0.5130  0.0474
  192SOL     H2 1213   0.113   1.524   0.022 -0.8717  0.5553  0.3512
  192SOL    EPW 1214   0.157   1.534   0.099  0.0435  0.5460 -0.1543
  193SOL      O 1215   1.648   1.078   2.028  0.3232  0.2672  0.3790
  193SOL     H1 1216   1.607   1.152   1.984  0.0723 -0.3884 -0.5219
  193SOL     H2 1217   1.602   1.069   2.111 -0.8799 -0.0018 -0.2999
  193SOL    EPW 1218   1.639   1.085   2.032  0.1681  0.1686  0.2105
  194SOL      O 1219   4.910   3.297   3.155 -0.0734 -0.6958 -0.0942
  194SOL     H1 1220   4.953   3.239   3.093  0.1237  0.8846 -1.5002
  194SOL     H2 1221   4.964   3.291   3.234  0.6049 -1.5251 -0.6067
  194SOL    EPW 1222   4.921   3.290   3.157  0.0200 -0.6157 -0.2988
  195SOL      O 1223   5.217   5.040   1.064  0.4885  0.5285  0.4602
  195SOL     H1 1224   5.138   4.988   1.050  1.0162  0.0479 -0.8805
  195SOL     H2 1225   5.289   4.981   1.044  1.1049  1.8768 -1.6838
  195SOL    EPW 1226   5.217   5.029   1.060  0.6106  0.6211  0.0885
  196SOL      O 1227   1.870   1.798   3.838 -0.2920 -0.2159 -0.4957
  196SOL     H1 1228   1.952   1.819   3.795  0.3110 -0.3260  0.5590
  196SOL     H2 1229   1.871   1.702   3.845  1.1698 -0.1172  2.5511
  196SOL    EPW 1230   1.879   1.790   3.834 -0.0717 -0.2171 -0.0582
  197SOL      O 1231   0.010   0.614   1.390 -0.1476  0.4937  0.8144
  197SOL     H1 1232  -0.085   0.622   1.401 -0.1696  1.3278  0.1404
  197SOL     H2 1233   0.026   0.520   1.387 -1.2868  0.3101 -1.5995
  197SOL    EPW 1234   0.001   0.605   1.391 -0.2715  0.5631  0.4850
  198SOL      O 1235   3.733   2.394   3.994  0.2891 -0.7025  1.2043
  198SOL     H1 1236   3.727   2.336   3.918  0.4226 -1.5361  1.8162
  198SOL     H2 1237   3.814   2.368   4.038  1.1306  0.9373  0.7112
  198SOL    EPW 1238   3.741   2.385   3.991  0.3931 -0.6165  1.2170
  199SOL      O 1239   1.073   1.499   1.009 -0.4787 -0.0239  0.1833
  199SOL     H1 1240   1.050   1.572   1.067 -0.5183 -1.3404  1.9115
  199SOL     H2 1241   1.167   1.488   1.021 -0.3284  0.2154 -0.6786
  199SOL    EPW 1242   1.081   1.506   1.016 -0.4669 -0.1388  0.2757
  200SOL      O 1243   0.470   1.401   1.755  0.3290 -0.7161 -0.7629
  200SOL     H1 1244   0.412   1.423   1.828 -0.5564 -1.9503 -1.0608
  200SOL     H2 1245   0.557   1.393   1.795  0.1538  0.2185 -0.1504
  200SOL    EPW 1246   0.473   1.403   1.767  0.2158 -0.7480 -0.7294
  201SOL      O 1247   0.269   3.340   2.430 -0.6720  0.2467 -0.0761
  201SOL     H1 1248   0.354   3.336   2.475  0.5585  1.3405 -2.0990
  201SOL     H2 1249   0.205   3.312   2.495  1.0410  1.0765  2.0876
  201SOL    EPW 1250   0.272   3.337   2.441 -0.3580  0.4519 -0.0611
  202SOL      O 1251   3.482   3.099   2.340  0.1357  0.2990  0.3291
  202SOL     H1 1252   3.540   3.051   2.400  1.3619  1.1880 -0.1016
  202SOL     H2 1253   3.404   3.117   2.392 -1.0970 -3.4382  0.0671
  202SOL    EPW 1254   3.480   3.096   2.352  0.1350 -0.0048  0.2552
  203SOL      O 1255   1.867   4.502   3.925 -0.4113 -0.1488 -0.0944
  203SOL     H1 1256   1.869   4.457   3.841 -2.1343  0.5227 -0.5470
  203SOL     H2 1257   1.847   4.593   3.902 -0.3199  0.1535  0.9936
  203SOL    EPW 1258   1.865   4.507   3.914 -0.5853 -0.0449 -0.0266
  204SOL      O 1259   0.227   3.917   2.546 -0.1240 -0.0054 -0.0641
  204SOL     H1 1260   0.292   3.958   2.602 -0.9072  0.0946  0.7994
  204SOL     H2 1261   0.205   3.985   2.481  0.0544  0.2356  0.1284
  204SOL    EPW 1262   0.231   3.929   2.545 -0.1885  0.0310  0.0485
  205SOL      O 1263   4.706   1.373   2.655  0.2044 -0.1368  0.3544
  205SOL     H1 1264   4.642   1.369   2.726 -0.6496 -0.3456 -0.4149
  205SOL     H2 1265   4.739   1.463   2.657  0.4987 -0.2551  1.2737
  205SOL    EPW 1266   4.703   1.382   2.663  0.1447 -0.1717  0.3704
  206SOL      O 1267   1.743   3.151   1.612  0.0857 -0.2451 -0.2992
  206SOL     H1 1268   1.791   3.075   1.645 -0.0462 -0.3954 -0.4494
  206SOL     H2 1269   1.651   3.129   1.628  0.1043  0.5083  0.9951
  206SOL    EPW 1270   1.738   3.140   1.617  0.0736 -0.1807 -0.1771
  207SOL      O 1271   1.961   1.938   3.418 -0.1171  0.2535 -0.7051
  207SOL     H1 1272   2.051   1.945   3.451  0.1633 -0.3805 -1.3250
  207SOL     H2 1273   1.908   1.933   3.498  0.5182 -0.7826 -0.3304
  207SOL    EPW 1274   1.965   1.939   3.430 -0.0194  0.0754 -0.7313
  208SOL      O 1275   5.018   0.736   2.438  0.0707  0.2722 -0.0280
  208SOL     H1 1276   4.927   0.762   2.445  0.3657  1.4016 -0.0860
  208SOL     H2 1277   5.030   0.715   2.345 -0.0201  0.6100 -0.1188
  208SOL    EPW 1278   5.010   0.737   2.429  0.0925  0.4287 -0.0438
  209SOL      O 1279   0.655   5.265   3.524  0.1157 -0.5306 -0.1279
  209SOL     H1 1280   0.599   5.318   3.468  0.1638  0.6150  0.8798
  209SOL     H2 1281   0.735   5.317   3.534  0.4577 -1.1239  0.2997
  209SOL    EPW 1282   0.658   5.276   3.519  0.1573 -0.4717  0.0252
  210SOL      O 1283   2.902   3.518   3.458  0.1183  0.3522  0.2594
  210SOL     H1 1284   2.948   3.456   3.401  1.9964  0.9868  1.0211
  210SOL     H2 1285   2.871   3.587   3.399 -0.2263 -0.2765 -0.3147
  210SOL    EPW 1286   2.903   3.518   3.446  0.2819  0.3529  0.2794
  211SOL      O 1287   1.169   5.244   0.943  0.1997 -0.2591 -0.1767
  211SOL     H1 1288   1.164   5.338   0.928 -0.6814 -0.0660  1.1691
  211SOL     H2 1289   1.142   5.205   0.860 -2.6106  0.7269  0.1796
  211SOL    EPW 1290   1.165   5.250   0.933 -0.1941 -0.1333  0.0049
  212SOL      O 1291   2.439   3.198   0.348  0.1654 -0.0214  0.1110
  212SOL     H1 1292   2.411   3.203   0.440 -0.9737 -0.5621 -0.1779
  212SOL     H2 1293   2.370   3.147   0.306  1.4648 -1.1430 -0.7416
  212SOL    EPW 1294   2.428   3.193   0.353  0.1825 -0.1987 -0.0108
  213SOL      O 1295   0.261   3.741   3.893  0.1626  0.8701 -0.0616
  213SOL     H1 1296   0.218   3.723   3.809 -1.6895 -1.7392  1.3009
  213SOL     H2 1297   0.301   3.658   3.918 -1.6170  0.7387  2.8187
  213SOL    EPW 1298   0.261   3.731   3.887 -0.2248  0.5777  0.3910
  214SOL      O 1299   3.526   0.951   2.206  0.2170 -0.2234 -0.5470
  214SOL     H1 1300   3.483   0.896   2.271  0.5148  0.1079 -0.0609
  214SOL     H2 1301   3.618   0.925   2.210  0.6240  1.2603  0.6932
  214SOL    EPW 1302   3.532   0.942   2.213  0.2922 -0.0297 -0.3628
  215SOL      O 1303   4.027   0.151   2.584 -0.0551 -0.0307 -0.1672
  215SOL     H1 1304   4.017   0.056   2.591 -0.7100  0.1200  1.3551
  215SOL     H2 1305   3.957   0.186   2.638  1.0151  1.3102  0.4008
  215SOL    EPW 1306   4.018   0.145   2.590 -0.0108  0.1284  0.0558
  216SOL      O 1307   2.732   1.645   2.590 -0.0407  0.0002 -0.0215
  216SOL     H1 1308   2.771   1.559   2.578  0.7434  0.2278  0.8079
  216SOL     H2 1309   2.714   1.651   2.684 -1.8663  0.0082 -0.3230
  216SOL    EPW 1310   2.734   1.637   2.598 -0.1518  0.0254  0.0348
  217SOL      O 1311   5.347   1.025   0.001 -0.4442  0.2220 -0.1110
  217SOL     H1 1312   5.330   1.056   0.090  1.2249 -1.1628  0.7488
  217SOL     H2 1313   5.273   1.058  -0.051 -0.9334  1.8913  1.5708
  217SOL    EPW 1314   5.337   1.032   0.005 -0.3183  0.2523  0.1601
  218SOL      O 1315   4.503   4.688   3.866  0.2239  0.3000  0.4051
  218SOL     H1 1316   4.496   4.655   3.956 -0.9208  1.9826  0.9765
  218SOL     H2 1317   4.525   4.610   3.814 -0.2794 -0.9343  1.9601
  218SOL    EPW 1318   4.505   4.676   3.870  0.0481  0.3478  0.6319
  219SOL      O 1319   4.082   0.624   1.656  0.9411 -0.0913  0.2018
  219SOL     H1 1320   4.041   0.710   1.657 -0.9520 -0.8701 -1.8436
  219SOL     H2 1321   4.137   0.624   1.578 -0.5888 -1.3232 -0.9328
  219SOL    EPW 1322   4.083   0.633   1.648  0.5759 -0.3058 -0.1374
  220SOL      O 1323   4.277   0.730   0.272 -0.3596  0.1570 -0.9771
  220SOL     H1 1324   4.310   0.740   0.362 -1.9887  0.5453 -0.3923
  220SOL     H2 1325   4.354   0.746   0.217  0.3720  1.3512  0.3153
  220SOL    EPW 1326   4.289   0.733   0.276 -0.4553  0.3258 -0.7768
  221SOL      O 1327   1.487   0.105   1.577 -0.0215 -0.3890 -0.0449
  221SOL     H1 1328   1.546   0.164   1.531 -1.7737  2.4353  1.0426
  221SOL     H2 1329   1.409   0.101   1.521 -0.2158 -1.1120  0.2649
  221SOL    EPW 1330   1.485   0.110   1.566 -0.2291 -0.1648  0.1041
  222SOL      O 1331   3.207   2.438   3.229 -0.4714  0.0754 -0.4528
  222SOL     H1 1332   3.163   2.521   3.250  1.1049  0.6668  0.7146
  222SOL     H2 1333   3.143   2.370   3.251 -0.7349  0.8900  1.4574
  222SOL    EPW 1334   3.195   2.440   3.233 -0.3314  0.2254 -0.1245
  223SOL      O 1335   4.621   5.710   3.173 -0.5694  0.6475 -0.2281
  223SOL     H1 1336   4.581   5.640   3.122 -0.6608  1.3960 -1.2320
  223SOL     H2 1337   4.703   5.730   3.126  0.5606 -0.2581  1.2844
  223SOL    EPW 1338   4.626   5.705   3.162 -0.4586  0.6307 -0.1738
  224SOL      O 1339   5.750   0.820   1.856  0.1033 -0.3838  0.0126
  224SOL     H1 1340   5.705   0.843   1.775 -1.2169  0.7388  1.0163
  224SOL     H2 1341   5.750   0.725   1.858  2.5792 -0.5978 -2.5770
  224SOL    EPW 1342   5.746   0.812   1.847  0.2266 -0.2869 -0.1566
  225SOL      O 1343   2.027   1.358   2.473  0.0704 -0.6057  0.2756
  225SOL     H1 1344   2.106   1.399   2.508 -0.4304  1.1250 -0.4973
  225SOL     H2 1345   2.047   1.343   2.380 -0.1216 -1.1917  0.3266
  225SOL    EPW 1346   2.037   1.361   2.467 -0.0035 -0.4836  0.1986
  226SOL      O 1347   2.868   3.051   0.585  0.5714 -0.6154 -0.8988
  226SOL     H1 1348   2.821   3.101   0.651  0.8502 -1.4612 -0.0335
  226SOL     H2 1349   2.800   3.026   0.521  0.4504  0.8970 -1.3951
  226SOL    EPW 1350   2.856   3.053   0.585  0.5882 -0.5443 -0.8595
  227SOL      O 1351   0.683   1.650   2.675 -0.0048  0.1133  0.2822
  227SOL     H1 1352   0.683   1.600   2.593 -0.1532  1.0932 -0.3385
  227SOL     H2 1353   0.776   1.659   2.697  0.0170 -0.5361  0.4711
  227SOL    EPW 1354   0.693   1.645   2.668 -0.0183  0.1486  0.2362
  228SOL      O 1355   1.175   2.226   3.686  0.2868  0.0822 -0.4736
  228SOL     H1 1356   1.159   2.174   3.608  0.3303  1.1012 -1.1815
  228SOL     H2 1357   1.204   2.163   3.752  0.4103 -0.7658 -1.3237
  228SOL    EPW 1358   1.176   2.214   3.685  0.3046  0.1005 -0.6398
  229SOL      O 1359   1.787   4.139   4.120 -0.3445  0.2555 -0.2421
  229SOL     H1 1360   1.800   4.151   4.026  0.8170 -2.0186 -0.4318
  229SOL     H2 1361   1.871   4.104   4.151 -0.6172  1.2092  1.7109
  229SOL    EPW 1362   1.798   4.137   4.113 -0.2497  0.1147 -0.0540
  230SOL      O 1363   2.385   0.360   3.385  0.2551 -0.3820  0.0043
  230SOL     H1 1364   2.460   0.309   3.355  0.6126  0.2919 -0.2653
  230SOL     H2 1365   2.404   0.379   3.477 -0.5147 -1.8593  0.4987
  230SOL    EPW 1366   2.395   0.357   3.391  0.2111 -0.4677  0.0283
  231SOL      O 1367   0.486   3.143   2.077 -0.0319  0.0103 -0.5338
  231SOL     H1 1368   0.569   3.113   2.039 -0.0653 -1.1914  0.2993
  231SOL     H2 1369   0.510   3.178   2.163 -0.4082 -0.6035 -0.1689
  231SOL    EPW 1370   0.497   3.143   2.082 -0.0756 -0.1834 -0.4060
  232SOL      O 1371   5.163   2.122   2.707 -0.6417  0.2461 -0.0853
  232SOL     H1 1372   5.178   2.211   2.739 -2.0013  0.9054 -1.1725
  232SOL     H2 1373   5.223   2.113   2.633 -0.0711  0.0213  0.3952
  232SOL    EPW 1374   5.171   2.131   2.702 -0.7258  0.2925 -0.1500
  233SOL      O 1375   3.536   3.357   2.306 -0.0045 -0.3769 -0.4841
  233SOL     H1 1376   3.617   3.386   2.263  0.1301 -0.7343 -0.4732
  233SOL     H2 1377   3.556   3.269   2.338 -0.6772 -0.8313 -1.2671
  233SOL    EPW 1378   3.547   3.351   2.305 -0.0619 -0.4635 -0.5665
  234SOL      O 1379   1.785   3.086   0.158 -0.2111  0.4608  0.6076
  234SOL     H1 1380   1.792   3.014   0.221 -1.4633 -0.6698 -0.4801
  234SOL     H2 1381   1.875   3.107   0.135  0.1742 -1.2925  0.3919
  234SOL    EPW 1382   1.795   3.081   0.162 -0.3035  0.1531  0.4686
  235SOL      O 1383   3.816   1.878   3.331  0.8574  0.6123  0.3552
  235SOL     H1 1384   3.764   1.835   3.399  0.0125 -0.9199 -1.1643
  235SOL     H2 1385   3.898   1.829   3.330  0.6951  0.3388  0.0031
  235SOL    EPW 1386   3.819   1.868   3.338  0.7499  0.4196  0.1555
  236SOL      O 1387   2.628   0.533   1.732 -0.5318  0.0735 -0.2532
  236SOL     H1 1388   2.658   0.611   1.779 -1.2600  0.6300 -0.7011
  236SOL     H2 1389   2.544   0.559   1.694 -1.5011 -1.3828  0.8017
  236SOL    EPW 1390   2.622   0.544   1.733 -0.7129 -0.0225 -0.1885
  237SOL      O 1391   5.021   3.145   0.759 -0.2947 -0.1636 -0.5147
  237SOL     H1 1392   4.975   3.193   0.827  1.9199  0.3543  0.6942
  237SOL     H2 1393   4.990   3.055   0.768  0.9804 -0.4257  2.2105
  237SOL    EPW 1394   5.013   3.140   0.767  0.0776 -0.1363 -0.0950
  238SOL      O 1395   2.119   0.893   3.508  0.0116  0.0851  0.5705
  238SOL     H1 1396   2.151   0.928   3.592  2.0982 -0.1083 -0.0986
  238SOL     H2 1397   2.116   0.798   3.522 -1.2012  0.1552  0.9083
  238SOL    EPW 1398   2.122   0.887   3.519  0.1048  0.0719  0.5352
  239SOL      O 1399   4.262   1.596   2.572  0.1071 -0.6078 -0.4702
  239SOL     H1 1400   4.177   1.623   2.537  0.7218 -0.3839 -1.8582
  239SOL     H2 1401   4.271   1.505   2.545  0.5762 -0.4388 -0.9097
  239SOL    EPW 1402   4.254   1.589   2.565  0.2227 -0.5659 -0.6652
  240SOL      O 1403   4.519   1.319   3.321 -0.1421  0.3008 -0.4455
  240SOL     H1 1404   4.491   1.405   3.288  2.1798  0.8026 -1.2638
  240SOL     H2 1405   4.571   1.339   3.399  1.8178 -0.1684 -1.5672
  240SOL    EPW 1406   4.521   1.331   3.326  0.3147  0.3043 -0.6525
  241SOL      O 1407   0.367   2.581   2.670 -0.6013 -0.6213 -0.8161
  241SOL     H1 1408   0.327   2.605   2.753  0.2808 -0.7517 -0.3461
  241SOL     H2 1409   0.306   2.518   2.631 -1.6988  0.4790 -0.9191
  241SOL    EPW 1410   0.357   2.577   2.674 -0.6243 -0.5178 -0.7769
  242SOL      O 1411   2.768   4.824   3.945 -0.2276 -0.0581  0.3680
  242SOL     H1 1412   2.696   4.762   3.956 -0.2296 -0.1922 -0.3240
  242SOL     H2 1413   2.740   4.902   3.994 -2.2062  0.9713 -2.1219
  242SOL    EPW 1414   2.757   4.826   3.951 -0.4389  0.0374  0.0286
  243SOL      O 1415   0.812   0.698   2.147  0.0200 -0.7549 -0.0805
  243SOL     H1 1416   0.868   0.752   2.091 -0.3670  1.1420  1.2754
  243SOL     H2 1417   0.870   0.667   2.217 -0.1649 -0.5494  0.1637
  243SOL    EPW 1418   0.824   0.700   2.148 -0.0410 -0.5306  0.0902
  244SOL      O 1419   3.297   3.846   1.726 -1.0072  0.3241 -0.2426
  244SOL     H1 1420   3.342   3.839   1.811  1.2406  1.4202 -1.2555
  244SOL     H2 1421   3.259   3.759   1.713  0.4586 -0.5691  0.9302
  244SOL    EPW 1422   3.298   3.836   1.734 -0.6110  0.3458 -0.2255
  245SOL      O 1423   0.999   4.192   0.996  0.1659  0.1957  0.1625
  245SOL     H1 1424   0.996   4.155   0.908  0.0121 -0.8591  0.5980
  245SOL     H2 1425   1.043   4.276   0.985 -2.5009  1.5097 -1.4089
  245SOL    EPW 1426   1.003   4.197   0.985 -0.1350  0.2233  0.0413
  246SOL      O 1427   0.728   0.994   1.774 -0.2484  0.5405 -0.5254
  246SOL     H1 1428   0.678   1.023   1.698 -0.3375  0.8422 -0.3506
  246SOL     H2 1429   0.694   1.046   1.847 -0.7106 -0.2889 -0.1275
  246SOL    EPW 1430   0.719   1.002   1.774 -0.3072  0.4842 -0.4643
  247SOL      O 1431   1.338   5.336   2.598 -0.0926  0.4076 -0.0688
  247SOL     H1 1432   1.353   5.307   2.688  1.0530  0.6306 -0.1805
  247SOL     H2 1433   1.243   5.346   2.593 -0.0462  2.6939  1.8493
  247SOL    EPW 1434   1.329   5.334   2.607  0.0345  0.6753  0.1239
  248SOL      O 1435   0.081   0.153   1.165  0.2021 -0.5382 -0.5478
  248SOL     H1 1436   0.156   0.175   1.110  0.1411 -2.5032 -1.5105
  248SOL     H2 1437   0.007   0.152   1.104 -0.3864  0.1291  0.1495
  248SOL    EPW 1438   0.081   0.155   1.152  0.1328 -0.6766 -0.5761
  249SOL      O 1439   1.828   3.546   3.383 -0.3455  0.1057 -0.3238
  249SOL     H1 1440   1.835   3.633   3.422  1.8536  0.5353 -1.4940
  249SOL     H2 1441   1.874   3.489   3.446 -1.0924 -0.0864  0.0572
  249SOL    EPW 1442   1.834   3.549   3.394 -0.1906  0.1311 -0.4080
  250SOL      O 1443   0.267   5.080   1.473  0.7143 -0.0417 -0.0267
  250SOL     H1 1444   0.339   5.142   1.458  0.3579  0.1154 -1.1698
  250SOL     H2 1445   0.269   5.023   1.397  1.0916 -1.5300  1.0410
  250SOL    EPW 1446   0.275   5.080   1.464  0.7165 -0.1837 -0.0348
  251SOL      O 1447   1.454   1.624   3.639  0.3975 -0.0800  0.3127
  251SOL     H1 1448   1.381   1.597   3.695 -0.0101 -0.7127 -0.5077
  251SOL     H2 1449   1.447   1.719   3.635  1.0011  0.0826  2.0842
  251SOL    EPW 1450   1.445   1.631   3.645  0.4184 -0.1302  0.4142
  252SOL      O 1451   5.799   0.777   0.048 -0.6946  0.0062  0.0855
  252SOL     H1 1452   5.844   0.730  -0.023 -0.7832 -1.6477  1.0746
  252SOL     H2 1453   5.723   0.722   0.068 -0.8293  0.6040  1.2597
  252SOL    EPW 1454   5.796   0.766   0.042 -0.7184 -0.1064  0.3163
  253SOL      O 1455   0.706   4.837   3.742 -0.5497 -0.0612 -1.0032
  253SOL     H1 1456   0.651   4.890   3.799 -0.2605 -0.2824 -0.5133
  253SOL     H2 1457   0.782   4.892   3.723  1.0691 -1.1811  1.6530
  253SOL    EPW 1458   0.708   4.848   3.746 -0.3461 -0.2042 -0.6676
  254SOL      O 1459   3.321   0.694   2.643  0.8211  0.2296 -0.3540
  254SOL     H1 1460   3.263   0.663   2.712  0.5105  1.2856 -0.1259
  254SOL     H2 1461   3.354   0.778   2.676  1.9990 -0.0621 -0.7486
  254SOL    EPW 1462   3.319   0.700   2.654  0.9136  0.3112 -0.3717
  255SOL      O 1463   5.343   1.344   0.376  0.0748  0.0589 -0.3070
  255SOL     H1 1464   5.292   1.270   0.343 -0.4861 -0.2895  1.2628
  255SOL     H2 1465   5.419   1.304   0.417  0.4565  0.4473 -0.6298
  255SOL    EPW 1466   5.345   1.332   0.377  0.0557  0.0632 -0.1740
  256SOL      O 1467   0.958   3.763   0.886 -0.5590  0.0861 -0.4287
  256SOL     H1 1468   1.030   3.700   0.885 -0.1093  0.5821  0.4558
  256SOL     H2 1469   0.991   3.839   0.840 -0.2621  0.5852  0.5960
  256SOL    EPW 1470   0.969   3.764   0.881 -0.4793  0.1922 -0.2250
  257SOL      O 1471   3.456   5.725   1.245 -0.1110 -0.4762  0.3562
  257SOL     H1 1472   3.464   5.689   1.156  3.3438  1.4915 -0.3177
  257SOL     H2 1473   3.417   5.811   1.232 -1.6978 -1.0435  1.1013
  257SOL    EPW 1474   3.453   5.730   1.234  0.0883 -0.3268  0.3638
  258SOL      O 1475   1.016   5.759   3.118 -0.0525 -0.1606  0.4146
  258SOL     H1 1476   1.003   5.853   3.135  0.6883 -0.1349  0.8979
  258SOL     H2 1477   0.979   5.745   3.031 -0.0135  0.6177  0.2668
  258SOL    EPW 1478   1.011   5.768   3.111  0.0307 -0.0748  0.4504
  259SOL      O 1479   3.220   1.248   1.594  0.0367  0.6513 -0.0812
  259SOL     H1 1480   3.272   1.178   1.632 -1.1312 -0.8764 -1.1934
  259SOL     H2 1481   3.264   1.269   1.512 -1.3178 -1.0338 -1.3012
  259SOL    EPW 1482   3.230   1.243   1.589 -0.2324  0.3086 -0.3300
  260SOL      O 1483   3.757   3.522   1.877  0.8212 -0.1681  0.1130
  260SOL     H1 1484   3.689   3.464   1.842  1.5040  0.0966 -1.7519
  260SOL     H2 1485   3.722   3.610   1.863  1.8721  0.0072 -1.7023
  260SOL    EPW 1486   3.746   3.525   1.872  1.0061 -0.1211 -0.2796
  261SOL      O 1487   1.919   1.818   3.164  0.6256  0.0898 -0.3892
  261SOL     H1 1488   1.946   1.876   3.235  2.6842  0.6252 -1.5178
  261SOL     H2 1489   1.844   1.863   3.124 -1.1556 -0.6643  1.8956
  261SOL    EPW 1490   1.914   1.829   3.167  0.6552  0.0665 -0.2658
  262SOL      O 1491   1.480   2.727   1.304  0.4748  0.2841  0.2824
  262SOL     H1 1492   1.544   2.671   1.260 -1.2123 -0.3944 -1.3911
  262SOL     H2 1493   1.462   2.682   1.387  0.1976 -0.9288 -0.4189
  262SOL    EPW 1494   1.485   2.717   1.308  0.2652  0.0823  0.0290
  263SOL      O 1495   5.642   5.747   0.965  0.0497  0.4530 -0.0079
  263SOL     H1 1496   5.638   5.652   0.970 -0.3221  0.4137 -0.8705
  263SOL     H2 1497   5.727   5.766   0.926 -0.1365  0.4407 -0.4277
  263SOL    EPW 1498   5.651   5.739   0.961 -0.0098  0.4475 -0.1447
  264SOL      O 1499   0.044   2.748   1.743 -0.0369 -0.1677  0.7413
  264SOL     H1 1500  -0.001   2.831   1.758 -0.6035 -0.4166  0.4452
  264SOL     H2 1501  -0.003   2.685   1.798 -0.3554 -0.5252  0.0733
  264SOL    EPW 1502   0.034   2.750   1.751 -0.1313 -0.2324  0.6385
  265SOL      O 1503   1.906   3.332   1.480  0.0825  0.1825  0.6456
  265SOL     H1 1504   1.994   3.294   1.477  0.4574  1.0831 -0.6850
  265SOL     H2 1505   1.851   3.263   1.518  0.9222 -1.3224 -0.7610
  265SOL    EPW 1506   1.909   3.321   1.484  0.2120  0.1180  0.3536
  266SOL      O 1507   3.264   1.761   3.744 -0.0071 -0.1087 -0.9914
  266SOL     H1 1508   3.207   1.838   3.745 -0.7556 -0.6334  1.1261
  266SOL     H2 1509   3.286   1.746   3.836  2.3284 -0.8473 -1.6102
  266SOL    EPW 1510   3.260   1.767   3.754  0.1622 -0.2435 -0.8315
  267SOL      O 1511   4.308   4.076   3.842 -0.3990 -1.0580 -0.5017
  267SOL     H1 1512   4.224   4.085   3.797  0.0049 -0.4850 -1.1638
  267SOL     H2 1513   4.371   4.116   3.782 -0.0504  1.1601  1.2377
  267SOL    EPW 1514   4.305   4.081   3.831 -0.3187 -0.7602 -0.3868
  268SOL      O 1515   0.752   0.207   1.613  0.1469 -0.2470 -0.2345
  268SOL     H1 1516   0.666   0.165   1.610  0.2348 -0.5203  0.7653
  268SOL     H2 1517   0.732   0.300   1.620 -0.1030 -0.4051  1.4589
  268SOL    EPW 1518   0.740   0.213   1.613  0.1296 -0.2931  0.0528
  269SOL      O 1519   3.862   1.346   3.701 -0.1670  0.8030  0.7488
  269SOL     H1 1520   3.938   1.385   3.658  0.4339  1.1453  2.0770
  269SOL     H2 1521   3.804   1.320   3.629  1.6793 -0.4747 -0.3448
  269SOL    EPW 1522   3.864   1.348   3.689  0.0941  0.7032  0.7739
  270SOL      O 1523   3.879   1.045   1.911 -0.4255  0.3366  0.1700
  270SOL     H1 1524   3.891   1.100   1.834  1.3770  0.3880  0.4244
  270SOL     H2 1525   3.856   0.959   1.876 -1.7754  0.8641 -0.2975
  270SOL    EPW 1526   3.878   1.041   1.899 -0.3773  0.3984  0.1473
  271SOL      O 1527   5.756   2.948   1.860  0.1210  0.2771  0.1933
  271SOL     H1 1528   5.698   2.882   1.821  0.2006 -0.7288  1.6672
  271SOL     H2 1529   5.699   3.000   1.916  0.3729  0.2980  0.4330
  271SOL    EPW 1530   5.744   2.946   1.862  0.1564  0.1720  0.3761
  272SOL      O 1531   2.357   3.965   2.007  0.0353 -0.0753 -0.1456
  272SOL     H1 1532   2.366   4.055   1.976 -0.7743  0.2972  0.6634
  272SOL     H2 1533   2.344   3.973   2.101 -0.2418 -1.0202 -0.0942
  272SOL    EPW 1534   2.356   3.976   2.014 -0.0806 -0.1364 -0.0538
  273SOL      O 1535   0.407   2.175   4.022  0.0750 -0.4888  0.3522
  273SOL     H1 1536   0.333   2.149   3.968 -1.1403  1.0329  1.2011
  273SOL     H2 1537   0.392   2.134   4.107 -0.3902  0.6531  0.8462
  273SOL    EPW 1538   0.398   2.168   4.025 -0.1043 -0.2047  0.4954
  274SOL      O 1539   5.763   1.906   0.238 -0.4056 -0.5552 -0.4810
  274SOL     H1 1540   5.678   1.927   0.275  0.0830  1.6416 -0.4614
  274SOL     H2 1541   5.761   1.942   0.149  0.4749 -0.5134 -0.5016
  274SOL    EPW 1542   5.754   1.912   0.232 -0.2595 -0.3164 -0.4811
  275SOL      O 1543   1.150   5.836   0.711 -0.1845  0.6653  0.0737
  275SOL     H1 1544   1.132   5.845   0.804 -0.6264 -0.7237  0.1455
  275SOL     H2 1545   1.243   5.813   0.707 -0.2488  0.3704  0.2064
  275SOL    EPW 1546   1.158   5.834   0.720 -0.2385  0.4856  0.0955
  276SOL      O 1547   5.813   0.044   1.545  0.1001  0.3624 -0.2335
  276SOL     H1 1548   5.800   0.137   1.529 -0.7860  0.0045 -1.8006
  276SOL     H2 1549   5.801   0.003   1.459 -0.8174 -1.3259  0.6560
  276SOL    EPW 1550   5.810   0.050   1.534 -0.0923  0.1441 -0.3058
  277SOL      O 1551   1.726   1.627   3.567 -0.0333  0.4942 -0.5158
  277SOL     H1 1552   1.821   1.626   3.580  0.0552 -1.1794 -1.1080
  277SOL     H2 1553   1.711   1.702   3.509  0.7629  1.4904  0.5060
  277SOL    EPW 1554   1.735   1.635   3.562  0.0611  0.4220 -0.4699
  278SOL      O 1555   0.968   0.195   1.100  0.5154  0.0224 -0.0622
  278SOL     H1 1556   0.952   0.106   1.071 -0.7979  0.5653 -1.1222
  278SOL     H2 1557   0.942   0.195   1.193  0.3500 -0.6454 -0.1058
  278SOL    EPW 1558   0.963   0.186   1.107  0.3577  0.0091 -0.1799
  279SOL      O 1559   4.766   4.092   0.937 -0.2522 -0.3259  0.0162
  279SOL     H1 1560   4.787   3.999   0.939 -0.6118 -0.4302  2.9169
  279SOL     H2 1561   4.693   4.099   0.876 -1.4590 -2.2632  1.1540
  279SOL    EPW 1562   4.761   4.083   0.931 -0.4193 -0.5437  0.4470
  280SOL      O 1563   1.447   5.442   3.080 -0.0366 -0.0913  0.1860
  280SOL     H1 1564   1.540   5.463   3.070 -0.0418  0.8654  1.7819
  280SOL     H2 1565   1.402   5.513   3.035 -0.0030  0.0985  0.4508
  280SOL    EPW 1566   1.452   5.452   3.074 -0.0336  0.0310  0.3844
  281SOL      O 1567   4.156   2.443   0.326  0.7236 -0.1704  0.2940
  281SOL     H1 1568   4.162   2.512   0.260  0.6443 -0.2279  0.2252
  281SOL     H2 1569   4.121   2.368   0.278  1.4724 -0.4755  0.2058
  281SOL    EPW 1570   4.153   2.442   0.314  0.7950 -0.2091  0.2772
  282SOL      O 1571   5.659   4.573   2.622 -0.5352 -0.1893  0.0821
  282SOL     H1 1572   5.655   4.533   2.709 -1.8411 -1.5567 -0.5496
  282SOL     H2 1573   5.578   4.624   2.616 -0.7356 -0.5650 -0.5149
  282SOL    EPW 1574   5.650   4.574   2.631 -0.6959 -0.3752 -0.0490
  283SOL      O 1575   2.197   2.653   0.690  0.3553  0.3821 -0.2206
  283SOL     H1 1576   2.193   2.625   0.599  3.2484  0.4561 -0.4885
  283SOL     H2 1577   2.187   2.748   0.686 -1.3783  0.2192 -0.2176
  283SOL    EPW 1578   2.196   2.660   0.680  0.4790  0.3726 -0.2488
  284SOL      O 1579   4.394   1.618   1.072 -0.1212 -0.2085  0.5857
  284SOL     H1 1580   4.412   1.697   1.124 -1.0067 -0.6260  1.5622
  284SOL     H2 1581   4.301   1.602   1.085 -0.0081 -1.2605  0.1690
  284SOL    EPW 1582   4.386   1.625   1.079 -0.2036 -0.3652  0.6454
  285SOL      O 1583   5.655   3.659   1.217 -0.1752 -0.8531  0.3581
  285SOL     H1 1584   5.604   3.736   1.191  0.1648 -1.0806 -1.0246
  285SOL     H2 1585   5.590   3.589   1.223 -0.2452 -0.8128  0.0712
  285SOL    EPW 1586   5.642   3.660   1.215 -0.1464 -0.8731  0.1800
  286SOL      O 1587   4.773   5.479   3.654 -0.5310 -0.1626 -0.0894
  286SOL     H1 1588   4.839   5.545   3.630  0.5147 -0.8515  0.7778
  286SOL     H2 1589   4.694   5.530   3.671  0.0170  0.7918 -0.3033
  286SOL    EPW 1590   4.772   5.492   3.653 -0.3610 -0.1343 -0.0197
  287SOL      O 1591   4.367   5.682   1.834  0.3076  0.4600 -0.1143
  287SOL     H1 1592   4.366   5.591   1.863  2.6260 -0.3667 -2.2232
  287SOL     H2 1593   4.345   5.677   1.741  0.7437  2.0076 -0.3204
  287SOL    EPW 1594   4.365   5.672   1.827  0.6014  0.5369 -0.3612
  288SOL      O 1595   4.203   3.676   3.036  0.2376 -0.0399  0.4289
  288SOL     H1 1596   4.146   3.623   2.981 -1.2159  1.6320  0.2396
  288SOL     H2 1597   4.144   3.741   3.076  1.9077  1.3204  0.7733
  288SOL    EPW 1598   4.190   3.677   3.035  0.2607  0.2835  0.4454
  289SOL      O 1599   5.811   0.404   3.790  0.2392 -0.1939  0.6834
  289SOL     H1 1600   5.790   0.311   3.773  0.8198 -0.1596 -0.2996
  289SOL     H2 1601   5.841   0.406   3.880 -1.5154 -0.6664  1.3177
  289SOL    EPW 1602   5.812   0.394   3.798  0.1140 -0.2406  0.6462
  290SOL      O 1603   2.943   0.237   1.986 -0.2067 -0.6099  0.4202
  290SOL     H1 1604   2.972   0.320   1.946 -0.7954 -1.0348 -0.9524
  290SOL     H2 1605   2.983   0.169   1.931 -1.2566 -1.2141  0.3814
  290SOL    EPW 1606   2.950   0.239   1.976 -0.3815 -0.7197  0.2696
  291SOL      O 1607   2.079   1.949   0.521  0.2569  0.1728 -0.4897
  291SOL     H1 1608   2.143   1.896   0.474  1.3277  1.0172 -0.0159
  291SOL     H2 1609   2.085   2.036   0.482 -0.7640  0.2171 -0.5821
  291SOL    EPW 1610   2.086   1.953   0.512  0.2622  0.2676 -0.4490
  292SOL      O 1611   4.518   5.466   2.276  0.1343  0.1842 -0.2721
  292SOL     H1 1612   4.500   5.560   2.269 -0.6781  0.0148 -0.5477
  292SOL     H2 1613   4.541   5.439   2.187 -1.7232 -0.2776 -0.6542
  292SOL    EPW 1614   4.519   5.473   2.266 -0.1505  0.1168 -0.3422
  293SOL      O 1615   0.320   2.738   1.330  0.1439 -0.2281  0.3301
  293SOL     H1 1616   0.252   2.722   1.396 -0.5008  3.1904  0.6403
  293SOL     H2 1617   0.395   2.769   1.381 -0.4513  2.7278 -0.4610
  293SOL    EPW 1618   0.321   2.739   1.343  0.0117  0.4519  0.2788
  294SOL      O 1619   4.738   0.857   0.840  0.5734 -0.1762  0.8040
  294SOL     H1 1620   4.754   0.811   0.922 -1.4530  1.1099  2.0051
  294SOL     H2 1621   4.656   0.905   0.855  1.8430  2.7346 -0.7970
  294SOL    EPW 1622   4.731   0.857   0.850  0.4927  0.2716  0.7614
  295SOL      O 1623   0.106   2.203   0.813  0.3252 -0.4503 -0.2001
  295SOL     H1 1624   0.163   2.175   0.741  0.8382 -0.8658  0.3579
  295SOL     H2 1625   0.112   2.132   0.877 -0.5996 -0.3651 -0.0033
  295SOL    EPW 1626   0.112   2.192   0.812  0.2813 -0.4856 -0.1196
  296SOL      O 1627   1.286   5.265   2.344 -0.2475  0.3380  0.4488
  296SOL     H1 1628   1.289   5.225   2.258  2.1318  0.0137  0.6077
  296SOL     H2 1629   1.193   5.272   2.364 -0.8534  0.0494 -1.9463
  296SOL    EPW 1630   1.276   5.262   2.337 -0.0583  0.2726  0.2103
  297SOL      O 1631   2.657   2.180   2.735  0.0308  0.0894  0.4384
  297SOL     H1 1632   2.652   2.276   2.738 -1.7401  0.0184  1.1376
  297SOL     H2 1633   2.736   2.162   2.685 -1.5780  1.9328 -3.1787
  297SOL    EPW 1634   2.665   2.188   2.730 -0.3297  0.2785  0.1271
  298SOL      O 1635   0.496   4.438   3.598  0.2435  0.1741 -0.0513
  298SOL     H1 1636   0.518   4.344   3.602  0.6429  0.3153  2.3460
  298SOL     H2 1637   0.444   4.454   3.676 -0.4013  1.8566 -0.7790
  298SOL    EPW 1638   0.493   4.429   3.606  0.2173  0.3686  0.1268
  299SOL      O 1639   2.752   0.989   3.076  0.2047  0.0786  0.3943
  299SOL     H1 1640   2.774   0.896   3.080 -0.5251 -0.1219 -0.0289
  299SOL     H2 1641   2.688   1.002   3.146  2.5393  0.9471  2.5431
  299SOL    EPW 1642   2.747   0.981   3.084  0.3759  0.1498  0.5784
  300SOL      O 1643   3.704   2.646   3.042  0.0745  0.3029  0.1002
  300SOL     H1 1644   3.697   2.556   3.071 -1.3917  0.2097 -0.4673
  300SOL     H2 1645   3.665   2.698   3.112 -0.2756  0.3788 -0.1481
  300SOL    EPW 1646   3.699   2.642   3.052 -0.1193  0.3010  0.0132
  301SOL      O 1647   1.963   0.091   0.511  0.7173  0.1072  0.1048
  301SOL     H1 1648   2.035   0.154   0.511  0.3225  0.5723  0.7480
  301SOL     H2 1649   1.966   0.051   0.597  0.4821 -0.2019 -0.0287
  301SOL    EPW 1650   1.971   0.094   0.520  0.6501  0.1238  0.1592
  302SOL      O 1651   1.724   2.558   0.561  0.9271  0.8975  0.0569
  302SOL     H1 1652   1.747   2.651   0.558  0.6925  0.9385 -0.6604
  302SOL     H2 1653   1.630   2.557   0.579  0.8114  0.8207 -0.5275
  302SOL    EPW 1654   1.716   2.568   0.563  0.8897  0.8937 -0.0819
  303SOL      O 1655   1.436   1.038   2.765  0.0784 -0.6672 -0.0040
  303SOL     H1 1656   1.356   0.989   2.783 -0.4901  0.5838  1.0217
  303SOL     H2 1657   1.414   1.094   2.691 -0.2710  0.2333  0.7593
  303SOL    EPW 1658   1.425   1.038   2.759 -0.0195 -0.4377  0.1869
  304SOL      O 1659   0.412   5.727   3.732 -0.3063 -0.6796  0.1741
  304SOL     H1 1660   0.454   5.779   3.800 -0.7243 -1.6035  1.1740
  304SOL     H2 1661   0.481   5.713   3.667  0.7115 -1.4401  1.3700
  304SOL    EPW 1662   0.424   5.731   3.732 -0.2423 -0.8593  0.4083
  305SOL      O 1663   3.464   2.234   3.322 -0.3431  0.1161 -0.3265
  305SOL     H1 1664   3.389   2.230   3.263 -2.3930 -0.1626  2.1287
  305SOL     H2 1665   3.461   2.323   3.358  0.5935  0.1268 -0.2495
  305SOL    EPW 1666   3.455   2.243   3.319 -0.4618  0.0875 -0.0564
  306SOL      O 1667   4.784   1.071   0.389 -0.2033  0.1737  0.2550
  306SOL     H1 1668   4.775   1.098   0.297 -1.0138 -1.7758 -0.2916
  306SOL     H2 1669   4.694   1.061   0.420  0.0697  0.7977  1.2624
  306SOL    EPW 1670   4.774   1.073   0.382 -0.2607  0.0323  0.3042
  307SOL      O 1671   3.811   3.459   2.284 -0.0176  0.0173 -0.0855
  307SOL     H1 1672   3.825   3.418   2.370 -2.1529  0.4712  0.5386
  307SOL     H2 1673   3.784   3.549   2.305 -1.1016 -0.0205 -1.1925
  307SOL    EPW 1674   3.809   3.464   2.296 -0.3610  0.0617 -0.1370
  308SOL      O 1675   4.814   3.904   3.400 -0.5155 -0.3259  0.0062
  308SOL     H1 1676   4.773   3.990   3.404 -0.1212 -0.1147 -0.3820
  308SOL     H2 1677   4.905   3.922   3.379 -0.5768 -0.8681 -0.7651
  308SOL    EPW 1678   4.819   3.915   3.398 -0.4800 -0.3612 -0.1175
  309SOL      O 1679   1.537   3.572   3.010 -0.2113  0.1310  0.4428
  309SOL     H1 1680   1.445   3.563   3.035 -0.7974  0.1907 -1.5037
  309SOL     H2 1681   1.547   3.511   2.937  1.3086  0.1234  0.6425
  309SOL    EPW 1682   1.528   3.564   3.005 -0.1117  0.1366  0.2565
  310SOL      O 1683   1.715   5.329   3.604  0.2190  0.1468 -0.3042
  310SOL     H1 1684   1.672   5.245   3.621  4.0047 -1.8588  0.4771
  310SOL     H2 1685   1.738   5.325   3.511 -1.3906  1.3380 -0.7929
  310SOL    EPW 1686   1.713   5.319   3.596  0.4511  0.0599 -0.2730
  311SOL      O 1687   0.289   4.353   2.451 -0.1135 -0.4203 -0.1348
  311SOL     H1 1688   0.240   4.395   2.522 -2.1338 -3.0876  0.2038
  311SOL     H2 1689   0.364   4.313   2.495  1.4932  2.1087 -0.3747
  311SOL    EPW 1690   0.292   4.353   2.463 -0.1576 -0.4350 -0.1243
  312SOL      O 1691   0.889   5.653   3.470  0.7742 -0.1395  0.4385
  312SOL     H1 1692   0.909   5.735   3.515  0.0734 -0.1119  0.7119
  312SOL     H2 1693   0.924   5.665   3.381 -2.3128  1.8478 -0.6644
  312SOL    EPW 1694   0.895   5.663   3.465  0.3702  0.0755  0.3500
  313SOL      O 1695   2.669   1.680   1.187 -0.2976  0.2516  0.2463
  313SOL     H1 1696   2.600   1.698   1.124 -0.0767  0.5591  0.0896
  313SOL     H2 1697   2.744   1.653   1.133 -0.2373  0.0997  0.4040
  313SOL    EPW 1698   2.670   1.679   1.174 -0.2676  0.2682  0.2464
  314SOL      O 1699   1.641   1.446   3.776  0.2432 -0.0161  0.1960
  314SOL     H1 1700   1.587   1.426   3.852  0.1752  0.5227  0.2934
  314SOL     H2 1701   1.729   1.459   3.812  0.4352 -0.8041  0.0490
  314SOL    EPW 1702   1.645   1.445   3.788  0.2564 -0.0427  0.1907
  315SOL      O 1703   5.090   2.923   1.161  0.4449 -0.1167 -0.0813
  315SOL     H1 1704   5.075   2.840   1.206 -1.9354  0.2055 -0.1451
  315SOL     H2 1705   5.115   2.984   1.230  0.7321 -0.5337  0.1880
  315SOL    EPW 1706   5.091   2.921   1.173  0.2216 -0.1268 -0.0594
  316SOL      O 1707   1.424   0.982   1.625  0.8045  0.7392  0.2209
  316SOL     H1 1708   1.459   1.066   1.595  0.2068  1.3380  1.1223
  316SOL     H2 1709   1.332   0.984   1.599  1.3378 -0.7684 -2.0272
  316SOL    EPW 1710   1.418   0.991   1.619  0.7976  0.6423  0.0772
  317SOL      O 1711   4.530   5.002   0.413 -0.9300 -0.4174  0.0406
  317SOL     H1 1712   4.571   4.945   0.348 -1.2463  0.5498 -1.0387
  317SOL     H2 1713   4.587   5.079   0.417 -1.7525  0.2286 -0.2872
  317SOL    EPW 1714   4.540   5.004   0.407 -1.0515 -0.2453 -0.1095
  318SOL      O 1715   0.731   3.804   2.170  0.0206  0.5740 -0.3271
  318SOL     H1 1716   0.671   3.750   2.119  0.3429  0.0089 -0.1137
  318SOL     H2 1717   0.808   3.814   2.115 -0.3851  1.5774 -0.7393
  318SOL    EPW 1718   0.733   3.799   2.159  0.0117  0.6208 -0.3483
  319SOL      O 1719   5.139   2.459   2.403 -0.3136 -0.2766 -0.2910
  319SOL     H1 1720   5.107   2.382   2.356 -1.7517 -0.0498  0.2416
  319SOL     H2 1721   5.067   2.482   2.461  1.0726 -0.0282  1.4064
  319SOL    EPW 1722   5.128   2.453   2.404 -0.3191 -0.2259 -0.0531
  320SOL      O 1723   1.364   5.546   2.376 -0.3181  0.4464  0.3808
  320SOL     H1 1724   1.308   5.602   2.428 -0.9678 -1.1668  1.5055
  320SOL     H2 1725   1.326   5.548   2.288 -0.4886  1.5047  0.4719
  320SOL    EPW 1726   1.354   5.552   2.372 -0.4056  0.3872  0.5105
  321SOL      O 1727   1.777   2.093   0.528  0.0930 -0.5738 -0.6030
  321SOL     H1 1728   1.717   2.048   0.587 -0.1687  0.7765  0.2051
  321SOL     H2 1729   1.845   2.129   0.585 -0.1336  0.7110 -1.1069
  321SOL    EPW 1730   1.778   2.093   0.540  0.0409 -0.2927 -0.5705
  322SOL      O 1731   3.935   5.560   1.673  0.4887 -0.0040  0.2500
  322SOL     H1 1732   3.964   5.600   1.754  2.6028 -2.1376  0.6623
  322SOL     H2 1733   3.942   5.466   1.689  0.8558 -0.4970 -2.3470
  322SOL    EPW 1734   3.939   5.554   1.683  0.7534 -0.2842  0.0169
  323SOL      O 1735   4.575   1.740   3.936 -0.2607  0.4809 -0.0308
  323SOL     H1 1736   4.576   1.666   3.876 -1.5951 -1.2333  1.9079
  323SOL     H2 1737   4.492   1.784   3.918  0.7727  1.9195 -1.5554
  323SOL    EPW 1738   4.566   1.737   3.928 -0.2928  0.4515  0.0134
  324SOL      O 1739   3.136   0.223   3.308  0.2535  0.3771  0.6775
  324SOL     H1 1740   3.112   0.183   3.224  1.5137  1.9847 -0.5222
  324SOL     H2 1741   3.093   0.309   3.306  2.2563  1.4305  0.5225
  324SOL    EPW 1742   3.129   0.228   3.299  0.6016  0.6610  0.5330
  325SOL      O 1743   2.527   1.927   0.325  0.3833  0.3218  0.2520
  325SOL     H1 1744   2.610   1.924   0.279 -1.0841 -2.0215 -2.6006
  325SOL     H2 1745   2.470   1.980   0.269 -0.1000  2.0207  2.2149
  325SOL    EPW 1746   2.530   1.932   0.314  0.1752  0.2531  0.1571
  326SOL      O 1747   2.353   0.141   3.839  0.1154 -0.1688 -0.6692
  326SOL     H1 1748   2.426   0.087   3.869 -2.6846 -4.7119 -1.1714
  326SOL     H2 1749   2.372   0.157   3.747  1.0234 -0.2191 -0.5016
  326SOL    EPW 1750   2.363   0.137   3.832 -0.0864 -0.6588 -0.7049
  327SOL      O 1751   1.884   1.899   2.467 -0.4701 -0.1538  0.3343
  327SOL     H1 1752   1.917   1.836   2.404 -0.7419 -1.3259  1.3343
  327SOL     H2 1753   1.963   1.940   2.503 -0.2255 -0.8090  0.5631
  327SOL    EPW 1754   1.896   1.897   2.464 -0.4730 -0.3487  0.4654
  328SOL      O 1755   1.964   2.211   0.671 -1.0113 -0.2195 -0.6242
  328SOL     H1 1756   2.015   2.242   0.596 -1.7327  1.1920 -0.5582
  328SOL     H2 1757   2.016   2.140   0.707  1.3367  1.6364 -0.1004
  328SOL    EPW 1758   1.975   2.207   0.667 -0.8378  0.1290 -0.5613
  329SOL      O 1759   5.130   4.699   1.456 -0.3220  0.4132 -0.0566
  329SOL     H1 1760   5.052   4.739   1.495  0.1223  3.5695 -2.0467
  329SOL     H2 1761   5.120   4.711   1.362  2.3499  0.5890 -0.4139
  329SOL    EPW 1762   5.121   4.705   1.450  0.0104  0.7686 -0.3070
  330SOL      O 1763   4.242   2.542   2.936  0.0061  0.0622 -0.5159
  330SOL     H1 1764   4.174   2.511   2.876  0.0783 -0.0594 -0.5347
  330SOL     H2 1765   4.324   2.511   2.897 -0.0566 -1.4643  0.5148
  330SOL    EPW 1766   4.244   2.535   2.925  0.0071 -0.1136 -0.4080
  331SOL      O 1767   3.398   3.802   1.390 -0.4229  0.2598  0.5450
  331SOL     H1 1768   3.358   3.819   1.304 -0.1687 -0.9095  0.1757
  331SOL     H2 1769   3.416   3.709   1.389 -0.0736  0.3066  1.7436
  331SOL    EPW 1770   3.396   3.794   1.381 -0.3585  0.1400  0.6334
  332SOL      O 1771   4.539   2.425   1.525  0.2005 -0.3536  0.3104
  332SOL     H1 1772   4.459   2.451   1.572 -0.6859  0.0499 -1.3393
  332SOL     H2 1773   4.588   2.373   1.588 -0.4394  1.0079  2.0235
  332SOL    EPW 1774   4.536   2.422   1.537  0.0377 -0.1653  0.3172
  333SOL      O 1775   5.837   5.247   0.597  0.1350 -0.2703  0.4917
  333SOL     H1 1776   5.745   5.270   0.612 -0.0865  0.0636 -1.2069
  333SOL     H2 1777   5.869   5.222   0.683 -1.6891 -0.9152  1.0281
  333SOL    EPW 1778   5.830   5.247   0.608 -0.0832 -0.3035  0.3677
  334SOL      O 1779   3.537   5.685   3.329 -0.0592 -0.0948 -0.9978
  334SOL     H1 1780   3.535   5.708   3.237  1.7082 -0.8655 -1.2660
  334SOL     H2 1781   3.484   5.753   3.372  2.0569  2.4772 -2.1375
  334SOL    EPW 1782   3.531   5.695   3.324  0.3551  0.0974 -1.1480
  335SOL      O 1783   5.524   3.642   0.144  0.2064 -0.0700 -0.4641
  335SOL     H1 1784   5.517   3.710   0.077 -0.0577  0.5947  0.2315
  335SOL     H2 1785   5.502   3.561   0.098 -1.9353  0.6142 -0.7554
  335SOL    EPW 1786   5.521   3.641   0.132 -0.0502  0.0739 -0.4210
  336SOL      O 1787   1.764   4.028   2.872  0.0744  0.2613  0.6871
  336SOL     H1 1788   1.797   3.954   2.923  0.2116 -0.4208 -0.3481
  336SOL     H2 1789   1.769   3.998   2.781  1.0411  1.9049  0.1582
  336SOL    EPW 1790   1.768   4.017   2.868  0.1922  0.3639  0.5203
  337SOL      O 1791   4.243   5.265   0.262 -0.1526  0.0231  0.0760
  337SOL     H1 1792   4.240   5.201   0.333  0.3619 -1.7345 -1.3915
  337SOL     H2 1793   4.151   5.288   0.247 -0.3634 -0.4630  0.5681
  337SOL    EPW 1794   4.233   5.261   0.268 -0.1202 -0.2163 -0.0281
  338SOL      O 1795   4.955   1.107   0.061  0.1408  0.1912 -0.0038
  338SOL     H1 1796   4.980   1.038   0.121  2.2482 -0.3359 -1.3477
  338SOL     H2 1797   5.008   1.182   0.088 -1.3349  0.9855  0.7812
  338SOL    EPW 1798   4.963   1.108   0.070  0.2082  0.2197 -0.0635
  339SOL      O 1799   2.709   3.910   2.910  0.5613  0.0364  0.5838
  339SOL     H1 1800   2.766   3.978   2.946  1.0212  0.0147 -0.0763
  339SOL     H2 1801   2.636   3.905   2.971 -0.0907  1.9679  0.0558
  339SOL    EPW 1802   2.707   3.917   2.920  0.5408  0.2401  0.4571
  340SOL      O 1803   0.052   3.396   0.085 -0.4460  0.2838 -0.5589
  340SOL     H1 1804   0.142   3.395   0.052  0.2466  1.4313  1.1340
  340SOL     H2 1805   0.040   3.485   0.118 -2.3905  0.2920 -1.1898
  340SOL    EPW 1806   0.061   3.405   0.085 -0.5796  0.4071 -0.4456
  341SOL      O 1807   3.471   3.531   3.085  0.8084 -0.5037 -0.1824
  341SOL     H1 1808   3.534   3.495   3.022  0.9494  0.1833 -0.4362
  341SOL     H2 1809   3.524   3.576   3.150  0.5771  0.2474 -0.5030
  341SOL    EPW 1810   3.483   3.532   3.085  0.7988 -0.3503 -0.2437
  342SOL      O 1811   4.027   5.016   0.417  0.2994  0.1208  0.0176
  342SOL     H1 1812   3.981   5.023   0.501  1.1154  0.5000  0.4441
  342SOL     H2 1813   4.115   5.049   0.435  0.5288  0.0723 -0.9580
  342SOL    EPW 1814   4.032   5.021   0.428  0.4109  0.1561 -0.0410
  343SOL      O 1815   3.806   5.051   1.115  0.6061 -0.1777 -0.4947
  343SOL     H1 1816   3.809   5.146   1.125  1.2408 -0.3198  0.9330
  343SOL     H2 1817   3.889   5.029   1.071  0.5594 -0.0924 -0.6259
  343SOL    EPW 1818   3.815   5.059   1.112  0.6689 -0.1837 -0.3564
  344SOL      O 1819   4.012   4.347   3.171  0.5242  0.5085  0.4739
  344SOL     H1 1820   4.105   4.329   3.178  0.6847  0.8153 -0.7070
  344SOL     H2 1821   3.992   4.399   3.248  1.7158  1.9569 -0.1495
  344SOL    EPW 1822   4.020   4.351   3.180  0.6684  0.6957  0.2814
  345SOL      O 1823   5.116   5.673   3.785 -0.1881 -0.0776  0.2151
  345SOL     H1 1824   5.070   5.665   3.701 -1.2798 -0.3753  0.8198
  345SOL     H2 1825   5.132   5.583   3.812 -0.4134  0.0025  0.6257
  345SOL    EPW 1826   5.112   5.662   3.779 -0.3286 -0.1008  0.3234
  346SOL      O 1827   5.663   3.556   0.953  0.0506  0.0439 -0.2327
  346SOL     H1 1828   5.587   3.502   0.972  0.5513 -1.4383 -2.0728
  346SOL     H2 1829   5.674   3.611   1.031 -1.3864 -1.4447  1.0993
  346SOL    EPW 1830   5.656   3.556   0.963 -0.0493 -0.2730 -0.2869
  347SOL      O 1831   0.264   2.188   2.170  0.5881  0.6872  0.5472
  347SOL     H1 1832   0.202   2.128   2.210  1.0457  2.2900  3.9599
  347SOL     H2 1833   0.208   2.251   2.123 -0.3255  1.0414  2.0249
  347SOL    EPW 1834   0.251   2.189   2.169  0.5394  0.8960  1.0689
  348SOL      O 1835   5.416   2.954   2.950  0.1498 -0.2158  0.4325
  348SOL     H1 1836   5.411   2.991   2.862  0.9223  1.7199  1.1446
  348SOL     H2 1837   5.508   2.932   2.962  0.5764  1.9710  1.6299
  348SOL    EPW 1838   5.425   2.955   2.942  0.2777  0.2240  0.6362
  349SOL      O 1839   0.953   4.549   3.769 -0.2019  0.5994 -0.3794
  349SOL     H1 1840   0.946   4.607   3.844  1.0036  1.6490 -1.0372
  349SOL     H2 1841   0.865   4.545   3.732 -0.6313  0.6836  0.6310
  349SOL    EPW 1842   0.943   4.555   3.773 -0.1191  0.7203 -0.3418
  350SOL      O 1843   2.352   2.228   3.608 -0.2197  0.6643 -0.0476
  350SOL     H1 1844   2.346   2.311   3.655  1.7512  1.5140 -1.2041
  350SOL     H2 1845   2.339   2.161   3.676 -0.0592  1.8815  1.2253
  350SOL    EPW 1846   2.350   2.229   3.620  0.0077  0.8848 -0.0352
  351SOL      O 1847   5.797   1.257   1.426 -0.0558  0.0318  0.1545
  351SOL     H1 1848   5.854   1.303   1.365 -0.7353 -1.8291 -2.0283
  351SOL     H2 1849   5.822   1.165   1.418 -0.4173 -0.3084  2.4628
  351SOL    EPW 1850   5.806   1.252   1.418 -0.1669 -0.2030  0.1679
  352SOL      O 1851   5.407   2.065   1.911 -0.0680 -0.3402  0.0925
  352SOL     H1 1852   5.407   2.132   1.980  1.2641 -1.0957  0.8919
  352SOL     H2 1853   5.437   1.985   1.956  0.6760 -0.8978 -1.3296
  352SOL    EPW 1854   5.410   2.063   1.923  0.1535 -0.4803  0.0261
  353SOL      O 1855   4.414   1.673   0.796  0.5036 -0.3183 -0.2890
  353SOL     H1 1856   4.503   1.644   0.775  0.5969 -0.9350  0.9012
  353SOL     H2 1857   4.405   1.656   0.889 -0.4248  0.9225 -0.1282
  353SOL    EPW 1858   4.423   1.668   0.804  0.4145 -0.2517 -0.1449
  354SOL      O 1859   3.915   1.410   1.494 -0.1297  0.0171 -0.0320
  354SOL     H1 1860   3.856   1.397   1.420  0.0002 -1.5711  0.0939
  354SOL     H2 1861   3.998   1.437   1.455  0.1273 -1.4512 -0.5522
  354SOL    EPW 1862   3.917   1.411   1.482 -0.0885 -0.3090 -0.0741
  355SOL      O 1863   5.826   3.747   0.550  0.3338  0.1809 -0.1929
  355SOL     H1 1864   5.855   3.749   0.641  2.2502 -0.2975 -0.7574
  355SOL     H2 1865   5.811   3.655   0.531  0.1536  0.2567 -0.4273
  355SOL    EPW 1866   5.827   3.737   0.558  0.5190  0.1379 -0.2781
  356SOL      O 1867   5.203   1.589   0.326  0.3860  0.0779 -0.5638
  356SOL     H1 1868   5.236   1.503   0.353  0.4939  0.1581 -0.4455
  356SOL     H2 1869   5.227   1.648   0.397  3.0343  0.8456 -1.9749
  356SOL    EPW 1870   5.209   1.586   0.336  0.6800  0.1684 -0.7017
  357SOL      O 1871   5.529   0.016   2.822  0.0229  0.3585 -0.6352
  357SOL     H1 1872   5.460   0.056   2.875 -0.1543 -0.2298 -0.4172
  357SOL     H2 1873   5.610   0.040   2.867 -0.0692  0.5821 -0.5834
  357SOL    EPW 1874   5.530   0.023   2.833 -0.0058  0.3196 -0.6064
  358SOL      O 1875   3.468   3.620   2.206  0.2606 -0.1157 -0.2195
  358SOL     H1 1876   3.399   3.561   2.175  1.2250 -1.3469 -0.0766
  358SOL     H2 1877   3.520   3.567   2.266  4.1867 -0.8414 -3.8127
  358SOL    EPW 1878   3.466   3.608   2.209  0.7823 -0.3244 -0.5876
  359SOL      O 1879   1.456   3.339   3.329  0.4502  0.4747 -0.0577
  359SOL     H1 1880   1.450   3.425   3.370 -3.2474  1.1143 -1.4991
  359SOL     H2 1881   1.402   3.282   3.384 -1.8579  0.5723 -2.0456
  359SOL    EPW 1882   1.449   3.342   3.339 -0.1905  0.5534 -0.4235
  360SOL      O 1883   3.691   4.596   0.580 -0.1479 -0.4517  0.2489
  360SOL     H1 1884   3.786   4.596   0.592  0.1169 -3.2534 -0.8811
  360SOL     H2 1885   3.659   4.537   0.648 -0.5731 -2.4518 -1.5647
  360SOL    EPW 1886   3.698   4.589   0.588 -0.1651 -0.9639 -0.0651
  361SOL      O 1887   2.789   4.391   1.685  0.1699 -0.0877  0.1561
  361SOL     H1 1888   2.876   4.397   1.645  0.6589 -0.4082  1.1520
  361SOL     H2 1889   2.806   4.388   1.779 -1.0282  1.9356  0.4961
  361SOL    EPW 1890   2.800   4.391   1.691  0.0943  0.0939  0.2986
  362SOL      O 1891   2.276   2.411   1.234 -0.1182 -0.3926  0.0702
  362SOL     H1 1892   2.316   2.497   1.219  0.0732 -0.0746  2.1016
  362SOL     H2 1893   2.350   2.354   1.257 -0.4581 -0.6170  0.6241
  362SOL    EPW 1894   2.288   2.414   1.235 -0.1340 -0.3826  0.3460
  363SOL      O 1895   3.433   4.002   4.086 -0.2933  0.3366  0.2108
  363SOL     H1 1896   3.414   3.962   4.001 -0.3861  0.1485  0.3207
  363SOL     H2 1897   3.505   4.062   4.068 -0.8424  0.8991 -0.1661
  363SOL    EPW 1898   3.439   4.004   4.075 -0.3618  0.3765  0.1823
  364SOL      O 1899   2.956   3.845   1.002  0.3544 -0.0842  0.1908
  364SOL     H1 1900   2.897   3.889   0.942 -0.1718 -1.1386 -0.0773
  364SOL     H2 1901   3.018   3.913   1.028 -0.5045  0.8410 -0.1196
  364SOL    EPW 1902   2.956   3.857   0.999  0.2067 -0.0980  0.1291
  365SOL      O 1903   5.642   3.817   3.146 -0.0998 -0.2869  0.2264
  365SOL     H1 1904   5.586   3.806   3.068 -0.2226  0.3753  0.2189
  365SOL     H2 1905   5.604   3.891   3.193  0.5495 -0.0691  0.4187
  365SOL    EPW 1906   5.632   3.823   3.142 -0.0436 -0.1930  0.2461
  366SOL      O 1907   5.499   3.932   1.421  0.1827 -0.0313 -0.1844
  366SOL     H1 1908   5.428   3.996   1.425 -0.0501 -0.3568  1.2020
  366SOL     H2 1909   5.468   3.857   1.472  1.0568 -0.6518 -0.5304
  366SOL    EPW 1910   5.488   3.931   1.427  0.2511 -0.1322 -0.0734
  367SOL      O 1911   2.833   2.943   1.556 -0.2228  0.5375 -0.3744
  367SOL     H1 1912   2.758   2.966   1.611 -0.5711  0.4542 -0.8090
  367SOL     H2 1913   2.845   3.019   1.499 -1.2148 -0.2006 -1.6373
  367SOL    EPW 1914   2.826   2.954   1.555 -0.3658  0.4499 -0.5555
  368SOL      O 1915   3.989   1.154   2.703 -0.1544 -0.0461  0.5825
  368SOL     H1 1916   4.002   1.241   2.742 -1.5201  0.6333 -0.3788
  368SOL     H2 1917   3.934   1.171   2.626 -0.8597 -1.8194  0.6497
  368SOL    EPW 1918   3.984   1.165   2.699 -0.3753 -0.1628  0.4871
  369SOL      O 1919   5.448   2.516   0.161  0.0928 -0.5678  0.4800
  369SOL     H1 1920   5.380   2.575   0.193 -0.7470 -1.3327  0.1525
  369SOL     H2 1921   5.433   2.511   0.066  0.6949 -0.6518  0.3799
  369SOL    EPW 1922   5.440   2.522   0.154  0.0674 -0.6583  0.4344
  370SOL      O 1923   1.741   1.350   3.525 -0.2271 -0.3252  0.4253
  370SOL     H1 1924   1.752   1.305   3.441  0.0520  0.1467  0.2036
  370SOL     H2 1925   1.761   1.284   3.591  0.5200 -0.4317  0.0963
  370SOL    EPW 1926   1.744   1.338   3.523 -0.1176 -0.2862  0.3665
  371SOL      O 1927   5.131   3.267   0.137  0.3692  0.3006 -0.3132
  371SOL     H1 1928   5.182   3.254   0.217  0.3582 -3.1059 -0.7233
  371SOL     H2 1929   5.047   3.300   0.168  0.8933  0.5619  0.9076
  371SOL    EPW 1930   5.128   3.269   0.149  0.4240 -0.0349 -0.2267
  372SOL      O 1931   4.621   2.706   1.488  0.3155  0.3149 -0.3825
  372SOL     H1 1932   4.593   2.614   1.484 -0.5916  0.6172 -1.5222
  372SOL     H2 1933   4.716   2.703   1.475  0.1541 -0.4097 -1.5930
  372SOL    EPW 1934   4.628   2.696   1.486  0.2015  0.2699 -0.6332
  373SOL      O 1935   2.281   0.293   0.217  0.5712  0.0583 -0.1441
  373SOL     H1 1936   2.258   0.372   0.168 -0.1446 -0.9136 -1.4408
  373SOL     H2 1937   2.374   0.280   0.199  0.4144 -0.0520 -0.9303
  373SOL    EPW 1938   2.288   0.300   0.210  0.4781 -0.0572 -0.3663
  374SOL      O 1939   0.929   3.634   2.291 -0.1565  0.4359  0.1764
  374SOL     H1 1940   0.872   3.681   2.230  1.6259 -0.9346 -2.7766
  374SOL     H2 1941   1.009   3.687   2.295 -0.3956  0.7244  1.7440
  374SOL    EPW 1942   0.932   3.645   2.285  0.0082  0.3205  0.0286
  375SOL      O 1943   4.613   1.408   0.074  0.0152 -0.5943 -0.0237
  375SOL     H1 1944   4.640   1.333   0.021  0.7340 -1.2419  1.2018
  375SOL     H2 1945   4.534   1.378   0.119  1.0349 -1.1308  1.4781
  375SOL    EPW 1946   4.607   1.397   0.074  0.2006 -0.7206  0.2672
  376SOL      O 1947   1.069   1.609   3.515  0.5376  0.1793  0.2260
  376SOL     H1 1948   0.974   1.601   3.514  0.7119 -3.0335 -1.0353
  376SOL     H2 1949   1.087   1.695   3.477 -1.8086 -0.5246 -2.7825
  376SOL    EPW 1950   1.061   1.618   3.511  0.3059 -0.2386 -0.2295
  377SOL      O 1951   4.828   2.800   2.965  0.6371 -0.0309 -0.2305
  377SOL     H1 1952   4.786   2.728   2.918  0.2800  1.0481 -1.6411
  377SOL     H2 1953   4.894   2.758   3.020 -1.2012 -1.6445  0.8748
  377SOL    EPW 1954   4.830   2.788   2.966  0.4029 -0.0879 -0.2630
  378SOL      O 1955   1.487   4.627   3.790  0.2001  0.0264  0.0831
  378SOL     H1 1956   1.530   4.602   3.709  2.5074  0.5230  1.0555
  378SOL     H2 1957   1.477   4.722   3.784 -4.0929 -0.3028 -1.5474
  378SOL    EPW 1958   1.491   4.634   3.781 -0.0117  0.0443  0.0129
  379SOL      O 1959   4.706   3.143   1.042  0.1015 -0.0929  0.7875
  379SOL     H1 1960   4.676   3.102   0.962 -2.1525  0.6244  1.1951
  379SOL     H2 1961   4.671   3.088   1.112 -0.3580  0.8302  1.2956
  379SOL    EPW 1962   4.699   3.133   1.041 -0.1879  0.0821  0.8852
  380SOL      O 1963   5.091   3.683   1.061 -0.1408 -0.0670  0.0123
  380SOL     H1 1964   5.128   3.622   1.124 -1.5006 -0.4650  0.4609
  380SOL     H2 1965   5.143   3.670   0.982  1.6899  0.5600  1.0613
  380SOL    EPW 1966   5.100   3.675   1.059 -0.0906 -0.0426  0.1720
  381SOL      O 1967   5.279   0.879   1.745 -0.2167 -0.2343  0.0602
  381SOL     H1 1968   5.330   0.912   1.671 -0.3651 -1.0548 -0.4194
  381SOL     H2 1969   5.345   0.843   1.805 -0.1399 -0.1528  0.0253
  381SOL    EPW 1970   5.292   0.879   1.744 -0.2243 -0.3131  0.0053
  382SOL      O 1971   5.370   1.845   3.472  0.3008  0.1542 -0.7566
  382SOL     H1 1972   5.337   1.755   3.469  0.8715 -0.0487 -1.0306
  382SOL     H2 1973   5.404   1.861   3.384  1.0302  0.3177 -0.4484
  382SOL    EPW 1974   5.370   1.837   3.463  0.4395  0.1500 -0.7529
  383SOL      O 1975   0.882   1.288   3.610 -0.2720 -0.4516  0.0846
  383SOL     H1 1976   0.870   1.199   3.641 -0.5746 -0.1765  0.7874
  383SOL     H2 1977   0.913   1.336   3.687  1.4682 -0.2816 -0.6760
  383SOL    EPW 1978   0.884   1.284   3.621 -0.1187 -0.4041  0.0785
  384SOL      O 1979   3.461   3.476   1.141  0.4197  0.3709  0.1956
  384SOL     H1 1980   3.536   3.457   1.085  1.4288  0.6112  1.3943
  384SOL     H2 1981   3.422   3.391   1.159 -1.9729  0.5106 -3.4514
  384SOL    EPW 1982   3.465   3.465   1.137  0.2721  0.4114 -0.0656
  385SOL      O 1983   1.941   5.053   1.554 -0.0659 -0.3989  0.3333
  385SOL     H1 1984   1.916   5.140   1.523  1.3902  0.1779  0.6799
  385SOL     H2 1985   1.996   5.069   1.630  2.0661 -1.4811 -0.8626
  385SOL    EPW 1986   1.944   5.064   1.559  0.3169 -0.4528  0.2427
  386SOL      O 1987   3.596   0.899   3.836 -0.1242 -0.0684 -0.2478
  386SOL     H1 1988   3.665   0.925   3.774  0.2136 -0.7781 -0.1801
  386SOL     H2 1989   3.589   0.973   3.896 -0.4138  0.6052 -1.0940
  386SOL    EPW 1990   3.603   0.909   3.836 -0.1191 -0.0723 -0.3309
  387SOL      O 1991   2.494   4.004   0.394  0.2658  0.0623 -0.3638
  387SOL     H1 1992   2.437   4.043   0.327 -1.7145 -2.2105 -0.1395
  387SOL     H2 1993   2.506   4.074   0.458 -1.1819  1.0338 -1.0919
  387SOL    EPW 1994   2.489   4.016   0.393 -0.0999 -0.0765 -0.4175
  388SOL      O 1995   2.696   5.385   1.531 -0.0747 -0.4334 -0.0182
  388SOL     H1 1996   2.661   5.314   1.477  1.6463 -2.5898  1.5177
  388SOL     H2 1997   2.790   5.380   1.519  0.3667 -0.7465  2.7572
  388SOL    EPW 1998   2.702   5.376   1.524  0.1560 -0.6969  0.4417
  389SOL      O 1999   1.534   1.513   3.388  0.5256 -0.0617 -1.0066
  389SOL     H1 2000   1.612   1.525   3.333  0.5901  0.5666 -0.7817
  389SOL     H2 2001   1.466   1.483   3.327  0.3637  1.4167 -1.5973
  389SOL    EPW 2002   1.535   1.511   3.375  0.5152  0.1631 -1.0456
  390SOL      O 2003   0.507   1.739   0.187 -0.3379  0.6594 -0.3992
  390SOL     H1 2004   0.587   1.739   0.241 -0.3971  0.3754 -0.3113
  390SOL     H2 2005   0.511   1.658   0.138 -1.0897  0.1337  0.3757
  390SOL    EPW 2006   0.516   1.731   0.188 -0.4244  0.5730 -0.3071
  391SOL      O 2007   5.672   1.654   0.986  0.9032  0.2155 -0.3530
  391SOL     H1 2008   5.625   1.571   0.984  2.6687 -1.1393  3.7544
  391SOL     H2 2009   5.608   1.719   0.956 -1.4572 -2.2061 -0.9694
  391SOL    EPW 2010   5.660   1.652   0.983  0.8397 -0.1874  0.0194
  392SOL      O 2011   0.286   0.087   1.596  0.1808 -0.9593 -0.1591
  392SOL     H1 2012   0.293   0.166   1.542  1.7543 -1.3409 -0.5419
  392SOL     H2 2013   0.374   0.075   1.632 -0.5496 -1.3616  1.5943
  392SOL    EPW 2014   0.296   0.094   1.594  0.2708 -1.0429 -0.0129
  393SOL      O 2015   5.679   1.924   2.955 -0.2320 -0.3353 -0.3056
  393SOL     H1 2016   5.721   1.901   2.872  0.9154 -2.3522  0.7497
  393SOL     H2 2017   5.752   1.950   3.012 -1.0090  1.1383  0.0779
  393SOL    EPW 2018   5.692   1.924   2.952 -0.1925 -0.3933 -0.1521
  394SOL      O 2019   5.624   0.310   1.302  0.3079 -0.9222 -0.1864
  394SOL     H1 2020   5.561   0.278   1.367  1.1340 -0.0896  1.0746
  394SOL     H2 2021   5.573   0.318   1.221 -1.0745 -0.7481  0.6691
  394SOL    EPW 2022   5.612   0.307   1.300  0.2485 -0.8148  0.0394
  395SOL      O 2023   1.045   5.085   1.594 -0.1566 -0.0900 -0.4638
  395SOL     H1 2024   0.964   5.057   1.637 -0.2340  2.6988  1.4903
  395SOL     H2 2025   1.044   5.039   1.510 -2.0692 -2.6803  0.8403
  395SOL    EPW 2026   1.036   5.077   1.590 -0.3689 -0.0689 -0.1162
  396SOL      O 2027   4.820   3.699   0.386 -0.4968 -0.9332  0.1615
  396SOL     H1 2028   4.756   3.646   0.338  1.6828 -3.4462 -0.2061
  396SOL     H2 2029   4.887   3.721   0.321  1.0483 -1.8921  1.3535
  396SOL    EPW 2030   4.820   3.696   0.374 -0.0994 -1.3036  0.2494
  397SOL      O 2031   2.881   0.335   2.371  0.1547 -0.2658  0.0453
  397SOL     H1 2032   2.870   0.420   2.414  1.9278 -0.5980  1.2697
  397SOL     H2 2033   2.891   0.273   2.443 -0.4088 -1.4244 -0.8402
  397SOL    EPW 2034   2.880   0.337   2.383  0.2837 -0.4248  0.0815
  398SOL      O 2035   0.372   1.906   1.358 -0.4125 -0.1243 -0.0949
  398SOL     H1 2036   0.400   1.895   1.267  0.5583  0.4717  0.1274
  398SOL     H2 2037   0.346   1.818   1.386 -2.6837 -0.0184 -1.5611
  398SOL    EPW 2038   0.372   1.896   1.351 -0.5512 -0.0494 -0.2276
  399SOL      O 2039   3.504   4.897   0.845  0.4292  1.2300 -0.2764
  399SOL     H1 2040   3.419   4.906   0.888  1.3086  2.7452  1.2636
  399SOL     H2 2041   3.558   4.850   0.908  1.0255  1.1365 -0.8396
  399SOL    EPW 2042   3.501   4.893   0.856  0.5866  1.3817 -0.1722
  400SOL      O 2043   4.544   5.289   1.042 -0.3876  0.2671 -0.3198
  400SOL     H1 2044   4.554   5.371   0.994  1.7186 -1.3880 -2.9938
  400SOL     H2 2045   4.553   5.221   0.975  2.6859 -2.2493  2.3408
  400SOL    EPW 2046   4.546   5.291   1.030  0.1649 -0.1779 -0.3213
  401SOL      O 2047   2.197   4.583   1.071  0.0021 -0.2890  0.3349
  401SOL     H1 2048   2.171   4.497   1.104 -0.7656 -0.0198  0.4385
  401SOL     H2 2049   2.252   4.563   0.995 -1.0943 -0.8670 -0.3382
  401SOL    EPW 2050   2.200   4.572   1.066 -0.1967 -0.3219  0.2742
  402SOL      O 2051   5.038   3.797   0.226  0.2134  0.1446 -0.8446
  402SOL     H1 2052   5.107   3.734   0.205 -0.2177 -0.2667 -1.0456
  402SOL     H2 2053   5.010   3.832   0.142 -0.8768 -0.8258 -0.9086
  402SOL    EPW 2054   5.043   3.794   0.215  0.0511 -0.0028 -0.8729
  403SOL      O 2055   4.900   2.252   2.272 -0.1117  0.1837 -0.2277
  403SOL     H1 2056   4.906   2.344   2.247 -0.9613  0.4730  0.5986
  403SOL     H2 2057   4.810   2.227   2.251 -0.0422 -0.3138  0.0469
  403SOL    EPW 2058   4.891   2.259   2.267 -0.1949  0.1615 -0.1102
  404SOL      O 2059   3.749   5.509   3.789 -0.3078 -0.9813  0.0042
  404SOL     H1 2060   3.760   5.566   3.713 -1.9904 -0.9505 -0.2645
  404SOL     H2 2061   3.818   5.444   3.780  1.0060  0.3964 -0.2435
  404SOL    EPW 2062   3.757   5.508   3.780 -0.3471 -0.8311 -0.0509
  405SOL      O 2063   1.927   2.202   3.658  0.0604  0.0736  0.0409
  405SOL     H1 2064   1.983   2.277   3.676 -0.6159  1.0225 -1.5522
  405SOL     H2 2065   1.934   2.189   3.563 -0.1587 -1.6331  0.2238
  405SOL    EPW 2066   1.934   2.208   3.650 -0.0352 -0.0073 -0.1096
  406SOL      O 2067   2.577   0.278   1.784  0.4480 -0.1062  0.0767
  406SOL     H1 2068   2.603   0.370   1.783 -0.0583  0.0909  1.5580
  406SOL     H2 2069   2.586   0.248   1.694  3.4664  0.5802  0.0538
  406SOL    EPW 2070   2.580   0.284   1.775  0.7160 -0.0119  0.2322
  407SOL      O 2071   3.736   1.999   4.104  0.1121 -0.3307 -0.1130
  407SOL     H1 2072   3.649   2.003   4.064  1.1363 -1.5121 -2.6868
  407SOL     H2 2073   3.786   1.941   4.047  3.3128  2.2222 -0.1954
  407SOL    EPW 2074   3.732   1.993   4.094  0.5628 -0.1844 -0.3963
  408SOL      O 2075   2.104   4.560   2.882 -0.4353 -0.2283 -0.2588
  408SOL     H1 2076   2.126   4.625   2.814 -0.4829 -0.1190 -0.1710
  408SOL     H2 2077   2.059   4.490   2.834  1.4353 -1.1831 -0.6903
  408SOL    EPW 2078   2.101   4.560   2.870 -0.2408 -0.3185 -0.2955
  409SOL      O 2079   0.682   2.470   3.475 -0.0031 -0.0846  0.0993
  409SOL     H1 2080   0.678   2.446   3.382 -0.4706 -0.1558  0.1323
  409SOL     H2 2081   0.716   2.392   3.519  0.5427  0.0648 -0.0495
  409SOL    EPW 2082   0.685   2.459   3.470  0.0052 -0.0762  0.0869
  410SOL      O 2083   0.780   4.337   0.672 -0.4405  0.2339  0.0275
  410SOL     H1 2084   0.700   4.294   0.645  0.4089 -0.1959 -1.9593
  410SOL     H2 2085   0.753   4.395   0.744 -2.0246 -1.8013  1.1636
  410SOL    EPW 2086   0.769   4.339   0.677 -0.5189 -0.0290 -0.0633
  411SOL      O 2087   1.325   0.099   2.358 -0.9286 -0.1225  0.2976
  411SOL     H1 2088   1.307   0.107   2.264  1.3254 -3.3955 -0.5651
  411SOL     H2 2089   1.377   0.177   2.378 -0.8687  0.3002 -1.3112
  411SOL    EPW 2090   1.329   0.108   2.350 -0.6817 -0.4266  0.0340
  412SOL      O 2091   3.726   0.032   2.604  0.4276  0.0115  0.5011
  412SOL     H1 2092   3.764   0.067   2.523  0.8161 -0.0066  0.6751
  412SOL     H2 2093   3.742   0.099   2.669  0.4852 -0.1569  0.6608
  412SOL    EPW 2094   3.731   0.043   2.602  0.4752 -0.0084  0.5367
  413SOL      O 2095   3.463   1.515   3.425 -0.1401 -0.5299 -0.0865
  413SOL     H1 2096   3.443   1.492   3.334 -0.9548  0.2662 -0.1328
  413SOL     H2 2097   3.419   1.447   3.476 -0.8722 -0.2079 -0.2654
  413SOL    EPW 2098   3.456   1.505   3.421 -0.3051 -0.4106 -0.1105
  414SOL      O 2099   1.433   4.880   3.807 -0.2173 -0.5829 -0.8021
  414SOL     H1 2100   1.339   4.890   3.819 -0.0146  0.6708 -0.1280
  414SOL     H2 2101   1.472   4.918   3.885  0.8891  0.1021 -1.6492
  414SOL    EPW 2102   1.427   4.885   3.816 -0.0776 -0.3761 -0.8205
  415SOL      O 2103   0.876   2.506   0.587  0.8569 -0.2737  0.1689
  415SOL     H1 2104   0.795   2.475   0.548 -0.5388 -0.9156  3.2653
  415SOL     H2 2105   0.857   2.596   0.613  1.2911 -0.2764  0.5124
  415SOL    EPW 2106   0.865   2.513   0.586  0.7543 -0.3425  0.5358
  416SOL      O 2107   3.170   2.720   2.187  0.3067  0.6861  0.0466
  416SOL     H1 2108   3.225   2.642   2.178 -0.1932  0.1932  1.1012
  416SOL     H2 2109   3.211   2.771   2.257 -1.6955 -0.7518  2.4466
  416SOL    EPW 2110   3.180   2.717   2.194  0.0398  0.4801  0.4151
  417SOL      O 2111   2.504   0.682   1.293 -0.2747  0.4295 -0.2533
  417SOL     H1 2112   2.439   0.713   1.356 -1.3083 -1.1709 -0.4827
  417SOL     H2 2113   2.585   0.676   1.343 -0.8695  0.0539  0.6808
  417SOL    EPW 2114   2.506   0.685   1.305 -0.4484  0.2187 -0.1781
  418SOL      O 2115   5.296   5.564   0.569  0.5793 -0.3301 -0.7157
  418SOL     H1 2116   5.375   5.600   0.608 -0.4879  1.0280  0.3163
  418SOL     H2 2117   5.259   5.637   0.519 -3.5013  1.6510  4.2101
  418SOL    EPW 2118   5.300   5.576   0.568  0.0301  0.0261 -0.0801
  419SOL      O 2119   5.359   4.782   3.065  0.3957  0.1000  0.0746
  419SOL     H1 2120   5.401   4.750   2.985 -0.3240 -0.1445 -0.2116
  419SOL     H2 2121   5.266   4.785   3.044  0.2822  0.8598  0.6241
  419SOL    EPW 2122   5.353   4.779   3.054  0.3068  0.1550  0.1027
  420SOL      O 2123   5.582   0.689   3.941 -0.1708  0.0197  0.0491
  420SOL     H1 2124   5.547   0.677   4.030  1.2086  0.5304  0.7003
  420SOL     H2 2125   5.505   0.690   3.885 -1.2435  1.4567  1.4393
  420SOL    EPW 2126   5.570   0.688   3.945 -0.1381  0.2275  0.2669
  421SOL      O 2127   0.627   1.957   1.166 -0.2309 -0.0052 -0.1620
  421SOL     H1 2128   0.618   1.996   1.079  1.0944 -2.0535 -1.3106
  421SOL     H2 2129   0.711   1.989   1.198 -0.4376  0.2709  0.1036
  421SOL    EPW 2130   0.635   1.964   1.160 -0.1116 -0.1943 -0.2562
  422SOL      O 2131   3.399   2.459   3.421 -0.0533  0.3459  0.1029
  422SOL     H1 2132   3.463   2.520   3.384  0.5587 -0.9283 -1.0082
  422SOL     H2 2133   3.318   2.478   3.372 -0.1583  0.9758  0.5083
  422SOL    EPW 2134   3.397   2.468   3.412  0.0008  0.2771  0.0276
  423SOL      O 2135   3.244   2.619   0.161 -0.1866 -0.4912 -0.2639
  423SOL     H1 2136   3.316   2.675   0.134  0.3406 -0.0401  1.9083
  423SOL     H2 2137   3.175   2.635   0.096  0.3155  1.9120 -0.2820
  423SOL    EPW 2138   3.244   2.627   0.151 -0.0768 -0.1867 -0.0341
  424SOL      O 2139   5.481   5.096   3.363 -0.3319  0.0288  0.2254
  424SOL     H1 2140   5.501   5.032   3.295  1.1571  0.5775  0.1226
  424SOL     H2 2141   5.411   5.149   3.326  1.5708  1.4062 -1.6281
  424SOL    EPW 2142   5.476   5.095   3.352  0.0299  0.2343  0.0167
  425SOL      O 2143   2.711   3.375   0.607  0.0818 -0.6363  0.0136
  425SOL     H1 2144   2.726   3.315   0.681  0.3685 -0.9832 -0.3164
  425SOL     H2 2145   2.789   3.430   0.605 -1.0048  1.0725  1.5053
  425SOL    EPW 2146   2.721   3.374   0.615 -0.0035 -0.4910  0.1375
  426SOL      O 2147   2.140   2.968   1.645  0.1379  0.2764  0.4411
  426SOL     H1 2148   2.050   2.937   1.639  0.4467 -0.8916  1.4659
  426SOL     H2 2149   2.166   2.952   1.736  0.6845  2.6473  0.7868
  426SOL    EPW 2150   2.133   2.963   1.654  0.2292  0.4047  0.5873
  427SOL      O 2151   1.446   1.336   3.600  0.2270 -0.9323 -0.1022
  427SOL     H1 2152   1.457   1.245   3.571 -1.5729 -0.7222 -1.5702
  427SOL     H2 2153   1.360   1.362   3.569  1.7010  2.1732 -2.1642
  427SOL    EPW 2154   1.438   1.329   3.594  0.1923 -0.5786 -0.4788
  428SOL      O 2155   3.302   1.757   1.127 -0.2563  0.2223 -0.8033
  428SOL     H1 2156   3.311   1.807   1.046  0.9424  0.5133 -0.5156
  428SOL     H2 2157   3.392   1.734   1.151 -0.6132 -0.1430  0.2689
  428SOL    EPW 2158   3.313   1.760   1.121 -0.1665  0.2144 -0.6582
  429SOL      O 2159   3.073   2.004   2.773  0.1714  0.4265 -0.0969
  429SOL     H1 2160   3.068   2.035   2.864 -0.7853 -0.9637  0.3548
  429SOL     H2 2161   3.051   2.081   2.720 -0.6515  0.9079  0.9063
  429SOL    EPW 2162   3.070   2.016   2.777 -0.0184  0.3296  0.0583
  430SOL      O 2163   5.708   0.187   3.619  0.2837 -0.3253  0.4811
  430SOL     H1 2164   5.670   0.272   3.644  0.0111 -0.4065  0.3516
  430SOL     H2 2165   5.667   0.125   3.679 -0.2157 -0.4916 -0.0247
  430SOL    EPW 2166   5.699   0.190   3.628  0.2014 -0.3517  0.4134
  431SOL      O 2167   3.141   4.341   0.581  0.3838 -0.4227 -0.3556
  431SOL     H1 2168   3.178   4.420   0.543 -1.1841  0.1321 -0.8152
  431SOL     H2 2169   3.194   4.324   0.659  0.4129  1.3928  0.0612
  431SOL    EPW 2170   3.151   4.347   0.585  0.2197 -0.1699 -0.3602
  432SOL      O 2171   1.340   0.128   3.634 -0.4192  0.1347  0.7440
  432SOL     H1 2172   1.324   0.036   3.657  0.9465  0.2885  2.5197
  432SOL     H2 2173   1.435   0.139   3.643 -0.5373  1.6947  0.4190
  432SOL    EPW 2174   1.349   0.119   3.637 -0.2861  0.3175  0.8988
  433SOL      O 2175   3.527   3.283   0.653  0.1515  0.4109 -0.0051
  433SOL     H1 2176   3.463   3.265   0.584 -0.7382  1.7674  0.4177
  433SOL     H2 2177   3.492   3.240   0.730  0.9949 -0.8522 -0.2923
  433SOL    EPW 2178   3.517   3.277   0.654  0.1465  0.4208  0.0094
  434SOL      O 2179   2.587   4.626   3.946 -0.2067 -0.3535 -0.2292
  434SOL     H1 2180   2.632   4.546   3.973 -1.2860 -1.4454 -1.4865
  434SOL     H2 2181   2.496   4.611   3.970 -0.2949  0.8393  0.2172
  434SOL    EPW 2182   2.582   4.616   3.951 -0.3313 -0.3427 -0.3157
  435SOL      O 2183   2.269   3.825   1.781  0.4521  0.1034  0.1034
  435SOL     H1 2184   2.228   3.745   1.814  0.1669 -0.7855 -2.2347
  435SOL     H2 2185   2.289   3.876   1.860 -2.0942 -0.9101  1.5023
  435SOL    EPW 2186   2.267   3.822   1.793  0.1501 -0.0995  0.0032
  436SOL      O 2187   5.104   4.764   0.931 -0.1668 -0.1519  0.5249
  436SOL     H1 2188   5.181   4.795   0.883 -0.9467  0.8506 -0.1298
  436SOL     H2 2189   5.033   4.768   0.868 -0.6092 -1.9539  0.8490
  436SOL    EPW 2190   5.105   4.768   0.919 -0.2972 -0.2372  0.4896
  437SOL      O 2191   4.908   3.051   1.340  0.0280 -0.0535  0.3444
  437SOL     H1 2192   4.929   2.981   1.278 -0.2599 -0.1844  0.3920
  437SOL     H2 2193   4.817   3.073   1.321  0.0611  0.1782  0.4562
  437SOL    EPW 2194   4.900   3.046   1.332  0.0008 -0.0427  0.3614
  438SOL      O 2195   1.448   2.850   3.365  0.3322  0.2273  0.3785
  438SOL     H1 2196   1.377   2.800   3.405 -0.5139  1.2500  0.1900
  438SOL     H2 2197   1.429   2.848   3.271  1.5194 -0.9488  0.1444
  438SOL    EPW 2198   1.438   2.845   3.359  0.3686  0.2109  0.3334
  439SOL      O 2199   5.215   4.970   0.767  0.3417  0.3177  0.1804
  439SOL     H1 2200   5.166   4.958   0.685  0.5548 -0.9750  0.2123
  439SOL     H2 2201   5.292   5.020   0.742 -0.6255  1.7604 -0.0015
  439SOL    EPW 2202   5.218   4.974   0.755  0.2613  0.3337  0.1644
  440SOL      O 2203   1.562   4.859   1.610 -0.3652 -0.0593  0.4553
  440SOL     H1 2204   1.547   4.792   1.543  0.1137 -0.1564  0.4394
  440SOL     H2 2205   1.525   4.938   1.573 -0.1257 -0.1193  0.0820
  440SOL    EPW 2206   1.557   4.860   1.599 -0.2886 -0.0761  0.4138
  441SOL      O 2207   5.213   0.398   3.832 -0.0780  0.0508 -0.2432
  441SOL     H1 2208   5.269   0.471   3.807 -0.7801  0.9591  0.7294
  441SOL     H2 2209   5.138   0.404   3.773 -0.4631  0.5433  0.2948
  441SOL    EPW 2210   5.211   0.406   3.823 -0.1940  0.2002 -0.0821
  442SOL      O 2211   1.535   1.302   1.917  0.5306 -0.2876  0.1545
  442SOL     H1 2212   1.532   1.348   2.001  1.7121  0.8412 -0.3884
  442SOL     H2 2213   1.617   1.331   1.877 -0.1750 -0.5239 -1.5409
  442SOL    EPW 2214   1.544   1.310   1.922  0.5813 -0.1924 -0.0843
  443SOL      O 2215   3.123   1.199   3.402 -0.0565  0.0887 -0.1486
  443SOL     H1 2216   3.049   1.253   3.371 -1.0444  0.3112  2.3998
  443SOL     H2 2217   3.085   1.113   3.417  0.7237 -0.3848 -0.7772
  443SOL    EPW 2218   3.111   1.196   3.400 -0.0787  0.0620  0.0562
  444SOL      O 2219   0.545   0.766   1.709 -0.4068  0.5731 -0.0526
  444SOL     H1 2220   0.542   0.725   1.795 -0.1349  1.6150  0.4635
  444SOL     H2 2221   0.542   0.860   1.726  1.3760  0.8647 -1.0777
  444SOL    EPW 2222   0.545   0.772   1.720 -0.1876  0.7154 -0.1069
  445SOL      O 2223   3.502   3.881   3.776  1.0256 -0.0420  0.7680
  445SOL     H1 2224   3.529   3.973   3.785  1.2684  0.1243 -1.2459
  445SOL     H2 2225   3.528   3.857   3.687 -3.3930 -0.5728 -0.6076
  445SOL    EPW 2226   3.508   3.889   3.767  0.5801 -0.0809  0.4064
  446SOL      O 2227   0.680   2.100   0.076 -0.2774 -0.7770 -0.3419
  446SOL     H1 2228   0.630   2.062   0.004  0.9891  0.1711 -1.7779
  446SOL     H2 2229   0.725   2.175   0.038 -0.0327  0.1329  1.5971
  446SOL    EPW 2230   0.680   2.104   0.064 -0.1162 -0.5788 -0.2883
  447SOL      O 2231   2.889   1.894   2.992  0.1757  0.2835  0.5957
  447SOL     H1 2232   2.800   1.878   3.022 -0.3327  1.6277 -0.1203
  447SOL     H2 2233   2.905   1.826   2.926  0.0587 -0.5700  1.4295
  447SOL    EPW 2234   2.881   1.885   2.988  0.1090  0.3359  0.6083
  448SOL      O 2235   4.863   3.615   0.652 -0.0108  0.4470  0.3843
  448SOL     H1 2236   4.958   3.612   0.666 -0.1350 -1.6972  1.1688
  448SOL     H2 2237   4.854   3.646   0.561  1.5249 -0.7555 -0.2362
  448SOL    EPW 2238   4.872   3.618   0.643  0.1398  0.0899  0.4018
  449SOL      O 2239   2.397   4.659   1.676 -0.2478 -0.1012 -0.1784
  449SOL     H1 2240   2.378   4.743   1.717 -0.6732 -0.3962  0.2399
  449SOL     H2 2241   2.312   4.619   1.663 -0.0391 -0.5297 -0.2454
  449SOL    EPW 2242   2.386   4.664   1.679 -0.2709 -0.1784 -0.1409
  450SOL      O 2243   3.147   3.418   0.507 -0.0364 -0.0522  0.2434
  450SOL     H1 2244   3.124   3.510   0.513  0.3224  0.0380  0.2399
  450SOL     H2 2245   3.082   3.381   0.446  0.9745  0.5867 -1.2695
  450SOL    EPW 2246   3.137   3.424   0.501  0.1097  0.0256  0.0816
  451SOL      O 2247   3.335   2.517   2.105  0.1828  0.1092 -0.2108
  451SOL     H1 2248   3.317   2.500   2.013 -2.6543 -1.2903  0.4935
  451SOL     H2 2249   3.338   2.430   2.146  2.3934  0.6366  0.9280
  451SOL    EPW 2250   3.333   2.506   2.100  0.1159  0.0162 -0.0142
  452SOL      O 2251   1.158   4.441   0.711  0.3476 -0.2235 -0.0849
  452SOL     H1 2252   1.126   4.504   0.647 -2.8987  0.1348  1.6578
  452SOL     H2 2253   1.103   4.363   0.698  0.7110 -0.7286  1.1942
  452SOL    EPW 2254   1.148   4.439   0.703  0.0401 -0.2392  0.2374
  453SOL      O 2255   5.531   4.963   3.145 -0.0435  0.0335 -0.4934
  453SOL     H1 2256   5.606   4.906   3.162  1.1416  1.3671 -0.9992
  453SOL     H2 2257   5.469   4.908   3.097  0.3400 -1.2648  0.4655
  453SOL    EPW 2258   5.533   4.951   3.141  0.1239  0.0373 -0.4451
  454SOL      O 2259   2.938   3.266   0.388  0.5743 -0.0441  0.7333
  454SOL     H1 2260   2.921   3.197   0.452 -0.4321  0.2526  0.8083
  454SOL     H2 2261   3.016   3.237   0.341  1.3644 -0.2360  2.1289
  454SOL    EPW 2262   2.944   3.256   0.390  0.5512 -0.0329  0.8902
  455SOL      O 2263   3.205   2.155   2.443  0.3962 -0.8834  0.9303
  455SOL     H1 2264   3.116   2.144   2.477  0.1503 -0.0323  0.5952
  455SOL     H2 2265   3.240   2.066   2.437  1.3901 -1.0661  5.7675
  455SOL    EPW 2266   3.199   2.144   2.446  0.4760 -0.8121  1.4106
  456SOL      O 2267   1.787   2.780   2.581  0.1028  0.9307  0.1070
  456SOL     H1 2268   1.854   2.807   2.644  0.5849 -1.0616  0.5205
  456SOL     H2 2269   1.836   2.743   2.508 -0.5134  0.8325 -0.2584
  456SOL    EPW 2270   1.799   2.779   2.580  0.0885  0.7077  0.1122
  457SOL      O 2271   1.217   3.122   0.807  0.5910 -0.1497  0.0102
  457SOL     H1 2272   1.179   3.055   0.751  1.2303 -0.6724  0.1860
  457SOL     H2 2273   1.169   3.202   0.786  0.2615 -0.5238 -0.6682
  457SOL    EPW 2274   1.208   3.123   0.799  0.6240 -0.2454 -0.0434
  458SOL      O 2275   4.866   3.037   1.932 -0.2697 -0.4553 -0.6723
  458SOL     H1 2276   4.932   3.105   1.949 -0.0673 -0.0529 -2.7892
  458SOL     H2 2277   4.917   2.960   1.906 -0.5213  0.4277 -4.3032
  458SOL    EPW 2278   4.879   3.036   1.931 -0.2750 -0.3182 -1.2855
  459SOL      O 2279   2.974   1.964   4.017  0.1428 -0.1440  0.3540
  459SOL     H1 2280   3.029   1.945   3.941  0.1079  0.4839  0.1672
  459SOL     H2 2281   2.909   2.026   3.984 -1.9603 -2.3557  0.0371
  459SOL    EPW 2282   2.973   1.969   4.005 -0.0853 -0.3130  0.3003
  460SOL      O 2283   2.806   4.362   0.829 -0.0861  0.1670  0.2042
  460SOL     H1 2284   2.811   4.364   0.734  2.4246  2.4456  0.2920
  460SOL     H2 2285   2.726   4.312   0.847  0.2159 -1.7528 -3.0190
  460SOL    EPW 2286   2.798   4.357   0.821  0.2140  0.2053 -0.1303
  461SOL      O 2287   5.271   2.453   0.856  0.1709  0.0118  0.0408
  461SOL     H1 2288   5.190   2.485   0.817 -1.6273 -4.3892 -0.4724
  461SOL     H2 2289   5.320   2.415   0.783 -0.3041 -2.7421  1.0007
  461SOL    EPW 2290   5.267   2.452   0.844 -0.0716 -0.7514  0.0885
  462SOL      O 2291   1.354   5.639   3.866  0.1398 -0.1107 -0.2822
  462SOL     H1 2292   1.330   5.599   3.950 -0.7401 -1.1124 -0.9889
  462SOL     H2 2293   1.412   5.574   3.825 -1.0844 -0.5825 -1.3266
  462SOL    EPW 2294   1.358   5.628   3.871 -0.0846 -0.2679 -0.4690
  463SOL      O 2295   2.905   4.682   1.678 -0.3377 -0.6653 -0.4138
  463SOL     H1 2296   2.839   4.742   1.713 -0.8538 -1.0017 -0.7979
  463SOL     H2 2297   2.970   4.675   1.749  0.5934  1.5900 -0.9343
  463SOL    EPW 2298   2.905   4.688   1.690 -0.2935 -0.4606 -0.5103
  464SOL      O 2299   2.572   2.068   1.596  0.9009  0.3957 -0.1727
  464SOL     H1 2300   2.576   1.998   1.531  0.0141  0.3683 -0.2211
  464SOL     H2 2301   2.506   2.038   1.659 -1.6163  2.3672 -1.7019
  464SOL    EPW 2302   2.565   2.057   1.596  0.5378  0.6030 -0.3410
  465SOL      O 2303   5.505   0.316   2.889 -0.1504 -0.2930 -0.0452
  465SOL     H1 2304   5.556   0.239   2.915  0.1540 -0.4676 -1.1036
  465SOL     H2 2305   5.428   0.314   2.946  0.2051 -0.9681  0.4325
  465SOL    EPW 2306   5.503   0.307   2.898 -0.0800 -0.3837 -0.1071
  466SOL      O 2307   4.281   4.849   3.813 -0.2535 -0.0330  0.5568
  466SOL     H1 2308   4.281   4.864   3.719  0.6896  1.1256  0.7125
  466SOL     H2 2309   4.361   4.800   3.830 -0.0767  0.3522  0.8375
  466SOL    EPW 2310   4.289   4.846   3.805 -0.1340  0.1317  0.6034
  467SOL      O 2311   1.186   4.494   0.155  0.2827 -0.4844 -0.1855
  467SOL     H1 2312   1.184   4.580   0.197 -0.1706 -1.3617  1.6811
  467SOL     H2 2313   1.115   4.496   0.091  0.7987  0.7778 -0.7559
  467SOL    EPW 2314   1.178   4.503   0.153  0.2894 -0.4433 -0.0472
  468SOL      O 2315   2.958   1.716   2.419 -0.1299 -0.3185  0.0021
  468SOL     H1 2316   2.951   1.804   2.381  0.8759 -0.1446  0.1841
  468SOL     H2 2317   2.945   1.658   2.344 -0.4979 -0.0125 -0.1784
  468SOL    EPW 2318   2.956   1.720   2.407 -0.0619 -0.2673  0.0023
  469SOL      O 2319   4.487   2.998   2.483  0.0701 -0.3270 -0.6361
  469SOL     H1 2320   4.445   3.064   2.428 -1.3969  0.2995  1.1416
  469SOL     H2 2321   4.418   2.970   2.544  1.5239 -1.1975  0.6751
  469SOL    EPW 2322   4.475   3.002   2.484  0.0687 -0.3531 -0.3066
  470SOL      O 2323   3.282   2.858   3.964 -0.0088 -0.1618 -0.4785
  470SOL     H1 2324   3.332   2.780   3.945  0.4910  0.3166 -1.1753
  470SOL     H2 2325   3.286   2.910   3.884  1.2177  1.4212  0.5468
  470SOL    EPW 2326   3.288   2.856   3.954  0.1753  0.0581 -0.4434
  471SOL      O 2327   2.235   1.806   0.358  0.7355 -0.4719 -0.6874
  471SOL     H1 2328   2.319   1.795   0.313 -0.5188  1.0458 -3.6801
  471SOL     H2 2329   2.187   1.869   0.305 -1.1127  1.2803  2.7257
  471SOL    EPW 2330   2.239   1.811   0.347  0.4045 -0.1231 -0.6425
  472SOL      O 2331   3.478   4.660   0.197  0.3612 -0.0965  0.4307
  472SOL     H1 2332   3.446   4.661   0.107  0.6171  0.3901  0.3410
  472SOL     H2 2333   3.416   4.714   0.246 -0.9210 -1.9479  0.9657
  472SOL    EPW 2334   3.468   4.666   0.193  0.2517 -0.2421  0.4782
  473SOL      O 2335   2.117   2.913   0.917  0.1886 -0.4212 -1.0400
  473SOL     H1 2336   2.148   2.919   0.827  0.8285  0.9301 -0.7535
  473SOL     H2 2337   2.157   2.833   0.951  0.7777 -0.3906 -1.6471
  473SOL    EPW 2338   2.124   2.905   0.911  0.3197 -0.2738 -1.0742
  474SOL      O 2339   4.646   0.792   1.653  0.2131 -0.1498  0.3607
  474SOL     H1 2340   4.714   0.804   1.587 -0.2626  2.0389  0.2025
  474SOL     H2 2341   4.686   0.734   1.719  1.6996 -0.0603 -0.4261
  474SOL    EPW 2342   4.657   0.787   1.653  0.3209  0.0932  0.2599
  475SOL      O 2343   5.702   5.287   3.371  0.4368  0.1187  0.1049
  475SOL     H1 2344   5.657   5.340   3.306 -0.9789 -0.0570  0.8857
  475SOL     H2 2345   5.646   5.210   3.382  2.1092 -1.2556 -0.5282
  475SOL    EPW 2346   5.691   5.284   3.366  0.4642 -0.0467  0.1207
  476SOL      O 2347   4.118   0.768   3.518  0.1141  0.2447 -0.1051
  476SOL     H1 2348   4.150   0.722   3.595 -0.0734 -1.5971 -1.0752
  476SOL     H2 2349   4.175   0.845   3.511  2.8384 -1.6690 -0.4444
  476SOL    EPW 2350   4.127   0.771   3.526  0.3847 -0.1559 -0.2448
  477SOL      O 2351   3.764   0.395   2.321 -0.0821  0.0818  0.3961
  477SOL     H1 2352   3.850   0.433   2.301  0.4027 -1.1506  0.0030
  477SOL     H2 2353   3.784   0.312   2.364 -1.0373 -0.9139 -0.9902
  477SOL    EPW 2354   3.775   0.390   2.323 -0.1323 -0.1559  0.2062
  478SOL      O 2355   4.428   4.063   1.961  0.0754  0.5167 -0.1675
  478SOL     H1 2356   4.429   4.128   1.891  0.4614 -0.4852 -1.1255
  478SOL     H2 2357   4.463   4.109   2.037  0.6593  1.3343 -0.9103
  478SOL    EPW 2358   4.432   4.075   1.962  0.1789  0.4970 -0.3489
  479SOL      O 2359   0.415   0.968   4.108  0.3524 -0.0034  0.3967
  479SOL     H1 2360   0.378   0.996   4.192  1.1570  0.6238  0.5546
  479SOL     H2 2361   0.490   1.026   4.095  0.5341 -0.4328 -0.5160
  479SOL    EPW 2362   0.419   0.977   4.116  0.4576  0.0177  0.3161
  480SOL      O 2363   3.089   4.207   2.219  0.4102  0.9195 -0.2226
  480SOL     H1 2364   3.056   4.121   2.244  0.3929  1.3891  1.4929
  480SOL     H2 2365   3.096   4.203   2.124  0.5857 -1.0339 -0.1716
  480SOL    EPW 2366   3.086   4.198   2.212  0.4271  0.7612 -0.0341
  481SOL      O 2367   1.568   5.730   0.296  0.4041  0.1275 -0.3056
  481SOL     H1 2368   1.650   5.733   0.344 -0.1004  2.2878  0.5069
  481SOL     H2 2369   1.570   5.806   0.238 -0.2394 -0.8489 -1.6780
  481SOL    EPW 2370   1.577   5.738   0.295  0.2816  0.2538 -0.3653
  482SOL      O 2371   3.009   4.389   1.513  0.3999 -0.2282  0.3534
  482SOL     H1 2372   3.077   4.440   1.558  1.7683 -1.6400 -0.0582
  482SOL     H2 2373   3.056   4.319   1.469 -1.3304 -1.2258  0.0014
  482SOL    EPW 2374   3.021   4.387   1.513  0.3613 -0.4852  0.2720
  483SOL      O 2375   4.081   0.064   0.326 -0.6089 -0.3135 -0.1534
  483SOL     H1 2376   4.054   0.034   0.412  0.0210 -0.3811  0.0191
  483SOL     H2 2377   4.131   0.144   0.342 -0.2994 -0.4456 -0.4361
  483SOL    EPW 2378   4.083   0.070   0.337 -0.5087 -0.3348 -0.1652
  484SOL      O 2379   5.211   0.470   2.289 -0.2089 -0.2404 -0.3545
  484SOL     H1 2380   5.258   0.550   2.266 -0.5715 -0.0537 -0.4625
  484SOL     H2 2381   5.220   0.414   2.212 -1.1884  0.2767 -0.8553
  484SOL    EPW 2382   5.217   0.472   2.278 -0.3521 -0.1653 -0.4195
  485SOL      O 2383   3.674   1.478   2.443 -0.1948 -0.0756  0.1700
  485SOL     H1 2384   3.674   1.559   2.492  0.3691 -0.6247  1.1056
  485SOL     H2 2385   3.703   1.503   2.355 -1.1822  0.9083  0.1137
  485SOL    EPW 2386   3.677   1.489   2.439 -0.2400 -0.0292  0.2638
  486SOL      O 2387   3.360   4.021   0.215 -0.0440  0.4499 -0.2620
  486SOL     H1 2388   3.292   4.042   0.279  0.9628 -1.1591  1.4371
  486SOL     H2 2389   3.423   4.092   0.223 -0.7535  1.1498 -0.7391
  486SOL    EPW 2390   3.360   4.031   0.223 -0.0123  0.3529 -0.1316
  487SOL      O 2391   0.335   4.986   0.548 -0.4987 -0.3646 -0.2557
  487SOL     H1 2392   0.333   5.017   0.638  2.0421  0.5312 -0.4282
  487SOL     H2 2393   0.393   4.909   0.550 -1.2191 -0.9474 -0.9785
  487SOL    EPW 2394   0.341   4.981   0.558 -0.3045 -0.3312 -0.3512
  488SOL      O 2395   3.568   2.534   2.820  0.5888  0.0425 -0.5625
  488SOL     H1 2396   3.477   2.535   2.851  1.0692  0.6443  0.9242
  488SOL     H2 2397   3.615   2.590   2.882  1.9322 -0.0516 -1.4580
  488SOL    EPW 2398   3.563   2.540   2.830  0.7833  0.0967 -0.4995
  489SOL      O 2399   0.236   3.193   1.455 -0.5521 -0.7111  0.6671
  489SOL     H1 2400   0.321   3.195   1.410 -1.4991 -3.2278 -1.5195
  489SOL     H2 2401   0.191   3.118   1.416 -3.5021  0.0729  2.3123
  489SOL    EPW 2402   0.241   3.185   1.446 -0.9678 -0.8959  0.6094
  490SOL      O 2403   4.901   5.215   3.606  0.0257  0.2531 -0.0249
  490SOL     H1 2404   4.875   5.306   3.617 -1.9729 -0.2235 -0.4617
  490SOL     H2 2405   4.947   5.193   3.687 -0.6692  1.2538  0.6570
  490SOL    EPW 2406   4.903   5.222   3.616 -0.2617  0.3090  0.0013
  491SOL      O 2407   3.402   2.181   0.646 -0.4889 -1.0671  0.1403
  491SOL     H1 2408   3.448   2.100   0.625 -1.5606 -1.2323 -1.7846
  491SOL     H2 2409   3.323   2.178   0.592 -1.3445  0.5332  1.2228
  491SOL    EPW 2410   3.398   2.172   0.638 -0.6945 -0.9140  0.0505
  492SOL      O 2411   4.971   5.373   2.393 -0.2956 -0.0714  0.4513
  492SOL     H1 2412   4.970   5.284   2.357  0.2121  0.2168 -0.2981
  492SOL     H2 2413   5.030   5.421   2.335 -1.9698  1.2100 -0.2433
  492SOL    EPW 2414   4.977   5.368   2.383 -0.4200  0.0961  0.2973
  493SOL      O 2415   1.030   4.026   0.767  0.0201  0.0559  0.2968
  493SOL     H1 2416   0.972   4.035   0.691 -0.1269 -3.0797 -0.0815
  493SOL     H2 2417   1.118   4.027   0.730 -0.0767 -2.7450 -0.1970
  493SOL    EPW 2418   1.033   4.027   0.755 -0.0059 -0.5774  0.2037
  494SOL      O 2419   4.880   1.668   4.066  0.2937  0.0248 -0.0027
  494SOL     H1 2420   4.868   1.589   4.119  2.2459 -1.9487 -2.2918
  494SOL     H2 2421   4.792   1.687   4.032  0.0260 -2.1468 -0.6673
  494SOL    EPW 2422   4.869   1.662   4.068  0.4734 -0.4174 -0.3178
  495SOL      O 2423   2.366   1.755   2.473 -0.5789 -0.1528 -0.7230
  495SOL     H1 2424   2.291   1.738   2.416 -0.0443  0.3085 -1.5815
  495SOL     H2 2425   2.360   1.848   2.493 -0.8791 -0.3517  0.1607
  495SOL    EPW 2426   2.357   1.763   2.469 -0.5539 -0.1248 -0.7203
  496SOL      O 2427   0.791   2.869   2.496 -0.7078 -0.1409 -0.0319
  496SOL     H1 2428   0.783   2.946   2.552 -3.7972  0.3621 -0.9430
  496SOL     H2 2429   0.733   2.804   2.536 -0.0977 -1.1100 -0.6662
  496SOL    EPW 2430   0.784   2.870   2.506 -0.9723 -0.1906 -0.1968
  497SOL      O 2431   0.865   4.523   1.132  0.0022  0.4679 -0.0983
  497SOL     H1 2432   0.860   4.463   1.207  0.2770 -0.2333 -0.6280
  497SOL     H2 2433   0.951   4.506   1.094 -0.3147  0.4870 -0.8421
  497SOL    EPW 2434   0.874   4.514   1.136 -0.0023  0.3952 -0.2342
  498SOL      O 2435   0.898   5.236   0.487  0.4220 -0.3449 -0.6031
  498SOL     H1 2436   0.815   5.224   0.441  1.0949 -0.7239 -1.7368
  498SOL     H2 2437   0.891   5.178   0.563 -1.1802  1.1788  0.4857
  498SOL    EPW 2438   0.888   5.228   0.490  0.3228 -0.2228 -0.6079
  499SOL      O 2439   1.346   1.543   1.040  0.0753 -0.4364 -0.2082
  499SOL     H1 2440   1.368   1.602   0.968 -0.3857 -0.5397 -0.4406
  499SOL     H2 2441   1.373   1.590   1.119  0.6032 -0.3325 -0.4482
  499SOL    EPW 2442   1.351   1.554   1.040  0.0824 -0.4363 -0.2586
  500SOL      O 2443   2.625   2.792   3.681 -0.2722 -0.8646  0.2350
  500SOL     H1 2444   2.569   2.791   3.758 -0.1736 -2.4807  0.3181
  500SOL     H2 2445   2.687   2.863   3.698 -1.4628  0.0914  0.7274
  500SOL    EPW 2446   2.626   2.799   3.691 -0.3887 -0.9350  0.2964
  501SOL      O 2447   5.227   5.836   1.212 -0.3380  0.0778 -0.3500
  501SOL     H1 2448   5.321   5.842   1.198 -0.2828 -0.2800 -0.1581
  501SOL     H2 2449   5.196   5.926   1.208  0.4530  0.6049  2.6653
  501SOL    EPW 2450   5.234   5.846   1.210 -0.2477  0.0959 -0.0079
  502SOL      O 2451   4.851   3.851   0.029 -0.2050  0.3692 -0.0534
  502SOL     H1 2452   4.811   3.911  -0.035 -0.8255  0.4893  0.4314
  502SOL     H2 2453   4.783   3.838   0.095 -0.0906 -0.9077 -0.1670
  502SOL    EPW 2454   4.839   3.856   0.029 -0.2590  0.2458 -0.0138
  503SOL      O 2455   2.665   5.845   3.452  0.4612  0.3749 -0.8112
  503SOL     H1 2456   2.652   5.913   3.387  0.6938  1.0561 -0.1582
  503SOL     H2 2457   2.717   5.778   3.407 -0.2387  0.3564 -1.6248
  503SOL    EPW 2458   2.669   5.845   3.440  0.4114  0.4456 -0.8283
  504SOL      O 2459   2.097   0.088   0.121  0.0568  0.2008  0.3808
  504SOL     H1 2460   2.171   0.147   0.137 -0.0967  0.5084 -0.0277
  504SOL     H2 2461   2.102   0.024   0.192 -0.2049  1.1260  1.2653
  504SOL    EPW 2462   2.105   0.088   0.130  0.0125  0.3323  0.4316
  505SOL      O 2463   2.487   1.335   3.247  0.6118 -0.0054 -0.5382
  505SOL     H1 2464   2.525   1.258   3.288  0.4309  0.2303  0.0895
  505SOL     H2 2465   2.418   1.301   3.190 -0.4573 -0.2523  0.8194
  505SOL    EPW 2466   2.483   1.324   3.246  0.4784 -0.0066 -0.3264
  506SOL      O 2467   0.206   3.889   1.287 -0.2355 -0.0687 -0.0043
  506SOL     H1 2468   0.280   3.870   1.344 -0.6577  0.1390  0.6123
  506SOL     H2 2469   0.130   3.852   1.332 -0.7230  1.0248  0.0841
  506SOL    EPW 2470   0.206   3.883   1.298 -0.3325  0.0701  0.0709
  507SOL      O 2471   1.314   2.520   2.325  0.1983 -0.6196 -0.4062
  507SOL     H1 2472   1.255   2.584   2.365  1.2982  0.2046 -0.0729
  507SOL     H2 2473   1.256   2.450   2.295 -1.1174  0.8286 -1.3857
  507SOL    EPW 2474   1.301   2.519   2.326  0.1753 -0.3772 -0.4751
  508SOL      O 2475   0.086   3.731   3.653  0.1824 -0.8025 -0.0998
  508SOL     H1 2476   0.103   3.702   3.563 -0.5728  1.4613 -1.0638
  508SOL     H2 2477   0.035   3.660   3.692 -2.1802 -0.6192 -2.5134
  508SOL    EPW 2478   0.082   3.721   3.648 -0.1502 -0.5414 -0.4601
  509SOL      O 2479   4.976   0.383   0.254  0.1866 -0.0909 -0.3076
  509SOL     H1 2480   4.922   0.462   0.257 -0.0484 -0.2770  1.2706
  509SOL     H2 2481   5.066   0.414   0.264  0.1901  0.0619 -0.8178
  509SOL    EPW 2482   4.980   0.394   0.256  0.1619 -0.0944 -0.1937
  510SOL      O 2483   4.875   3.584   0.953 -0.4296 -0.0698 -0.3933
  510SOL     H1 2484   4.959   3.619   0.985 -0.5703  1.1163 -1.2654
  510SOL     H2 2485   4.814   3.599   1.025 -0.4471  1.3618 -0.6879
  510SOL    EPW 2486   4.878   3.589   0.965 -0.4465  0.2095 -0.5178
  511SOL      O 2487   3.034   5.561   1.185 -0.0407  0.2709  0.1989
  511SOL     H1 2488   3.084   5.489   1.223  0.3023  0.5981  0.3730
  511SOL     H2 2489   2.976   5.589   1.256  1.1030  1.3532  0.7354
  511SOL    EPW 2490   3.033   5.556   1.197  0.1179  0.4213  0.2747
  512SOL      O 2491   4.981   5.085   3.825 -0.0471 -0.2655  0.0813
  512SOL     H1 2492   4.995   5.126   3.910 -1.7529  2.6136 -0.9004
  512SOL     H2 2493   4.927   5.008   3.844  0.2558 -0.1195  1.6599
  512SOL    EPW 2494   4.977   5.081   3.836 -0.1968  0.0572  0.1450
  513SOL      O 2495   3.133   4.159   3.025 -0.4768  0.1020  0.1790
  513SOL     H1 2496   3.157   4.172   3.117 -1.0392  0.4262  0.2820
  513SOL     H2 2497   3.197   4.096   2.993  0.7801  1.2468  0.3404
  513SOL    EPW 2498   3.143   4.154   3.032 -0.4027  0.2587  0.2072
  514SOL      O 2499   1.036   2.248   4.075  0.0418 -0.1013  0.0746
  514SOL     H1 2500   1.025   2.254   4.170 -1.2215  0.4346 -0.0907
  514SOL     H2 2501   1.131   2.237   4.063  0.6032  2.6767  1.2521
  514SOL    EPW 2502   1.045   2.247   4.084 -0.0331  0.2523  0.1826
  515SOL      O 2503   4.385   4.076   0.911  0.1487  0.3807  0.3585
  515SOL     H1 2504   4.373   4.159   0.959  0.7598  0.4574  0.3819
  515SOL     H2 2505   4.308   4.024   0.935  0.0838  0.6938  0.8535
  515SOL    EPW 2506   4.375   4.080   0.919  0.2070  0.4223  0.4138
  516SOL      O 2507   0.183   2.208   3.888  0.3074  0.5153  0.3431
  516SOL     H1 2508   0.108   2.158   3.920 -0.2794  0.4498 -1.0447
  516SOL     H2 2509   0.155   2.299   3.892  0.8057  0.6318  1.4279
  516SOL    EPW 2510   0.172   2.212   3.892  0.2979  0.5207  0.3108
  517SOL      O 2511   1.225   3.864   3.384 -0.4207 -0.2808 -0.3648
  517SOL     H1 2512   1.195   3.909   3.305  0.1979  0.5994 -0.1224
  517SOL     H2 2513   1.155   3.878   3.448  1.1985  3.5798  0.8670
  517SOL    EPW 2514   1.214   3.871   3.383 -0.1819  0.2249 -0.2076
  518SOL      O 2515   3.363   1.551   0.811  0.2459 -0.6872 -0.3932
  518SOL     H1 2516   3.403   1.638   0.807 -1.1682 -0.0258 -1.0555
  518SOL     H2 2517   3.269   1.569   0.820  0.0638 -2.1735  0.9702
  518SOL    EPW 2518   3.357   1.563   0.811  0.0756 -0.7752 -0.3184
  519SOL      O 2519   3.989   5.319   3.001 -0.0816 -0.3384 -0.2671
  519SOL     H1 2520   4.049   5.339   3.073 -1.0287 -0.2590  0.5336
  519SOL     H2 2521   3.902   5.322   3.042 -0.5762 -1.2281 -1.2215
  519SOL    EPW 2522   3.986   5.322   3.013 -0.2354 -0.4248 -0.2835
  520SOL      O 2523   5.515   4.007   3.641 -0.3596  0.0098 -0.0073
  520SOL     H1 2524   5.476   3.932   3.595 -0.6710  0.6904 -0.8826
  520SOL     H2 2525   5.609   3.994   3.634 -0.4119 -0.1240 -0.4387
  520SOL    EPW 2526   5.521   3.997   3.636 -0.3984  0.0681 -0.1467
  521SOL      O 2527   5.770   5.815   3.406  0.0826 -0.0768 -0.5298
  521SOL     H1 2528   5.807   5.813   3.494  1.3927  0.2543 -1.0553
  521SOL     H2 2529   5.744   5.724   3.390 -0.0362 -0.1687  0.1388
  521SOL    EPW 2530   5.771   5.805   3.414  0.2097 -0.0513 -0.5146
  522SOL      O 2531   2.076   1.974   0.206  0.2724 -0.2238  0.2196
  522SOL     H1 2532   2.104   1.959   0.116  0.3798 -1.6484  0.4742
  522SOL     H2 2533   1.990   1.932   0.212 -0.0851  0.5413  0.5773
  522SOL    EPW 2534   2.070   1.968   0.197  0.2457 -0.2942  0.2850
  523SOL      O 2535   0.090   5.022   0.439  0.6600 -0.2614  0.4220
  523SOL     H1 2536   0.179   5.009   0.473  1.1665  0.0421 -0.7079
  523SOL     H2 2537   0.035   5.027   0.517  1.7945  0.7113  1.2066
  523SOL    EPW 2538   0.094   5.021   0.451  0.8351 -0.1253  0.3852
  524SOL      O 2539   1.094   1.898   4.151  0.3390 -0.1385  0.3414
  524SOL     H1 2540   1.029   1.941   4.206  0.2602  2.9286 -1.8750
  524SOL     H2 2541   1.178   1.922   4.189  0.2541  0.1070  0.3753
  524SOL    EPW 2542   1.096   1.905   4.161  0.3215  0.2149  0.1086
  525SOL      O 2543   5.137   5.627   2.186  0.0299  0.0553 -0.3306
  525SOL     H1 2544   5.052   5.635   2.229  1.3196 -0.7367  2.6442
  525SOL     H2 2545   5.155   5.533   2.189  1.1511  0.2544 -0.6449
  525SOL    EPW 2546   5.130   5.618   2.190  0.2871 -0.0079 -0.0468
  526SOL      O 2547   5.355   0.692   3.528  0.1173 -0.1575  0.8106
  526SOL     H1 2548   5.326   0.632   3.459  1.0243  0.1862  0.1096
  526SOL     H2 2549   5.419   0.749   3.485  1.3855 -0.5056  2.1417
  526SOL    EPW 2550   5.359   0.692   3.516  0.3494 -0.1580  0.8778
  527SOL      O 2551   3.575   4.523   3.261 -0.6471 -0.7345 -0.0126
  527SOL     H1 2552   3.593   4.492   3.349  1.4778  0.5142  0.0531
  527SOL     H2 2553   3.621   4.462   3.204  0.3958  0.0800 -0.0736
  527SOL    EPW 2554   3.582   4.513   3.264 -0.3092 -0.5144 -0.0121
  528SOL      O 2555   2.359   5.490   4.067 -0.1025 -0.5501 -0.4186
  528SOL     H1 2556   2.322   5.577   4.079 -1.6418 -1.1188 -0.8142
  528SOL     H2 2557   2.339   5.468   3.976  1.5031 -0.7780 -0.7477
  528SOL    EPW 2558   2.353   5.497   4.059 -0.0954 -0.6351 -0.4959
  529SOL      O 2559   1.522   5.802   2.461 -0.0152  0.4641 -0.0380
  529SOL     H1 2560   1.587   5.866   2.489 -0.3252  1.3094 -1.1565
  529SOL     H2 2561   1.444   5.854   2.442 -1.6117 -0.6733  2.7899
  529SOL    EPW 2562   1.521   5.814   2.462 -0.2186  0.4329  0.1443
  530SOL      O 2563   5.408   3.039   2.676  0.3777 -0.2113 -0.1243
  530SOL     H1 2564   5.315   3.059   2.662  0.0181 -0.1519  2.0196
  530SOL     H2 2565   5.452   3.123   2.666 -0.1390  0.2496  1.2258
  530SOL    EPW 2566   5.403   3.050   2.673  0.2842 -0.1558  0.2484
  531SOL      O 2567   5.503   5.114   2.332 -0.2116  0.0273 -0.0815
  531SOL     H1 2568   5.496   5.167   2.252 -1.0745 -0.1645 -0.1417
  531SOL     H2 2569   5.412   5.101   2.359  0.0867  0.3641  1.1181
  531SOL    EPW 2570   5.493   5.119   2.326 -0.2718  0.0428  0.0401
  532SOL      O 2571   0.566   1.388   0.769 -0.1654 -0.4252  0.3295
  532SOL     H1 2572   0.530   1.334   0.839 -1.2296 -3.3534 -2.2735
  532SOL     H2 2573   0.504   1.379   0.697  1.9164  0.6973 -1.7389
  532SOL    EPW 2574   0.556   1.381   0.769 -0.0568 -0.6178 -0.1689
  533SOL      O 2575   2.390   1.418   3.988 -0.2631 -0.9630 -0.9885
  533SOL     H1 2576   2.479   1.384   3.997  0.1423 -0.0355 -1.2867
  533SOL     H2 2577   2.349   1.401   4.072  0.9108  0.5373 -0.0578
  533SOL    EPW 2578   2.395   1.413   3.998 -0.0946 -0.7040 -0.9210
  534SOL      O 2579   5.485   2.773   3.538 -0.0010  0.0580 -0.0914
  534SOL     H1 2580   5.546   2.831   3.583  0.4094 -0.3275 -0.1417
  534SOL     H2 2581   5.407   2.772   3.595  0.1837  0.2474  0.1701
  534SOL    EPW 2582   5.483   2.779   3.549  0.0624  0.0371 -0.0689
  535SOL      O 2583   0.062   5.226   1.269  0.1728  0.4254  0.3801
  535SOL     H1 2584   0.074   5.310   1.225 -0.1433  0.2959  0.0425
  535SOL     H2 2585   0.134   5.223   1.333  0.3886  0.7993  0.1662
  535SOL    EPW 2586   0.071   5.235   1.271  0.1621  0.4515  0.3213
  536SOL      O 2587   0.872   5.367   1.462 -0.2090 -0.1581  0.1335
  536SOL     H1 2588   0.953   5.413   1.487  0.0619  0.0196 -1.0196
  536SOL     H2 2589   0.872   5.369   1.366 -0.5656 -1.9188  0.0603
  536SOL    EPW 2590   0.881   5.372   1.454 -0.2182 -0.3269  0.0026
  537SOL      O 2591   2.105   2.114   2.311  0.2450  0.2260 -0.7764
  537SOL     H1 2592   2.100   2.076   2.399  0.7703 -0.3403 -0.9882
  537SOL     H2 2593   2.055   2.196   2.318 -1.6476 -0.8846 -0.5377
  537SOL    EPW 2594   2.099   2.119   2.322  0.0991  0.0471 -0.7735
  538SOL      O 2595   4.313   0.278   2.227 -0.0889  0.1399  0.6036
  538SOL     H1 2596   4.258   0.335   2.174  0.8917  0.1544 -0.4472
  538SOL     H2 2597   4.296   0.305   2.317  2.2873  4.0339  0.1023
  538SOL    EPW 2598   4.305   0.287   2.231  0.2692  0.5568  0.4381
  539SOL      O 2599   1.603   5.854   0.921  0.1180 -0.0568  0.5325
  539SOL     H1 2600   1.565   5.925   0.868 -0.0730 -0.8487 -0.4213
  539SOL     H2 2601   1.669   5.897   0.975 -0.3647  0.9331  0.3509
  539SOL    EPW 2602   1.606   5.866   0.921  0.0461 -0.0357  0.4114
  540SOL      O 2603   4.522   1.424   1.839  0.3229 -0.1072  0.4646
  540SOL     H1 2604   4.568   1.477   1.773  0.9661  0.4142  1.3072
  540SOL     H2 2605   4.483   1.489   1.898 -0.6113 -0.5646  0.3551
  540SOL    EPW 2606   4.523   1.437   1.838  0.2918 -0.1004  0.5428
  541SOL      O 2607   0.486   3.177   0.939  0.9280  0.4917  0.5002
  541SOL     H1 2608   0.395   3.198   0.920  1.1785  0.5906 -0.6452
  541SOL     H2 2609   0.524   3.260   0.968  0.8908  0.6687  0.0451
  541SOL    EPW 2610   0.480   3.188   0.940  0.9507  0.5212  0.3294
  542SOL      O 2611   0.906   0.218   1.377  0.3478  0.5088  0.1818
  542SOL     H1 2612   0.989   0.238   1.421  0.5855 -0.7779  0.3720
  542SOL     H2 2613   0.840   0.227   1.446  0.7091 -1.4037  0.8454
  542SOL    EPW 2614   0.908   0.221   1.389  0.4117  0.1675  0.2729
  543SOL      O 2615   0.503   0.819   0.046  0.0025  0.0304  0.1369
  543SOL     H1 2616   0.512   0.911   0.022  0.1425  0.2968  1.1406
  543SOL     H2 2617   0.487   0.821   0.141  0.3236 -0.9933  0.2251
  543SOL    EPW 2618   0.502   0.830   0.054  0.0517 -0.0504  0.2533
  544SOL      O 2619   1.657   0.349   3.374  0.0896  0.2498 -0.1537
  544SOL     H1 2620   1.675   0.346   3.468  0.0344  0.7006 -0.1246
  544SOL     H2 2621   1.692   0.434   3.346  0.2277  0.0580 -0.5642
  544SOL    EPW 2622   1.662   0.358   3.381  0.0984  0.2775 -0.1944
  545SOL      O 2623   1.867   0.401   1.148 -0.2736  0.7524  0.6984
  545SOL     H1 2624   1.951   0.361   1.174 -1.1397 -1.5456  0.2323
  545SOL     H2 2625   1.875   0.492   1.176  2.4959  0.7119  0.3773
  545SOL    EPW 2626   1.877   0.406   1.154 -0.0706  0.5029  0.6145
  546SOL      O 2627   2.636   0.564   2.136 -0.2960  0.0392  0.6558
  546SOL     H1 2628   2.557   0.605   2.170 -1.0694  0.1268 -1.1186
  546SOL     H2 2629   2.617   0.470   2.137  0.3609 -0.1095  2.0183
  546SOL    EPW 2630   2.625   0.558   2.140 -0.3084  0.0327  0.6119
  547SOL      O 2631   0.823   0.478   0.389  0.0882 -0.4261  0.2389
  547SOL     H1 2632   0.883   0.552   0.380 -0.0783 -0.0870  1.6478
  547SOL     H2 2633   0.755   0.509   0.449 -1.1170 -1.0498 -0.7530
  547SOL    EPW 2634   0.822   0.489   0.394 -0.0581 -0.4565  0.2834
  548SOL      O 2635   2.549   3.866   3.944  0.3253 -0.1019  0.0520
  548SOL     H1 2636   2.523   3.897   3.857  1.3190 -1.8730 -0.9157
  548SOL     H2 2637   2.493   3.915   4.004 -1.1023  0.4213 -1.6277
  548SOL    EPW 2638   2.541   3.875   3.941  0.2790 -0.2350 -0.2304
  549SOL      O 2639   0.294   3.475   3.941 -0.7208  0.1448  0.0132
  549SOL     H1 2640   0.331   3.442   4.023 -0.2727 -1.0672 -0.6454
  549SOL     H2 2641   0.347   3.434   3.872 -0.3615  2.0180 -0.8903
  549SOL    EPW 2642   0.304   3.467   3.942 -0.6347  0.2153 -0.1535
  550SOL      O 2643   2.694   3.340   3.399  0.5785 -0.4092  0.3887
  550SOL     H1 2644   2.606   3.378   3.393  0.7011 -0.1654  0.1119
  550SOL     H2 2645   2.747   3.410   3.437  1.3820  0.6954 -2.5209
  550SOL    EPW 2646   2.690   3.351   3.402  0.6773 -0.2653  0.0488
  551SOL      O 2647   1.288   4.040   0.698  0.0786  0.0175  0.2911
  551SOL     H1 2648   1.315   4.066   0.786  1.1748 -0.1970  0.0353
  551SOL     H2 2649   1.343   4.094   0.640 -2.7688  2.4840 -0.3449
  551SOL    EPW 2650   1.297   4.049   0.701 -0.1082  0.2577  0.1960
  552SOL      O 2651   2.536   3.845   0.717  0.2126  0.2796 -0.3940
  552SOL     H1 2652   2.548   3.906   0.643  0.3848  1.3016  0.4536
  552SOL     H2 2653   2.450   3.807   0.702 -0.2016  1.2489 -0.5940
  552SOL    EPW 2654   2.528   3.848   0.707  0.1868  0.4921 -0.3249
  553SOL      O 2655   4.990   1.097   3.116  0.4172  0.2014 -0.4236
  553SOL     H1 2656   5.000   1.106   3.211 -0.6366  0.6530 -0.3384
  553SOL     H2 2657   5.052   1.029   3.091  0.8591  0.2320  0.5611
  553SOL    EPW 2658   4.997   1.091   3.124  0.3519  0.2529 -0.3095
  554SOL      O 2659   5.444   5.422   3.808 -0.0841 -0.1521 -0.5542
  554SOL     H1 2660   5.536   5.405   3.786  0.3439 -0.3438  1.2155
  554SOL     H2 2661   5.395   5.385   3.735  1.2004 -1.1872 -0.9369
  554SOL    EPW 2662   5.449   5.416   3.798  0.0986 -0.2830 -0.4062
  555SOL      O 2663   2.216   0.246   0.507  0.4395 -0.2504  0.3089
  555SOL     H1 2664   2.254   0.166   0.543  0.9389 -0.4952 -0.7138
  555SOL     H2 2665   2.253   0.252   0.418 -1.4939 -0.1869 -0.5284
  555SOL    EPW 2666   2.224   0.238   0.501  0.2865 -0.2697  0.1105
  556SOL      O 2667   2.162   2.034   2.849 -0.4883  0.6570 -0.2164
  556SOL     H1 2668   2.257   2.045   2.841  0.2127 -0.7980  3.7836
  556SOL     H2 2669   2.131   2.120   2.877 -0.0754  0.7357  0.0181
  556SOL    EPW 2670   2.169   2.044   2.851 -0.3695  0.5102  0.2353
  557SOL      O 2671   3.029   0.470   3.276 -0.3256 -0.2985 -0.2138
  557SOL     H1 2672   3.031   0.565   3.287  0.3459 -0.1333 -1.5882
  557SOL     H2 2673   2.944   0.444   3.309  0.5361  0.3935  2.8995
  557SOL    EPW 2674   3.020   0.478   3.281 -0.1621 -0.2070 -0.0283
  558SOL      O 2675   5.660   4.881   2.339 -0.0935  1.2993  0.1101
  558SOL     H1 2676   5.586   4.826   2.309 -0.0806  1.6248 -0.5306
  558SOL     H2 2677   5.738   4.832   2.312 -0.0745  1.2097  0.3232
  558SOL    EPW 2678   5.660   4.870   2.333 -0.0901  1.3244  0.0645
  559SOL      O 2679   0.217   2.069   3.160  0.2380  0.6440  0.3577
  559SOL     H1 2680   0.229   2.160   3.134  0.5461  1.1237  2.0490
  559SOL     H2 2681   0.200   2.022   3.078  0.0375  2.2181 -0.5348
  559SOL    EPW 2682   0.216   2.073   3.148  0.2495  0.8631  0.4429
  560SOL      O 2683   2.729   4.189   4.151 -0.6795 -0.4757  0.3412
  560SOL     H1 2684   2.656   4.208   4.210  0.2455  0.0964  1.3511
  560SOL     H2 2685   2.742   4.095   4.160  0.3832 -0.2112  2.2691
  560SOL    EPW 2686   2.722   4.181   4.158 -0.4675 -0.3865  0.6545
  561SOL      O 2687   1.705   2.228   3.943  0.2683 -0.0262 -0.3933
  561SOL     H1 2688   1.769   2.168   3.906  0.6135 -0.7014  1.2232
  561SOL     H2 2689   1.756   2.301   3.976  0.1167 -0.0793 -0.0318
  561SOL    EPW 2690   1.717   2.229   3.942  0.2890 -0.1039 -0.1823
  562SOL      O 2691   2.459   0.366   0.597 -0.1304  0.4097  0.3093
  562SOL     H1 2692   2.372   0.344   0.563 -0.3955  0.9916  0.5993
  562SOL     H2 2693   2.465   0.318   0.680  1.1908 -2.4128 -1.2761
  562SOL    EPW 2694   2.450   0.358   0.603 -0.0177  0.1707  0.1711
  563SOL      O 2695   2.243   2.606   2.833  0.0295  0.0456 -0.3216
  563SOL     H1 2696   2.193   2.527   2.853 -1.1131 -0.0486 -3.1593
  563SOL     H2 2697   2.184   2.678   2.854  1.4002  0.3516  3.1830
  563SOL    EPW 2698   2.232   2.605   2.837  0.0539  0.0682 -0.2504
  564SOL      O 2699   0.282   0.933   3.503  0.2794  0.8553 -0.4085
  564SOL     H1 2700   0.228   0.967   3.574 -0.6204  1.2448 -1.2577
  564SOL     H2 2701   0.343   0.872   3.546 -1.2890 -0.1528  0.5013
  564SOL    EPW 2702   0.282   0.930   3.515  0.0161  0.7893 -0.4021
  565SOL      O 2703   5.527   4.943   2.586  0.6775 -0.7384  0.3168
  565SOL     H1 2704   5.546   4.949   2.680  0.2321  0.7180  0.3424
  565SOL     H2 2705   5.463   4.872   2.579 -1.7913  1.1677  1.5871
  565SOL    EPW 2706   5.522   4.936   2.596  0.3666 -0.3797  0.4550
  566SOL      O 2707   5.215   4.668   3.559  0.4304 -0.4147  0.0540
  566SOL     H1 2708   5.278   4.676   3.488 -2.0423  1.0643 -2.1400
  566SOL     H2 2709   5.231   4.581   3.596  0.1089 -2.4125 -4.0606
  566SOL    EPW 2710   5.224   4.659   3.556  0.1323 -0.4701 -0.6190
  567SOL      O 2711   2.811   0.086   1.415  0.5659 -0.3056  0.4730
  567SOL     H1 2712   2.839  -0.004   1.401 -0.3170 -0.7537  1.4356
  567SOL     H2 2713   2.881   0.140   1.378  1.0760 -1.3820 -0.1564
  567SOL    EPW 2714   2.821   0.082   1.410  0.5261 -0.4682  0.5085
  568SOL      O 2715   3.964   4.621   0.660 -0.4646 -0.9715  0.3320
  568SOL     H1 2716   4.044   4.645   0.614 -1.2781 -0.0354 -0.6402
  568SOL     H2 2717   3.986   4.631   0.753  0.1994  0.4694  0.0496
  568SOL    EPW 2718   3.975   4.625   0.665 -0.4806 -0.7179  0.1982
  569SOL      O 2719   0.136   3.306   2.877 -0.2584  0.7182  0.4003
  569SOL     H1 2720   0.183   3.248   2.937  0.4822 -0.9012 -1.6002
  569SOL     H2 2721   0.044   3.297   2.901 -0.0281 -0.2645  0.9680
  569SOL    EPW 2722   0.132   3.299   2.886 -0.1549  0.4406  0.2475
  570SOL      O 2723   0.478   0.818   0.307  0.0365 -0.7589  0.2406
  570SOL     H1 2724   0.560   0.843   0.349 -0.5403  1.4314  0.1759
  570SOL     H2 2725   0.421   0.792   0.379 -0.5266  1.7506  0.8007
  570SOL    EPW 2726   0.481   0.818   0.319 -0.0851 -0.2575  0.2935
  571SOL      O 2727   2.489   4.004   3.408  0.0797  0.4183  0.0488
  571SOL     H1 2728   2.574   4.046   3.392  0.2401  0.2890  0.5412
  571SOL     H2 2729   2.429   4.048   3.349  0.6379  0.0107 -0.8553
  571SOL    EPW 2730   2.492   4.013   3.400  0.1564  0.3610  0.0049
  572SOL      O 2731   2.801   5.051   0.939 -0.0704 -0.3197  0.0192
  572SOL     H1 2732   2.730   5.112   0.959  0.0103 -0.4786  0.8465
  572SOL     H2 2733   2.773   4.968   0.977 -1.3210 -1.5296 -3.2540
  572SOL    EPW 2734   2.791   5.049   0.945 -0.1952 -0.4657 -0.2417
  573SOL      O 2735   5.549   1.885   2.066 -0.2807  0.6788 -0.1886
  573SOL     H1 2736   5.537   1.838   2.149  0.6471 -0.1203 -0.4866
  573SOL     H2 2737   5.616   1.950   2.085 -0.9785  1.3542  0.0073
  573SOL    EPW 2738   5.554   1.887   2.077 -0.2562  0.6656 -0.1995
  574SOL      O 2739   1.564   4.510   3.541 -0.4817 -0.5316 -0.1314
  574SOL     H1 2740   1.528   4.429   3.503  1.9480 -0.9132 -1.8788
  574SOL     H2 2741   1.657   4.492   3.549  0.5550  2.7872 -2.6213
  574SOL    EPW 2742   1.570   4.499   3.538 -0.1119 -0.2183 -0.5834
  575SOL      O 2743   4.650   0.687   1.275 -0.9733  0.1024 -0.0105
  575SOL     H1 2744   4.701   0.705   1.196  1.3675  1.8443  1.7370
  575SOL     H2 2745   4.601   0.768   1.290 -1.9913 -0.4975 -0.0839
  575SOL    EPW 2746   4.650   0.698   1.269 -0.8322  0.2242  0.1681
  576SOL      O 2747   1.744   4.108   1.324  0.0044  0.5912  0.0064
  576SOL     H1 2748   1.824   4.083   1.277 -0.0407 -0.1734  0.3235
  576SOL     H2 2749   1.776   4.150   1.404  0.0819  1.9717 -0.7133
  576SOL    EPW 2750   1.756   4.110   1.328  0.0078  0.6569 -0.0365
  577SOL      O 2751   2.280   0.440   2.290  0.6308 -0.2483  0.1138
  577SOL     H1 2752   2.252   0.404   2.206 -1.4545  0.2566  0.5515
  577SOL     H2 2753   2.316   0.526   2.267  1.4513 -0.7050 -0.3974
  577SOL    EPW 2754   2.281   0.445   2.278  0.4959 -0.2432  0.1060
  578SOL      O 2755   2.881   5.246   2.834  0.3563 -0.4374  0.0105
  578SOL     H1 2756   2.786   5.239   2.846  0.3752 -3.2414 -0.7153
  578SOL     H2 2757   2.898   5.340   2.828 -2.1143  0.2332  1.9439
  578SOL    EPW 2758   2.873   5.255   2.834  0.0948 -0.6650  0.1394
  579SOL      O 2759   0.646   4.713   2.217  0.1796 -0.4653 -0.0895
  579SOL     H1 2760   0.599   4.728   2.135  1.7030 -1.5864 -1.2253
  579SOL     H2 2761   0.663   4.619   2.218 -1.0967 -0.7460  2.2840
  579SOL    EPW 2762   0.643   4.705   2.208  0.2060 -0.6148  0.0426
  580SOL      O 2763   0.891   0.976   1.349  0.1440  0.5813 -0.0291
  580SOL     H1 2764   0.911   0.962   1.442  0.8605  0.4161 -0.2051
  580SOL     H2 2765   0.966   1.023   1.315  0.6836 -0.8454 -0.9076
  580SOL    EPW 2766   0.901   0.979   1.355  0.2780  0.4115 -0.1416
  581SOL      O 2767   3.403   5.601   0.555 -0.1314  0.2152 -0.3389
  581SOL     H1 2768   3.376   5.659   0.626 -0.5285  0.6824 -0.8644
  581SOL     H2 2769   3.475   5.647   0.512 -0.0343  0.0311 -0.3755
  581SOL    EPW 2770   3.408   5.612   0.558 -0.1634  0.2454 -0.3989
  582SOL      O 2771   1.476   2.304   1.959 -0.1273 -0.1032 -0.1518
  582SOL     H1 2772   1.381   2.311   1.966 -0.6027 -3.5826 -1.2718
  582SOL     H2 2773   1.496   2.338   1.872  0.3097  4.1229  1.3781
  582SOL    EPW 2774   1.468   2.308   1.951 -0.1314 -0.0235 -0.1081
  583SOL      O 2775   3.250   0.493   1.518  0.1826  0.6183 -0.2414
  583SOL     H1 2776   3.336   0.459   1.542  0.1592  1.1448  0.6297
  583SOL     H2 2777   3.232   0.453   1.433  1.4084  0.7293 -0.5770
  583SOL    EPW 2778   3.257   0.485   1.511  0.3109  0.6863 -0.1843
  584SOL      O 2779   5.522   2.684   0.549  0.2789 -0.1078 -0.3250
  584SOL     H1 2780   5.551   2.617   0.487 -0.9113 -0.3057 -0.6791
  584SOL     H2 2781   5.601   2.703   0.601  1.1578 -0.3137 -1.5359
  584SOL    EPW 2782   5.534   2.679   0.548  0.2457 -0.1509 -0.4919
  585SOL      O 2783   5.688   2.197   1.848 -0.5327  0.6640 -0.2576
  585SOL     H1 2784   5.671   2.274   1.794 -0.4054  1.5988  0.9979
  585SOL     H2 2785   5.615   2.138   1.829 -1.7528  1.9460  0.2761
  585SOL    EPW 2786   5.678   2.199   1.840 -0.6493  0.9005 -0.0667
  586SOL      O 2787   5.188   2.428   3.510  0.1418  0.7023 -0.6992
  586SOL     H1 2788   5.122   2.483   3.467 -1.1521  1.0955  1.6330
  586SOL     H2 2789   5.270   2.476   3.500 -0.6982  2.3396 -0.0436
  586SOL    EPW 2790   5.190   2.439   3.504 -0.0858  0.9189 -0.3805
  587SOL      O 2791   2.614   2.579   1.628  0.1193  0.6828 -0.0998
  587SOL     H1 2792   2.618   2.543   1.539 -0.7228  0.9942 -0.2674
  587SOL     H2 2793   2.703   2.612   1.644  0.1576  1.0461 -1.0058
  587SOL    EPW 2794   2.624   2.578   1.620  0.0335  0.7548 -0.2144
  588SOL      O 2795   5.545   3.191   3.064  0.6243  0.2296 -0.0007
  588SOL     H1 2796   5.506   3.118   3.017  1.4294 -0.0016 -0.3111
  588SOL     H2 2797   5.469   3.241   3.097 -0.0055 -2.1432  2.5000
  588SOL    EPW 2798   5.533   3.189   3.063  0.6430 -0.0482  0.2330
  589SOL      O 2799   3.731   5.383   3.131 -0.7587  0.2005  0.3160
  589SOL     H1 2800   3.662   5.374   3.197 -1.5767 -0.7555 -0.6300
  589SOL     H2 2801   3.779   5.462   3.157 -3.2649  1.9362  0.0708
  589SOL    EPW 2802   3.729   5.391   3.141 -1.1133  0.2836  0.1890
  590SOL      O 2803   2.642   3.119   1.918  0.5239  0.4808  0.1540
  590SOL     H1 2804   2.691   3.043   1.950  0.9158  0.4227 -0.5457
  590SOL     H2 2805   2.707   3.189   1.913 -0.2443  1.4749  2.7249
  590SOL    EPW 2806   2.654   3.118   1.921  0.4837  0.5807  0.3536
  591SOL      O 2807   1.903   4.708   2.386  0.4819  0.0456 -0.4474
  591SOL     H1 2808   1.979   4.672   2.339 -0.0625 -1.8168  0.0063
  591SOL     H2 2809   1.915   4.803   2.382  2.3305 -0.1767 -1.2048
  591SOL    EPW 2810   1.912   4.714   2.380  0.6210 -0.1768 -0.4798
  592SOL      O 2811   2.407   1.031   2.702 -0.3792  0.6955  0.0806
  592SOL     H1 2812   2.405   1.124   2.677 -1.1089  0.8198  0.5498
  592SOL     H2 2813   2.499   1.013   2.720 -0.2112  1.2970 -0.1416
  592SOL    EPW 2814   2.417   1.039   2.702 -0.4391  0.7730  0.1070
  593SOL      O 2815   2.062   1.515   2.074 -0.2721 -0.3511 -0.5253
  593SOL     H1 2816   2.079   1.531   1.981  0.7849  1.2157 -0.1048
  593SOL     H2 2817   1.967   1.513   2.082 -0.3679 -0.7516 -1.6690
  593SOL    EPW 2818   2.054   1.516   2.065 -0.1695 -0.2267 -0.6024
  594SOL      O 2819   1.036   3.363   2.251  0.1185 -0.3609 -0.8646
  594SOL     H1 2820   1.009   3.438   2.304  1.4396 -0.8494  0.5933
  594SOL     H2 2821   0.955   3.316   2.233 -0.4929  0.3582 -0.0812
  594SOL    EPW 2822   1.025   3.366   2.255  0.1942 -0.3363 -0.6255
  595SOL      O 2823   3.785   0.076   1.690  0.8999  0.4929 -0.6435
  595SOL     H1 2824   3.741  -0.001   1.655 -0.3600  0.9378 -0.1016
  595SOL     H2 2825   3.750   0.149   1.639 -1.3251  1.2143  1.6964
  595SOL    EPW 2826   3.777   0.076   1.681  0.5282  0.6173 -0.3361
  596SOL      O 2827   2.561   5.090   3.164  0.0744  0.4668 -0.2442
  596SOL     H1 2828   2.593   5.132   3.244 -1.1163 -1.4938  1.3569
  596SOL     H2 2829   2.626   5.021   3.146  0.4206  1.0004 -1.0864
  596SOL    EPW 2830   2.572   5.087   3.171 -0.0157  0.3146 -0.1632
  597SOL      O 2831   2.991   4.883   3.337 -0.3176  0.1150  0.3160
  597SOL     H1 2832   3.051   4.815   3.368  1.0867 -0.0452 -2.4791
  597SOL     H2 2833   3.041   4.964   3.344 -0.4623  0.2568 -0.2373
  597SOL    EPW 2834   3.003   4.884   3.341 -0.1832  0.1130 -0.0412
  598SOL      O 2835   1.704   0.486   0.888 -0.2467  0.2321  0.4845
  598SOL     H1 2836   1.668   0.397   0.892 -1.8581  0.8951  2.3403
  598SOL     H2 2837   1.649   0.532   0.825 -0.9421  0.5144  1.2803
  598SOL    EPW 2838   1.694   0.481   0.882 -0.4928  0.3330  0.7674
  599SOL      O 2839   0.258   4.449   2.194  0.9344 -0.4344  0.2004
  599SOL     H1 2840   0.252   4.419   2.285 -0.0603  0.5106  0.4579
  599SOL     H2 2841   0.324   4.392   2.155  1.1038 -1.1028  1.4141
  599SOL    EPW 2842   0.264   4.440   2.199  0.8464 -0.4049  0.3574
  600SOL      O 2843   0.598   1.474   1.158 -0.7488 -0.1471 -0.0725
  600SOL     H1 2844   0.610   1.394   1.209  0.9908  0.8962  1.3096
  600SOL     H2 2845   0.672   1.475   1.097 -1.3644 -0.1102 -0.8268
  600SOL    EPW 2846   0.608   1.466   1.157 -0.6289 -0.0318 -0.0056
  601SOL      O 2847   0.635   1.617   1.546 -0.0595 -0.1933  0.4584
  601SOL     H1 2848   0.650   1.601   1.639 -0.1102  1.4203  0.7798
  601SOL     H2 2849   0.574   1.549   1.519  0.7288 -1.2847  1.3552
  601SOL    EPW 2850   0.630   1.608   1.553  0.0192 -0.1376  0.5883
  602SOL      O 2851   5.740   0.285   2.383  0.5159 -0.1994  0.2578
  602SOL     H1 2852   5.750   0.259   2.475 -2.5003 -1.5712  0.3403
  602SOL     H2 2853   5.737   0.380   2.385 -1.3943 -0.2249  1.9207
  602SOL    EPW 2854   5.741   0.292   2.393 -0.0096 -0.3485  0.4440
  603SOL      O 2855   0.760   1.641   0.524  0.2311 -0.1304 -0.0312
  603SOL     H1 2856   0.781   1.633   0.617 -1.5340 -0.3445  0.3862
  603SOL     H2 2857   0.720   1.557   0.501  0.5465 -0.0395 -0.9663
  603SOL    EPW 2858   0.758   1.631   0.532  0.0764 -0.1436 -0.0864
  604SOL      O 2859   4.549   0.633   2.164  0.6983 -0.1734  0.2974
  604SOL     H1 2860   4.567   0.541   2.142  0.8620 -0.3650  1.2046
  604SOL     H2 2861   4.459   0.647   2.134 -0.3152 -1.4251  2.5155
  604SOL    EPW 2862   4.542   0.624   2.158  0.6076 -0.3273  0.6308
  605SOL      O 2863   1.349   2.993   0.349 -0.3728  0.1243  0.2033
  605SOL     H1 2864   1.288   2.936   0.396 -0.5415  0.2086  0.0881
  605SOL     H2 2865   1.347   2.961   0.259 -1.0043  0.7564 -0.0130
  605SOL    EPW 2866   1.342   2.984   0.345 -0.4582  0.2007  0.1679
  606SOL      O 2867   2.180   4.814   1.874  0.0819 -0.7178 -0.5323
  606SOL     H1 2868   2.172   4.738   1.933 -0.4528 -1.2871 -1.3059
  606SOL     H2 2869   2.272   4.838   1.878  0.4225 -1.8942 -0.8431
  606SOL    EPW 2870   2.189   4.808   1.881  0.0612 -0.9041 -0.6480
  607SOL      O 2871   1.487   4.065   1.657  0.0309  0.3889 -0.1352
  607SOL     H1 2872   1.578   4.037   1.661 -0.3196 -0.9969 -1.1584
  607SOL     H2 2873   1.471   4.081   1.564 -0.6928  0.9141  0.0697
  607SOL    EPW 2874   1.495   4.064   1.647 -0.0837  0.2971 -0.2225
  608SOL      O 2875   0.649   0.877   2.737  0.7924 -0.2888 -0.3470
  608SOL     H1 2876   0.712   0.941   2.703  0.4168 -0.2828 -1.0526
  608SOL     H2 2877   0.680   0.858   2.825  0.8363  0.9540 -0.0775
  608SOL    EPW 2878   0.659   0.881   2.742  0.7570 -0.1556 -0.3936
  609SOL      O 2879   2.676   2.752   0.728  0.0594  0.3599 -0.1483
  609SOL     H1 2880   2.661   2.667   0.770  0.8202 -0.1748 -0.9320
  609SOL     H2 2881   2.756   2.785   0.769  1.9131 -1.0327 -2.4066
  609SOL    EPW 2882   2.683   2.746   0.737  0.3383  0.1543 -0.4728
  610SOL      O 2883   2.292   0.539   0.090 -0.2756 -0.0181  0.3151
  610SOL     H1 2884   2.315   0.607   0.154  0.5375  0.1802 -0.1769
  610SOL     H2 2885   2.375   0.517   0.047 -0.5726 -1.1393  0.2806
  610SOL    EPW 2886   2.304   0.544   0.092 -0.2205 -0.1166  0.2590
  611SOL      O 2887   4.942   1.272   0.487 -0.0003 -0.6687 -0.3877
  611SOL     H1 2888   4.937   1.351   0.433  0.1009 -0.3277  0.0951
  611SOL     H2 2889   4.884   1.210   0.443 -0.0127 -0.3610 -0.8229
  611SOL    EPW 2890   4.936   1.274   0.476  0.0092 -0.5995 -0.3827
  612SOL      O 2891   2.755   3.008   1.243  0.2794 -0.0797 -0.0352
  612SOL     H1 2892   2.817   3.045   1.306 -0.1409  0.5247  0.0351
  612SOL     H2 2893   2.759   2.914   1.258  2.1042 -0.1749 -0.9016
  612SOL    EPW 2894   2.762   3.002   1.251  0.4292 -0.0254 -0.1202
  613SOL      O 2895   1.779   1.969   3.619  0.0852 -0.1324  0.6769
  613SOL     H1 2896   1.803   2.056   3.651 -0.4428  0.0235  0.6608
  613SOL     H2 2897   1.767   1.917   3.699  1.3825 -0.4761  0.6755
  613SOL    EPW 2898   1.780   1.973   3.631  0.1673 -0.1524  0.6750
  614SOL      O 2899   5.493   4.613   4.055  0.0882  0.3916  0.2215
  614SOL     H1 2900   5.430   4.554   4.014 -1.5930  0.7639  2.1143
  614SOL     H2 2901   5.505   4.683   3.991 -1.1732  0.1459 -0.3168
  614SOL    EPW 2902   5.487   4.614   4.043 -0.2257  0.4051  0.3660
  615SOL      O 2903   1.535   3.770   1.911  0.2038  0.0736 -0.0964
  615SOL     H1 2904   1.628   3.784   1.894  0.2601 -0.7227 -0.4991
  615SOL     H2 2905   1.512   3.694   1.858  0.0370 -1.6598  2.2639
  615SOL    EPW 2906   1.543   3.763   1.904  0.1920 -0.1962  0.1124
  616SOL      O 2907   1.325   1.587   0.199  0.4479 -0.1269 -0.0581
  616SOL     H1 2908   1.413   1.572   0.235  1.2510  0.6749 -1.5848
  616SOL     H2 2909   1.290   1.499   0.185  1.7473 -0.5096 -1.1032
  616SOL    EPW 2910   1.331   1.576   0.202  0.6722 -0.0822 -0.3324
  617SOL      O 2911   0.823   2.021   1.958  0.0220  0.4385 -0.1481
  617SOL     H1 2912   0.774   2.066   2.027 -0.4893  1.9177 -1.3941
  617SOL     H2 2913   0.898   2.079   1.940  0.1343  0.0980 -0.8399
  617SOL    EPW 2914   0.826   2.032   1.963 -0.0206  0.5600 -0.3549
  618SOL      O 2915   1.570   3.489   3.673  0.4935 -0.0335  0.4672
  618SOL     H1 2916   1.517   3.419   3.710 -0.7158  0.3521 -0.4924
  618SOL     H2 2917   1.651   3.487   3.724  0.3000 -1.8153  0.7531
  618SOL    EPW 2918   1.573   3.481   3.682  0.3438 -0.1825  0.3954
  619SOL      O 2919   3.660   1.719   0.854 -0.3389  0.5057 -0.3407
  619SOL     H1 2920   3.637   1.716   0.947 -0.9711 -1.7624 -0.5313
  619SOL     H2 2921   3.724   1.649   0.842 -1.7536 -0.5982 -1.9609
  619SOL    EPW 2922   3.665   1.712   0.862 -0.5573  0.1460 -0.5339
  620SOL      O 2923   5.298   2.453   2.044 -0.0104 -0.4857 -0.8135
  620SOL     H1 2924   5.305   2.442   1.949 -0.7552  0.1947 -0.9592
  620SOL     H2 2925   5.209   2.484   2.058  0.3544  0.2203  0.0347
  620SOL    EPW 2926   5.289   2.455   2.035 -0.0510 -0.3378 -0.7385
  621SOL      O 2927   0.915   5.194   3.894  0.3675 -0.6358  0.6431
  621SOL     H1 2928   0.972   5.270   3.889 -1.3031  0.7353  1.3068
  621SOL     H2 2929   0.927   5.160   3.982 -0.3809  0.1214  1.0480
  621SOL    EPW 2930   0.922   5.198   3.903  0.1094 -0.4088  0.7571
  622SOL      O 2931   1.423   4.853   1.839  0.3642  0.6560 -0.4858
  622SOL     H1 2932   1.332   4.859   1.809  0.2799  1.4079 -0.1179
  622SOL     H2 2933   1.474   4.850   1.758  0.0040  0.0405 -0.6934
  622SOL    EPW 2934   1.419   4.854   1.827  0.3168  0.6705 -0.4687
  623SOL      O 2935   4.033   0.377   4.010 -0.7569  0.7386 -0.2374
  623SOL     H1 2936   4.016   0.371   3.916  2.0976 -2.2471 -0.7663
  623SOL     H2 2937   4.105   0.440   4.017  1.6840 -1.7632 -0.7297
  623SOL    EPW 2938   4.039   0.383   4.001 -0.1920  0.1532 -0.3463
  624SOL      O 2939   0.989   0.380   3.063  0.0490 -0.1226  0.2490
  624SOL     H1 2940   1.019   0.309   3.120 -0.5532 -0.2820  0.3716
  624SOL     H2 2941   1.045   0.374   2.986 -1.5943 -2.2935 -0.8465
  624SOL    EPW 2942   0.998   0.372   3.061 -0.1905 -0.3712  0.1452
  625SOL      O 2943   1.981   0.301   2.259 -0.1467 -0.3938 -0.0215
  625SOL     H1 2944   1.981   0.384   2.308 -1.5340 -0.1939 -0.3210
  625SOL     H2 2945   1.999   0.328   2.168 -0.2718 -0.4637 -0.0662
  625SOL    EPW 2946   1.983   0.313   2.254 -0.3080 -0.3799 -0.0582
  626SOL      O 2947   4.088   5.191   1.459  0.8023  0.2825 -0.3391
  626SOL     H1 2948   4.107   5.098   1.454 -0.3350 -0.0461  0.9016
  626SOL     H2 2949   3.992   5.197   1.452  0.7614  1.2418  0.7026
  626SOL    EPW 2950   4.080   5.182   1.458  0.6766  0.3498 -0.0956
  627SOL      O 2951   2.980   5.827   1.041  0.7569 -0.1496  0.1294
  627SOL     H1 2952   2.966   5.784   1.125  1.5983 -0.0677  0.3200
  627SOL     H2 2953   3.061   5.787   1.007  2.6304  2.5226  1.1376
  627SOL    EPW 2954   2.987   5.818   1.046  1.0465  0.1442  0.2573
  628SOL      O 2955   2.820   4.263   3.715 -0.3987 -0.2075 -0.0673
  628SOL     H1 2956   2.905   4.238   3.752 -0.3449  0.2292  0.1156
  628SOL     H2 2957   2.842   4.327   3.647 -0.6039  0.1330  0.1888
  628SOL    EPW 2958   2.831   4.267   3.712 -0.4148 -0.1246 -0.0205
  629SOL      O 2959   0.334   3.036   0.271 -0.1027  0.1755  0.1590
  629SOL     H1 2960   0.320   2.967   0.206 -0.8226  0.2567  0.2184
  629SOL     H2 2961   0.352   2.988   0.353 -0.2919  0.0590  0.1339
  629SOL    EPW 2962   0.334   3.023   0.273 -0.1996  0.1717  0.1626
  630SOL      O 2963   4.002   2.205   0.553 -0.9329 -0.0444  0.1101
  630SOL     H1 2964   3.962   2.118   0.561  0.9323 -1.0399 -0.8426
  630SOL     H2 2965   4.013   2.218   0.459  1.8918 -0.3134  0.3173
  630SOL    EPW 2966   3.999   2.197   0.544 -0.4326 -0.1793  0.0306
  631SOL      O 2967   3.051   0.945   3.477 -0.3342 -0.4447  0.6580
  631SOL     H1 2968   3.111   0.901   3.536  0.9052 -2.1272 -1.6935
  631SOL     H2 2969   3.040   0.885   3.404 -2.5671  1.0926 -0.4033
  631SOL    EPW 2970   3.056   0.934   3.475 -0.4402 -0.4602  0.2939
  632SOL      O 2971   4.178   4.006   3.420  0.4373  0.5757 -0.1645
  632SOL     H1 2972   4.197   3.913   3.410 -0.7221  0.5120 -2.3614
  632SOL     H2 2973   4.238   4.050   3.361  0.8046  1.2233  0.6676
  632SOL    EPW 2974   4.186   4.001   3.413  0.3528  0.6380 -0.3101
  633SOL      O 2975   2.619   4.141   1.841  0.0647 -0.1831 -0.3988
  633SOL     H1 2976   2.631   4.053   1.877  0.2713  0.8857  2.4160
  633SOL     H2 2977   2.613   4.127   1.747  1.9692 -3.0296 -0.2563
  633SOL    EPW 2978   2.620   4.130   1.835  0.2899 -0.3727 -0.0833
  634SOL      O 2979   1.526   0.270   2.945  0.2094 -0.2341  0.4225
  634SOL     H1 2980   1.616   0.301   2.931  1.2812 -3.5152 -0.8344
  634SOL     H2 2981   1.524   0.246   3.038  0.0158  1.4488  0.8880
  634SOL    EPW 2982   1.535   0.271   2.953  0.3031 -0.4046  0.3381
  635SOL      O 2983   0.091   4.257   0.247  0.2134  0.0218  0.1101
  635SOL     H1 2984   0.085   4.352   0.260 -0.0949 -0.1156  1.0125
  635SOL     H2 2985   0.132   4.248   0.160  1.7856  0.9833  0.7040
  635SOL    EPW 2986   0.095   4.266   0.239  0.3482  0.1097  0.2697
  636SOL      O 2987   4.737   4.435   3.067 -0.0515  0.3327 -0.1391
  636SOL     H1 2988   4.804   4.495   3.100 -0.6483  1.4157 -0.8649
  636SOL     H2 2989   4.780   4.389   2.995 -0.0911  1.0405 -0.6180
  636SOL    EPW 2990   4.749   4.436   3.063 -0.1194  0.5237 -0.2676
  637SOL      O 2991   2.650   2.341   3.655 -0.3876  0.2030 -0.1202
  637SOL     H1 2992   2.667   2.306   3.742 -1.2580  0.1261  0.0330
  637SOL     H2 2993   2.568   2.389   3.664  0.4571  1.7669 -0.4878
  637SOL    EPW 2994   2.643   2.342   3.665 -0.3904  0.3616 -0.1431
  638SOL      O 2995   1.301   4.035   0.308  0.2472  0.1006 -0.7388
  638SOL     H1 2996   1.302   3.948   0.268  1.0694 -0.0657 -0.3835
  638SOL     H2 2997   1.221   4.076   0.275  0.3493 -0.4313 -1.6820
  638SOL    EPW 2998   1.292   4.030   0.300  0.3458  0.0261 -0.8015
  639SOL      O 2999   1.439   2.993   1.370 -0.0843  0.2316  0.2786
  639SOL     H1 3000   1.465   2.909   1.332 -0.5697  0.9475 -1.7537
  639SOL     H2 3001   1.458   2.984   1.464  1.0634 -1.6671 -0.0900
  639SOL    EPW 3002   1.444   2.983   1.376 -0.0136  0.1055  0.0225
  640SOL      O 3003   2.421   0.723   0.235 -0.3984  0.0067 -0.1862
  640SOL     H1 3004   2.370   0.800   0.260 -0.0027 -0.0914  0.9637
  640SOL     H2 3005   2.457   0.690   0.317  1.0186 -0.2867 -0.9021
  640SOL    EPW 3006   2.419   0.728   0.247 -0.2051 -0.0350 -0.1399
  641SOL      O 3007   3.886   3.962   0.635  0.5126  0.2212  0.5358
  641SOL     H1 3008   3.885   3.873   0.670  0.4118  0.3558  0.8765
  641SOL     H2 3009   3.800   3.974   0.596  0.8011 -0.1088 -0.2218
  641SOL    EPW 3010   3.877   3.954   0.635  0.5326  0.2003  0.4913
  642SOL      O 3011   5.780   0.825   3.819 -0.1319  0.6853 -0.1607
  642SOL     H1 3012   5.711   0.769   3.856  1.1826  0.2285  1.7241
  642SOL     H2 3013   5.754   0.914   3.842 -0.8192  0.6565 -0.7677
  642SOL    EPW 3014   5.770   0.828   3.825 -0.0650  0.6335 -0.0244
  643SOL      O 3015   1.028   4.752   1.222 -0.2199 -0.2422  0.0395
  643SOL     H1 3016   1.000   4.842   1.236 -1.3354 -0.6714  0.6819
  643SOL     H2 3017   0.985   4.725   1.141 -0.1835 -0.3280  0.0485
  643SOL    EPW 3018   1.021   4.759   1.215 -0.3350 -0.2971  0.1090
  644SOL      O 3019   4.585   2.341   3.581  0.2032  0.2361  0.3908
  644SOL     H1 3020   4.578   2.367   3.673 -0.4651  1.6285 -0.0193
  644SOL     H2 3021   4.509   2.286   3.566  0.5820 -0.4144  0.7795
  644SOL    EPW 3022   4.576   2.338   3.590  0.1723  0.3153  0.3886
  645SOL      O 3023   5.250   4.708   2.133 -0.0695  0.0153 -0.0799
  645SOL     H1 3024   5.255   4.804   2.135 -2.2168  0.1860 -0.8144
  645SOL     H2 3025   5.296   4.681   2.213 -1.1577  1.7648  1.2231
  645SOL    EPW 3026   5.256   4.716   2.142 -0.4147  0.2201 -0.0192
  646SOL      O 3027   3.558   0.738   0.855 -0.2266 -0.3006  0.9605
  646SOL     H1 3028   3.546   0.643   0.844 -1.2449 -0.0615 -0.1477
  646SOL     H2 3029   3.585   0.748   0.947 -0.4773 -1.6292  1.1989
  646SOL    EPW 3030   3.560   0.729   0.864 -0.3619 -0.4168  0.8677
  647SOL      O 3031   3.996   2.491   2.801 -0.2135 -0.1001 -0.0043
  647SOL     H1 3032   3.949   2.412   2.829 -0.1100 -0.4470 -0.7895
  647SOL     H2 3033   3.928   2.549   2.767 -0.0773 -0.7117 -1.3971
  647SOL    EPW 3034   3.984   2.489   2.801 -0.1880 -0.2024 -0.2367
  648SOL      O 3035   0.483   2.048   2.152 -0.2616 -0.4661 -0.4092
  648SOL     H1 3036   0.461   1.973   2.208 -1.8457 -1.0848 -1.7911
  648SOL     H2 3037   0.415   2.112   2.172 -0.0708 -0.1828 -0.6752
  648SOL    EPW 3038   0.473   2.046   2.160 -0.4102 -0.5019 -0.5850
  649SOL      O 3039   2.134   3.211   1.516 -0.8484  0.2695  0.7271
  649SOL     H1 3040   2.134   3.132   1.571 -0.2469  0.1311  0.5324
  649SOL     H2 3041   2.187   3.274   1.565 -4.2870  1.9296  2.7809
  649SOL    EPW 3042   2.139   3.210   1.527 -1.1511  0.4318  0.9255
  650SOL      O 3043   1.410   1.894   3.635  0.2899 -0.4856  0.1235
  650SOL     H1 3044   1.388   1.932   3.720 -0.4668 -0.4043 -0.1050
  650SOL     H2 3045   1.425   1.970   3.578 -0.1489 -0.5315 -0.0563
  650SOL    EPW 3046   1.410   1.907   3.638  0.1624 -0.4818  0.0800
  651SOL      O 3047   5.400   2.394   2.490 -0.6251  0.3349  0.3609
  651SOL     H1 3048   5.312   2.430   2.482 -1.9149 -2.1945  1.7237
  651SOL     H2 3049   5.423   2.404   2.582  0.8822  1.5976 -0.1024
  651SOL    EPW 3050   5.393   2.399   2.499 -0.6019  0.1997  0.4568
  652SOL      O 3051   2.387   3.394   0.116 -0.2293 -0.2331 -0.2002
  652SOL     H1 3052   2.373   3.317   0.172 -1.3703  1.0128  1.3507
  652SOL     H2 3053   2.471   3.429   0.145 -1.8186  1.7364  2.6346
  652SOL    EPW 3054   2.394   3.390   0.125 -0.5205  0.1099  0.2677
  653SOL      O 3055   3.456   5.437   3.767 -0.2746 -0.8419  0.1212
  653SOL     H1 3056   3.414   5.407   3.686  0.3966  0.5134 -0.7737
  653SOL     H2 3057   3.547   5.454   3.741  0.0526 -0.7794  1.2759
  653SOL    EPW 3058   3.461   5.436   3.755 -0.1681 -0.6907  0.1489
  654SOL      O 3059   5.365   0.813   0.481  0.2794 -0.0887  0.3200
  654SOL     H1 3060   5.374   0.753   0.407 -0.3154  0.3249 -0.1035
  654SOL     H2 3061   5.441   0.870   0.475 -0.7805  1.2376 -1.2059
  654SOL    EPW 3062   5.374   0.813   0.473  0.1029  0.0969  0.1121
  655SOL      O 3063   4.240   5.170   0.943 -0.1210  0.0139 -0.1901
  655SOL     H1 3064   4.331   5.178   0.972  0.5854 -1.7313 -1.7036
  655SOL     H2 3065   4.188   5.195   1.019  1.6221 -0.3398  1.1780
  655SOL    EPW 3066   4.244   5.173   0.954  0.1403 -0.2100 -0.2056
  656SOL      O 3067   5.543   1.428   3.823  0.8784 -0.4333  0.9050
  656SOL     H1 3068   5.499   1.384   3.896 -2.8618  0.5152 -0.5247
  656SOL     H2 3069   5.525   1.521   3.837  2.1643 -0.0205  0.0013
  656SOL    EPW 3070   5.536   1.434   3.832  0.6166 -0.2881  0.6561
  657SOL      O 3071   0.096   2.356   1.780 -0.0722  0.4505 -0.2407
  657SOL     H1 3072   0.175   2.333   1.731 -0.9104 -1.1836 -0.9020
  657SOL     H2 3073   0.128   2.387   1.865  1.2635 -1.2532 -0.0706
  657SOL    EPW 3074   0.108   2.357   1.784 -0.0191  0.0945 -0.2931
  658SOL      O 3075   4.765   1.341   3.484 -0.4289 -0.4995 -0.0150
  658SOL     H1 3076   4.809   1.412   3.531 -1.2548  0.2523 -0.3493
  658SOL     H2 3077   4.827   1.314   3.417  0.9339 -1.8501  1.6865
  658SOL    EPW 3078   4.776   1.346   3.482 -0.3716 -0.5633  0.1308
  659SOL      O 3079   2.742   3.787   2.598  0.1919  0.2082  0.1918
  659SOL     H1 3080   2.737   3.877   2.566 -1.1275  0.4666  1.0499
  659SOL     H2 3081   2.812   3.789   2.664  0.9004  0.3336 -0.5404
  659SOL    EPW 3082   2.749   3.797   2.602  0.1268  0.2491  0.2052
  660SOL      O 3083   1.312   1.977   3.870 -0.0571  0.0606 -0.1310
  660SOL     H1 3084   1.233   1.925   3.884  0.1439  0.2577  2.2028
  660SOL     H2 3085   1.378   1.935   3.925  1.2025  0.5087 -1.2440
  660SOL    EPW 3086   1.311   1.967   3.878  0.0987  0.1295 -0.0008
  661SOL      O 3087   0.327   0.742   2.070  0.5027  0.4597  0.1175
  661SOL     H1 3088   0.393   0.748   2.140 -0.6854 -0.2278  1.3558
  661SOL     H2 3089   0.256   0.799   2.099  0.9635  2.0948 -1.7608
  661SOL    EPW 3090   0.326   0.748   2.081  0.4251  0.5608  0.0493
  662SOL      O 3091   3.090   5.033   1.504 -0.0165  0.5814  0.1674
  662SOL     H1 3092   3.010   5.022   1.453 -1.0409 -0.7412  1.9939
  662SOL     H2 3093   3.068   5.097   1.571 -0.1386 -1.0167  1.7323
  662SOL    EPW 3094   3.079   5.039   1.505 -0.1388  0.2699  0.5292
  663SOL      O 3095   5.048   2.041   1.350  0.2548 -0.0246  0.3791
  663SOL     H1 3096   4.981   2.094   1.393  1.3371  1.5019  0.2280
  663SOL     H2 3097   5.125   2.049   1.406  1.1377  0.5195 -0.8722
  663SOL    EPW 3098   5.049   2.047   1.361  0.4644  0.1963  0.2295
  664SOL      O 3099   4.015   5.555   0.148 -0.5448  0.1797  0.9167
  664SOL     H1 3100   4.080   5.593   0.207 -0.6101  1.1862  0.3613
  664SOL     H2 3101   4.055   5.562   0.061 -1.1486  0.2531  0.6421
  664SOL    EPW 3102   4.026   5.560   0.145 -0.6161  0.2949  0.8281
  665SOL      O 3103   5.173   1.431   3.375 -0.7770  0.1188  0.4239
  665SOL     H1 3104   5.245   1.493   3.380 -0.4142 -0.3605  1.5233
  665SOL     H2 3105   5.209   1.356   3.328 -0.2616 -0.4740  1.7158
  665SOL    EPW 3106   5.184   1.430   3.371 -0.6833  0.0044  0.6790
  666SOL      O 3107   0.097   0.235   1.806 -0.2873 -0.0859 -0.2045
  666SOL     H1 3108   0.157   0.177   1.759  1.7134  2.7982 -1.4909
  666SOL     H2 3109   0.145   0.317   1.814 -3.4256  1.8217  0.4215
  666SOL    EPW 3110   0.109   0.237   1.802 -0.4087  0.4253 -0.2750
  667SOL      O 3111   0.086   3.380   1.140  0.2454  0.3399  1.0160
  667SOL     H1 3112   0.044   3.463   1.118 -1.3559 -0.5914  0.3564
  667SOL     H2 3113   0.014   3.318   1.147  1.3365 -0.8667  2.2031
  667SOL    EPW 3114   0.074   3.382   1.139  0.1910  0.1118  1.0722
  668SOL      O 3115   3.923   3.324   3.936 -0.0658 -0.0854  0.1021
  668SOL     H1 3116   3.833   3.323   3.971 -0.7288  0.8595 -1.4682
  668SOL     H2 3117   3.922   3.394   3.871  1.9515  0.2103  0.3346
  668SOL    EPW 3118   3.913   3.331   3.933  0.0787  0.0469 -0.0406
  669SOL      O 3119   3.779   1.590   0.547  0.0838  0.1787 -0.9017
  669SOL     H1 3120   3.753   1.602   0.639 -0.4913 -0.6225 -0.9506
  669SOL     H2 3121   3.816   1.502   0.545 -1.3760 -0.4612 -1.7368
  669SOL    EPW 3122   3.780   1.582   0.557 -0.1333  0.0250 -0.9960
  670SOL      O 3123   2.294   2.680   2.573  0.2182 -0.6254 -0.1396
  670SOL     H1 3124   2.258   2.650   2.656 -0.2932 -1.7402 -0.7457
  670SOL     H2 3125   2.219   2.714   2.525  0.2824 -1.2148 -0.6681
  670SOL    EPW 3126   2.282   2.680   2.577  0.1705 -0.8072 -0.2606
  671SOL      O 3127   3.027   4.617   2.996  0.3199 -0.1254 -0.4894
  671SOL     H1 3128   2.957   4.565   2.956  0.7493 -0.4545 -0.8215
  671SOL     H2 3129   3.046   4.572   3.078  0.1430 -0.0336 -0.3970
  671SOL    EPW 3130   3.021   4.606   3.001  0.3468 -0.1507 -0.5150
  672SOL      O 3131   0.889   2.949   3.790  0.2083 -0.4302 -0.3087
  672SOL     H1 3132   0.923   2.873   3.837 -1.4706 -0.3530  1.1140
  672SOL     H2 3133   0.906   2.929   3.698  2.3105 -1.2230  0.1864
  672SOL    EPW 3134   0.895   2.939   3.785  0.2535 -0.5065 -0.1041
  673SOL      O 3135   0.296   5.055   3.911  0.1571  0.5646  0.2279
  673SOL     H1 3136   0.250   5.128   3.952  1.0780  0.1552  2.1411
  673SOL     H2 3137   0.326   5.089   3.827  1.0242  2.5954  1.2909
  673SOL    EPW 3138   0.295   5.067   3.907  0.3478  0.7375  0.5454
  674SOL      O 3139   1.995   3.989   1.222  0.1914 -0.4325 -0.1048
  674SOL     H1 3140   1.967   3.898   1.214  0.2845 -0.6649  1.6714
  674SOL     H2 3141   2.060   3.988   1.293  2.3618  0.5952 -1.9369
  674SOL    EPW 3142   1.999   3.979   1.229  0.4328 -0.3476 -0.1108
  675SOL      O 3143   3.529   1.503   0.347  0.0951 -0.4693  0.0232
  675SOL     H1 3144   3.581   1.583   0.355  0.1804 -0.3252 -1.6621
  675SOL     H2 3145   3.467   1.521   0.277 -1.2662 -1.1781  0.9958
  675SOL    EPW 3146   3.528   1.514   0.340 -0.0410 -0.5295 -0.0528
  676SOL      O 3147   3.597   4.575   3.782  0.0025 -0.0867  0.0057
  676SOL     H1 3148   3.507   4.559   3.811 -0.2773  0.2691 -0.6410
  676SOL     H2 3149   3.652   4.529   3.846 -0.5831  0.7661  1.1484
  676SOL    EPW 3150   3.593   4.568   3.792 -0.0898  0.0422  0.0586
  677SOL      O 3151   4.642   4.541   3.667  0.2784  0.0395 -0.6693
  677SOL     H1 3152   4.715   4.484   3.688  0.1996  0.2541  0.2219
  677SOL     H2 3153   4.682   4.626   3.650  0.2928  0.0005 -0.8299
  677SOL    EPW 3154   4.654   4.544   3.667  0.2716  0.0583 -0.5914
  678SOL      O 3155   1.910   2.196   0.154  0.0261 -0.5096  0.3130
  678SOL     H1 3156   1.869   2.244   0.226  0.6437  1.1043 -0.3538
  678SOL     H2 3157   1.963   2.129   0.198  0.4868  0.5071  1.3805
  678SOL    EPW 3158   1.912   2.194   0.167  0.1411 -0.2290  0.3558
  679SOL      O 3159   3.141   1.221   1.882 -0.0145 -0.3508 -0.1702
  679SOL     H1 3160   3.139   1.316   1.893  1.4813 -0.2026 -0.8110
  679SOL     H2 3161   3.170   1.209   1.791 -0.6390 -1.4268 -0.2397
  679SOL    EPW 3162   3.144   1.230   1.873  0.0784 -0.4498 -0.2460
  680SOL      O 3163   5.760   2.770   0.667 -0.1134  0.1777 -0.3706
  680SOL     H1 3164   5.745   2.783   0.760 -0.7024  0.8586 -0.5519
  680SOL     H2 3165   5.844   2.723   0.662  0.3303  0.8645  0.4560
  680SOL    EPW 3166   5.767   2.766   0.676 -0.1289  0.3236 -0.3017
  681SOL      O 3167   5.497   5.825   1.166 -0.1359  0.0506  0.0839
  681SOL     H1 3168   5.577   5.813   1.218 -0.2217 -0.4363  0.1130
  681SOL     H2 3169   5.523   5.803   1.077 -0.0224  0.7530 -0.0549
  681SOL    EPW 3170   5.508   5.821   1.162 -0.1329  0.0736  0.0722
  682SOL      O 3171   2.001   5.670   2.974  0.3003  0.4220 -0.0895
  682SOL     H1 3172   2.078   5.619   2.950 -0.9312 -1.8131  0.4316
  682SOL     H2 3173   1.967   5.702   2.890  0.5910 -0.3832 -0.5164
  682SOL    EPW 3174   2.005   5.668   2.962  0.2000  0.0977 -0.0795
  683SOL      O 3175   4.967   5.844   1.444 -0.7899 -0.4149  0.2476
  683SOL     H1 3176   5.002   5.932   1.453  1.3115 -0.9777 -1.4612
  683SOL     H2 3177   4.914   5.831   1.522  1.9244  0.9728  2.4967
  683SOL    EPW 3178   4.965   5.852   1.453 -0.2762 -0.3269  0.3052
  684SOL      O 3179   0.530   3.903   1.814 -0.4470  0.0161 -0.1554
  684SOL     H1 3180   0.618   3.910   1.776 -0.5242 -1.5385 -0.6863
  684SOL     H2 3181   0.500   3.816   1.789 -0.9847 -0.6404  2.5058
  684SOL    EPW 3182   0.536   3.895   1.807 -0.5126 -0.2198  0.0718
  685SOL      O 3183   4.918   2.095   0.874  0.2538  0.0479  0.5335
  685SOL     H1 3184   4.996   2.150   0.873 -0.1083  0.5772  0.7565
  685SOL     H2 3185   4.928   2.039   0.951  1.0608 -0.8625 -0.2030
  685SOL    EPW 3186   4.927   2.095   0.882  0.3012  0.0073  0.4787
  686SOL      O 3187   3.918   0.828   1.569  0.0373  0.2858  0.1532
  686SOL     H1 3188   3.971   0.899   1.534 -0.4693  0.3389 -0.5296
  686SOL     H2 3189   3.877   0.789   1.492 -0.9444  0.2692  0.6748
  686SOL    EPW 3190   3.920   0.831   1.557 -0.1215  0.2897  0.1360
  687SOL      O 3191   4.896   1.101   1.893  0.0559 -0.0296 -0.1209
  687SOL     H1 3192   4.905   1.113   1.987  1.2501 -0.8595 -0.1113
  687SOL     H2 3193   4.926   1.012   1.877  1.9160  0.7897 -1.5305
  687SOL    EPW 3194   4.900   1.093   1.901  0.3817 -0.0307 -0.2703
  688SOL      O 3195   1.331   3.601   0.484 -0.2688 -0.2429 -0.1451
  688SOL     H1 3196   1.298   3.661   0.416  1.0334 -0.5674 -1.1213
  688SOL     H2 3197   1.374   3.658   0.547  1.0775 -0.1058 -1.1372
  688SOL    EPW 3198   1.332   3.614   0.483  0.0138 -0.2629 -0.3550
  689SOL      O 3199   0.456   2.939   1.570 -0.5825  0.5705  0.4745
  689SOL     H1 3200   0.494   2.851   1.582 -1.6883 -0.0200 -0.2147
  689SOL     H2 3201   0.511   2.979   1.504 -0.9486 -0.1694 -0.3009
  689SOL    EPW 3202   0.466   2.934   1.565 -0.7395  0.4286  0.3182
  690SOL      O 3203   5.246   2.538   3.043  1.0729  0.1821  0.0212
  690SOL     H1 3204   5.302   2.603   3.001  0.4860  1.1318  0.6757
  690SOL     H2 3205   5.176   2.589   3.084 -0.0934 -0.9657 -0.4946
  690SOL    EPW 3206   5.245   2.550   3.043  0.8859  0.1610  0.0360
  691SOL      O 3207   0.769   4.198   1.911 -0.3638 -0.7706  0.0911
  691SOL     H1 3208   0.693   4.200   1.969 -0.1365  0.0311  0.3852
  691SOL     H2 3209   0.845   4.205   1.969 -0.1808  1.9225 -0.3301
  691SOL    EPW 3210   0.769   4.199   1.923 -0.3200 -0.3978  0.0775
  692SOL      O 3211   0.753   0.710   3.591  0.2247  0.4762 -0.1567
  692SOL     H1 3212   0.823   0.766   3.557  0.5012  0.9435  1.1280
  692SOL     H2 3213   0.726   0.658   3.516  1.0133  1.2570 -1.0119
  692SOL    EPW 3214   0.758   0.711   3.579  0.3383  0.6094 -0.1109
  693SOL      O 3215   5.119   1.328   0.707  0.2878  0.1062 -0.1488
  693SOL     H1 3216   5.160   1.403   0.664  0.0710  0.5311  0.3751
  693SOL     H2 3217   5.049   1.302   0.647  0.5013  0.1865 -0.4361
  693SOL    EPW 3218   5.116   1.333   0.696  0.2874  0.1601 -0.1235
  694SOL      O 3219   0.493   1.248   0.159  0.1249  0.0846  0.3052
  694SOL     H1 3220   0.449   1.325   0.121 -0.0438  0.4407  1.1934
  694SOL     H2 3221   0.533   1.204   0.084 -0.1233  0.8174 -0.2721
  694SOL    EPW 3222   0.492   1.252   0.147  0.0805  0.2008  0.3384
  695SOL      O 3223   2.200   2.021   3.172  0.6297 -0.1603  0.2341
  695SOL     H1 3224   2.187   1.931   3.143  2.3695 -0.1768 -0.5685
  695SOL     H2 3225   2.215   2.014   3.266  1.3490 -0.7763  0.0773
  695SOL    EPW 3226   2.200   2.011   3.179  0.8920 -0.2277  0.1318
  696SOL      O 3227   5.447   1.518   1.327 -0.4120 -0.4041 -0.2037
  696SOL     H1 3228   5.502   1.550   1.399 -0.9288  0.6590 -0.2624
  696SOL     H2 3229   5.389   1.454   1.367 -1.2375  0.7543  0.5134
  696SOL    EPW 3230   5.447   1.515   1.339 -0.5552 -0.1671 -0.1335
  697SOL      O 3231   0.560   4.992   3.954  0.2720 -0.0787  0.2320
  697SOL     H1 3232   0.468   5.018   3.964  0.3096 -0.0149  0.4170
  697SOL     H2 3233   0.592   5.046   3.882 -0.1618 -0.9618 -0.6448
  697SOL    EPW 3234   0.553   5.000   3.948  0.2297 -0.1661  0.1582
  698SOL      O 3235   5.563   3.750   3.787  0.1525 -0.1215 -0.1582
  698SOL     H1 3236   5.641   3.738   3.842  0.8833  0.2054 -1.0976
  698SOL     H2 3237   5.543   3.843   3.794  0.3729 -0.0381 -0.6033
  698SOL    EPW 3238   5.569   3.759   3.794  0.2540 -0.0777 -0.3059
  699SOL      O 3239   4.122   1.565   1.066  0.1541 -0.2072  0.2121
  699SOL     H1 3240   4.104   1.556   0.972 -0.5269 -0.9493  0.4047
  699SOL     H2 3241   4.110   1.658   1.084  0.5402 -0.0145 -0.4845
  699SOL    EPW 3242   4.119   1.574   1.058  0.1226 -0.2658  0.1583
  700SOL      O 3243   2.680   0.521   3.180 -0.5280 -0.2671  0.1017
  700SOL     H1 3244   2.617   0.493   3.114 -2.1081  0.9193  1.0369
  700SOL     H2 3245   2.636   0.591   3.228  0.4746 -1.1819  2.5345
  700SOL    EPW 3246   2.669   0.526   3.178 -0.5896 -0.2381  0.4610
  701SOL      O 3247   3.341   0.968   3.738  0.3570  0.1461  0.0120
  701SOL     H1 3248   3.408   0.957   3.669  2.3666 -1.2982  2.0500
  701SOL     H2 3249   3.391   0.992   3.816 -1.7052  0.3637  1.3383
  701SOL    EPW 3250   3.354   0.970   3.739  0.3514  0.0153  0.3709
  702SOL      O 3251   3.037   5.187   1.711  0.5182  0.0879  0.1672
  702SOL     H1 3252   2.966   5.249   1.730  1.2557  0.4999  1.7029
  702SOL     H2 3253   3.117   5.234   1.736  1.1370 -1.3023  0.8892
  702SOL    EPW 3254   3.038   5.199   1.715  0.6629 -0.0165  0.4080
  703SOL      O 3255   2.607   5.117   1.457 -0.0193 -0.2200 -0.1563
  703SOL     H1 3256   2.556   5.071   1.391 -1.5650 -0.5924  1.2216
  703SOL     H2 3257   2.611   5.057   1.531  0.7589  0.5906  0.4877
  703SOL    EPW 3258   2.602   5.106   1.458 -0.1012 -0.1733  0.0594
  704SOL      O 3259   3.402   3.007   1.856 -0.1881 -0.0189  0.8013
  704SOL     H1 3260   3.395   2.985   1.949  0.1855 -0.8305  0.6418
  704SOL     H2 3261   3.456   2.937   1.818 -0.3428  0.2969 -0.0293
  704SOL    EPW 3262   3.407   2.997   1.862 -0.1647 -0.0718  0.6956
  705SOL      O 3263   2.689   2.384   2.176  0.2047 -0.1139  0.0690
  705SOL     H1 3264   2.690   2.354   2.085  1.7333 -0.5243  0.1997
  705SOL     H2 3265   2.638   2.465   2.173  1.4002  0.6514 -1.4203
  705SOL    EPW 3266   2.683   2.389   2.166  0.4953 -0.0760 -0.0759
  706SOL      O 3267   0.073   4.490   3.022 -0.0981 -0.0952 -0.2756
  706SOL     H1 3268   0.107   4.410   3.062 -1.1381 -0.1004  0.6354
  706SOL     H2 3269   0.107   4.560   3.078  1.7636  0.2499 -1.7106
  706SOL    EPW 3270   0.081   4.489   3.033 -0.0104 -0.0590 -0.3315
  707SOL      O 3271   5.783   5.148   2.329  0.0451  0.3171 -0.3721
  707SOL     H1 3272   5.768   5.240   2.307 -0.4030 -0.4986 -4.0681
  707SOL     H2 3273   5.876   5.134   2.314 -0.0835 -0.0524 -0.8485
  707SOL    EPW 3274   5.791   5.157   2.325 -0.0164  0.1907 -0.8172
  708SOL      O 3275   1.431   5.285   0.148 -0.0384 -0.0863 -0.2172
  708SOL     H1 3276   1.379   5.365   0.140  0.4237  0.4184  1.3742
  708SOL     H2 3277   1.480   5.297   0.229  0.0099 -2.0106  0.0882
  708SOL    EPW 3278   1.430   5.295   0.156  0.0160 -0.2377 -0.0149
  709SOL      O 3279   2.639   3.992   1.527 -0.2961  0.0354  0.4761
  709SOL     H1 3280   2.552   3.956   1.545  0.0667 -0.8592  0.4916
  709SOL     H2 3281   2.628   4.087   1.536 -1.5451  0.0376 -0.7280
  709SOL    EPW 3282   2.629   3.999   1.530 -0.3906 -0.0598  0.3493
  710SOL      O 3283   1.647   5.215   2.103 -0.6113 -0.1668  0.2175
  710SOL     H1 3284   1.579   5.194   2.039  0.2602 -1.4933 -0.3215
  710SOL     H2 3285   1.693   5.132   2.116  0.4434  0.5428  1.1112
  710SOL    EPW 3286   1.645   5.204   2.097 -0.4058 -0.2326  0.2553
  711SOL      O 3287   4.314   3.323   0.495 -0.0373  0.7992  0.1128
  711SOL     H1 3288   4.243   3.266   0.525  1.5291 -1.2207  0.2186
  711SOL     H2 3289   4.349   3.361   0.576  0.4994 -0.0818  0.3047
  711SOL    EPW 3290   4.310   3.321   0.507  0.1871  0.4897  0.1446
  712SOL      O 3291   1.575   3.639   2.636  0.2050 -0.4252 -0.2447
  712SOL     H1 3292   1.648   3.620   2.577  0.9924 -1.3935  0.9830
  712SOL     H2 3293   1.566   3.560   2.690 -0.2792  0.5024  1.1052
  712SOL    EPW 3294   1.582   3.629   2.636  0.2373 -0.4295  0.0303
  713SOL      O 3295   4.615   5.625   0.225  0.1098 -0.0002 -0.6718
  713SOL     H1 3296   4.687   5.581   0.181  0.5827  0.0294  0.0458
  713SOL     H2 3297   4.609   5.710   0.182  0.2557 -0.1498 -0.9893
  713SOL    EPW 3298   4.622   5.630   0.216  0.1758 -0.0130 -0.6291
  714SOL      O 3299   2.783   0.975   3.570  0.4514  0.0652 -0.4037
  714SOL     H1 3300   2.875   0.956   3.550  0.2870 -1.3787  0.1361
  714SOL     H2 3301   2.785   1.017   3.656  0.4229 -3.1628  1.3371
  714SOL    EPW 3302   2.793   0.978   3.577  0.4308 -0.4332 -0.1604
  715SOL      O 3303   1.747   0.156   0.361 -0.2043  0.1709  0.2052
  715SOL     H1 3304   1.784   0.154   0.273  0.3571  1.7558  0.3616
  715SOL     H2 3305   1.823   0.150   0.419 -0.3625  1.3032  0.5513
  715SOL    EPW 3306   1.759   0.155   0.358 -0.1613  0.4608  0.2588
  716SOL      O 3307   1.324   1.513   3.175 -0.0997 -0.4331 -0.9421
  716SOL     H1 3308   1.289   1.598   3.147 -0.9176 -0.2442  0.5475
  716SOL     H2 3309   1.349   1.469   3.093  0.9532  1.4743 -1.7215
  716SOL    EPW 3310   1.323   1.517   3.163 -0.0746 -0.2095 -0.8663
  717SOL      O 3311   5.840   3.510   3.071 -0.1833  0.0107 -0.2218
  717SOL     H1 3312   5.825   3.431   3.123 -1.1200  0.1151 -0.3310
  717SOL     H2 3313   5.756   3.530   3.031  0.0348  1.0923 -0.1746
  717SOL    EPW 3314   5.830   3.504   3.072 -0.2599  0.1372 -0.2284
  718SOL      O 3315   4.978   5.486   1.664  0.4174  0.3736  0.3181
  718SOL     H1 3316   4.994   5.503   1.756 -2.6691 -0.5250  1.1409
  718SOL     H2 3317   4.998   5.393   1.653 -1.9435 -0.2943  0.9221
  718SOL    EPW 3318   4.982   5.478   1.672 -0.1637  0.2065  0.4703
  719SOL      O 3319   4.798   0.207   3.784  0.4660 -0.0255  0.8063
  719SOL     H1 3320   4.781   0.291   3.741  0.1414  0.0283  1.0391
  719SOL     H2 3321   4.790   0.143   3.713 -1.7435 -0.1207  1.0662
  719SOL    EPW 3322   4.796   0.209   3.772  0.1957 -0.0299  0.8588
  720SOL      O 3323   4.251   2.753   1.476 -0.0499  0.3954 -0.2347
  720SOL     H1 3324   4.296   2.680   1.433 -0.0640  0.7163 -0.8185
  720SOL     H2 3325   4.317   2.823   1.481  0.2039  0.0851  1.0515
  720SOL    EPW 3326   4.263   2.753   1.472 -0.0243  0.3965 -0.1598
  721SOL      O 3327   1.430   1.442   2.904 -0.5724  0.6518 -0.6001
  721SOL     H1 3328   1.437   1.347   2.913  0.7866  0.7589 -0.3119
  721SOL     H2 3329   1.350   1.456   2.853 -0.5752 -0.6645 -0.9765
  721SOL    EPW 3330   1.422   1.434   2.899 -0.4277  0.5228 -0.6095
  722SOL      O 3331   4.316   3.248   1.045 -0.3069 -0.1463 -0.0153
  722SOL     H1 3332   4.388   3.305   1.018 -1.4151  0.5265 -1.7081
  722SOL     H2 3333   4.325   3.170   0.990  0.5062 -1.1265  1.4605
  722SOL    EPW 3334   4.325   3.245   1.036 -0.3384 -0.1791 -0.0384
  723SOL      O 3335   4.765   1.496   2.170  0.1412  0.2272 -0.3771
  723SOL     H1 3336   4.685   1.483   2.120  0.8281 -0.3836 -1.3631
  723SOL     H2 3337   4.767   1.589   2.190 -1.4338  0.0412  0.7578
  723SOL    EPW 3338   4.757   1.505   2.167  0.0465  0.1422 -0.3612
  724SOL      O 3339   4.006   2.919   0.299 -0.0709 -0.6213 -0.0402
  724SOL     H1 3340   4.058   2.930   0.219 -0.0994 -0.1124  0.0120
  724SOL     H2 3341   3.977   2.827   0.295  1.7287 -1.2463  0.4892
  724SOL    EPW 3342   4.009   2.910   0.290  0.1181 -0.6337  0.0219
  725SOL      O 3343   3.678   5.007   0.029 -0.3832 -0.0207 -0.0590
  725SOL     H1 3344   3.745   4.979   0.091 -1.1126  0.7174  1.1066
  725SOL     H2 3345   3.722   5.007  -0.055  0.7202 -0.7742  0.4904
  725SOL    EPW 3346   3.690   5.004   0.027 -0.3433 -0.0223  0.1239
  726SOL      O 3347   2.531   4.262   0.015 -0.5787  0.6739  0.5476
  726SOL     H1 3348   2.458   4.322   0.029 -1.3013 -0.0696  0.0861
  726SOL     H2 3349   2.507   4.213  -0.064 -0.5136 -0.9108  1.4597
  726SOL    EPW 3350   2.521   4.263   0.008 -0.6488  0.4256  0.5956
  727SOL      O 3351   5.160   5.799   0.463 -0.2344 -0.2582 -0.5107
  727SOL     H1 3352   5.065   5.808   0.468 -0.0947  1.1342 -0.0805
  727SOL     H2 3353   5.185   5.844   0.383 -0.0437 -1.7773 -1.3407
  727SOL    EPW 3354   5.153   5.804   0.455 -0.1992 -0.2717 -0.5533
  728SOL      O 3355   2.936   2.475   0.882 -0.8894  0.0399 -0.0531
  728SOL     H1 3356   2.916   2.386   0.913 -0.2953 -0.5015 -1.1419
  728SOL     H2 3357   2.958   2.463   0.789 -1.4291  1.4209 -0.3793
  728SOL    EPW 3358   2.936   2.464   0.875 -0.8836  0.1295 -0.2040
  729SOL      O 3359   3.569   1.130   2.630  0.3566  0.1833  0.5249
  729SOL     H1 3360   3.524   1.048   2.652  2.1613 -1.5817 -1.8603
  729SOL     H2 3361   3.512   1.172   2.566  0.3253 -0.1550  0.3282
  729SOL    EPW 3362   3.558   1.126   2.626  0.5458 -0.0411  0.2495
  730SOL      O 3363   3.151   1.154   1.157  0.0554 -0.0134  0.1958
  730SOL     H1 3364   3.213   1.198   1.214  0.6302 -0.5470 -0.0116
  730SOL     H2 3365   3.080   1.126   1.216  0.8820 -1.0154  0.7603
  730SOL    EPW 3366   3.150   1.156   1.170  0.2049 -0.1772  0.2339
  731SOL      O 3367   5.844   1.958   3.149  0.0690 -0.6907 -0.2138
  731SOL     H1 3368   5.827   1.889   3.213 -1.5110 -1.7577 -1.6719
  731SOL     H2 3369   5.928   1.995   3.175  1.0236 -3.2315  0.6188
  731SOL    EPW 3370   5.851   1.954   3.158  0.0023 -1.0756 -0.2806
  732SOL      O 3371   1.163   3.372   1.189  0.2415  0.3501 -0.1063
  732SOL     H1 3372   1.166   3.283   1.223  2.8888  0.6572  0.6566
  732SOL     H2 3373   1.142   3.426   1.265 -0.6853  0.4561 -0.4279
  732SOL    EPW 3374   1.161   3.369   1.201  0.4251  0.3941 -0.0592
  733SOL      O 3375   0.984   0.217   3.467 -0.1807 -0.0106 -0.1747
  733SOL     H1 3376   0.904   0.265   3.491  0.4503  0.5607  0.8690
  733SOL     H2 3377   0.982   0.138   3.521  0.2894  0.3442  0.3778
  733SOL    EPW 3378   0.975   0.214   3.475 -0.0632  0.0882 -0.0044
  734SOL      O 3379   3.774   5.819   3.936  0.1301 -1.1197 -0.1891
  734SOL     H1 3380   3.750   5.909   3.955 -0.0236 -1.4292  1.2232
  734SOL     H2 3381   3.692   5.776   3.912  0.1831 -0.9123 -0.7397
  734SOL    EPW 3382   3.763   5.824   3.936  0.1194 -1.1306 -0.0972
  735SOL      O 3383   4.692   5.158   2.766  0.0322  0.5812 -0.1459
  735SOL     H1 3384   4.687   5.063   2.760 -0.3660  0.5587  0.4141
  735SOL     H2 3385   4.611   5.183   2.810  0.9603  1.0131  1.4128
  735SOL    EPW 3386   4.683   5.150   2.770  0.0887  0.6249  0.0801
  736SOL      O 3387   4.259   4.269   0.540  0.8503 -0.6947  1.2971
  736SOL     H1 3388   4.173   4.309   0.532  1.1172 -0.3810 -0.2925
  736SOL     H2 3389   4.241   4.175   0.545  0.3683 -0.5644  2.3725
  736SOL    EPW 3390   4.248   4.263   0.540  0.8274 -0.6473  1.2422
  737SOL      O 3391   4.943   1.543   1.961  0.2196 -0.5788 -0.1478
  737SOL     H1 3392   4.907   1.501   1.883 -0.0619  0.0506 -0.3647
  737SOL     H2 3393   4.897   1.502   2.034  0.0113 -0.7093 -0.3507
  737SOL    EPW 3394   4.934   1.534   1.961  0.1674 -0.5256 -0.1926
  738SOL      O 3395   0.853   4.671   3.358 -0.7290  0.1366  0.4092
  738SOL     H1 3396   0.805   4.653   3.439 -1.0023 -1.2261 -0.0428
  738SOL     H2 3397   0.860   4.587   3.314 -1.6093  1.0160 -1.5606
  738SOL    EPW 3398   0.848   4.660   3.362 -0.8520  0.0850  0.1508
  739SOL      O 3399   3.546   2.092   2.096 -0.2993 -0.1203  0.0202
  739SOL     H1 3400   3.544   2.181   2.059 -3.3226 -0.3600 -0.6760
  739SOL     H2 3401   3.570   2.105   2.188 -0.5930  1.4176 -0.0907
  739SOL    EPW 3402   3.548   2.103   2.102 -0.6532  0.0182 -0.0659
  740SOL      O 3403   5.823   4.998   2.554 -0.2120  0.1199 -0.0528
  740SOL     H1 3404   5.883   5.066   2.586 -1.3131  1.3567 -0.5297
  740SOL     H2 3405   5.843   4.922   2.608  0.8708  0.9008  0.6996
  740SOL    EPW 3406   5.832   4.998   2.563 -0.2139  0.3351 -0.0234
  741SOL      O 3407   1.102   5.777   2.799  0.0493 -0.5745 -0.4921
  741SOL     H1 3408   1.120   5.801   2.708  0.4538 -0.8903 -0.4992
  741SOL     H2 3409   1.021   5.726   2.796 -0.9017  0.8641 -0.4653
  741SOL    EPW 3410   1.095   5.774   2.789 -0.0090 -0.4548 -0.4900
  742SOL      O 3411   1.090   5.422   2.828  0.9729 -0.3757 -0.2196
  742SOL     H1 3412   1.023   5.450   2.890  0.6792  0.8228 -1.0457
  742SOL     H2 3413   1.168   5.473   2.850  1.2033 -0.7550 -0.1394
  742SOL    EPW 3414   1.091   5.430   2.837  0.9661 -0.2883 -0.2992
  743SOL      O 3415   4.579   3.467   3.303 -0.4837 -0.4034 -0.1780
  743SOL     H1 3416   4.663   3.512   3.313 -0.7364 -0.1662  1.0325
  743SOL     H2 3417   4.526   3.526   3.250 -1.0167  1.0729  1.8760
  743SOL    EPW 3418   4.582   3.478   3.298 -0.5675 -0.2206  0.1702
  744SOL      O 3419   0.889   5.416   3.577  0.6938 -0.3382 -0.1002
  744SOL     H1 3420   0.972   5.368   3.587  1.2972  0.6023 -0.4341
  744SOL     H2 3421   0.915   5.500   3.539  0.0605  1.3857  2.9343
  744SOL    EPW 3422   0.901   5.420   3.574  0.6907 -0.0540  0.1879
  745SOL      O 3423   0.109   4.242   0.528 -0.1875 -0.4741 -0.2995
  745SOL     H1 3424   0.104   4.334   0.552  1.4746 -0.8733  1.8811
  745SOL     H2 3425   0.156   4.241   0.445  0.8571  0.6051  0.2456
  745SOL    EPW 3426   0.113   4.251   0.522  0.1013 -0.4016 -0.0087
  746SOL      O 3427   1.154   4.870   0.782  0.1540 -0.4505 -0.1867
  746SOL     H1 3428   1.166   4.963   0.761 -0.9444  0.2258  1.9125
  746SOL     H2 3429   1.218   4.852   0.850  0.0970 -1.1355 -0.3041
  746SOL    EPW 3430   1.162   4.878   0.787  0.0308 -0.4514  0.0247
  747SOL      O 3431   2.136   5.780   3.919 -0.4528 -0.2875  0.3349
  747SOL     H1 3432   2.221   5.767   3.877  1.3635 -0.5754  3.8029
  747SOL     H2 3433   2.133   5.874   3.938 -1.8230  0.0697 -1.3535
  747SOL    EPW 3434   2.145   5.789   3.916 -0.4052 -0.2801  0.5247
  748SOL      O 3435   3.911   3.824   2.325  0.0770  0.0539 -0.2249
  748SOL     H1 3436   3.961   3.777   2.392 -0.0911  0.1154 -0.0572
  748SOL     H2 3437   3.896   3.911   2.363 -0.3326 -0.0316 -0.1933
  748SOL    EPW 3438   3.915   3.828   2.336  0.0154  0.0513 -0.2036
  749SOL      O 3439   3.414   4.638   2.388  0.1523  0.5670  0.1543
  749SOL     H1 3440   3.484   4.650   2.451  2.2945  1.4813 -2.2172
  749SOL     H2 3441   3.395   4.727   2.357 -1.4032  0.2284  0.0505
  749SOL    EPW 3442   3.419   4.649   2.391  0.2149  0.6284 -0.1097
  750SOL      O 3443   4.230   3.774   1.237 -1.2374  0.1157  0.2758
  750SOL     H1 3444   4.193   3.762   1.325 -0.1757  2.0072  1.0543
  750SOL     H2 3445   4.166   3.827   1.191 -0.9610  0.6920  0.5468
  750SOL    EPW 3446   4.220   3.778   1.242 -1.0947  0.3790  0.3878
  751SOL      O 3447   0.016   2.877   2.809 -0.0435 -0.1044  0.4226
  751SOL     H1 3448   0.077   2.804   2.817 -1.2791 -1.1610  0.6187
  751SOL     H2 3449   0.029   2.909   2.720  0.8813 -0.2123  0.5048
  751SOL    EPW 3450   0.024   2.873   2.800 -0.0767 -0.2286  0.4523
  752SOL      O 3451   4.918   0.619   1.946  0.2858  0.0577  0.1125
  752SOL     H1 3452   4.969   0.538   1.933  0.4653  0.2221 -0.2189
  752SOL     H2 3453   4.951   0.654   2.029 -0.8852 -1.0067  1.0738
  752SOL    EPW 3454   4.927   0.614   1.954  0.1800 -0.0383  0.1797
  753SOL      O 3455   4.753   2.684   1.183  0.8413 -0.2572 -0.3180
  753SOL     H1 3456   4.810   2.683   1.260  1.2999  0.2124 -0.6422
  753SOL     H2 3457   4.704   2.602   1.189 -0.3425  0.5188  1.3687
  753SOL    EPW 3458   4.754   2.675   1.192  0.7639 -0.1243 -0.1727
  754SOL      O 3459   5.195   3.273   1.055  0.3273  0.6716  0.7155
  754SOL     H1 3460   5.188   3.219   1.134  0.2770 -1.8878 -0.8995
  754SOL     H2 3461   5.104   3.284   1.026  0.4439  0.0060  0.0621
  754SOL    EPW 3462   5.185   3.268   1.060  0.3344  0.3276  0.4735
  755SOL      O 3463   2.721   4.303   2.392 -0.1660  0.7304 -0.0875
  755SOL     H1 3464   2.662   4.370   2.426 -1.1439 -0.4167  0.5631
  755SOL     H2 3465   2.693   4.291   2.301  0.3081  1.5058 -0.3425
  755SOL    EPW 3466   2.712   4.309   2.386 -0.2197  0.6908 -0.0453
  756SOL      O 3467   1.474   1.126   0.950 -0.3999 -0.1015 -0.5026
  756SOL     H1 3468   1.521   1.043   0.942 -1.9857 -0.9919 -1.4085
  756SOL     H2 3469   1.469   1.142   1.044 -0.0913 -1.0611 -0.3068
  756SOL    EPW 3470   1.478   1.119   0.959 -0.5362 -0.2988 -0.5783
  757SOL      O 3471   3.855   0.246   2.754  0.0538 -0.4386  0.2572
  757SOL     H1 3472   3.893   0.327   2.718 -0.3681 -0.3490  0.0059
  757SOL     H2 3473   3.828   0.270   2.842 -0.4802 -0.1746  0.0277
  757SOL    EPW 3474   3.856   0.257   2.759 -0.0482 -0.4008  0.2059
  758SOL      O 3475   0.891   1.329   1.610  0.0320  1.3519  0.0362
  758SOL     H1 3476   0.948   1.307   1.683 -1.7165 -0.2792  0.9989
  758SOL     H2 3477   0.863   1.419   1.626 -2.0068  0.3765  2.6573
  758SOL    EPW 3478   0.894   1.336   1.619 -0.3720  1.0738  0.4185
  759SOL      O 3479   3.304   0.900   2.062 -0.4332 -0.3168 -0.5569
  759SOL     H1 3480   3.377   0.952   2.098 -0.4661  0.3892 -1.4849
  759SOL     H2 3481   3.237   0.904   2.130 -0.2808  0.5306 -0.4408
  759SOL    EPW 3482   3.305   0.906   2.073 -0.4204 -0.1511 -0.6435
  760SOL      O 3483   3.195   4.702   2.765  0.1626 -0.5291  0.2320
  760SOL     H1 3484   3.127   4.659   2.817 -1.0755  1.0568 -0.0034
  760SOL     H2 3485   3.150   4.735   2.688  1.4749 -0.6025 -0.6015
  760SOL    EPW 3486   3.183   4.701   2.762  0.1706 -0.3677  0.1180
  761SOL      O 3487   3.119   1.077   4.114  0.1402 -0.0568  0.2228
  761SOL     H1 3488   3.128   1.172   4.128  0.2215 -0.0415  0.0638
  761SOL     H2 3489   3.115   1.040   4.202  1.5739 -0.0545  0.3048
  761SOL    EPW 3490   3.119   1.083   4.125  0.3018 -0.0550  0.2146
  762SOL      O 3491   2.588   2.757   2.981 -0.2435  0.3093 -0.4062
  762SOL     H1 3492   2.669   2.742   2.933 -0.8714  1.4034 -1.9188
  762SOL     H2 3493   2.563   2.671   3.015 -0.2993 -0.7992 -3.0031
  762SOL    EPW 3494   2.594   2.746   2.980 -0.3164  0.3078 -0.8446
  763SOL      O 3495   5.406   0.188   3.947 -0.4088 -0.0861  0.3432
  763SOL     H1 3496   5.404   0.270   3.899 -1.5223  0.7983  1.8180
  763SOL     H2 3497   5.366   0.124   3.888  0.2574  0.4651 -0.7297
  763SOL    EPW 3498   5.401   0.190   3.936 -0.4566  0.0671  0.3861
  764SOL      O 3499   5.088   5.587   1.905 -0.0147  0.2246  0.2370
  764SOL     H1 3500   5.153   5.517   1.904 -1.1630 -0.9473  2.0784
  764SOL     H2 3501   5.088   5.618   1.995 -1.7521  0.4062  0.2031
  764SOL    EPW 3502   5.095   5.583   1.914 -0.3225  0.1190  0.4299
  765SOL      O 3503   1.589   2.553   2.330  0.1566  0.3905  0.4675
  765SOL     H1 3504   1.626   2.478   2.284  2.0747  1.0791  0.7965
  765SOL     H2 3505   1.495   2.546   2.315  0.3242 -1.8493  0.1837
  765SOL    EPW 3506   1.583   2.544   2.323  0.3791  0.2250  0.4723
  766SOL      O 3507   2.015   2.722   1.300 -0.0186 -0.0808 -0.3728
  766SOL     H1 3508   1.966   2.802   1.320 -0.0478  0.3125 -1.9167
  766SOL     H2 3509   2.099   2.734   1.344 -0.8375 -0.2468  1.3365
  766SOL    EPW 3510   2.018   2.732   1.307 -0.1090 -0.0566 -0.3552
  767SOL      O 3511   3.327   4.909   3.515  0.5552  0.1548  0.4624
  767SOL     H1 3512   3.354   4.834   3.462  1.5477 -0.0616  1.2518
  767SOL     H2 3513   3.398   4.921   3.577 -0.4455  0.6054  1.5485
  767SOL    EPW 3514   3.337   4.902   3.516  0.5543  0.1797  0.6625
  768SOL      O 3515   2.091   4.350   2.449 -0.4398 -0.3362  0.5505
  768SOL     H1 3516   2.102   4.430   2.398  0.9385 -0.1001  1.1618
  768SOL     H2 3517   2.180   4.328   2.478 -1.0416 -1.0522  1.9394
  768SOL    EPW 3518   2.102   4.356   2.447 -0.3570 -0.3874  0.7639
  769SOL      O 3519   0.137   3.216   3.156 -0.2154 -0.6877  0.1478
  769SOL     H1 3520   0.164   3.297   3.200 -0.3253 -1.4814  1.7106
  769SOL     H2 3521   0.045   3.206   3.179 -0.3659 -0.9453 -0.5540
  769SOL    EPW 3522   0.130   3.224   3.163 -0.2431 -0.7999  0.2396
  770SOL      O 3523   3.792   4.325   0.111 -0.3309  0.7217 -0.5007
  770SOL     H1 3524   3.872   4.314   0.164 -1.7097  0.4053  1.6649
  770SOL     H2 3525   3.782   4.242   0.065 -0.7162 -0.2537  1.2294
  770SOL    EPW 3526   3.800   4.315   0.112 -0.5191  0.5839 -0.0851
  771SOL      O 3527   1.694   2.532   3.083  0.2096 -0.3320  0.0790
  771SOL     H1 3528   1.644   2.575   3.013  1.3608  2.7998  1.0241
  771SOL     H2 3529   1.628   2.513   3.150 -0.4992 -1.0420 -0.7951
  771SOL    EPW 3530   1.681   2.535   3.083  0.2568 -0.0737  0.0866
  772SOL      O 3531   2.698   3.984   2.175  0.2615 -0.3037 -0.1841
  772SOL     H1 3532   2.678   4.078   2.175  2.4666  0.2812 -3.0790
  772SOL     H2 3533   2.651   3.949   2.099  1.3148 -1.0376 -0.5261
  772SOL    EPW 3534   2.691   3.990   2.167  0.6091 -0.3196 -0.5294
  773SOL      O 3535   5.757   3.161   3.879  0.1909 -0.0121  0.1993
  773SOL     H1 3536   5.815   3.128   3.947  0.0405 -2.7822 -0.8920
  773SOL     H2 3537   5.815   3.210   3.821  1.1172 -1.0829  0.1700
  773SOL    EPW 3538   5.770   3.163   3.880  0.2737 -0.4219  0.0798
  774SOL      O 3539   5.823   5.009   1.113  0.4271 -0.0682  0.2163
  774SOL     H1 3540   5.733   5.019   1.144  0.3222 -1.6737  0.5165
  774SOL     H2 3541   5.871   5.080   1.155 -0.9189  1.5802 -0.9293
  774SOL    EPW 3542   5.818   5.018   1.121  0.2723 -0.0636  0.1261
  775SOL      O 3543   1.581   3.431   2.788  0.0318 -0.7560 -0.5034
  775SOL     H1 3544   1.673   3.424   2.760 -0.1122  1.2348 -1.6529
  775SOL     H2 3545   1.538   3.356   2.746  0.8276 -0.7928 -1.2941
  775SOL    EPW 3546   1.586   3.422   2.781  0.1013 -0.5476 -0.7104
  776SOL      O 3547   2.307   4.910   3.878  0.4099  0.5943 -0.2477
  776SOL     H1 3548   2.287   4.834   3.824 -2.0718  1.9399 -1.3827
  776SOL     H2 3549   2.377   4.880   3.936 -0.1050 -2.3603 -0.9890
  776SOL    EPW 3550   2.312   4.899   3.878  0.0902  0.4227 -0.4479
  777SOL      O 3551   1.878   0.062   2.327  0.1107  0.3621 -0.5196
  777SOL     H1 3552   1.887   0.145   2.280 -1.3700  1.6687  1.3273
  777SOL     H2 3553   1.913   0.081   2.414 -2.4336 -0.1288  0.7119
  777SOL    EPW 3554   1.883   0.073   2.332 -0.3187  0.4491 -0.1912
  778SOL      O 3555   5.229   0.461   0.285 -0.1993  0.0967  0.2764
  778SOL     H1 3556   5.275   0.527   0.233 -3.0613  2.3461  0.3123
  778SOL     H2 3557   5.247   0.486   0.376 -0.6188  0.3300  0.2969
  778SOL    EPW 3558   5.236   0.471   0.289 -0.5493  0.3616  0.2824
  779SOL      O 3559   4.593   3.347   3.892  0.6113  0.0644 -0.8505
  779SOL     H1 3560   4.658   3.335   3.961  0.3419  1.1583 -0.3939
  779SOL     H2 3561   4.605   3.271   3.834  1.1480 -0.6198  0.1401
  779SOL    EPW 3562   4.601   3.338   3.893  0.6398  0.1081 -0.6961
  780SOL      O 3563   2.319   5.182   2.572  0.0039 -0.4427 -0.0365
  780SOL     H1 3564   2.245   5.168   2.513  0.6438 -0.1444 -0.9391
  780SOL     H2 3565   2.396   5.176   2.516  0.8287 -2.8139  1.2295
  780SOL    EPW 3566   2.320   5.180   2.560  0.1602 -0.6638  0.0022
  781SOL      O 3567   3.650   2.558   1.357 -0.0856  0.2153 -0.2350
  781SOL     H1 3568   3.706   2.535   1.431 -0.3761  0.2430 -0.0039
  781SOL     H2 3569   3.671   2.494   1.290  0.6182  0.5532 -0.3479
  781SOL    EPW 3570   3.659   2.549   1.358 -0.0415  0.2543 -0.2224
  782SOL      O 3571   3.160   4.045   1.076 -0.0141  0.2958 -0.3003
  782SOL     H1 3572   3.237   3.991   1.094  0.0028  1.3382  3.7323
  782SOL     H2 3573   3.194   4.127   1.043  0.4643  0.1062 -0.2796
  782SOL    EPW 3574   3.172   4.048   1.074  0.0388  0.3868  0.1321
  783SOL      O 3575   5.118   4.910   0.520 -0.1800 -0.6629  0.0019
  783SOL     H1 3576   5.122   4.816   0.503  2.4943 -0.7526  0.6786
  783SOL     H2 3577   5.185   4.947   0.463 -0.9128  0.7971  0.0493
  783SOL    EPW 3578   5.125   4.904   0.512  0.0271 -0.5168  0.0791
  784SOL      O 3579   3.168   1.594   1.321 -0.1487  0.4199 -0.3037
  784SOL     H1 3580   3.187   1.641   1.240  0.1112  0.2344 -0.3546
  784SOL     H2 3581   3.073   1.587   1.323 -0.2165  1.3670 -0.0526
  784SOL    EPW 3582   3.160   1.598   1.312 -0.1282  0.5011 -0.2824
  785SOL      O 3583   3.039   1.139   2.490  0.2530  0.1467 -0.2412
  785SOL     H1 3584   3.077   1.079   2.425 -0.8272  0.4809 -1.2141
  785SOL     H2 3585   3.028   1.221   2.442 -0.5304  0.4130  0.3870
  785SOL    EPW 3586   3.042   1.141   2.478  0.0542  0.2107 -0.2780
  786SOL      O 3587   3.056   4.825   1.156 -0.2682 -0.1455  0.1505
  786SOL     H1 3588   2.967   4.842   1.187 -0.2565 -1.3659  0.9270
  786SOL     H2 3589   3.096   4.773   1.226  0.5024 -1.0799 -0.9469
  786SOL    EPW 3590   3.051   4.821   1.167 -0.1848 -0.3754  0.1163
  787SOL      O 3591   0.652   5.454   1.611  0.5479  0.1462  0.1123
  787SOL     H1 3592   0.720   5.436   1.546  0.8878 -2.7022  1.1329
  787SOL     H2 3593   0.689   5.425   1.694 -1.4336 -0.2749  0.9150
  787SOL    EPW 3594   0.663   5.449   1.613  0.3728 -0.2026  0.3068
  788SOL      O 3595   1.696   5.809   2.009  0.3373  0.3285  0.2844
  788SOL     H1 3596   1.677   5.858   1.929  0.2529 -0.2172 -0.0345
  788SOL     H2 3597   1.791   5.798   2.008  0.4135  0.9175  0.6157
  788SOL    EPW 3598   1.704   5.813   2.000  0.3365  0.3331  0.2857
  789SOL      O 3599   0.812   5.304   3.137  0.1096 -0.2370  0.9098
  789SOL     H1 3600   0.783   5.371   3.075 -1.6604 -0.6246  1.2532
  789SOL     H2 3601   0.891   5.340   3.177  0.3000  0.7755 -0.3069
  789SOL    EPW 3602   0.817   5.315   3.135 -0.0589 -0.1703  0.8167
  790SOL      O 3603   4.315   5.423   2.521 -0.2552 -0.0135 -0.1509
  790SOL     H1 3604   4.317   5.440   2.427  0.9318  0.4439 -0.0536
  790SOL     H2 3605   4.379   5.353   2.534  1.5609  1.6929  0.6244
  790SOL    EPW 3606   4.322   5.418   2.512  0.0651  0.2173 -0.0578
  791SOL      O 3607   1.466   3.795   0.085  0.0746 -0.1259 -0.4874
  791SOL     H1 3608   1.551   3.825   0.117 -0.5131  0.9614  0.0891
  791SOL     H2 3609   1.480   3.782  -0.009  0.7551  0.5064 -0.4906
  791SOL    EPW 3610   1.477   3.797   0.078  0.0845  0.0575 -0.4262
  792SOL      O 3611   5.678   2.605   1.853 -0.3364 -0.3388  0.5750
  792SOL     H1 3612   5.674   2.538   1.784  0.4829  0.1412  0.0449
  792SOL     H2 3613   5.587   2.619   1.877 -0.7326  0.0658 -1.0100
  792SOL    EPW 3614   5.668   2.599   1.848 -0.2913 -0.2445  0.3493
  793SOL      O 3615   2.789   1.384   2.101  0.3650  0.2408 -0.1968
  793SOL     H1 3616   2.749   1.470   2.107  0.2450  0.1155  1.3429
  793SOL     H2 3617   2.715   1.323   2.102  0.4970  0.0825  0.2758
  793SOL    EPW 3618   2.777   1.386   2.102  0.3663  0.2105  0.0178
  794SOL      O 3619   0.124   1.638   1.707 -0.2433 -0.3865  0.3004
  794SOL     H1 3620   0.192   1.689   1.751 -0.3318 -1.0007  1.1733
  794SOL     H2 3621   0.132   1.550   1.745 -1.1870 -0.5931  0.0337
  794SOL    EPW 3622   0.132   1.634   1.716 -0.3534 -0.4740  0.3651
  795SOL      O 3623   3.357   0.807   0.122  0.1742 -0.1696  0.0781
  795SOL     H1 3624   3.382   0.816   0.214  0.0499  2.4566 -0.0605
  795SOL     H2 3625   3.287   0.871   0.109 -1.0673 -1.7333 -1.4646
  795SOL    EPW 3626   3.352   0.815   0.130  0.0285 -0.0563 -0.1013
  796SOL      O 3627   3.090   1.838   0.734  0.5133  0.0653  0.5054
  796SOL     H1 3628   3.136   1.786   0.668 -1.6982  0.4247 -1.4242
  796SOL     H2 3629   3.114   1.797   0.817  2.5564 -1.0598 -0.5520
  796SOL    EPW 3630   3.098   1.828   0.736  0.4953 -0.0164  0.1868
  797SOL      O 3631   3.657   0.613   2.470 -0.0890 -0.2354  0.6851
  797SOL     H1 3632   3.673   0.538   2.413  1.4595  0.8978 -0.4548
  797SOL     H2 3633   3.626   0.574   2.553 -0.7313 -2.0083 -0.3297
  797SOL    EPW 3634   3.655   0.600   2.473  0.0076 -0.3036  0.4553
  798SOL      O 3635   0.747   1.583   3.011 -0.3238 -0.3780  0.0828
  798SOL     H1 3636   0.712   1.643   2.945 -0.8852 -0.8196 -0.0356
  798SOL     H2 3637   0.842   1.594   3.006 -0.2538 -1.3587 -1.7759
  798SOL    EPW 3638   0.753   1.590   3.003 -0.3763 -0.5298 -0.1281
  799SOL      O 3639   2.479   0.367   3.643  0.6919  0.0983 -0.1930
  799SOL     H1 3640   2.552   0.429   3.649 -0.7692  2.0927 -1.6027
  799SOL     H2 3641   2.441   0.367   3.730  1.4778  0.1850  0.1616
  799SOL    EPW 3642   2.483   0.373   3.653  0.6199  0.3203 -0.3055
  800SOL      O 3643   5.370   2.632   1.783  0.0390  0.1140 -0.2664
  800SOL     H1 3644   5.288   2.591   1.756 -0.5239  0.3826  0.9856
  800SOL     H2 3645   5.354   2.662   1.872  0.3065  3.2844 -1.1366
  800SOL    EPW 3646   5.360   2.631   1.789  0.0075  0.4809 -0.2257
  801SOL      O 3647   0.651   3.691   2.409 -0.9538  0.4299  0.2570
  801SOL     H1 3648   0.725   3.630   2.404 -1.4225 -0.2601  1.3709
  801SOL     H2 3649   0.662   3.748   2.332  0.9038  0.5474  0.5585
  801SOL    EPW 3650   0.660   3.691   2.400 -0.8056  0.3689  0.4080
  802SOL      O 3651   4.818   2.701   1.749  0.2312 -0.2149  0.0043
  802SOL     H1 3652   4.848   2.757   1.820  2.0351 -0.3815 -0.5702
  802SOL     H2 3653   4.819   2.758   1.672  2.8511 -1.0950 -0.7488
  802SOL    EPW 3654   4.822   2.713   1.748  0.7031 -0.3266 -0.1373
  803SOL      O 3655   0.522   5.616   2.557  0.0079 -0.4113 -0.4424
  803SOL     H1 3656   0.536   5.693   2.613 -0.4424 -0.6488  0.0160
  803SOL     H2 3657   0.591   5.620   2.492 -0.0260  0.3983 -0.4381
  803SOL    EPW 3658   0.531   5.624   2.556 -0.0437 -0.3503 -0.3930
  804SOL      O 3659   2.348   4.047   3.661 -0.0997 -0.5597  0.0533
  804SOL     H1 3660   2.373   4.036   3.569 -0.2069 -2.3809  0.2102
  804SOL     H2 3661   2.254   4.026   3.663 -0.6233  1.5701  0.2585
  804SOL    EPW 3662   2.340   4.044   3.651 -0.1670 -0.5267  0.0919
  805SOL      O 3663   1.701   5.008   1.233 -0.3881  0.0707  0.1412
  805SOL     H1 3664   1.732   5.061   1.159  1.8319 -0.9689  0.2283
  805SOL     H2 3665   1.683   5.072   1.302  1.7392  0.8102  0.0884
  805SOL    EPW 3666   1.703   5.020   1.232  0.0756  0.0387  0.1449
  806SOL      O 3667   5.859   2.079   4.016 -0.0034 -0.3617 -0.5460
  806SOL     H1 3668   5.763   2.085   4.014  0.0328  0.7786  0.2131
  806SOL     H2 3669   5.877   1.986   4.026 -1.0599 -0.5013  0.2799
  806SOL    EPW 3670   5.851   2.070   4.016 -0.1123 -0.2549 -0.3769
  807SOL      O 3671   1.842   0.528   1.457  0.2697  0.6269  0.0301
  807SOL     H1 3672   1.762   0.567   1.492  0.3078  0.7748 -0.0460
  807SOL     H2 3673   1.912   0.583   1.492  0.3126  0.7268 -0.2107
  807SOL    EPW 3674   1.841   0.538   1.464  0.2784  0.6533 -0.0037
  808SOL      O 3675   1.980   4.300   3.336 -0.6581 -0.3920  0.5130
  808SOL     H1 3676   1.897   4.346   3.352  0.4122  2.0766 -0.4878
  808SOL     H2 3677   1.984   4.291   3.241 -0.1529 -1.2667  0.6107
  808SOL    EPW 3678   1.972   4.304   3.328 -0.4900 -0.2220  0.4166
  809SOL      O 3679   5.584   4.333   2.507 -0.8248 -0.0897  0.0629
  809SOL     H1 3680   5.573   4.256   2.563 -2.6438  0.2066  0.1694
  809SOL     H2 3681   5.603   4.404   2.567  1.7574 -0.5464 -0.0980
  809SOL    EPW 3682   5.585   4.332   2.519 -0.7434 -0.1068  0.0571
  810SOL      O 3683   4.791   0.058   0.759  0.2588  0.4412 -0.2367
  810SOL     H1 3684   4.706   0.019   0.781 -0.1425  0.5262 -1.5496
  810SOL     H2 3685   4.850   0.027   0.827 -0.2814 -1.6297 -0.6323
  810SOL    EPW 3686   4.788   0.051   0.768  0.1583  0.2293 -0.4190
  811SOL      O 3687   0.226   3.544   2.958  0.1491  0.2203  0.1067
  811SOL     H1 3688   0.219   3.451   2.935  2.2969  0.2179 -0.7330
  811SOL     H2 3689   0.143   3.563   3.002  0.4013 -2.5867  2.0967
  811SOL    EPW 3690   0.217   3.536   2.960  0.4051 -0.0794  0.2294
  812SOL      O 3691   3.607   3.314   3.270 -0.0543  0.2138  0.5071
  812SOL     H1 3692   3.573   3.334   3.183  1.1459 -0.0665 -0.0496
  812SOL     H2 3693   3.552   3.365   3.330 -1.8755 -0.7506 -0.2645
  812SOL    EPW 3694   3.597   3.322   3.267 -0.1205  0.0811  0.3654
  813SOL      O 3695   3.947   3.246   2.761 -0.1134 -0.0640 -0.1286
  813SOL     H1 3696   3.920   3.288   2.680  1.2614 -1.0284 -1.1422
  813SOL     H2 3697   4.018   3.301   2.795  0.2395 -0.3845 -0.3293
  813SOL    EPW 3698   3.952   3.256   2.756  0.0709 -0.2011 -0.2581
  814SOL      O 3699   2.645   3.803   3.663 -0.2595  0.0209 -0.8442
  814SOL     H1 3700   2.646   3.898   3.649  1.8351 -0.0251 -1.3656
  814SOL     H2 3701   2.667   3.766   3.577 -0.4301 -0.9047 -0.5015
  814SOL    EPW 3702   2.647   3.809   3.652 -0.0542 -0.0827 -0.8633
  815SOL      O 3703   5.517   0.337   0.025  0.1836  0.2878  0.4991
  815SOL     H1 3704   5.435   0.344  -0.023 -0.0609 -0.1238  0.8528
  815SOL     H2 3705   5.585   0.348  -0.042 -0.0774 -3.1598 -0.5016
  815SOL    EPW 3706   5.516   0.339   0.013  0.1296 -0.1239  0.4301
  816SOL      O 3707   3.688   3.789   1.851 -0.2234 -0.2100  0.3954
  816SOL     H1 3708   3.751   3.860   1.862 -0.1495 -0.2085 -0.0248
  816SOL     H2 3709   3.675   3.782   1.756 -1.8269  0.6302  0.5314
  816SOL    EPW 3710   3.694   3.796   1.842 -0.3866 -0.1202  0.3651
  817SOL      O 3711   0.287   4.640   0.951 -0.2766  0.2935 -0.2755
  817SOL     H1 3712   0.362   4.662   0.896 -1.1184 -0.3421 -1.7417
  817SOL     H2 3713   0.275   4.546   0.938 -0.2063  0.0156  1.4107
  817SOL    EPW 3714   0.293   4.632   0.944 -0.3589  0.1960 -0.2520
  818SOL      O 3715   1.213   1.605   3.764  0.1392  0.7057 -0.6568
  818SOL     H1 3716   1.176   1.668   3.825 -1.3999 -0.2372 -0.5629
  818SOL     H2 3717   1.154   1.607   3.688 -0.6003 -1.3501 -0.2110
  818SOL    EPW 3718   1.203   1.612   3.762 -0.1039  0.3858 -0.5993
  819SOL      O 3719   0.999   0.664   0.375 -0.4688  0.1096  0.6804
  819SOL     H1 3720   0.950   0.720   0.314  1.1878  0.7784 -0.0890
  819SOL     H2 3721   1.090   0.690   0.364  0.0448 -0.7960  2.3977
  819SOL    EPW 3722   1.003   0.672   0.367 -0.2373  0.0844  0.7815
  820SOL      O 3723   5.563   4.489   1.601 -0.3790  0.4594  1.0527
  820SOL     H1 3724   5.563   4.394   1.611  1.4539  0.4385  1.2242
  820SOL     H2 3725   5.652   4.515   1.627  0.1382  1.8787 -1.7659
  820SOL    EPW 3726   5.573   4.481   1.605 -0.1283  0.6086  0.7703
  821SOL      O 3727   2.229   1.035   2.244  0.1133 -0.3095 -0.2830
  821SOL     H1 3728   2.163   0.987   2.194 -2.0014  0.6682  1.3839
  821SOL     H2 3729   2.184   1.115   2.271  2.7742  1.5998 -1.0373
  821SOL    EPW 3730   2.217   1.038   2.241  0.1716 -0.0015 -0.1856
  822SOL      O 3731   1.100   3.453   0.443 -0.0735  0.1068  0.0209
  822SOL     H1 3732   1.181   3.503   0.444  0.1233 -0.1920 -0.6726
  822SOL     H2 3733   1.123   3.369   0.402 -0.4481 -0.4692  0.9379
  822SOL    EPW 3734   1.111   3.449   0.439 -0.0925  0.0134  0.0447
  823SOL      O 3735   1.238   2.802   4.141 -0.0637  0.1066  0.1004
  823SOL     H1 3736   1.313   2.846   4.102  0.3859 -1.7489 -1.2697
  823SOL     H2 3737   1.168   2.867   4.140  0.9944  1.2566 -0.3615
  823SOL    EPW 3738   1.238   2.813   4.137  0.0971  0.0313 -0.0950
  824SOL      O 3739   5.838   5.506   1.655  0.5897  0.0759 -0.5989
  824SOL     H1 3740   5.781   5.472   1.587  1.5815 -0.1490 -1.3353
  824SOL     H2 3741   5.847   5.599   1.634  0.5856  0.0892 -0.5416
  824SOL    EPW 3742   5.833   5.513   1.646  0.6950  0.0534 -0.6713
  825SOL      O 3743   3.787   5.693   2.805  0.1355  0.1729 -0.0920
  825SOL     H1 3744   3.751   5.751   2.737  3.2280  2.6142  0.1126
  825SOL     H2 3745   3.796   5.750   2.881  0.3263 -1.5146  1.1876
  825SOL    EPW 3746   3.784   5.705   2.806  0.4857  0.2533  0.0663
  826SOL      O 3747   1.895   3.066   4.092  0.0612  0.1213  0.7672
  826SOL     H1 3748   1.818   3.123   4.095 -1.2123 -1.5520  2.2265
  826SOL     H2 3749   1.882   3.012   4.014  1.2498  1.6935 -0.5947
  826SOL    EPW 3750   1.885   3.066   4.084  0.0521  0.1105  0.7776
  827SOL      O 3751   3.731   3.821   2.987  0.2715 -0.0106  0.1659
  827SOL     H1 3752   3.818   3.857   3.003  0.6118 -0.8648  0.2900
  827SOL     H2 3753   3.719   3.755   3.056 -0.4183  0.0095  0.0725
  827SOL    EPW 3754   3.739   3.818   2.996  0.2342 -0.0996  0.1691
  828SOL      O 3755   1.834   5.798   3.466 -0.6189 -0.2606  0.0616
  828SOL     H1 3756   1.852   5.852   3.389  0.9147 -2.9256 -1.6243
  828SOL     H2 3757   1.762   5.741   3.439  0.5017 -1.8137  0.2024
  828SOL    EPW 3758   1.828   5.798   3.455 -0.3358 -0.7106 -0.1032
  829SOL      O 3759   2.874   2.393   2.629 -0.0050  0.3237 -0.0106
  829SOL     H1 3760   2.901   2.414   2.540  0.9978 -1.9390 -0.3210
  829SOL     H2 3761   2.793   2.443   2.642  0.2991  1.3763 -1.8614
  829SOL    EPW 3762   2.868   2.400   2.621  0.1344  0.1946 -0.2411
  830SOL      O 3763   5.565   1.663   2.250  0.0075  0.2845  0.2939
  830SOL     H1 3764   5.618   1.733   2.290 -1.3411  1.4511  0.1402
  830SOL     H2 3765   5.506   1.635   2.321  0.5244 -0.7054  0.3467
  830SOL    EPW 3766   5.564   1.668   2.262 -0.0812  0.3034  0.2831
  831SOL      O 3767   2.746   1.297   1.125  0.1321 -0.4910 -0.5546
  831SOL     H1 3768   2.777   1.322   1.212 -0.8611  0.4202 -0.4325
  831SOL     H2 3769   2.767   1.372   1.069 -1.5042  0.0211 -0.5323
  831SOL    EPW 3770   2.751   1.308   1.128 -0.1484 -0.3392 -0.5392
  832SOL      O 3771   1.895   4.734   2.746 -0.1564  0.2823 -0.3072
  832SOL     H1 3772   1.892   4.666   2.679  0.1405  0.2275 -0.2637
  832SOL     H2 3773   1.835   4.702   2.815 -0.2562  0.2140 -0.4253
  832SOL    EPW 3774   1.888   4.723   2.746 -0.1353  0.2692 -0.3151
  833SOL      O 3775   2.324   5.647   2.553 -0.2508 -0.5309  0.1554
  833SOL     H1 3776   2.287   5.633   2.640  0.2444  1.9177  0.8300
  833SOL     H2 3777   2.253   5.686   2.502 -0.1293 -0.6552 -0.1110
  833SOL    EPW 3778   2.313   5.649   2.557 -0.1850 -0.2830  0.1990
  834SOL      O 3779   5.872   5.576   2.633  0.0437  0.1371 -0.2198
  834SOL     H1 3780   5.907   5.538   2.714 -0.9105  1.1857  0.7195
  834SOL     H2 3781   5.947   5.578   2.573  0.8862 -0.2343  0.7891
  834SOL    EPW 3782   5.884   5.572   2.636  0.0318  0.2094 -0.0120
  835SOL      O 3783   0.250   0.449   1.839 -0.2326 -0.2727 -0.3458
  835SOL     H1 3784   0.254   0.506   1.762 -2.2340 -0.9943 -1.0475
  835SOL     H2 3785   0.200   0.500   1.903  2.0799  0.6534  0.8813
  835SOL    EPW 3786   0.245   0.461   1.838 -0.1994 -0.2509 -0.2897
  836SOL      O 3787   0.448   0.195   3.194  0.3506  0.1829  0.5627
  836SOL     H1 3788   0.447   0.289   3.176  1.7561 -0.4394 -4.0194
  836SOL     H2 3789   0.367   0.162   3.157  1.3356 -0.7413 -0.8575
  836SOL    EPW 3790   0.440   0.201   3.188  0.6056  0.0179 -0.0776
  837SOL      O 3791   3.334   0.514   0.060 -0.3326  0.3085  0.5262
  837SOL     H1 3792   3.427   0.535   0.051  0.1529 -1.5156  0.8759
  837SOL     H2 3793   3.293   0.597   0.086  1.0540  1.3297 -0.4211
  837SOL    EPW 3794   3.340   0.525   0.062 -0.1329  0.2229  0.4624
  838SOL      O 3795   2.478   4.319   3.048 -0.2038  0.1616 -0.3453
  838SOL     H1 3796   2.416   4.391   3.045  1.4100  1.5531 -2.0037
  838SOL     H2 3797   2.441   4.258   3.112 -1.8693  2.2038  0.7271
  838SOL    EPW 3798   2.468   4.320   3.055 -0.2093  0.5279 -0.4078
  839SOL      O 3799   4.864   0.403   3.161 -0.3920  0.6480  0.2456
  839SOL     H1 3800   4.795   0.457   3.122 -2.0109 -2.0479 -0.9133
  839SOL     H2 3801   4.895   0.454   3.235 -2.2862  2.8282 -0.3310
  839SOL    EPW 3802   4.860   0.414   3.165 -0.7668  0.5929  0.0604
  840SOL      O 3803   3.909   5.019   0.665  0.3149 -0.2558  0.1919
  840SOL     H1 3804   3.831   4.965   0.649 -1.2246  1.5115  1.2619
  840SOL     H2 3805   3.935   4.998   0.754 -0.0529  0.4620  0.4739
  840SOL    EPW 3806   3.903   5.011   0.672  0.1114  0.0093  0.3361
  841SOL      O 3807   2.999   2.378   1.961  0.3001  0.0402  0.7569
  841SOL     H1 3808   2.912   2.419   1.967  0.1584  0.0322 -0.8743
  841SOL     H2 3809   3.055   2.433   2.016 -0.2188  1.5441 -0.1684
  841SOL    EPW 3810   2.995   2.388   1.968  0.2296  0.1998  0.4842
  842SOL      O 3811   1.687   4.093   2.078 -0.2415  0.2941 -0.2443
  842SOL     H1 3812   1.761   4.038   2.104 -0.0490 -0.5100 -2.3270
  842SOL     H2 3813   1.699   4.107   1.984 -3.1830 -0.6650 -0.8798
  842SOL    EPW 3814   1.696   4.088   2.071 -0.5348  0.1060 -0.5342
  843SOL      O 3815   1.442   5.000   2.063  0.4204 -0.0702 -0.0890
  843SOL     H1 3816   1.470   4.940   2.132  1.9050 -0.0284 -0.6152
  843SOL     H2 3817   1.423   4.943   1.988  0.3311 -0.0038 -0.1167
  843SOL    EPW 3818   1.443   4.987   2.062  0.5693 -0.0587 -0.1481
  844SOL      O 3819   1.657   2.580   1.180 -0.2632 -0.3108  0.2287
  844SOL     H1 3820   1.747   2.596   1.150 -0.1898  0.0474  0.6245
  844SOL     H2 3821   1.632   2.498   1.139  0.3598 -0.5662  0.3514
  844SOL    EPW 3822   1.664   2.573   1.173 -0.1889 -0.2999  0.2840
  845SOL      O 3823   0.684   1.496   0.201 -0.7144 -0.1887 -0.1303
  845SOL     H1 3824   0.607   1.474   0.149 -1.2950 -0.7248  0.9291
  845SOL     H2 3825   0.756   1.449   0.158 -1.3329 -1.3258  0.0305
  845SOL    EPW 3826   0.684   1.488   0.191 -0.8423 -0.3672 -0.0001
  846SOL      O 3827   2.034   3.699   2.240 -0.6782  0.2205 -0.0389
  846SOL     H1 3828   2.073   3.686   2.327 -0.5564 -1.3851 -0.3096
  846SOL     H2 3829   2.008   3.612   2.212 -0.2401  0.6298 -1.8478
  846SOL    EPW 3830   2.035   3.689   2.246 -0.6185  0.0928 -0.2607
  847SOL      O 3831   3.728   4.324   3.139 -0.3531 -0.4193  0.0463
  847SOL     H1 3832   3.822   4.328   3.155 -0.5510  2.2619  0.9775
  847SOL     H2 3833   3.720   4.322   3.043  0.6339  0.5422 -0.0682
  847SOL    EPW 3834   3.737   4.324   3.130 -0.2689 -0.0307  0.1334
  848SOL      O 3835   3.432   1.680   2.256  0.1193  0.2090 -0.5144
  848SOL     H1 3836   3.363   1.738   2.227  0.3456  0.7564  0.0294
  848SOL     H2 3837   3.473   1.725   2.329  0.9629 -0.1704 -0.7382
  848SOL    EPW 3838   3.429   1.691   2.261  0.2334  0.2269 -0.4803
  849SOL      O 3839   4.313   0.354   1.413 -0.7538  0.5814  0.6573
  849SOL     H1 3840   4.406   0.345   1.391 -0.9237  1.3554 -0.4615
  849SOL     H2 3841   4.304   0.311   1.499  0.1485 -1.7056 -0.2997
  849SOL    EPW 3842   4.322   0.348   1.420 -0.6757  0.4200  0.4359
  850SOL      O 3843   0.793   3.613   1.690 -0.4707 -0.4971 -0.1274
  850SOL     H1 3844   0.737   3.546   1.652 -1.6915  0.0024  0.7458
  850SOL     H2 3845   0.828   3.660   1.614 -0.6577 -1.2543 -0.6986
  850SOL    EPW 3846   0.791   3.611   1.678 -0.6209 -0.5246 -0.0952
  851SOL      O 3847   5.033   1.693   2.873  0.0733 -0.6688 -0.2389
  851SOL     H1 3848   5.118   1.658   2.900  0.4871 -0.0017 -0.6350
  851SOL     H2 3849   5.038   1.786   2.894 -0.9365 -0.7868  0.6369
  851SOL    EPW 3850   5.042   1.699   2.878  0.0097 -0.6102 -0.1877
  852SOL      O 3851   0.124   0.098   4.072 -0.3765  0.3245  0.1927
  852SOL     H1 3852   0.184   0.134   4.137 -0.5803  2.1818 -0.5681
  852SOL     H2 3853   0.039   0.096   4.116 -0.3822  0.9226  0.2224
  852SOL    EPW 3854   0.122   0.102   4.083 -0.3988  0.5865  0.1148
  853SOL      O 3855   4.488   3.989   3.499  0.0618 -0.0051  0.3359
  853SOL     H1 3856   4.484   4.083   3.518  0.9724 -0.1724  1.4379
  853SOL     H2 3857   4.520   3.950   3.580  1.3796 -1.0695 -0.6678
  853SOL    EPW 3858   4.491   3.995   3.510  0.2996 -0.1365  0.3464
  854SOL      O 3859   3.898   2.980   4.130  0.3376  0.6422 -0.0570
  854SOL     H1 3860   3.959   3.019   4.067  0.4559 -0.0142 -0.3518
  854SOL     H2 3861   3.929   3.010   4.215  1.6684 -0.4687 -0.1198
  854SOL    EPW 3862   3.908   2.988   4.132  0.4922  0.4537 -0.0952
  855SOL      O 3863   1.574   4.950   0.778  0.3511 -0.4130  0.2807
  855SOL     H1 3864   1.548   5.036   0.747  1.2555  0.2177  1.2090
  855SOL     H2 3865   1.517   4.934   0.853  1.3883  0.1989  1.2298
  855SOL    EPW 3866   1.565   4.957   0.783  0.5582 -0.2805  0.4810
  856SOL      O 3867   0.835   1.343   1.042  0.2920  0.1817 -0.4422
  856SOL     H1 3868   0.838   1.294   1.124  2.0543 -0.9634 -1.1137
  856SOL     H2 3869   0.922   1.383   1.036 -0.0889  0.8907 -1.3702
  856SOL    EPW 3870   0.845   1.342   1.050  0.4393  0.1352 -0.6129
  857SOL      O 3871   1.115   1.131   1.276 -0.0769  0.2433 -0.0639
  857SOL     H1 3872   1.119   1.130   1.181 -0.6678  0.3429 -0.0926
  857SOL     H2 3873   1.053   1.201   1.297  1.2918  1.3697  0.4469
  857SOL    EPW 3874   1.109   1.138   1.268  0.0061  0.3741 -0.0125
  858SOL      O 3875   5.052   1.351   0.964 -0.3495 -0.4478 -0.0993
  858SOL     H1 3876   5.064   1.362   0.870 -2.2214  0.2797 -0.2962
  858SOL     H2 3877   5.130   1.391   1.003  0.2689 -0.4270 -1.3290
  858SOL    EPW 3878   5.062   1.357   0.958 -0.4832 -0.3680 -0.2515
  859SOL      O 3879   2.571   0.176   3.281  0.3004  0.3954 -1.3553
  859SOL     H1 3880   2.497   0.141   3.231 -0.6714  1.6600 -0.8644
  859SOL     H2 3881   2.617   0.232   3.218 -0.9281  1.9961 -0.9085
  859SOL    EPW 3882   2.568   0.178   3.269  0.0657  0.7011 -1.2553
  860SOL      O 3883   5.362   4.649   0.379 -0.1810 -0.2787 -0.4337
  860SOL     H1 3884   5.369   4.676   0.471 -0.4701 -0.5638 -0.3237
  860SOL     H2 3885   5.447   4.671   0.341  0.2229 -0.8681  0.0978
  860SOL    EPW 3886   5.372   4.654   0.385 -0.1688 -0.3720 -0.3653
  861SOL      O 3887   4.241   2.551   1.080  0.0708 -0.0552 -0.1079
  861SOL     H1 3888   4.258   2.633   1.032 -0.4430 -0.1218 -0.4169
  861SOL     H2 3889   4.147   2.553   1.098 -0.0002 -0.7036 -0.3633
  861SOL    EPW 3890   4.232   2.560   1.076  0.0084 -0.1315 -0.1681
  862SOL      O 3891   4.611   2.427   1.221 -0.5664  0.7085 -0.3682
  862SOL     H1 3892   4.596   2.428   1.315  0.7765  2.5540 -0.1124
  862SOL     H2 3893   4.694   2.381   1.210  0.0265  1.7917 -0.4920
  862SOL    EPW 3894   4.618   2.422   1.230 -0.3599  1.0209 -0.3541
  863SOL      O 3895   1.528   0.634   2.053 -0.0796 -0.0779 -0.7097
  863SOL     H1 3896   1.600   0.574   2.070  0.1277  0.7739  2.0329
  863SOL     H2 3897   1.538   0.660   1.962  3.0106 -0.1252 -0.4680
  863SOL    EPW 3898   1.536   0.631   2.045  0.2722  0.0079 -0.3913
  864SOL      O 3899   0.572   0.372   0.867 -0.1878 -0.0927  0.2048
  864SOL     H1 3900   0.552   0.331   0.951 -0.9992  0.1458  0.1407
  864SOL     H2 3901   0.667   0.373   0.862 -0.0684  1.5262  1.9304
  864SOL    EPW 3902   0.580   0.368   0.875 -0.2616  0.1054  0.3820
  865SOL      O 3903   0.466   2.709   0.376  0.3089 -0.3792  0.0598
  865SOL     H1 3904   0.529   2.776   0.351 -0.3062  0.0417 -0.3816
  865SOL     H2 3905   0.436   2.735   0.464  0.3849 -0.3111  0.0648
  865SOL    EPW 3906   0.469   2.719   0.383  0.2514 -0.3270  0.0133
  866SOL      O 3907   3.955   3.134   1.716 -0.3095  0.3772 -0.4390
  866SOL     H1 3908   3.883   3.084   1.678 -0.1151  0.8308 -1.4488
  866SOL     H2 3909   4.009   3.070   1.762 -0.1268 -0.3323 -1.6133
  866SOL    EPW 3910   3.953   3.122   1.717 -0.2693  0.3499 -0.6720
  867SOL      O 3911   3.080   0.783   1.273 -0.4017 -0.1448 -0.0247
  867SOL     H1 3912   3.003   0.808   1.223 -0.3000 -0.7307 -0.4880
  867SOL     H2 3913   3.154   0.816   1.222 -0.3033 -0.6416 -0.2127
  867SOL    EPW 3914   3.080   0.789   1.262 -0.3803 -0.2603 -0.0942
  868SOL      O 3915   4.659   0.559   3.970 -0.2432 -0.0005  0.3978
  868SOL     H1 3916   4.728   0.574   4.036 -0.4012 -0.7611  0.7487
  868SOL     H2 3917   4.707   0.533   3.891 -0.0917  0.1131  0.4519
  868SOL    EPW 3918   4.672   0.558   3.969 -0.2439 -0.0696  0.4410
  869SOL      O 3919   0.086   2.992   1.346 -0.1598  0.3089 -0.1961
  869SOL     H1 3920   0.017   2.961   1.403 -0.4230  0.3922 -0.4667
  869SOL     H2 3921   0.113   2.915   1.296 -1.9095  0.7743 -2.0223
  869SOL    EPW 3922   0.082   2.981   1.346 -0.3745  0.3674 -0.4198
  870SOL      O 3923   0.539   0.315   1.844  0.2803 -0.5990  0.1624
  870SOL     H1 3924   0.584   0.359   1.772  0.0758 -0.2213  0.2626
  870SOL     H2 3925   0.449   0.348   1.839 -0.5178 -2.8073 -1.2434
  870SOL    EPW 3926   0.534   0.324   1.835  0.1733 -0.7943  0.0232
  871SOL      O 3927   1.201   1.825   3.402  0.3858  0.4051 -0.7334
  871SOL     H1 3928   1.269   1.828   3.469 -0.3769  0.2666  0.0655
  871SOL     H2 3929   1.239   1.773   3.331  1.3369  0.8525 -0.5684
  871SOL    EPW 3930   1.212   1.820   3.402  0.4059  0.4380 -0.6306
  872SOL      O 3931   3.101   3.336   1.444 -0.1327  0.5142  0.0439
  872SOL     H1 3932   3.170   3.293   1.495 -0.9352 -0.6625  0.1589
  872SOL     H2 3933   3.070   3.406   1.501 -0.3962 -0.2194  0.8253
  872SOL    EPW 3934   3.105   3.339   1.456 -0.2464  0.3104  0.1395
  873SOL      O 3935   0.037   3.566   1.595  0.4304 -0.4322  0.0983
  873SOL     H1 3936   0.126   3.552   1.628  0.6371  0.5013 -0.0384
  873SOL     H2 3937   0.018   3.488   1.542  0.3327 -1.6550  1.8680
  873SOL    EPW 3938   0.044   3.556   1.593  0.4421 -0.4630  0.2725
  874SOL      O 3939   2.499   5.321   3.620 -0.3762 -0.7216 -0.3138
  874SOL     H1 3940   2.419   5.363   3.591  0.8505  3.5127  1.6230
  874SOL     H2 3941   2.481   5.291   3.709  0.6930  2.7171  1.2289
  874SOL    EPW 3942   2.489   5.322   3.626 -0.1313  0.0969  0.0574
  875SOL      O 3943   5.626   2.256   1.068  0.2242 -0.3553 -0.2024
  875SOL     H1 3944   5.665   2.342   1.058  1.3923 -1.1415 -3.4872
  875SOL     H2 3945   5.644   2.232   1.159  0.8067  2.3567  0.4819
  875SOL    EPW 3946   5.632   2.262   1.077  0.4110 -0.1499 -0.4798
  876SOL      O 3947   2.739   0.492   3.650 -0.3121  0.0279 -0.2210
  876SOL     H1 3948   2.822   0.527   3.619 -1.1699  1.1786 -1.3209
  876SOL     H2 3949   2.749   0.487   3.745  0.6139  1.2253 -0.2276
  876SOL    EPW 3950   2.749   0.495   3.656 -0.3048  0.2784 -0.3390
  877SOL      O 3951   4.023   2.176   3.157 -0.2637 -0.2965  0.2078
  877SOL     H1 3952   4.007   2.143   3.068 -0.7242 -0.2788  0.2818
  877SOL     H2 3953   4.118   2.190   3.161 -0.1754 -0.8023 -0.1058
  877SOL    EPW 3954   4.031   2.174   3.148 -0.3034 -0.3486  0.1822
  878SOL      O 3955   5.146   1.280   2.322  0.0912  0.2785 -0.0742
  878SOL     H1 3956   5.240   1.300   2.326 -0.0614  0.7968  1.1657
  878SOL     H2 3957   5.103   1.362   2.344 -0.6827  0.1092 -0.8775
  878SOL    EPW 3958   5.152   1.290   2.324 -0.0077  0.3157 -0.0277
  879SOL      O 3959   0.602   3.434   1.047 -0.2245  0.0878 -1.0386
  879SOL     H1 3960   0.594   3.509   1.106  0.8859 -1.1857  0.8171
  879SOL     H2 3961   0.691   3.403   1.060  0.1108 -0.1601 -3.5466
  879SOL    EPW 3962   0.610   3.439   1.055 -0.0703 -0.0745 -1.1082
  880SOL      O 3963   2.742   0.113   3.677 -0.4483  0.1161  0.2281
  880SOL     H1 3964   2.719   0.052   3.607 -2.3763 -0.1345  1.0266
  880SOL     H2 3965   2.727   0.200   3.639  0.6885  0.0647 -0.3693
  880SOL    EPW 3966   2.738   0.116   3.666 -0.5327  0.0838  0.2496
  881SOL      O 3967   1.863   0.868   1.891 -0.0413 -0.1461  0.2226
  881SOL     H1 3968   1.772   0.864   1.919 -0.1642 -0.3707 -0.2009
  881SOL     H2 3969   1.869   0.948   1.839  0.2007  0.3022  0.9300
  881SOL    EPW 3970   1.854   0.876   1.889 -0.0286 -0.1222  0.2529
  882SOL      O 3971   3.114   1.466   3.855  0.2507 -0.6412  0.0028
  882SOL     H1 3972   3.207   1.446   3.850  0.5706  0.9468 -1.2299
  882SOL     H2 3973   3.073   1.407   3.792  0.6602 -0.2106 -0.6783
  882SOL    EPW 3974   3.119   1.458   3.848  0.3285 -0.4259 -0.2014
  883SOL      O 3975   3.992   4.598   0.214  0.2048 -0.4286 -0.1377
  883SOL     H1 3976   3.901   4.625   0.229  0.1659 -0.9343  0.6087
  883SOL     H2 3977   4.043   4.656   0.271  0.4845  0.6958 -1.4661
  883SOL    EPW 3978   3.988   4.607   0.222  0.2305 -0.3626 -0.1998
  884SOL      O 3979   5.162   3.670   1.501 -0.3851 -0.0447  0.4545
  884SOL     H1 3980   5.251   3.706   1.495 -1.2896  2.3786  0.7016
  884SOL     H2 3981   5.159   3.628   1.587 -0.1162  1.8080  1.4044
  884SOL    EPW 3982   5.171   3.669   1.509 -0.4529  0.4115  0.5822
  885SOL      O 3983   2.098   3.746   3.393 -0.1338 -0.2051  0.4117
  885SOL     H1 3984   2.084   3.778   3.304  1.6831  0.6738  0.3886
  885SOL     H2 3985   2.121   3.654   3.383  0.8634  0.0859 -0.1379
  885SOL    EPW 3986   2.099   3.740   3.383  0.1664 -0.0803  0.3506
  886SOL      O 3987   0.072   2.583   2.779 -0.0516  0.3884  0.6046
  886SOL     H1 3988  -0.023   2.578   2.763 -0.0959 -0.1456  0.9897
  886SOL     H2 3989   0.080   2.577   2.874  0.2713  2.2921  0.7402
  886SOL    EPW 3990   0.062   2.582   2.787 -0.0219  0.5345  0.6601
  887SOL      O 3991   0.287   2.719   2.196 -0.5983  0.1963  0.6050
  887SOL     H1 3992   0.282   2.730   2.101 -0.7597  0.2376  0.6179
  887SOL     H2 3993   0.337   2.638   2.209  1.6115  1.4491  0.5234
  887SOL    EPW 3994   0.292   2.712   2.188 -0.3798  0.3344  0.5976
  888SOL      O 3995   0.417   5.069   0.276  0.1079  0.7433  0.3419
  888SOL     H1 3996   0.396   5.095   0.366 -0.7958  2.2236 -0.2470
  888SOL     H2 3997   0.383   5.141   0.223 -3.3667 -1.9926 -1.5808
  888SOL    EPW 3998   0.411   5.080   0.280 -0.3591  0.6094  0.0739
  889SOL      O 3999   0.112   0.168   3.191 -0.1016  0.0942  0.1172
  889SOL     H1 4000   0.138   0.085   3.152 -1.7767 -0.9336  1.0791
  889SOL     H2 4001   0.141   0.163   3.281  1.9363  1.6116 -0.3799
  889SOL    EPW 4002   0.118   0.159   3.196 -0.0629  0.1464  0.1668
  890SOL      O 4003   4.882   0.551   3.417 -0.0316  0.3749  0.3124
  890SOL     H1 4004   4.966   0.597   3.410  0.3098 -0.3382 -0.5271
  890SOL     H2 4005   4.817   0.621   3.426  0.6752  0.9256  1.3070
  890SOL    EPW 4006   4.884   0.563   3.417  0.0802  0.3576  0.3289
  891SOL      O 4007   2.327   3.871   2.734 -0.4233 -0.1672  0.3188
  891SOL     H1 4008   2.375   3.789   2.748  0.4296  0.3243  0.3229
  891SOL     H2 4009   2.393   3.940   2.745 -1.0576  0.5084 -0.0179
  891SOL    EPW 4010   2.339   3.869   2.737 -0.4000 -0.0427  0.2833
  892SOL      O 4011   2.280   4.652   3.294 -0.2649 -0.1672  0.4131
  892SOL     H1 4012   2.271   4.742   3.325 -0.4168  0.1652 -0.5562
  892SOL     H2 4013   2.375   4.637   3.292 -0.2688 -0.4694  1.7613
  892SOL    EPW 4014   2.289   4.660   3.297 -0.2815 -0.1640  0.4535
  893SOL      O 4015   5.292   1.096   0.239 -0.0123 -0.1826 -0.0462
  893SOL     H1 4016   5.238   1.052   0.305 -0.7023 -2.6442 -2.0848
  893SOL     H2 4017   5.375   1.049   0.240  1.0418  1.5558  0.8680
  893SOL    EPW 4018   5.295   1.087   0.246  0.0265 -0.2598 -0.1661
  894SOL      O 4019   1.846   5.659   2.462 -0.3315 -0.7745 -0.1589
  894SOL     H1 4020   1.932   5.690   2.435 -0.6673  0.3566  0.0293
  894SOL     H2 4021   1.799   5.643   2.380 -0.0151 -1.1910 -0.2601
  894SOL    EPW 4022   1.850   5.661   2.450 -0.3336 -0.6983 -0.1496
  895SOL      O 4023   3.465   0.626   0.545 -0.3771 -0.7471  0.2530
  895SOL     H1 4024   3.460   0.571   0.466 -0.9296 -0.9154  0.4046
  895SOL     H2 4025   3.383   0.610   0.591 -0.9523  0.8463 -0.1228
  895SOL    EPW 4026   3.456   0.619   0.541 -0.4974 -0.5951  0.2291
  896SOL      O 4027   1.159   4.424   3.597  0.6406 -0.1435 -0.6577
  896SOL     H1 4028   1.080   4.477   3.606  0.5838 -0.1814 -0.9156
  896SOL     H2 4029   1.221   4.482   3.554  1.3616  0.4891  1.1425
  896SOL    EPW 4030   1.157   4.436   3.593  0.7114 -0.0801 -0.4932
  897SOL      O 4031   2.795   1.800   4.142 -0.1372  0.1697  0.1250
  897SOL     H1 4032   2.805   1.842   4.228  1.7059 -1.4431  0.7548
  897SOL     H2 4033   2.841   1.858   4.082  0.9158 -0.0410  0.7027
  897SOL    EPW 4034   2.801   1.811   4.145  0.1717 -0.0248  0.2538
  898SOL      O 4035   0.848   0.216   0.408  0.4868 -0.1204  0.6097
  898SOL     H1 4036   0.813   0.303   0.390 -0.0943 -0.3297  0.7045
  898SOL     H2 4037   0.772   0.158   0.404  0.9464 -0.6981  0.0545
  898SOL    EPW 4038   0.837   0.219   0.406  0.4739 -0.2044  0.5605
  899SOL      O 4039   2.413   5.732   3.295 -0.6812 -0.4409 -0.2179
  899SOL     H1 4040   2.393   5.650   3.249 -0.2984 -0.9443  0.4944
  899SOL     H2 4041   2.365   5.799   3.246 -0.7839 -1.0512 -0.9715
  899SOL    EPW 4042   2.406   5.730   3.285 -0.6513 -0.5597 -0.2223
  900SOL      O 4043   5.253   3.249   2.873 -0.6078 -0.9081  0.1366
  900SOL     H1 4044   5.225   3.222   2.785 -1.2139 -0.0821  0.0571
  900SOL     H2 4045   5.290   3.336   2.860  0.7696 -1.4176  0.4688
  900SOL    EPW 4046   5.254   3.255   2.862 -0.5255 -0.8743  0.1636
  901SOL      O 4047   1.988   0.601   2.172 -0.0533 -0.2415 -0.3868
  901SOL     H1 4048   2.043   0.552   2.111 -1.8964 -0.9084 -1.6107
  901SOL     H2 4049   1.900   0.563   2.161 -0.6747  0.3417  1.9356
  901SOL    EPW 4050   1.984   0.592   2.164 -0.3162 -0.2504 -0.2696
  902SOL      O 4051   4.744   0.988   1.492  0.3659  0.1535  0.0428
  902SOL     H1 4052   4.825   0.968   1.446 -1.3599 -2.3665 -2.1775
  902SOL     H2 4053   4.755   1.079   1.521  3.3858  0.3620 -1.3709
  902SOL    EPW 4054   4.754   0.996   1.490  0.5040 -0.0930 -0.3449
  903SOL      O 4055   4.413   2.358   2.818  0.2151 -0.2308  0.1230
  903SOL     H1 4056   4.374   2.271   2.821  0.3418 -0.2987 -0.1391
  903SOL     H2 4057   4.448   2.365   2.729  1.3276 -0.4053  0.5359
  903SOL    EPW 4058   4.412   2.350   2.809  0.3473 -0.2566  0.1391
  904SOL      O 4059   4.860   1.935   3.640  0.4441  0.6977 -0.2830
  904SOL     H1 4060   4.951   1.909   3.651 -0.1295 -2.3355 -1.7847
  904SOL     H2 4061   4.865   2.023   3.600  2.6902  0.5480 -0.4370
  904SOL    EPW 4062   4.870   1.942   3.637  0.6225  0.3582 -0.4597
  905SOL      O 4063   5.023   2.604   2.809  0.8858  0.5268  0.5897
  905SOL     H1 4064   5.054   2.513   2.810 -0.0869  0.1529 -0.3566
  905SOL     H2 4065   5.056   2.642   2.890  0.8843 -0.8241  1.2519
  905SOL    EPW 4066   5.030   2.598   2.817  0.7818  0.3428  0.5594
  906SOL      O 4067   2.470   1.114   3.702 -0.4875  0.0747  0.0352
  906SOL     H1 4068   2.507   1.124   3.615 -0.5294  0.4385  0.0613
  906SOL     H2 4069   2.535   1.153   3.761  0.3604 -1.6806  0.3406
  906SOL    EPW 4070   2.481   1.119   3.699 -0.4015 -0.0737  0.0705
  907SOL      O 4071   4.485   3.041   2.917 -0.4737  0.9298  0.4614
  907SOL     H1 4072   4.547   2.975   2.886 -2.1726  0.2310 -1.7606
  907SOL     H2 4073   4.467   3.016   3.007 -0.8390 -1.5313 -0.2138
  907SOL    EPW 4074   4.490   3.031   2.923 -0.6939  0.5927  0.1523
  908SOL      O 4075   3.551   1.201   3.184  0.4524  0.5736  0.0552
  908SOL     H1 4076   3.520   1.291   3.174 -0.6134  0.0640 -1.6165
  908SOL     H2 4077   3.495   1.164   3.252  0.9376  1.1575  0.7995
  908SOL    EPW 4078   3.542   1.207   3.190  0.3905  0.5815 -0.0438
  909SOL      O 4079   5.473   1.958   1.473 -0.0651  0.2851 -0.3890
  909SOL     H1 4080   5.509   1.905   1.402  0.2034  1.3861 -1.0993
  909SOL     H2 4081   5.511   1.921   1.552 -0.3851 -0.9799 -0.8018
  909SOL    EPW 4082   5.481   1.948   1.474 -0.0706  0.2676 -0.5088
  910SOL      O 4083   3.798   4.500   3.968 -0.3515 -0.8204 -0.1318
  910SOL     H1 4084   3.881   4.466   3.934 -2.0133 -1.6891 -3.8260
  910SOL     H2 4085   3.819   4.590   3.994  1.8866 -1.2270 -0.2888
  910SOL    EPW 4086   3.809   4.506   3.967 -0.2900 -0.9564 -0.5427
  911SOL      O 4087   3.690   3.695   2.371 -0.4966  0.1690 -0.5163
  911SOL     H1 4088   3.627   3.759   2.339 -1.2242  0.3675  1.1667
  911SOL     H2 4089   3.772   3.743   2.379 -0.6797  0.5047 -0.6626
  911SOL    EPW 4090   3.692   3.707   2.369 -0.5938  0.2260 -0.3523
  912SOL      O 4091   2.094   2.785   0.277 -0.2847 -0.2913 -0.3526
  912SOL     H1 4092   2.115   2.788   0.184  3.0401 -1.3133  0.2277
  912SOL     H2 4093   2.012   2.834   0.285 -0.1341  0.7264 -3.6431
  912SOL    EPW 4094   2.087   2.790   0.268  0.0861 -0.2918 -0.6417
  913SOL      O 4095   1.890   3.965   0.438 -0.1246 -0.1688  0.3894
  913SOL     H1 4096   1.923   3.901   0.501 -1.4199 -1.3208 -0.0595
  913SOL     H2 4097   1.835   4.023   0.490  0.6409  0.2895  0.7070
  913SOL    EPW 4098   1.888   3.964   0.450 -0.1811 -0.2428  0.3754
  914SOL      O 4099   2.049   0.698   3.121  0.0039 -0.1122 -0.0399
  914SOL     H1 4100   2.050   0.790   3.094  1.0176  0.2779  1.2193
  914SOL     H2 4101   2.081   0.650   3.044  0.2075  0.6730 -0.4577
  914SOL    EPW 4102   2.053   0.702   3.110  0.1337  0.0132  0.0498
  915SOL      O 4103   0.548   5.219   2.329  0.0993 -0.0670  0.7349
  915SOL     H1 4104   0.490   5.268   2.270 -1.1768 -2.1033  0.1963
  915SOL     H2 4105   0.506   5.133   2.338  2.3284 -1.1520  1.4606
  915SOL    EPW 4106   0.537   5.215   2.324  0.2010 -0.3999  0.7549
  916SOL      O 4107   0.420   1.551   2.208  0.2020 -0.1999 -0.5366
  916SOL     H1 4108   0.339   1.578   2.251  0.1345  0.0122 -0.7958
  916SOL     H2 4109   0.414   1.589   2.120  1.2412  1.0518 -0.0962
  916SOL    EPW 4110   0.410   1.558   2.203  0.3057 -0.0437 -0.5173
  917SOL      O 4111   5.725   2.735   2.191 -0.0383  0.2080 -0.3512
  917SOL     H1 4112   5.674   2.807   2.228 -0.3504  0.6748 -1.6382
  917SOL     H2 4113   5.708   2.661   2.250  0.1121  1.1156  0.8586
  917SOL    EPW 4114   5.718   2.735   2.201 -0.0555  0.3546 -0.3594
  918SOL      O 4115   5.481   3.564   1.755  0.3512  0.6463  0.5103
  918SOL     H1 4116   5.389   3.546   1.739  0.0356  1.3260  1.4438
  918SOL     H2 4117   5.521   3.478   1.763 -0.2585  0.3466  0.4164
  918SOL    EPW 4118   5.475   3.553   1.754  0.2525  0.6868  0.5999
  919SOL      O 4119   3.327   1.380   3.225  0.5432 -0.1154  0.1216
  919SOL     H1 4120   3.256   1.429   3.184  0.6134 -0.1135  0.0023
  919SOL     H2 4121   3.283   1.309   3.273  0.4365  0.1013  0.3485
  919SOL    EPW 4122   3.315   1.378   3.226  0.5393 -0.0921  0.1331
  920SOL      O 4123   1.788   1.301   2.652 -0.2370 -0.3408  0.0004
  920SOL     H1 4124   1.805   1.267   2.564 -1.2180 -0.0095 -0.3263
  920SOL     H2 4125   1.700   1.337   2.647  0.7315  2.3117  0.2925
  920SOL    EPW 4126   1.781   1.301   2.642 -0.2384 -0.0225 -0.0033
  921SOL      O 4127   0.289   3.495   1.630 -0.1394  0.2262  1.0049
  921SOL     H1 4128   0.289   3.408   1.671 -0.4791 -0.0067  0.5195
  921SOL     H2 4129   0.364   3.540   1.669  0.4204 -0.5093  0.7943
  921SOL    EPW 4130   0.297   3.491   1.639 -0.1159  0.1229  0.9306
  922SOL      O 4131   3.604   0.276   0.592 -0.0400  0.2262  0.2346
  922SOL     H1 4132   3.525   0.223   0.597 -1.0968  1.7321  0.1048
  922SOL     H2 4133   3.643   0.252   0.507 -1.0198  0.3385 -0.2637
  922SOL    EPW 4134   3.600   0.268   0.583 -0.2573  0.3989  0.1676
  923SOL      O 4135   4.166   0.030   2.144  0.0816  0.2276  0.6799
  923SOL     H1 4136   4.075   0.057   2.131 -0.4302 -0.7880  1.9456
  923SOL     H2 4137   4.207   0.106   2.186 -0.2852  0.5355  0.4902
  923SOL    EPW 4138   4.160   0.041   2.147 -0.0121  0.1521  0.7947
  924SOL      O 4139   2.692   0.157   1.986 -0.5267  0.3593  0.0813
  924SOL     H1 4140   2.783   0.179   1.970 -0.6187  0.3280 -0.4979
  924SOL     H2 4141   2.642   0.213   1.926 -0.8334 -0.3246 -0.3176
  924SOL    EPW 4142   2.696   0.165   1.978 -0.5692  0.2830 -0.0230
  925SOL      O 4143   2.804   3.234   0.814  0.1850 -0.6538  0.7126
  925SOL     H1 4144   2.809   3.160   0.875 -0.5145  0.3149  1.9970
  925SOL     H2 4145   2.892   3.240   0.776  0.4667 -1.6501  1.1777
  925SOL    EPW 4146   2.814   3.227   0.817  0.1404 -0.6567  0.8992
  926SOL      O 4147   3.749   2.703   0.053  0.2697  0.1615  0.0031
  926SOL     H1 4148   3.767   2.691   0.146 -0.5161 -0.2020  0.1098
  926SOL     H2 4149   3.763   2.797   0.038  0.2096  0.2558  0.5282
  926SOL    EPW 4150   3.753   2.712   0.061  0.1794  0.1328  0.0705
  927SOL      O 4151   5.180   4.475   0.687 -0.0173 -0.4229 -0.3551
  927SOL     H1 4152   5.108   4.453   0.746 -0.2502  0.1952 -0.3986
  927SOL     H2 4153   5.222   4.391   0.669 -1.2588 -0.9284 -1.0345
  927SOL    EPW 4154   5.177   4.464   0.691 -0.1746 -0.4109 -0.4322
  928SOL      O 4155   1.526   3.168   2.679  0.2667  0.2328 -0.4901
  928SOL     H1 4156   1.561   3.130   2.759 -0.4010  0.2283 -0.1943
  928SOL     H2 4157   1.510   3.092   2.622 -1.2015  0.0359  0.1534
  928SOL    EPW 4158   1.528   3.156   2.681  0.0389  0.2113 -0.3899
  929SOL      O 4159   3.321   0.066   2.182  0.3762 -0.0476  0.0515
  929SOL     H1 4160   3.383   0.134   2.157 -0.0719 -0.4434 -2.3793
  929SOL     H2 4161   3.253   0.112   2.232 -0.2828  1.4870 -2.1251
  929SOL    EPW 4162   3.320   0.078   2.185  0.2581  0.0739 -0.4400
  930SOL      O 4163   2.788   4.014   0.822  0.2907  0.4164 -0.1282
  930SOL     H1 4164   2.696   4.039   0.815 -0.1134 -1.2939 -1.9924
  930SOL     H2 4165   2.832   4.093   0.852 -1.4670  2.0359 -1.5321
  930SOL    EPW 4166   2.783   4.025   0.824  0.0601  0.4067 -0.4768
  931SOL      O 4167   0.058   0.344   1.403  0.2792 -0.4203 -0.4717
  931SOL     H1 4168   0.149   0.353   1.431  0.1864  0.9740 -0.5077
  931SOL     H2 4169   0.059   0.275   1.337  1.1158 -1.1832  0.3267
  931SOL    EPW 4170   0.068   0.338   1.399  0.3585 -0.3529 -0.3904
  932SOL      O 4171   2.142   1.692   2.294 -0.2006 -0.1538  0.0806
  932SOL     H1 4172   2.057   1.660   2.324  1.1604 -2.5158  1.7655
  932SOL     H2 4173   2.147   1.664   2.203 -1.3439  0.3725 -0.1676
  932SOL    EPW 4174   2.133   1.686   2.288 -0.1774 -0.3496  0.2338
  933SOL      O 4175   4.498   2.962   0.016 -0.6755 -0.0897 -0.4218
  933SOL     H1 4176   4.563   3.031   0.004 -0.3505 -0.4714 -0.9729
  933SOL     H2 4177   4.477   2.934  -0.074 -2.0103  0.3939 -0.2762
  933SOL    EPW 4178   4.503   2.966   0.005 -0.7832 -0.0788 -0.4651
  934SOL      O 4179   1.972   3.140   1.922  0.0049  0.1990 -0.0615
  934SOL     H1 4180   1.932   3.205   1.865  1.1835  1.5629  0.6138
  934SOL     H2 4181   1.952   3.170   2.010  1.9640  0.6099  0.2899
  934SOL    EPW 4182   1.965   3.150   1.925  0.3396  0.3883  0.0480
  935SOL      O 4183   1.401   3.260   3.689  0.0301 -0.1231  0.2491
  935SOL     H1 4184   1.391   3.173   3.726  0.1885  0.8117  2.6821
  935SOL     H2 4185   1.314   3.299   3.697 -0.1661 -0.1923 -1.2873
  935SOL    EPW 4186   1.391   3.255   3.694  0.0261 -0.0307  0.3448
  936SOL      O 4187   0.297   5.811   3.128 -0.2855  0.2458  0.1390
  936SOL     H1 4188   0.316   5.805   3.034 -1.1733 -1.5989  0.0220
  936SOL     H2 4189   0.240   5.736   3.145  2.0323 -1.1351  2.6688
  936SOL    EPW 4190   0.293   5.802   3.120 -0.1329 -0.0983  0.3964
  937SOL      O 4191   5.227   0.637   2.947  0.4790  0.2376 -0.4382
  937SOL     H1 4192   5.269   0.614   2.864  0.4517 -0.8524 -0.1708
  937SOL     H2 4193   5.186   0.722   2.931  1.2343  0.4625 -1.2631
  937SOL    EPW 4194   5.227   0.643   2.936  0.5567  0.1453 -0.4977
  938SOL      O 4195   2.689   0.538   2.887  0.2538  0.3376  0.8311
  938SOL     H1 4196   2.640   0.591   2.824 -2.2677 -1.0271  1.4965
  938SOL     H2 4197   2.739   0.477   2.832 -1.6392 -0.6051  0.0324
  938SOL    EPW 4198   2.689   0.537   2.874 -0.2171  0.0914  0.8169
  939SOL      O 4199   1.480   3.081   0.789 -0.1249 -0.3283  0.2420
  939SOL     H1 4200   1.478   3.101   0.696 -1.3012 -1.5292 -0.0240
  939SOL     H2 4201   1.388   3.083   0.816  0.0440 -1.5712  0.9887
  939SOL    EPW 4202   1.470   3.083   0.782 -0.2324 -0.5890  0.2933
  940SOL      O 4203   1.848   3.543   0.618  0.1429 -0.0158  0.1334
  940SOL     H1 4204   1.760   3.558   0.653  0.0402 -2.6989  1.2275
  940SOL     H2 4205   1.834   3.497   0.536  0.5437  0.6328 -0.3167
  940SOL    EPW 4206   1.837   3.540   0.613  0.1747 -0.2329  0.2021
  941SOL      O 4207   2.057   0.925   0.758  0.1039 -0.2921 -0.9561
  941SOL     H1 4208   2.101   0.988   0.701  0.9100  0.0479  0.0061
  941SOL     H2 4209   2.128   0.872   0.795 -0.0155  1.3926  1.9896
  941SOL    EPW 4210   2.069   0.926   0.756  0.1771 -0.0761 -0.5392
  942SOL      O 4211   5.354   1.187   1.153 -0.0443 -0.3272  0.1168
  942SOL     H1 4212   5.282   1.146   1.105  0.6430 -3.3848  1.4660
  942SOL     H2 4213   5.316   1.211   1.238  0.0075  0.1699  0.0029
  942SOL    EPW 4214   5.342   1.185   1.157  0.0346 -0.6004  0.2486
  943SOL      O 4215   4.171   2.300   3.449 -0.0312 -0.3906 -0.1230
  943SOL     H1 4216   4.200   2.209   3.438  1.8785  0.0193  1.0589
  943SOL     H2 4217   4.146   2.305   3.541 -0.0883  0.2787 -0.1757
  943SOL    EPW 4218   4.172   2.291   3.458  0.1664 -0.2755 -0.0025
  944SOL      O 4219   2.319   3.325   1.642 -0.2757  0.3679  0.2299
  944SOL     H1 4220   2.389   3.290   1.586  0.8592  1.7494  0.7142
  944SOL     H2 4221   2.339   3.290   1.729 -1.6954 -1.2964 -0.0731
  944SOL    EPW 4222   2.329   3.318   1.646 -0.3061  0.3377  0.2493
  945SOL      O 4223   5.674   2.865   2.971 -0.0771  0.4603 -0.2122
  945SOL     H1 4224   5.739   2.875   2.902 -0.3953 -2.2412 -1.0057
  945SOL     H2 4225   5.725   2.848   3.050  0.2311 -0.8774 -0.6790
  945SOL    EPW 4226   5.686   2.864   2.972 -0.0782  0.0294 -0.3466
  946SOL      O 4227   0.429   0.714   0.606 -0.2131 -0.3099 -0.1682
  946SOL     H1 4228   0.499   0.756   0.656 -0.9094  0.7860 -0.0554
  946SOL     H2 4229   0.425   0.625   0.640 -0.2012  0.2084  1.2663
  946SOL    EPW 4230   0.436   0.709   0.615 -0.2861 -0.1377 -0.0032
  947SOL      O 4231   1.666   3.262   2.427  0.2728 -0.1538  0.5949
  947SOL     H1 4232   1.610   3.225   2.496  1.0562  1.7625  2.3575
  947SOL     H2 4233   1.678   3.190   2.365 -1.3868 -1.6210  1.8798
  947SOL    EPW 4234   1.661   3.250   2.428  0.1794 -0.1059  0.9200
  948SOL      O 4235   1.230   3.534   2.186 -0.3403 -0.2951  0.1391
  948SOL     H1 4236   1.167   3.463   2.198  0.3558 -1.0954 -0.8046
  948SOL     H2 4237   1.312   3.500   2.221  0.0162  0.0147 -0.3776
  948SOL    EPW 4238   1.232   3.523   2.191 -0.2281 -0.3474 -0.0167
  949SOL      O 4239   4.758   1.643   0.241 -0.1607 -0.2850 -0.2328
  949SOL     H1 4240   4.789   1.612   0.155  1.0303 -1.1292  0.4628
  949SOL     H2 4241   4.772   1.738   0.238 -0.2933 -0.2790 -1.0302
  949SOL    EPW 4242   4.763   1.650   0.231 -0.0478 -0.3744 -0.2437
  950SOL      O 4243   2.073   4.073   3.148 -0.3214  0.3308  0.1821
  950SOL     H1 4244   2.090   4.002   3.086  1.2343  0.6042  0.2544
  950SOL     H2 4245   2.004   4.125   3.107 -1.2407 -0.9929 -0.0325
  950SOL    EPW 4246   2.067   4.071   3.137 -0.2535  0.2187  0.1669
  951SOL      O 4247   4.250   0.619   1.430 -0.2766  0.7145  0.3853
  951SOL     H1 4248   4.327   0.642   1.482 -0.8759  1.9079  0.7996
  951SOL     H2 4249   4.250   0.524   1.427  1.6611  0.6867 -0.3271
  951SOL    EPW 4250   4.258   0.612   1.435 -0.1339  0.8389  0.3535
  952SOL      O 4251   3.202   1.854   3.195 -0.4310  0.2394 -0.6153
  952SOL     H1 4252   3.130   1.844   3.257 -1.2116  2.9127 -0.9703
  952SOL     H2 4253   3.176   1.926   3.139  1.1274 -0.8230 -2.8639
  952SOL    EPW 4254   3.192   1.861   3.196 -0.3480  0.4113 -0.8931
  953SOL      O 4255   1.517   2.202   2.822  0.2720 -0.3864 -0.3027
  953SOL     H1 4256   1.610   2.202   2.802 -0.0958  0.0131 -2.2098
  953SOL     H2 4257   1.488   2.113   2.802  0.4424 -0.8977  1.5354
  953SOL    EPW 4258   1.524   2.193   2.818  0.2510 -0.3983 -0.3101
  954SOL      O 4259   2.275   0.730   0.497 -0.7394 -0.3226 -0.2069
  954SOL     H1 4260   2.179   0.731   0.499 -0.7378 -1.0720  0.5893
  954SOL     H2 4261   2.298   0.811   0.451 -1.7353  0.6671  0.9309
  954SOL    EPW 4262   2.267   0.739   0.493 -0.8455 -0.2970 -0.0006
  955SOL      O 4263   0.507   5.461   3.409  0.0513  0.0686 -0.0885
  955SOL     H1 4264   0.413   5.480   3.404  0.4400  1.8228 -2.2838
  955SOL     H2 4265   0.545   5.538   3.449  0.6620 -0.2098 -0.1150
  955SOL    EPW 4266   0.501   5.471   3.413  0.1579  0.2261 -0.3255
  956SOL      O 4267   0.904   3.629   0.390 -0.0887 -0.2397  0.3908
  956SOL     H1 4268   0.964   3.578   0.444 -1.0614 -0.1697  1.5915
  956SOL     H2 4269   0.927   3.720   0.407  1.0324 -0.2185 -1.0347
  956SOL    EPW 4270   0.913   3.634   0.397 -0.0728 -0.2300  0.3668
  957SOL      O 4271   1.522   5.579   1.514  0.1450  0.1969 -0.8077
  957SOL     H1 4272   1.554   5.641   1.448  0.4982  0.3096 -0.5309
  957SOL     H2 4273   1.586   5.583   1.585  0.3498 -0.7162 -0.9220
  957SOL    EPW 4274   1.532   5.586   1.514  0.2046  0.1115 -0.7904
  958SOL      O 4275   0.398   4.610   0.114 -0.3293 -0.0792  0.0568
  958SOL     H1 4276   0.452   4.686   0.136  0.3263 -0.3895 -0.4343
  958SOL     H2 4277   0.308   4.640   0.125 -0.0996  0.9883 -0.8593
  958SOL    EPW 4278   0.395   4.621   0.118 -0.2349  0.0016 -0.0933
  959SOL      O 4279   1.769   2.547   3.458 -0.1502  0.2560 -1.0610
  959SOL     H1 4280   1.806   2.626   3.496  1.9858 -1.6430  1.2121
  959SOL     H2 4281   1.840   2.511   3.404 -0.9009 -0.3493 -1.6661
  959SOL    EPW 4282   1.781   2.551   3.457 -0.0024 -0.0112 -0.8831
  960SOL      O 4283   4.517   1.032   0.803  0.4078 -0.0472  0.7703
  960SOL     H1 4284   4.440   0.980   0.828 -0.0571  0.0314 -0.4375
  960SOL     H2 4285   4.482   1.102   0.748  1.2562  0.4452  0.8457
  960SOL    EPW 4286   4.505   1.034   0.800  0.4487  0.0138  0.6495
  961SOL      O 4287   0.672   0.549   1.430 -0.1000 -0.1208  0.1244
  961SOL     H1 4288   0.767   0.552   1.417 -0.0478 -1.2159  0.2246
  961SOL     H2 4289   0.646   0.642   1.435  0.9081  0.1946 -0.2471
  961SOL    EPW 4290   0.679   0.560   1.429  0.0131 -0.2040  0.0954
  962SOL      O 4291   0.592   3.878   0.681 -0.4797  0.1350 -0.3065
  962SOL     H1 4292   0.628   3.853   0.766  1.8910 -0.7607 -1.4953
  962SOL     H2 4293   0.626   3.812   0.620 -2.0107  0.8233 -1.9842
  962SOL    EPW 4294   0.599   3.868   0.684 -0.3901  0.1129 -0.6123
  963SOL      O 4295   5.224   2.636   0.260  0.1237 -0.1479  0.4020
  963SOL     H1 4296   5.202   2.650   0.168  0.3485 -2.9853 -0.1850
  963SOL     H2 4297   5.155   2.681   0.308 -0.4937  0.6723 -1.1646
  963SOL    EPW 4298   5.214   2.642   0.255  0.0818 -0.3631  0.1722
  964SOL      O 4299   1.650   2.327   1.074 -0.3405  0.5353  0.0178
  964SOL     H1 4300   1.695   2.245   1.055  0.7783  1.3281 -0.8577
  964SOL     H2 4301   1.582   2.333   1.007 -1.4576 -0.3974  1.0149
  964SOL    EPW 4302   1.647   2.319   1.065 -0.3403  0.5204  0.0307
  965SOL      O 4303   3.367   0.518   1.956 -0.3993  1.0230 -0.2270
  965SOL     H1 4304   3.451   0.473   1.957 -1.9699 -2.2119  0.1963
  965SOL     H2 4305   3.367   0.571   2.036  1.0227  0.6325  0.0504
  965SOL    EPW 4306   3.376   0.519   1.965 -0.4151  0.6363 -0.1522
  966SOL      O 4307   2.120   2.353   3.897 -0.3790 -0.1809  0.5340
  966SOL     H1 4308   2.205   2.314   3.921 -1.3641 -0.9504  3.0931
  966SOL     H2 4309   2.142   2.416   3.828  2.2389 -0.4726  0.9757
  966SOL    EPW 4310   2.132   2.355   3.892 -0.2048 -0.2941  0.8541
  967SOL      O 4311   2.095   4.128   0.458  0.0223  0.2940 -0.1898
  967SOL     H1 4312   2.056   4.206   0.417 -1.2812 -0.1334  0.1755
  967SOL     H2 4313   2.032   4.058   0.439  0.8741 -0.5330  0.0152
  967SOL    EPW 4314   2.084   4.129   0.452 -0.0259  0.1602 -0.1290
  968SOL      O 4315   2.915   0.801   0.867 -0.0861 -0.4490 -0.3121
  968SOL     H1 4316   2.841   0.777   0.811  1.5618  0.9105 -3.3132
  968SOL     H2 4317   2.961   0.718   0.881 -0.9305 -0.9385 -0.3289
  968SOL    EPW 4318   2.912   0.790   0.863 -0.0004 -0.3562 -0.6340
  969SOL      O 4319   1.655   3.857   4.078  0.1308 -0.2658  0.2691
  969SOL     H1 4320   1.651   3.942   4.122  2.5247 -1.5005  3.2375
  969SOL     H2 4321   1.607   3.798   4.136 -1.4695 -1.0465 -1.7324
  969SOL    EPW 4322   1.649   3.860   4.089  0.2154 -0.4808  0.3723
  970SOL      O 4323   2.334   1.365   0.659  0.0535 -0.1973  0.0117
  970SOL     H1 4324   2.301   1.376   0.748 -1.8131  0.5080 -0.7043
  970SOL     H2 4325   2.425   1.391   0.663 -0.0133 -0.1304  1.7035
  970SOL    EPW 4326   2.340   1.369   0.669 -0.1528 -0.1150  0.1158
  971SOL      O 4327   3.017   0.176   3.006 -0.6269  0.5739 -0.1069
  971SOL     H1 4328   3.082   0.131   2.953  0.1360  0.7608  0.6360
  971SOL     H2 4329   3.051   0.265   3.015  0.1767  0.1163  2.0825
  971SOL    EPW 4330   3.028   0.181   3.002 -0.4598  0.5450  0.2059
  972SOL      O 4331   1.919   1.964   2.114  0.0389 -0.1121 -0.9967
  972SOL     H1 4332   1.936   1.870   2.103  0.7311  0.0141 -1.0744
  972SOL     H2 4333   1.983   1.992   2.180 -1.1603  0.0115  0.1534
  972SOL    EPW 4334   1.928   1.957   2.120 -0.0152 -0.0855 -0.8823
  973SOL      O 4335   4.669   4.627   0.562  0.4209 -0.1960  1.0635
  973SOL     H1 4336   4.732   4.576   0.511 -0.4284 -0.7430  0.5371
  973SOL     H2 4337   4.584   4.587   0.542 -0.2600  1.3452  0.7129
  973SOL    EPW 4338   4.667   4.618   0.554  0.2577 -0.0899  0.9699
  974SOL      O 4339   3.541   3.029   1.493 -0.0004  0.3816 -0.1776
  974SOL     H1 4340   3.506   3.102   1.544  0.7059  0.9057 -0.4230
  974SOL     H2 4341   3.464   2.977   1.469 -0.7205  1.8477 -1.2455
  974SOL    EPW 4342   3.529   3.031   1.496 -0.0019  0.5939 -0.3177
  975SOL      O 4343   0.242   1.072   3.063 -0.2690  0.0955 -0.3471
  975SOL     H1 4344   0.331   1.050   3.091 -0.5945  0.2294  0.8208
  975SOL     H2 4345   0.229   1.018   2.985  1.1873  0.8069 -1.1280
  975SOL    EPW 4346   0.250   1.063   3.058 -0.1484  0.1857 -0.3059
  976SOL      O 4347   2.131   5.029   1.225  0.1103  0.2900  0.3725
  976SOL     H1 4348   2.104   5.118   1.247 -0.3703  0.0081  0.9852
  976SOL     H2 4349   2.076   4.973   1.281 -0.0196 -0.4142 -0.4370
  976SOL    EPW 4350   2.123   5.032   1.234  0.0452  0.1848  0.3515
  977SOL      O 4351   1.262   5.498   0.142  0.0444  0.3872  0.2864
  977SOL     H1 4352   1.189   5.554   0.116 -0.1308 -0.4773 -1.2134
  977SOL     H2 4353   1.339   5.537   0.100 -0.1977 -0.8676 -1.4426
  977SOL    EPW 4354   1.263   5.508   0.134 -0.0001  0.1611 -0.0580
  978SOL      O 4355   2.477   3.485   3.485  0.2827  0.3970 -0.4794
  978SOL     H1 4356   2.451   3.527   3.567 -2.5339  0.9941 -1.5654
  978SOL     H2 4357   2.496   3.558   3.426 -0.9679  0.0826 -1.2905
  978SOL    EPW 4358   2.476   3.497   3.488 -0.1512  0.4272 -0.6818
  979SOL      O 4359   2.538   1.686   0.700 -0.9971 -0.2619  0.2000
  979SOL     H1 4360   2.633   1.695   0.692 -1.0232 -0.6116 -0.6661
  979SOL     H2 4361   2.503   1.738   0.628 -1.4460 -0.3588  0.3466
  979SOL    EPW 4362   2.545   1.692   0.691 -1.0478 -0.3095  0.1232
  980SOL      O 4363   0.926   2.915   3.505 -0.5498 -0.1150  0.2811
  980SOL     H1 4364   0.920   2.871   3.420 -2.7694  1.4402 -0.4542
  980SOL     H2 4365   0.971   2.997   3.486  0.5321 -0.5118  1.0012
  980SOL    EPW 4366   0.930   2.919   3.494 -0.6711  0.0086  0.2795
  981SOL      O 4367   2.645   5.834   0.200  0.4007 -0.1477 -0.0986
  981SOL     H1 4368   2.692   5.841   0.283 -1.3986  0.0960  0.9468
  981SOL     H2 4369   2.618   5.923   0.181 -3.7527 -0.7650  1.8979
  981SOL    EPW 4370   2.647   5.844   0.207 -0.2343 -0.1875  0.2259
  982SOL      O 4371   0.836   2.954   0.590  0.1040  0.0251 -0.8819
  982SOL     H1 4372   0.813   2.863   0.607  2.4807 -0.5424 -0.3046
  982SOL     H2 4373   0.803   3.002   0.666  2.5046 -1.0733  0.9926
  982SOL    EPW 4374   0.830   2.950   0.600  0.6136 -0.1526 -0.6203
  983SOL      O 4375   1.603   2.012   0.703 -0.3015 -0.0417  0.2520
  983SOL     H1 4376   1.629   1.929   0.743 -0.0395  0.5239  1.3150
  983SOL     H2 4377   1.602   2.073   0.776 -2.4078  0.4709 -0.1573
  983SOL    EPW 4378   1.606   2.010   0.715 -0.4982  0.0733  0.3218
  984SOL      O 4379   5.537   1.386   1.659 -0.1305  0.5267 -0.3204
  984SOL     H1 4380   5.600   1.403   1.730 -0.0652 -0.6909 -0.0692
  984SOL     H2 4381   5.524   1.471   1.618  1.4607  0.8589 -0.1858
  984SOL    EPW 4382   5.542   1.397   1.662  0.0462  0.4323 -0.2793
  985SOL      O 4383   2.932   1.370   2.312 -0.1533 -0.9069 -0.0131
  985SOL     H1 4384   3.018   1.402   2.287 -0.6127 -0.0388 -0.5398
  985SOL     H2 4385   2.878   1.381   2.233 -1.2434  0.4570  0.8510
  985SOL    EPW 4386   2.935   1.375   2.301 -0.3186 -0.6688  0.0229
  986SOL      O 4387   3.347   2.365   0.011 -0.0044 -0.2712 -0.1580
  986SOL     H1 4388   3.372   2.382  -0.079  0.8975  0.2390  0.1744
  986SOL     H2 4389   3.326   2.452   0.047 -1.7050 -0.6037 -0.2430
  986SOL    EPW 4390   3.347   2.376   0.005 -0.0896 -0.2523 -0.1316
  987SOL      O 4391   0.636   0.500   2.911 -0.1393 -0.3472  0.1644
  987SOL     H1 4392   0.653   0.563   2.841 -1.1126 -0.2807 -0.0375
  987SOL     H2 4393   0.646   0.551   2.992  1.8920 -0.6478  0.1373
  987SOL    EPW 4394   0.639   0.512   2.912 -0.0264 -0.3722  0.1400
  988SOL      O 4395   4.039   5.731   3.349  0.4045  0.2512  0.0097
  988SOL     H1 4396   4.126   5.750   3.382  0.5716 -2.7224  1.5708
  988SOL     H2 4397   3.982   5.738   3.426 -0.6605  1.3083 -0.8209
  988SOL    EPW 4398   4.042   5.734   3.361  0.3087  0.0468  0.0876
  989SOL      O 4399   3.341   2.262   2.236  0.3766  0.3338  0.7032
  989SOL     H1 4400   3.289   2.236   2.313 -1.2902  0.5524 -0.3036
  989SOL     H2 4401   3.295   2.223   2.162  0.5168  2.1681 -0.4156
  989SOL    EPW 4402   3.330   2.255   2.236  0.2137  0.5528  0.4764
  990SOL      O 4403   1.374   0.502   2.972  0.2585 -0.1624 -0.5448
  990SOL     H1 4404   1.469   0.499   2.988  0.4744  1.0253 -1.4737
  990SOL     H2 4405   1.362   0.455   2.890 -0.1939 -1.7572  0.3950
  990SOL    EPW 4406   1.383   0.497   2.965  0.2333 -0.2058 -0.5437
  991SOL      O 4407   5.355   0.670   1.299  0.3906 -0.3441  0.3616
  991SOL     H1 4408   5.385   0.596   1.247  0.0388 -0.4081  0.2430
  991SOL     H2 4409   5.268   0.644   1.330 -0.6643  0.8373 -1.4185
  991SOL    EPW 4410   5.349   0.659   1.297  0.2405 -0.2249  0.1590
  992SOL      O 4411   3.858   4.348   1.964  0.3624 -0.0775  0.3782
  992SOL     H1 4412   3.900   4.426   1.929  0.3795 -0.7937 -1.2795
  992SOL     H2 4413   3.922   4.278   1.950  0.5541 -0.3376  2.2889
  992SOL    EPW 4414   3.870   4.349   1.959  0.3847 -0.1817  0.4052
  993SOL      O 4415   2.315   5.374   1.805 -0.1954 -0.2206  0.0445
  993SOL     H1 4416   2.375   5.309   1.768  0.7080  0.7077 -0.1653
  993SOL     H2 4417   2.270   5.410   1.729 -0.5071 -0.4190  0.1358
  993SOL    EPW 4418   2.317   5.371   1.793 -0.1323 -0.1428  0.0319
  994SOL      O 4419   1.534   0.929   3.071 -0.2779 -0.1944  0.5484
  994SOL     H1 4420   1.600   0.881   3.121  0.6189  0.4106 -0.0180
  994SOL     H2 4421   1.512   0.872   2.998 -3.1347 -2.0152  2.6213
  994SOL    EPW 4422   1.539   0.918   3.069 -0.4870 -0.3241  0.7091
  995SOL      O 4423   3.277   2.379   2.622 -0.0226 -0.2499 -0.0470
  995SOL     H1 4424   3.279   2.311   2.555  0.3924  0.7837 -1.1017
  995SOL     H2 4425   3.215   2.345   2.688 -0.2509 -1.3837 -0.8128
  995SOL    EPW 4426   3.270   2.368   2.622 -0.0027 -0.2606 -0.2412
  996SOL      O 4427   4.561   0.527   2.447 -0.3320 -0.0774 -0.3964
  996SOL     H1 4428   4.512   0.559   2.371  0.0572 -0.4025 -0.7937
  996SOL     H2 4429   4.505   0.547   2.522 -0.9990 -0.2921 -0.8259
  996SOL    EPW 4430   4.550   0.532   2.447 -0.3617 -0.1350 -0.4846
  997SOL      O 4431   4.854   4.066   2.802  0.1768  0.2270 -0.3723
  997SOL     H1 4432   4.763   4.044   2.822  0.4093 -1.0115 -0.6027
  997SOL     H2 4433   4.889   3.988   2.761  1.5463  0.4360  0.3341
  997SOL    EPW 4434   4.848   4.056   2.800  0.3477  0.1172 -0.3215
  998SOL      O 4435   3.775   1.577   0.025 -0.4524 -0.5381 -0.2701
  998SOL     H1 4436   3.792   1.493  -0.017  2.2660  0.3385 -1.1645
  998SOL     H2 4437   3.861   1.607   0.054 -1.4807  1.4844  0.9298
  998SOL    EPW 4438   3.786   1.571   0.024 -0.2721 -0.2288 -0.2375
  999SOL      O 4439   3.035   4.960   1.848  0.1807  0.4893  0.1924
  999SOL     H1 4440   3.021   5.039   1.796  0.6087  0.0616 -0.5792
  999SOL     H2 4441   3.028   4.888   1.786 -0.8557 -0.1507  0.9957
  999SOL    EPW 4442   3.032   4.961   1.836  0.1158  0.3754  0.1958
 1000SOL      O 4443   4.508   1.791   1.240  0.0182  0.0647 -0.4602
 1000SOL     H1 4444   4.506   1.881   1.207 -0.3241 -0.5061 -2.0760
 1000SOL     H2 4445   4.601   1.772   1.253  0.0540  0.9234  0.7877
 1000SOL    EPW 4446   4.518   1.799   1.238 -0.0145  0.0954 -0.4994
 1001SOL      O 4447   2.886   0.030   2.232  0.4686  0.5085 -0.2111
 1001SOL     H1 4448   2.840   0.021   2.316 -0.7652  0.3656 -0.8751
 1001SOL     H2 4449   2.948   0.102   2.246  2.0860 -1.1254  1.5768
 1001SOL    EPW 4450   2.888   0.037   2.243  0.5095  0.3189 -0.0912
 1002SOL      O 4451   1.604   5.498   0.538 -0.4604  0.4495  0.0094
 1002SOL     H1 4452   1.677   5.536   0.586 -1.9571 -0.9220  3.7090
 1002SOL     H2 4453   1.644   5.459   0.460  2.2993  2.0199  0.5400
 1002SOL    EPW 4454   1.616   5.498   0.534 -0.3257  0.4707  0.4606
 1003SOL      O 4455   1.576   3.609   0.341 -0.3865  0.0567  0.1286
 1003SOL     H1 4456   1.501   3.601   0.399  1.1181 -0.7150  2.0945
 1003SOL     H2 4457   1.553   3.556   0.264 -1.9452  0.1096  0.5252
 1003SOL    EPW 4458   1.566   3.602   0.339 -0.3923 -0.0200  0.3806
 1004SOL      O 4459   1.821   5.701   0.412  0.5650 -0.1420 -0.7694
 1004SOL     H1 4460   1.863   5.662   0.335 -1.8503 -0.3815 -2.0434
 1004SOL     H2 4461   1.882   5.769   0.440  1.5786 -0.1318 -2.8082
 1004SOL    EPW 4462   1.832   5.704   0.407  0.4155 -0.1665 -1.1228
 1005SOL      O 4463   5.578   5.514   1.311  0.4703  0.4884  0.2077
 1005SOL     H1 4464   5.501   5.495   1.258  0.0731 -0.1395  0.9945
 1005SOL     H2 4465   5.544   5.526   1.399  1.5485 -3.0878  1.2551
 1005SOL    EPW 4466   5.566   5.514   1.314  0.5430  0.0399  0.4034
 1006SOL      O 4467   1.593   2.732   2.931 -0.2013  0.4323 -0.4065
 1006SOL     H1 4468   1.530   2.717   2.861  0.3942  1.7237 -1.2667
 1006SOL     H2 4469   1.623   2.822   2.917  1.6786 -0.0743  0.0876
 1006SOL    EPW 4470   1.589   2.740   2.922  0.0628  0.5160 -0.4455
 1007SOL      O 4471   5.688   1.063   3.891 -0.5952  0.5820 -0.2897
 1007SOL     H1 4472   5.713   1.116   3.815 -0.8601  0.6399 -0.3383
 1007SOL     H2 4473   5.734   1.105   3.964 -1.1426  1.1447 -0.2603
 1007SOL    EPW 4474   5.696   1.073   3.890 -0.6819  0.6482 -0.2918
 1008SOL      O 4475   1.238   2.762   3.771 -0.0735  0.2275  0.1865
 1008SOL     H1 4476   1.292   2.697   3.817  0.9398  0.2952 -0.8518
 1008SOL     H2 4477   1.149   2.744   3.801  0.5957  0.9038  2.9195
 1008SOL    EPW 4478   1.234   2.753   3.779  0.1060  0.3069  0.3673
 1009SOL      O 4479   4.983   2.899   2.228  0.0343  0.4271 -0.0677
 1009SOL     H1 4480   5.046   2.884   2.158  0.4705 -0.0906  0.4295
 1009SOL     H2 4481   4.977   2.995   2.234 -1.2285  0.5148 -1.8803
 1009SOL    EPW 4482   4.989   2.908   2.221 -0.0539  0.3812 -0.2080
 1010SOL      O 4483   0.165   1.417   1.429 -0.1004 -0.4785 -0.5253
 1010SOL     H1 4484   0.107   1.361   1.480  1.6849 -0.9523  1.1127
 1010SOL     H2 4485   0.163   1.379   1.340 -1.7168 -0.8750 -0.3495
 1010SOL    EPW 4486   0.159   1.407   1.425 -0.0824 -0.5714 -0.3318
 1011SOL      O 4487   0.715   2.138   3.304 -0.0988 -0.0990  0.3198
 1011SOL     H1 4488   0.713   2.166   3.396 -1.4770 -0.1622  0.3354
 1011SOL     H2 4489   0.623   2.117   3.284  0.0116  0.9338 -1.3817
 1011SOL    EPW 4490   0.705   2.139   3.312 -0.2341  0.0044  0.1400
 1012SOL      O 4491   5.031   1.402   3.010 -0.2588  0.5087  0.3012
 1012SOL     H1 4492   4.984   1.377   2.930  3.5230 -0.0237 -1.9750
 1012SOL     H2 4493   5.037   1.321   3.061 -0.0574  0.0992 -0.3652
 1012SOL    EPW 4494   5.026   1.391   3.007  0.1661  0.4082 -0.0127
 1013SOL      O 4495   2.931   3.322   2.521 -0.1864 -0.0216  0.1266
 1013SOL     H1 4496   2.971   3.388   2.578  0.7126  0.6961 -1.2924
 1013SOL     H2 4497   2.843   3.354   2.505 -1.1008 -1.1322  2.5049
 1013SOL    EPW 4498   2.926   3.332   2.526 -0.1880 -0.0635  0.2290
 1014SOL      O 4499   0.368   1.803   3.294 -0.7682  0.0671 -0.0687
 1014SOL     H1 4500   0.284   1.813   3.338 -0.7436 -0.2486  0.0543
 1014SOL     H2 4501   0.352   1.832   3.204 -0.4946  1.9297  0.4584
 1014SOL    EPW 4502   0.357   1.807   3.289 -0.7364  0.2321  0.0006
 1015SOL      O 4503   3.696   1.099   0.800  0.5213  0.2507  0.0360
 1015SOL     H1 4504   3.765   1.036   0.779 -0.2319 -0.4242 -0.4862
 1015SOL     H2 4505   3.675   1.082   0.892  0.5977 -0.0047  0.0073
 1015SOL    EPW 4506   3.701   1.090   0.808  0.4491  0.1515 -0.0227
 1016SOL      O 4507   5.626   2.307   0.203  0.4419 -0.0462  0.1240
 1016SOL     H1 4508   5.571   2.378   0.172  2.8913  1.9488  0.0280
 1016SOL     H2 4509   5.640   2.326   0.296  1.7563  0.0744 -0.0813
 1016SOL    EPW 4510   5.622   2.316   0.210  0.8434  0.1795  0.0919
 1017SOL      O 4511   3.632   1.300   0.202 -0.0495  0.3222 -0.3917
 1017SOL     H1 4512   3.726   1.283   0.208 -0.1651 -0.5112 -0.6704
 1017SOL     H2 4513   3.618   1.381   0.250  0.5156 -0.6036  1.4296
 1017SOL    EPW 4514   3.641   1.307   0.207 -0.0015  0.1345 -0.2271
 1018SOL      O 4515   5.876   3.832   3.026 -0.6462 -0.2902 -0.4050
 1018SOL     H1 4516   5.925   3.783   3.092  0.3761 -0.0265 -0.9477
 1018SOL     H2 4517   5.784   3.819   3.049 -0.3022  0.3784  1.4913
 1018SOL    EPW 4518   5.871   3.826   3.035 -0.5005 -0.1908 -0.2606
 1019SOL      O 4519   0.419   1.186   3.414  0.2385  0.4171 -0.0063
 1019SOL     H1 4520   0.381   1.119   3.471 -0.4734 -0.0636 -1.0230
 1019SOL     H2 4521   0.484   1.230   3.469 -1.4903  1.0142  1.6754
 1019SOL    EPW 4522   0.422   1.183   3.426 -0.0219  0.4295  0.0646
 1020SOL      O 4523   5.395   0.151   2.403  0.2300  0.0904 -0.1649
 1020SOL     H1 4524   5.344   0.168   2.482 -1.7658 -1.1177 -1.1121
 1020SOL     H2 4525   5.370   0.063   2.376  0.8275  0.4627 -2.1700
 1020SOL    EPW 4526   5.387   0.144   2.408  0.0809  0.0013 -0.4798
 1021SOL      O 4527   0.492   1.011   3.143  0.2312  0.4820  0.2913
 1021SOL     H1 4528   0.471   1.033   3.233  1.8306  0.4665  0.6890
 1021SOL     H2 4529   0.565   1.069   3.120 -0.9531  1.3967 -1.4323
 1021SOL    EPW 4530   0.497   1.019   3.150  0.2755  0.5780  0.1498
 1022SOL      O 4531   2.731   2.099   3.977 -0.3599  0.6259  0.4660
 1022SOL     H1 4532   2.692   2.036   3.917  3.4053 -2.5630  1.0219
 1022SOL     H2 4533   2.671   2.102   4.051 -1.0078 -1.8149  0.1036
 1022SOL    EPW 4534   2.720   2.093   3.978 -0.0274  0.0253  0.4867
 1023SOL      O 4535   1.722   3.365   0.436  0.1419  0.3801  0.2102
 1023SOL     H1 4536   1.649   3.427   0.430  0.0988  0.1913 -1.6102
 1023SOL     H2 4537   1.755   3.358   0.347  1.6261 -0.4745  0.7992
 1023SOL    EPW 4538   1.718   3.371   0.426  0.2956  0.2688  0.0789
 1024SOL      O 4539   3.871   4.909   0.215  0.1696  0.5462  0.1662
 1024SOL     H1 4540   3.913   4.962   0.283 -2.1432  1.3700  1.0492
 1024SOL     H2 4541   3.813   4.849   0.264  1.0636 -1.3090 -0.9314
 1024SOL    EPW 4542   3.869   4.908   0.228  0.0182  0.4362  0.1433
 1025SOL      O 4543   0.769   2.696   1.199  0.0580 -0.3900 -0.2021
 1025SOL     H1 4544   0.729   2.774   1.161  0.0874  0.3573  1.2283
 1025SOL     H2 4545   0.696   2.634   1.208 -0.2305 -0.0468 -0.1448
 1025SOL    EPW 4546   0.757   2.697   1.196  0.0303 -0.2736 -0.0434
 1026SOL      O 4547   5.443   2.507   3.474 -0.6361 -0.3869 -0.2157
 1026SOL     H1 4548   5.471   2.598   3.480  1.3899 -0.6685 -2.9453
 1026SOL     H2 4549   5.484   2.464   3.549  2.1075  0.2502 -1.2308
 1026SOL    EPW 4550   5.451   2.512   3.483 -0.1273 -0.3490 -0.6152
 1027SOL      O 4551   0.819   5.790   1.168 -0.4981  0.0625 -0.4188
 1027SOL     H1 4552   0.888   5.723   1.174  0.5755  1.2063  0.8048
 1027SOL     H2 4553   0.752   5.751   1.112  0.7295 -1.4669 -0.8922
 1027SOL    EPW 4554   0.819   5.778   1.163 -0.2526  0.0214 -0.3388
 1028SOL      O 4555   1.912   3.493   0.012 -0.3809  0.0440  0.0061
 1028SOL     H1 4556   1.962   3.535   0.082 -2.1761  0.9797  0.8171
 1028SOL     H2 4557   1.975   3.438  -0.034  1.1137  0.3346  1.6201
 1028SOL    EPW 4558   1.924   3.492   0.014 -0.4130  0.1748  0.2648
 1029SOL      O 4559   0.491   3.389   0.583  0.1541 -0.1665 -0.4404
 1029SOL     H1 4560   0.481   3.294   0.580 -0.1281 -0.1378 -0.4077
 1029SOL     H2 4561   0.554   3.408   0.513 -0.6108 -0.2684 -1.1735
 1029SOL    EPW 4562   0.497   3.381   0.575  0.0424 -0.1743 -0.5151
 1030SOL      O 4563   4.746   4.626   1.555 -0.7158  0.1640  0.1962
 1030SOL     H1 4564   4.725   4.678   1.477 -0.4139  0.6120  0.4163
 1030SOL     H2 4565   4.806   4.681   1.605 -0.6868 -0.2450  0.6081
 1030SOL    EPW 4566   4.750   4.637   1.552 -0.6805  0.1682  0.2637
 1031SOL      O 4567   4.485   0.303   0.450 -0.7523 -0.5379  0.1604
 1031SOL     H1 4568   4.489   0.358   0.528  0.1766 -0.3460 -0.0129
 1031SOL     H2 4569   4.549   0.234   0.466  0.2880  0.1530 -0.9102
 1031SOL    EPW 4570   4.492   0.302   0.460 -0.5422 -0.4438  0.0277
 1032SOL      O 4571   4.523   1.320   2.308  0.2081  0.1949 -0.3280
 1032SOL     H1 4572   4.560   1.407   2.318 -0.4854  0.3659  1.0697
 1032SOL     H2 4573   4.593   1.261   2.336 -0.1743  0.4740  1.3907
 1032SOL    EPW 4574   4.534   1.323   2.312  0.0933  0.2429  0.0044
 1033SOL      O 4575   0.258   4.690   2.596  0.6654  0.5366  0.6037
 1033SOL     H1 4576   0.294   4.776   2.618 -1.9395  2.3845 -1.6524
 1033SOL     H2 4577   0.273   4.681   2.502 -0.4331 -0.7972  0.5188
 1033SOL    EPW 4578   0.264   4.698   2.588  0.2703  0.5915  0.3540
 1034SOL      O 4579   4.402   5.466   1.286  0.0022 -0.4734  0.1818
 1034SOL     H1 4580   4.365   5.420   1.361  1.2263 -1.2890  0.3140
 1034SOL     H2 4581   4.438   5.397   1.230  1.4931  0.2663  0.1754
 1034SOL    EPW 4582   4.402   5.454   1.288  0.2919 -0.4815  0.1953
 1035SOL      O 4583   0.616   3.410   1.608 -0.7185  0.3490  0.3139
 1035SOL     H1 4584   0.568   3.338   1.649  0.4757 -1.3555 -1.1006
 1035SOL     H2 4585   0.549   3.458   1.559 -1.2533 -1.2964 -0.6813
 1035SOL    EPW 4586   0.604   3.407   1.607 -0.6481 -0.0083  0.0568
 1036SOL      O 4587   3.989   5.344   4.044 -0.2912 -0.4665 -0.2866
 1036SOL     H1 4588   4.055   5.407   4.014  3.2564 -3.0771  1.2986
 1036SOL     H2 4589   3.967   5.293   3.965 -0.7918  0.7049 -0.9209
 1036SOL    EPW 4590   3.994   5.345   4.032  0.0339 -0.6201 -0.1851
 1037SOL      O 4591   0.912   2.367   1.782 -0.3949 -0.3605 -0.0545
 1037SOL     H1 4592   0.975   2.383   1.711  1.1223  0.0241  1.2936
 1037SOL     H2 4593   0.944   2.287   1.824 -1.3510 -0.6603  0.1149
 1037SOL    EPW 4594   0.922   2.361   1.779 -0.3350 -0.3514  0.1074
 1038SOL      O 4595   1.020   2.159   2.924 -0.4499 -0.5002 -0.0420
 1038SOL     H1 4596   0.951   2.194   2.980  0.9585  1.3110  0.6579
 1038SOL     H2 4597   1.026   2.222   2.852  0.1018 -0.9488 -0.3969
 1038SOL    EPW 4598   1.013   2.170   2.922 -0.2408 -0.3548 -0.0052
 1039SOL      O 4599   0.989   0.152   3.217  0.3276 -0.1271 -0.4084
 1039SOL     H1 4600   1.006   0.193   3.302  0.0656 -1.3955  0.2751
 1039SOL     H2 4601   0.894   0.154   3.208  0.3039 -0.6797 -0.3116
 1039SOL    EPW 4602   0.981   0.157   3.225  0.2971 -0.3213 -0.3252
 1040SOL      O 4603   4.665   2.945   2.075  0.1097 -0.2186 -0.1058
 1040SOL     H1 4604   4.736   2.986   2.025 -0.3108  1.4831  0.6235
 1040SOL     H2 4605   4.587   2.995   2.052 -0.1656  0.3981  1.9196
 1040SOL    EPW 4606   4.665   2.954   2.067  0.0354  0.0287  0.1881
 1041SOL      O 4607   5.039   0.169   0.094  0.0559 -0.2260  0.4440
 1041SOL     H1 4608   4.965   0.145   0.039 -1.1564 -0.0064  1.9246
 1041SOL     H2 4609   5.007   0.242   0.147  1.2862 -0.2314  1.2326
 1041SOL    EPW 4610   5.028   0.174   0.094  0.0578 -0.2032  0.6861
 1042SOL      O 4611   4.568   2.388   1.991  0.3546 -0.0877  0.0781
 1042SOL     H1 4612   4.491   2.354   2.036  1.1406 -0.6781  1.0139
 1042SOL     H2 4613   4.563   2.483   2.004  0.0990 -0.1750  0.6591
 1042SOL    EPW 4614   4.559   2.395   1.997  0.4112 -0.1600  0.2399
 1043SOL      O 4615   1.642   1.589   2.428 -0.1702  0.3590 -0.4964
 1043SOL     H1 4616   1.616   1.671   2.470 -0.9014 -1.2511  2.4377
 1043SOL     H2 4617   1.738   1.592   2.427  0.0057 -0.1458  2.9353
 1043SOL    EPW 4618   1.650   1.598   2.432 -0.2295  0.1334  0.1827
 1044SOL      O 4619   4.799   1.281   0.887 -0.2148 -0.0406 -0.0314
 1044SOL     H1 4620   4.798   1.213   0.819 -0.6956  0.4189 -0.4909
 1044SOL     H2 4621   4.892   1.301   0.899 -0.1409  0.1669 -0.8636
 1044SOL    EPW 4622   4.809   1.276   0.881 -0.2582  0.0306 -0.1692
 1045SOL      O 4623   2.144   3.397   0.889  0.0772 -0.4117  0.1388
 1045SOL     H1 4624   2.177   3.474   0.936  3.5805 -0.9735 -1.1055
 1045SOL     H2 4625   2.175   3.323   0.942 -0.0010 -0.9805 -0.6092
 1045SOL    EPW 4626   2.151   3.397   0.900  0.4426 -0.5323 -0.0738
 1046SOL      O 4627   1.555   4.553   4.041 -0.0475  0.0253 -0.2963
 1046SOL     H1 4628   1.640   4.509   4.034  0.2491  0.5477 -0.0839
 1046SOL     H2 4629   1.536   4.583   3.952 -0.4651 -0.9013 -0.5333
 1046SOL    EPW 4630   1.562   4.551   4.031 -0.0604 -0.0178 -0.2989
 1047SOL      O 4631   2.827   4.391   2.810 -0.6603 -0.5725 -0.3382
 1047SOL     H1 4632   2.842   4.310   2.860 -1.5084 -0.5304  0.0088
 1047SOL     H2 4633   2.740   4.420   2.838  0.1586  1.1975  0.5575
 1047SOL    EPW 4634   2.819   4.385   2.819 -0.6634 -0.3792 -0.2056
 1048SOL      O 4635   1.372   0.782   2.388 -0.3694 -0.2773 -0.4394
 1048SOL     H1 4636   1.316   0.837   2.333 -1.6424  0.6032  1.6198
 1048SOL     H2 4637   1.325   0.699   2.395 -1.1401  0.2346  0.7469
 1048SOL    EPW 4638   1.361   0.779   2.382 -0.5874 -0.1288 -0.0932
 1049SOL      O 4639   1.796   4.965   2.784 -0.0714  0.1313  0.3060
 1049SOL     H1 4640   1.839   4.883   2.763  2.0577  0.7376  1.9959
 1049SOL     H2 4641   1.725   4.940   2.844  0.3654 -0.4959  0.5666
 1049SOL    EPW 4642   1.793   4.954   2.788  0.2023  0.1291  0.5141
 1050SOL      O 4643   3.336   3.498   0.713 -0.2738  0.1670 -0.2759
 1050SOL     H1 4644   3.349   3.422   0.770  2.0743 -0.6459 -1.7728
 1050SOL     H2 4645   3.289   3.463   0.637 -1.6575  0.8417  0.2376
 1050SOL    EPW 4646   3.333   3.486   0.711 -0.1709  0.1523 -0.3808
 1051SOL      O 4647   4.608   4.926   3.446 -0.0150 -0.4713 -0.5169
 1051SOL     H1 4648   4.531   4.917   3.389 -0.5168 -0.7577  0.1937
 1051SOL     H2 4649   4.591   5.006   3.496 -0.0395 -0.7529 -0.0739
 1051SOL    EPW 4650   4.598   4.934   3.445 -0.0711 -0.5319 -0.3938
 1052SOL      O 4651   5.719   1.808   3.796 -0.7196 -0.0388  0.5929
 1052SOL     H1 4652   5.633   1.787   3.832 -0.4819 -0.9697  0.6394
 1052SOL     H2 4653   5.736   1.738   3.733 -0.4862  0.7625 -0.2547
 1052SOL    EPW 4654   5.712   1.798   3.793 -0.6693 -0.0526  0.5074
 1053SOL      O 4655   4.527   0.932   2.586 -0.1690 -0.2314 -0.0281
 1053SOL     H1 4656   4.577   0.878   2.524 -1.4539  0.3385 -1.6549
 1053SOL     H2 4657   4.560   1.021   2.572  1.4976 -0.4143  2.1932
 1053SOL    EPW 4658   4.536   0.935   2.578 -0.1283 -0.1902  0.0354
 1054SOL      O 4659   0.568   1.327   2.255  0.1458 -0.2650 -0.2713
 1054SOL     H1 4660   0.526   1.408   2.226  1.0096 -0.5131 -2.3662
 1054SOL     H2 4661   0.660   1.338   2.233  0.5922 -1.1229  1.0638
 1054SOL    EPW 4662   0.573   1.337   2.249  0.2855 -0.3830 -0.3524
 1055SOL      O 4663   3.022   2.664   1.975 -0.3476 -0.4488  0.0126
 1055SOL     H1 4664   3.072   2.687   2.053  0.1051 -0.0384 -0.3877
 1055SOL     H2 4665   3.087   2.632   1.913 -0.5639  0.1016 -0.5175
 1055SOL    EPW 4666   3.034   2.663   1.977 -0.3224 -0.3463 -0.0867
 1056SOL      O 4667   1.741   1.581   3.252  0.1225 -0.0376 -0.8505
 1056SOL     H1 4668   1.827   1.541   3.262  0.4623  0.0980 -2.7885
 1056SOL     H2 4669   1.760   1.674   3.241 -0.4445  0.2749  0.5864
 1056SOL    EPW 4670   1.752   1.587   3.252  0.0982  0.0102 -0.9039
 1057SOL      O 4671   3.927   2.640   3.931  0.4705  0.8768 -0.1676
 1057SOL     H1 4672   4.017   2.619   3.955  0.7622 -0.2682 -2.0942
 1057SOL     H2 4673   3.887   2.556   3.910 -1.0519  1.3768  0.5567
 1057SOL    EPW 4674   3.933   2.629   3.932  0.3392  0.8080 -0.2958
 1058SOL      O 4675   1.521   2.911   2.597 -0.3078 -0.0402 -0.5990
 1058SOL     H1 4676   1.611   2.882   2.583 -0.0494  0.8041 -0.7452
 1058SOL     H2 4677   1.478   2.836   2.639  0.5147 -0.3671 -0.3183
 1058SOL    EPW 4678   1.526   2.900   2.600 -0.1925  0.0150 -0.5847
 1059SOL      O 4679   1.277   3.341   1.772 -0.5006 -0.1967 -0.0923
 1059SOL     H1 4680   1.192   3.385   1.781 -1.1899 -1.6369  0.6409
 1059SOL     H2 4681   1.341   3.412   1.781 -1.5943  1.1127 -1.7416
 1059SOL    EPW 4682   1.275   3.354   1.774 -0.6908 -0.2106 -0.1900
 1060SOL      O 4683   3.591   4.049   3.008  0.1383  0.0985  0.3160
 1060SOL     H1 4684   3.636   4.120   2.963  0.0111  0.9774  1.5581
 1060SOL     H2 4685   3.641   3.970   2.983  1.6711  0.8957  0.7527
 1060SOL    EPW 4686   3.601   4.048   3.000  0.2883  0.2773  0.4951
 1061SOL      O 4687   2.773   2.422   3.326 -0.0167 -0.2874 -0.0769
 1061SOL     H1 4688   2.745   2.507   3.358 -2.1744 -0.5835 -1.0235
 1061SOL     H2 4689   2.817   2.381   3.401  1.4530  1.7702  0.2629
 1061SOL    EPW 4690   2.775   2.427   3.338 -0.0901 -0.0995 -0.1416
 1062SOL      O 4691   0.647   1.049   1.512  0.1003 -0.2042  0.4705
 1062SOL     H1 4692   0.617   1.128   1.468 -0.2987 -1.9537 -2.7214
 1062SOL     H2 4693   0.700   1.003   1.446  2.3862 -1.4970  2.9787
 1062SOL    EPW 4694   0.650   1.052   1.500  0.3015 -0.5287  0.3976
 1063SOL      O 4695   4.661   1.279   2.015  0.0447 -0.0095 -0.1730
 1063SOL     H1 4696   4.606   1.302   1.940  1.0374  3.6796  0.0311
 1063SOL     H2 4697   4.599   1.262   2.086 -0.9584  2.5449 -0.3454
 1063SOL    EPW 4698   4.649   1.280   2.015  0.0436  0.6565 -0.1696
 1064SOL      O 4699   4.681   0.832   2.034  0.1484  0.3556  0.8079
 1064SOL     H1 4700   4.626   0.770   2.083  1.0459 -1.7841 -0.7535
 1064SOL     H2 4701   4.725   0.779   1.969 -0.4688  2.9619 -1.9442
 1064SOL    EPW 4702   4.680   0.820   2.033  0.1783  0.4053  0.3478
 1065SOL      O 4703   4.691   2.139   3.186 -0.1689 -0.3123 -0.5953
 1065SOL     H1 4704   4.616   2.126   3.245 -0.4146 -2.1485 -1.2475
 1065SOL     H2 4705   4.661   2.206   3.124  0.1995  1.8945  1.4506
 1065SOL    EPW 4706   4.679   2.145   3.186 -0.1558 -0.2727 -0.4466
 1066SOL      O 4707   4.207   4.510   3.924 -0.6257 -0.5121  0.2679
 1066SOL     H1 4708   4.160   4.431   3.953 -1.4880  0.1259  0.6608
 1066SOL     H2 4709   4.137   4.572   3.902  0.0437  0.4261  0.7621
 1066SOL    EPW 4710   4.194   4.508   3.925 -0.6463 -0.3439  0.3625
 1067SOL      O 4711   1.498   0.169   3.213  0.0938  0.7871  0.5548
 1067SOL     H1 4712   1.438   0.106   3.253 -0.9520  0.2399 -1.7017
 1067SOL     H2 4713   1.563   0.187   3.280 -0.6066 -1.3228  1.8782
 1067SOL    EPW 4714   1.498   0.164   3.224 -0.0925  0.5036  0.4553
 1068SOL      O 4715   2.647   5.215   3.402 -0.1281 -0.4036 -0.0448
 1068SOL     H1 4716   2.679   5.306   3.400  1.6705 -1.0038 -1.2922
 1068SOL     H2 4717   2.579   5.215   3.470 -1.1501  2.1620 -0.9349
 1068SOL    EPW 4718   2.643   5.225   3.409 -0.0453 -0.1940 -0.2728
 1069SOL      O 4719   0.136   2.531   2.517  0.0662  0.0843 -0.6167
 1069SOL     H1 4720   0.119   2.593   2.447  0.7105  0.0486 -0.8139
 1069SOL     H2 4721   0.134   2.585   2.597  1.1069  0.4617 -0.8287
 1069SOL    EPW 4722   0.134   2.544   2.518  0.2459  0.1207 -0.6604
 1070SOL      O 4723   3.828   0.149   2.393  0.3697  0.3849 -0.2251
 1070SOL     H1 4724   3.830   0.130   2.299 -0.0831  0.0879 -0.1761
 1070SOL     H2 4725   3.919   0.142   2.420  0.5140  0.5246 -0.6516
 1070SOL    EPW 4726   3.838   0.146   2.386  0.3368  0.3681 -0.2654
 1071SOL      O 4727   0.197   5.735   0.295 -0.4200 -0.3669 -0.4367
 1071SOL     H1 4728   0.277   5.754   0.247 -1.1373 -0.1856 -1.6095
 1071SOL     H2 4729   0.170   5.819   0.331  1.0969 -0.8040  1.9391
 1071SOL    EPW 4730   0.203   5.746   0.293 -0.3347 -0.3942 -0.3084
 1072SOL      O 4731   4.938   4.370   0.789  0.4783 -0.2564  0.1202
 1072SOL     H1 4732   4.983   4.313   0.851  1.1219 -1.0223 -0.9993
 1072SOL     H2 4733   4.905   4.310   0.722  0.3374  0.5975 -0.5932
 1072SOL    EPW 4734   4.939   4.357   0.788  0.5319 -0.2470 -0.0754
 1073SOL      O 4735   2.741   5.596   2.784  0.4724 -0.1732  0.1430
 1073SOL     H1 4736   2.819   5.551   2.753  1.5463  0.2030  2.1552
 1073SOL     H2 4737   2.774   5.662   2.845 -1.2303  1.7644 -0.8835
 1073SOL    EPW 4738   2.753   5.599   2.787  0.4054  0.0736  0.2482
 1074SOL      O 4739   3.973   4.073   3.254  0.3303  0.1454  0.0813
 1074SOL     H1 4740   3.991   4.167   3.245  1.6612 -0.2350 -1.9649
 1074SOL     H2 4741   4.047   4.040   3.307  0.2430  0.1290  0.1936
 1074SOL    EPW 4742   3.983   4.080   3.259  0.4629  0.1031 -0.1250
 1075SOL      O 4743   3.384   0.391   3.903  0.3047 -1.0858 -0.5345
 1075SOL     H1 4744   3.470   0.356   3.923 -0.1635 -1.1239  1.7945
 1075SOL     H2 4745   3.346   0.411   3.989 -1.0847  1.1774 -1.5545
 1075SOL    EPW 4746   3.389   0.390   3.915  0.1065 -0.8485 -0.3948
 1076SOL      O 4747   4.888   4.776   0.776  0.5415  0.0354 -0.2641
 1076SOL     H1 4748   4.840   4.839   0.829 -0.4883  0.5588 -1.7596
 1076SOL     H2 4749   4.849   4.691   0.799  0.0955  0.2559 -0.1930
 1076SOL    EPW 4750   4.879   4.774   0.784  0.3841  0.1147 -0.4160
 1077SOL      O 4751   0.636   4.864   1.298  0.6492  0.2854  0.0901
 1077SOL     H1 4752   0.563   4.802   1.302 -1.7399  2.9601  1.7597
 1077SOL     H2 4753   0.679   4.856   1.383  0.7237  0.4907  0.0725
 1077SOL    EPW 4754   0.633   4.856   1.307  0.4023  0.5926  0.2663
 1078SOL      O 4755   3.334   4.544   3.823  0.0086 -0.0800 -0.0557
 1078SOL     H1 4756   3.314   4.623   3.872 -0.6716 -0.0870 -0.3119
 1078SOL     H2 4757   3.273   4.478   3.857  0.5403 -0.4832  0.1279
 1078SOL    EPW 4758   3.325   4.545   3.832 -0.0072 -0.1237 -0.0634
 1079SOL      O 4759   5.114   1.069   2.731 -0.6246  0.3175  0.5279
 1079SOL     H1 4760   5.210   1.064   2.726 -0.6835 -2.6447  1.0022
 1079SOL     H2 4761   5.088   1.098   2.643  0.6290 -1.0996 -0.3623
 1079SOL    EPW 4762   5.122   1.072   2.721 -0.4971 -0.1496  0.4835
 1080SOL      O 4763   1.907   5.375   2.606  0.5213  0.3895  0.2879
 1080SOL     H1 4764   1.914   5.401   2.515 -0.3081  1.8509  0.6169
 1080SOL     H2 4765   1.919   5.455   2.656 -1.7257  0.1566  1.3545
 1080SOL    EPW 4766   1.909   5.386   2.602  0.1931  0.5205  0.4367
 1081SOL      O 4767   4.511   2.468   3.862 -0.4748  0.2440 -0.6076
 1081SOL     H1 4768   4.423   2.502   3.875  0.1732  1.8362 -0.1349
 1081SOL     H2 4769   4.568   2.545   3.869  1.0607 -0.9049  0.3491
 1081SOL    EPW 4770   4.508   2.480   3.864 -0.2418  0.2913 -0.4551
 1082SOL      O 4771   3.891   2.478   1.026 -0.0941 -0.5453  0.1913
 1082SOL     H1 4772   3.926   2.510   1.109 -1.1881 -2.3884  1.4434
 1082SOL     H2 4773   3.835   2.548   0.994  0.2117  0.1206  1.0921
 1082SOL    EPW 4774   3.889   2.489   1.031 -0.1782 -0.6709  0.4210
 1083SOL      O 4775   0.934   4.907   3.284  0.3836  0.0277  0.1653
 1083SOL     H1 4776   0.904   4.819   3.308  0.0825  0.7077  2.6185
 1083SOL     H2 4777   0.857   4.962   3.293  0.8579  0.7468 -0.0799
 1083SOL    EPW 4778   0.923   4.903   3.288  0.4021  0.1769  0.4008
 1084SOL      O 4779   3.784   1.914   2.363 -0.0989 -0.1925  0.0073
 1084SOL     H1 4780   3.801   1.968   2.285 -0.1357 -0.1907  0.0004
 1084SOL     H2 4781   3.863   1.923   2.416 -0.4295  0.5391  0.3969
 1084SOL    EPW 4782   3.794   1.921   2.360 -0.1381 -0.1142  0.0481
 1085SOL      O 4783   2.208   0.940   3.744 -0.4479 -0.2432  0.2026
 1085SOL     H1 4784   2.280   1.003   3.752  0.5460 -1.6166  3.5337
 1085SOL     H2 4785   2.231   0.868   3.802 -3.8995 -1.4076  0.3832
 1085SOL    EPW 4786   2.218   0.939   3.751 -0.7101 -0.5139  0.5772
 1086SOL      O 4787   3.551   2.183   2.641 -0.0105 -0.2574  0.4147
 1086SOL     H1 4788   3.590   2.204   2.726 -1.2504  1.7619  0.5517
 1086SOL     H2 4789   3.457   2.197   2.653 -0.2052  0.1523 -1.3043
 1086SOL    EPW 4790   3.545   2.187   2.651 -0.1635  0.0017  0.2459
 1087SOL      O 4791   0.877   3.475   3.844 -0.5485 -0.6762  0.2292
 1087SOL     H1 4792   0.884   3.552   3.788  0.9602 -1.0846 -0.1843
 1087SOL     H2 4793   0.785   3.472   3.869 -0.2051  3.0347  2.8065
 1087SOL    EPW 4794   0.868   3.483   3.840 -0.3509 -0.3239  0.4601
 1088SOL      O 4795   0.384   1.660   0.438 -0.3577  0.7879 -0.3726
 1088SOL     H1 4796   0.427   1.704   0.511  1.2152  0.6900 -1.2099
 1088SOL     H2 4797   0.429   1.692   0.360  0.0769 -1.4236 -1.1028
 1088SOL    EPW 4798   0.393   1.668   0.437 -0.1436  0.5415 -0.5398
 1089SOL      O 4799   4.739   0.478   3.706  0.5937 -0.1354 -0.0297
 1089SOL     H1 4800   4.820   0.523   3.730  0.3011  0.0246  0.6782
 1089SOL     H2 4801   4.691   0.542   3.653  0.5854  0.0599  0.2108
 1089SOL    EPW 4802   4.742   0.490   3.703  0.5616 -0.0975  0.0715
 1090SOL      O 4803   0.795   3.938   4.104  0.1077  0.2867 -0.8255
 1090SOL     H1 4804   0.713   3.889   4.102 -0.0270  0.4985 -3.1941
 1090SOL     H2 4805   0.808   3.960   4.197 -0.8513 -2.4589  0.0489
 1090SOL    EPW 4806   0.787   3.935   4.114 -0.0090  0.0164 -0.9849
 1091SOL      O 4807   4.450   0.456   0.678  0.3650 -0.1688 -0.1107
 1091SOL     H1 4808   4.357   0.448   0.656  0.2670 -4.9130  0.8443
 1091SOL     H2 4809   4.450   0.485   0.770 -0.0910  0.6900 -0.3729
 1091SOL    EPW 4810   4.440   0.458   0.686  0.3059 -0.5833 -0.0368
 1092SOL      O 4811   3.402   0.080   0.975  0.2761  0.2927 -0.6832
 1092SOL     H1 4812   3.332   0.122   0.925 -0.9912  0.0276  0.7782
 1092SOL     H2 4813   3.370   0.082   1.065  1.8653 -0.4746 -0.0813
 1092SOL    EPW 4814   3.391   0.085   0.979  0.3104  0.1826 -0.4631
 1093SOL      O 4815   4.276   4.399   3.354 -0.7946 -0.1030  0.4130
 1093SOL     H1 4816   4.297   4.411   3.447 -2.1934  1.7001  0.5633
 1093SOL     H2 4817   4.344   4.448   3.308 -0.7480 -0.0279  0.5606
 1093SOL    EPW 4818   4.285   4.406   3.359 -0.9389  0.0974  0.4448
 1094SOL      O 4819   4.016   0.467   2.323  0.5655 -0.5151  1.0024
 1094SOL     H1 4820   4.086   0.416   2.365  0.5385 -0.4396  1.1389
 1094SOL     H2 4821   4.042   0.472   2.231  0.9277 -0.1810  1.1169
 1094SOL    EPW 4822   4.027   0.462   2.318  0.6013 -0.4714  1.0291
 1095SOL      O 4823   3.417   0.099   1.679 -0.0501 -0.5286 -0.2623
 1095SOL     H1 4824   3.379   0.047   1.608 -1.3837 -1.4740  1.0740
 1095SOL     H2 4825   3.424   0.037   1.752  1.4223  0.3794  0.4185
 1095SOL    EPW 4826   3.414   0.087   1.679 -0.0353 -0.5326 -0.0471
 1096SOL      O 4827   2.812   5.321   1.780 -0.1634 -0.0049  0.0243
 1096SOL     H1 4828   2.789   5.383   1.849  0.5765 -0.8216  1.0445
 1096SOL     H2 4829   2.771   5.356   1.701 -1.6009  0.6124  1.0039
 1096SOL    EPW 4830   2.805   5.331   1.779 -0.2378 -0.0261  0.2376
 1097SOL      O 4831   1.156   4.140   2.240 -0.1370  0.9538 -0.5789
 1097SOL     H1 4832   1.163   4.045   2.239  0.3237  0.9714  0.0682
 1097SOL     H2 4833   1.243   4.171   2.212  0.2057  1.1725  0.6478
 1097SOL    EPW 4834   1.166   4.133   2.237 -0.0513  0.9790 -0.3790
 1098SOL      O 4835   1.024   1.186   3.389 -0.3884  0.3526  0.1520
 1098SOL     H1 4836   1.007   1.259   3.448 -0.3385  0.3418  0.1797
 1098SOL     H2 4837   1.120   1.178   3.387 -0.4073 -1.4482  2.2958
 1098SOL    EPW 4838   1.033   1.193   3.395 -0.3851  0.1593  0.3837
 1099SOL      O 4839   4.283   1.856   3.942 -0.1769 -0.1900 -0.4663
 1099SOL     H1 4840   4.232   1.906   4.006 -0.1387  0.8199 -1.2040
 1099SOL     H2 4841   4.228   1.779   3.923 -0.1093 -0.5912  0.8844
 1099SOL    EPW 4842   4.272   1.853   3.947 -0.1656 -0.1251 -0.4009
 1100SOL      O 4843   5.651   4.241   2.066 -0.7065  0.4381 -0.0950
 1100SOL     H1 4844   5.611   4.170   2.015  1.0743 -1.9248  1.5529
 1100SOL     H2 4845   5.737   4.253   2.027 -0.2735  0.3252  0.7897
 1100SOL    EPW 4846   5.656   4.234   2.057 -0.4703  0.1740  0.1752
 1101SOL      O 4847   0.432   2.243   3.571  0.4270  0.5684  0.0632
 1101SOL     H1 4848   0.382   2.309   3.619  1.1613  0.3391  1.1863
 1101SOL     H2 4849   0.493   2.208   3.636  0.2603 -0.9930 -0.5859
 1101SOL    EPW 4850   0.433   2.246   3.583  0.4875  0.3774  0.1137
 1102SOL      O 4851   2.267   1.095   0.649 -0.2010  0.7882 -0.1437
 1102SOL     H1 4852   2.286   1.187   0.629  0.2999  0.6228 -0.4543
 1102SOL     H2 4853   2.273   1.050   0.565 -0.8876  0.5368 -0.0674
 1102SOL    EPW 4854   2.270   1.100   0.638 -0.2208  0.7438 -0.1687
 1103SOL      O 4855   2.441   2.131   3.124 -0.1504  0.5791 -0.3759
 1103SOL     H1 4856   2.480   2.139   3.212 -1.6200  1.3965  0.2350
 1103SOL     H2 4857   2.351   2.103   3.141 -0.0102 -0.7927 -1.7287
 1103SOL    EPW 4858   2.435   2.129   3.135 -0.2922  0.5199 -0.4550
 1104SOL      O 4859   0.648   1.903   3.013  0.8529 -0.2510  0.2416
 1104SOL     H1 4860   0.730   1.879   3.057  0.4202 -1.7688  0.2909
 1104SOL     H2 4861   0.675   1.962   2.943  1.9003 -0.1146  0.7404
 1104SOL    EPW 4862   0.660   1.907   3.010  0.9185 -0.3984  0.3001
 1105SOL      O 4863   1.253   1.307   0.186 -0.1126  0.8338  0.3201
 1105SOL     H1 4864   1.175   1.296   0.240  0.0823 -0.4687  0.3900
 1105SOL     H2 4865   1.320   1.256   0.232  0.5072  1.1005 -0.2711
 1105SOL    EPW 4866   1.252   1.300   0.197 -0.0257  0.7233  0.2645
 1106SOL      O 4867   4.208   2.648   0.726 -0.3991 -0.1075 -0.4097
 1106SOL     H1 4868   4.164   2.566   0.705 -2.2959  0.9955 -0.9896
 1106SOL     H2 4869   4.148   2.716   0.694  0.4414  1.5207  1.3004
 1106SOL    EPW 4870   4.197   2.647   0.720 -0.5117  0.1839 -0.2891
 1107SOL      O 4871   1.793   3.766   1.251 -0.0957  0.0709 -0.0285
 1107SOL     H1 4872   1.812   3.674   1.268  0.2688  0.0487 -0.5244
 1107SOL     H2 4873   1.747   3.796   1.330  2.1022  0.1544  1.2957
 1107SOL    EPW 4874   1.790   3.760   1.261  0.1777  0.0774  0.0599
 1108SOL      O 4875   1.757   2.066   1.357  0.1182  0.0485  0.0513
 1108SOL     H1 4876   1.823   2.115   1.407  0.1716  0.3055 -0.2659
 1108SOL     H2 4877   1.808   2.006   1.302  0.0461 -0.5146  0.5865
 1108SOL    EPW 4878   1.769   2.065   1.357  0.1162  0.0159  0.0745
 1109SOL      O 4879   1.324   4.576   3.456 -0.1552 -0.3304  0.1958
 1109SOL     H1 4880   1.321   4.666   3.489  1.1239 -0.6092  1.1080
 1109SOL     H2 4881   1.414   4.547   3.471 -0.0510 -1.1781 -1.7007
 1109SOL    EPW 4882   1.333   4.583   3.461 -0.0076 -0.4505  0.0908
 1110SOL      O 4883   4.043   2.187   0.265  0.0992  0.4004 -0.6453
 1110SOL     H1 4884   4.001   2.171   0.180  1.8551 -2.2074 -1.1286
 1110SOL     H2 4885   4.065   2.100   0.298  1.8495  1.4821  1.2726
 1110SOL    EPW 4886   4.041   2.176   0.260  0.4732  0.2376 -0.4922
 1111SOL      O 4887   5.551   1.240   0.503  0.0204 -0.4103  0.2508
 1111SOL     H1 4888   5.551   1.149   0.532  0.2104 -0.4246  0.2076
 1111SOL     H2 4889   5.548   1.291   0.584  0.3850 -0.4515  0.2910
 1111SOL    EPW 4890   5.551   1.236   0.514  0.0796 -0.4162  0.2505
 1112SOL      O 4891   4.591   1.619   1.629  0.8494  0.0857  0.0784
 1112SOL     H1 4892   4.556   1.541   1.586 -0.9062  0.6045  0.4771
 1112SOL     H2 4893   4.527   1.687   1.609  1.7264  1.1341  0.7549
 1112SOL    EPW 4894   4.581   1.618   1.622  0.7557  0.2529  0.1931
 1113SOL      O 4895   3.333   4.987   2.516 -0.1156  0.1297 -0.6997
 1113SOL     H1 4896   3.410   4.938   2.546  1.2237  3.4260  1.9232
 1113SOL     H2 4897   3.367   5.045   2.448 -0.1624  1.7375  0.6019
 1113SOL    EPW 4898   3.345   4.988   2.512  0.0223  0.6529 -0.2811
 1114SOL      O 4899   4.643   3.002   0.812  0.4009  0.7475  0.4827
 1114SOL     H1 4900   4.609   2.918   0.782  0.7606  0.1549  1.6589
 1114SOL     H2 4901   4.640   3.059   0.735 -0.3476 -0.1860 -0.1911
 1114SOL    EPW 4902   4.639   2.999   0.800  0.3594  0.5847  0.5363
 1115SOL      O 4903   2.124   3.334   0.344  0.4058  0.0295 -0.2297
 1115SOL     H1 4904   2.087   3.322   0.256 -0.6501 -0.9814  0.3116
 1115SOL     H2 4905   2.130   3.428   0.355  2.5849  0.1930 -2.1697
 1115SOL    EPW 4906   2.120   3.342   0.336  0.5257 -0.0609 -0.3789
 1116SOL      O 4907   2.954   0.744   1.786  0.0998  0.4057 -0.2037
 1116SOL     H1 4908   2.986   0.655   1.799  0.1993  0.3063 -1.0588
 1116SOL     H2 4909   3.024   0.800   1.819  0.6983  0.1755 -1.0576
 1116SOL    EPW 4910   2.965   0.741   1.791  0.1743  0.3705 -0.3860
 1117SOL      O 4911   0.812   4.367   1.343  0.3620 -0.1074 -0.4327
 1117SOL     H1 4912   0.890   4.311   1.352  0.0287 -0.4923  0.1528
 1117SOL     H2 4913   0.739   4.306   1.334 -0.0394  0.2158  0.4869
 1117SOL    EPW 4914   0.813   4.354   1.343  0.2837 -0.1140 -0.2721
 1118SOL      O 4915   1.504   4.529   0.295 -0.0132  0.1537  0.1069
 1118SOL     H1 4916   1.589   4.492   0.317 -0.5374 -1.4212 -0.4238
 1118SOL     H2 4917   1.444   4.494   0.361 -0.4189  0.5241 -0.0552
 1118SOL    EPW 4918   1.507   4.521   0.304 -0.1124  0.0252  0.0330
 1119SOL      O 4919   3.814   3.229   0.101  0.4698  0.2103  0.3050
 1119SOL     H1 4920   3.826   3.170   0.176  0.9921 -0.9707 -0.6749
 1119SOL     H2 4921   3.898   3.275   0.094  0.6871 -0.2196  0.0120
 1119SOL    EPW 4922   3.825   3.227   0.108  0.5487  0.0385  0.1692
 1120SOL      O 4923   3.866   3.435   1.444  0.2494 -0.3075  0.3120
 1120SOL     H1 4924   3.914   3.419   1.525  1.5929  1.5604 -0.0329
 1120SOL     H2 4925   3.904   3.374   1.381  1.2434  0.1819  0.4095
 1120SOL    EPW 4926   3.875   3.427   1.446  0.4988 -0.0560  0.2856
 1121SOL      O 4927   5.642   0.245   2.124  0.2643 -0.5709  0.2355
 1121SOL     H1 4928   5.728   0.272   2.093 -0.7302  1.5957 -0.9118
 1121SOL     H2 4929   5.645   0.257   2.218  0.4352  2.2537 -0.0288
 1121SOL    EPW 4930   5.651   0.249   2.130  0.1764 -0.0385  0.0850
 1122SOL      O 4931   2.430   2.269   1.399 -0.3573 -0.3924 -0.0876
 1122SOL     H1 4932   2.454   2.180   1.372  1.2606  0.3716 -1.2992
 1122SOL     H2 4933   2.440   2.268   1.494 -3.1041 -2.2558  0.3137
 1122SOL    EPW 4934   2.433   2.259   1.406 -0.4777 -0.5097 -0.1740
 1123SOL      O 4935   2.839   3.809   1.398 -0.3930 -0.5289  0.6074
 1123SOL     H1 4936   2.805   3.884   1.447 -1.8454 -2.6178  2.9889
 1123SOL     H2 4937   2.934   3.821   1.400 -0.6043  1.8418 -0.1901
 1123SOL    EPW 4938   2.846   3.819   1.404 -0.5705 -0.4989  0.7764
 1124SOL      O 4939   2.086   4.936   4.054  0.4437 -0.2847  0.3638
 1124SOL     H1 4940   2.034   5.012   4.028  0.1923 -0.4315  0.4382
 1124SOL     H2 4941   2.163   4.939   3.997  1.0001  0.6736  1.1363
 1124SOL    EPW 4942   2.089   4.944   4.045  0.4763 -0.1981  0.4542
 1125SOL      O 4943   0.633   2.983   0.105  0.0054  0.1834 -0.0992
 1125SOL     H1 4944   0.612   2.902   0.058 -3.4775  0.5148  0.6576
 1125SOL     H2 4945   0.632   3.050   0.037  2.0452 -0.1915 -0.5809
 1125SOL    EPW 4946   0.631   2.981   0.092 -0.1485  0.1787 -0.0699
 1126SOL      O 4947   0.325   0.586   3.786  0.1907 -0.8520  0.4867
 1126SOL     H1 4948   0.234   0.610   3.772  0.3591 -0.0088  0.7477
 1126SOL     H2 4949   0.328   0.553   3.875  0.3805  0.4937  1.0083
 1126SOL    EPW 4950   0.316   0.585   3.794  0.2289 -0.6185  0.5702
 1127SOL      O 4951   0.101   1.572   2.060 -0.1957  0.8165  0.0319
 1127SOL     H1 4952   0.092   1.482   2.092  0.5813  1.5201  2.4429
 1127SOL     H2 4953   0.011   1.601   2.044 -0.4233 -0.5910 -1.5485
 1127SOL    EPW 4954   0.090   1.565   2.062 -0.1371  0.7414  0.1205
 1128SOL      O 4955   4.478   3.619   0.053 -0.0916  0.0890 -0.0900
 1128SOL     H1 4956   4.478   3.655  -0.036 -0.3447 -0.1044 -0.1730
 1128SOL     H2 4957   4.402   3.561   0.054 -0.3084  0.3755  0.3694
 1128SOL    EPW 4958   4.470   3.617   0.044 -0.1417  0.0989 -0.0499
 1129SOL      O 4959   3.841   4.973   3.720  0.0212  0.2664 -0.3169
 1129SOL     H1 4960   3.888   4.895   3.689  0.4331  0.4312 -0.1105
 1129SOL     H2 4961   3.752   4.961   3.688 -1.0537 -2.2927  3.0458
 1129SOL    EPW 4962   3.837   4.963   3.713 -0.0495  0.0110  0.0638
 1130SOL      O 4963   3.426   0.057   0.587 -0.4407 -0.1189 -0.2516
 1130SOL     H1 4964   3.380   0.001   0.649 -1.3726  1.1316  0.2164
 1130SOL     H2 4965   3.377   0.049   0.506  0.4916 -1.3701 -0.7180
 1130SOL    EPW 4966   3.416   0.050   0.585 -0.4407 -0.1189 -0.2515
 1131SOL      O 4967   4.311   2.809   2.997 -0.0975  0.9260 -0.0268
 1131SOL     H1 4968   4.354   2.793   3.081 -0.0304 -0.6211 -0.3392
 1131SOL     H2 4969   4.278   2.724   2.970 -0.4326  1.4685 -1.4088
 1131SOL    EPW 4970   4.312   2.798   3.003 -0.1261  0.8188 -0.2076
 1132SOL      O 4971   2.329   4.441   2.618 -0.4146 -0.1852 -0.1208
 1132SOL     H1 4972   2.298   4.519   2.663  4.1644  1.4164  0.8435
 1132SOL     H2 4973   2.345   4.378   2.688 -2.2455 -1.3611 -0.6968
 1132SOL    EPW 4974   2.327   4.442   2.630 -0.1214 -0.1398 -0.0793
 1133SOL      O 4975   5.377   1.572   2.415  0.1975  0.2134 -0.4730
 1133SOL     H1 4976   5.442   1.502   2.420  2.7543  2.1052 -3.4672
 1133SOL     H2 4977   5.390   1.623   2.495  2.1813  0.3199 -0.8309
 1133SOL    EPW 4978   5.385   1.570   2.424  0.6819  0.4265 -0.8306
 1134SOL      O 4979   1.637   2.192   3.374 -0.4988 -0.5643  0.1632
 1134SOL     H1 4980   1.608   2.282   3.361  0.8605 -0.0733  0.3713
 1134SOL     H2 4981   1.732   2.196   3.370 -0.2299 -1.5080  3.0049
 1134SOL    EPW 4982   1.644   2.202   3.372 -0.3251 -0.6126  0.4885
 1135SOL      O 4983   4.385   5.107   0.097 -0.3211  0.3021  0.1602
 1135SOL     H1 4984   4.341   5.165   0.159  2.4339 -1.1047  3.7762
 1135SOL     H2 4985   4.479   5.118   0.116  0.4434 -3.3164 -0.8484
 1135SOL    EPW 4986   4.391   5.115   0.105  0.0543 -0.2339  0.4383
 1136SOL      O 4987   3.141   1.375   4.139 -0.0523  0.3430  0.3111
 1136SOL     H1 4988   3.108   1.410   4.056  0.8453 -1.5177 -0.9076
 1136SOL     H2 4989   3.236   1.375   4.128  0.0904  0.2928  1.4452
 1136SOL    EPW 4990   3.148   1.379   4.129  0.0587  0.1392  0.3021
 1137SOL      O 4991   1.519   5.191   1.848 -0.1620 -0.4824  0.1237
 1137SOL     H1 4992   1.531   5.254   1.777  1.2177 -0.5114  0.2915
 1137SOL     H2 4993   1.512   5.107   1.804 -2.2209 -0.2328 -0.1139
 1137SOL    EPW 4994   1.520   5.189   1.836 -0.2345 -0.4589  0.1163
 1138SOL      O 4995   4.623   0.258   0.838  0.0875  0.0325  0.0046
 1138SOL     H1 4996   4.538   0.215   0.829 -0.0146  0.6297 -3.2187
 1138SOL     H2 4997   4.686   0.188   0.823  0.3585 -0.7123  3.7793
 1138SOL    EPW 4998   4.620   0.246   0.835  0.1055  0.0168  0.0634
 1139SOL      O 4999   3.453   3.133   0.873 -0.3959  0.6100 -0.2476
 1139SOL     H1 5000   3.472   3.055   0.820 -2.4268  0.4615 -0.8407
 1139SOL     H2 5001   3.530   3.143   0.929 -0.4259 -2.3303  0.4690
 1139SOL    EPW 5002   3.463   3.126   0.873 -0.6158  0.2805 -0.2345
 1140SOL      O 5003   0.255   4.273   1.210 -0.0197 -0.4596 -0.1601
 1140SOL     H1 5004   0.184   4.235   1.263 -0.1856  1.0930  0.8019
 1140SOL     H2 5005   0.300   4.332   1.270 -0.1776  1.3477 -1.7125
 1140SOL    EPW 5006   0.252   4.275   1.222 -0.0542 -0.1012 -0.2231
 1141SOL      O 5007   4.146   3.950   1.652 -0.2183  0.5102 -0.0255
 1141SOL     H1 5008   4.237   3.973   1.637 -0.0483 -0.6645 -0.9406
 1141SOL     H2 5009   4.130   3.972   1.744  0.8853  0.9963  0.0644
 1141SOL    EPW 5010   4.154   3.955   1.660 -0.0824  0.4367 -0.1136
 1142SOL      O 5011   4.573   2.650   2.303  0.2183  0.1420 -0.4464
 1142SOL     H1 5012   4.610   2.734   2.328 -1.0755  0.4909  0.3978
 1142SOL     H2 5013   4.483   2.670   2.275 -0.4973 -1.0515  0.8263
 1142SOL    EPW 5014   4.567   2.661   2.303  0.0039  0.0519 -0.2206
 1143SOL      O 5015   5.368   5.150   2.057 -0.1500  0.4519  0.5071
 1143SOL     H1 5016   5.295   5.100   2.096 -1.3006 -0.3577 -2.4312
 1143SOL     H2 5017   5.420   5.084   2.012 -0.3135  1.5644 -1.4088
 1143SOL    EPW 5018   5.366   5.137   2.057 -0.2902  0.4842 -0.0107
 1144SOL      O 5019   3.012   0.528   3.607  0.1940 -0.5310  0.3821
 1144SOL     H1 5020   3.077   0.475   3.560  0.4607 -0.3958  0.5975
 1144SOL     H2 5021   2.995   0.479   3.687 -0.2029 -0.7211  0.1845
 1144SOL    EPW 5022   3.017   0.517   3.611  0.1801 -0.5368  0.3840
 1145SOL      O 5023   0.502   4.864   2.719  0.2931 -0.0724 -0.1116
 1145SOL     H1 5024   0.530   4.882   2.630 -1.9071 -0.3941 -0.9387
 1145SOL     H2 5025   0.538   4.935   2.771 -0.8924  1.8845 -1.8026
 1145SOL    EPW 5026   0.509   4.873   2.715 -0.0681  0.1020 -0.3802
 1146SOL      O 5027   2.385   3.709   3.051 -0.3378  0.3767  0.3210
 1146SOL     H1 5028   2.440   3.786   3.063  0.5066  0.2435 -2.1247
 1146SOL     H2 5029   2.302   3.744   3.019  0.5778  0.2953 -2.3993
 1146SOL    EPW 5030   2.382   3.721   3.049 -0.1500  0.3538 -0.2301
 1147SOL      O 5031   2.686   0.726   1.919 -0.2622 -0.4007 -0.6180
 1147SOL     H1 5032   2.777   0.754   1.925 -0.1678 -0.5496 -1.2501
 1147SOL     H2 5033   2.675   0.662   1.988 -0.4481  1.0812  0.7892
 1147SOL    EPW 5034   2.694   0.722   1.927 -0.2719 -0.2585 -0.5353
 1148SOL      O 5035   2.620   5.245   2.919  0.0900 -0.0129 -0.0990
 1148SOL     H1 5036   2.606   5.190   2.996  0.1094 -0.4892 -0.4330
 1148SOL     H2 5037   2.595   5.190   2.845 -0.7987  0.7426 -0.3881
 1148SOL    EPW 5038   2.616   5.233   2.920 -0.0028  0.0169 -0.1654
 1149SOL      O 5039   3.546   0.469   0.813 -0.1918 -0.1808  0.2181
 1149SOL     H1 5040   3.568   0.395   0.756  0.1938 -0.0790  0.2306
 1149SOL     H2 5041   3.514   0.429   0.894 -2.0429 -0.3377 -0.5382
 1149SOL    EPW 5042   3.545   0.457   0.815 -0.3481 -0.1867  0.1388
 1150SOL      O 5043   0.942   3.783   1.994  0.4570  0.6423  0.2429
 1150SOL     H1 5044   0.902   3.802   1.909  0.3733 -0.9119 -0.0951
 1150SOL     H2 5045   1.026   3.744   1.973 -0.2425 -1.2967  0.7825
 1150SOL    EPW 5046   0.946   3.781   1.983  0.3735  0.2696  0.2644
 1151SOL      O 5047   3.284   1.233   0.852  1.0132 -0.0634  0.4582
 1151SOL     H1 5048   3.231   1.261   0.926  1.1448 -1.3908  1.0774
 1151SOL     H2 5049   3.340   1.309   0.833 -1.0520  1.3814 -0.2307
 1151SOL    EPW 5050   3.284   1.244   0.857  0.8069 -0.0508  0.4508
 1152SOL      O 5051   5.425   4.616   0.665 -0.3145  0.6962 -0.0843
 1152SOL     H1 5052   5.487   4.546   0.644 -1.1863 -0.6423  1.5422
 1152SOL     H2 5053   5.340   4.572   0.670 -0.7307  1.6408  2.1062
 1152SOL    EPW 5054   5.422   4.604   0.663 -0.4519  0.6542  0.3229
 1153SOL      O 5055   4.062   1.161   0.645 -0.3622  0.7908 -0.1866
 1153SOL     H1 5056   4.104   1.178   0.561 -0.0541  3.4186  0.4175
 1153SOL     H2 5057   3.988   1.221   0.647 -0.1413  1.0510  1.5502
 1153SOL    EPW 5058   4.059   1.169   0.636 -0.3058  1.0989  0.0632
 1154SOL      O 5059   0.525   5.506   1.293 -0.3902  0.8478  0.7744
 1154SOL     H1 5060   0.438   5.546   1.293  0.2122  2.2971 -0.6319
 1154SOL     H2 5061   0.575   5.558   1.355 -0.6496 -0.3765  2.0548
 1154SOL    EPW 5062   0.521   5.516   1.300 -0.3536  0.8718  0.7610
 1155SOL      O 5063   3.588   3.871   0.254  0.4104  0.1937  0.0830
 1155SOL     H1 5064   3.494   3.889   0.256  0.4050  0.1693  0.0527
 1155SOL     H2 5065   3.624   3.927   0.322  0.5881  1.4346 -0.9862
 1155SOL    EPW 5066   3.582   3.879   0.261  0.4288  0.3235 -0.0343
 1156SOL      O 5067   3.556   3.572   2.578 -0.0038 -0.4580  0.0152
 1156SOL     H1 5068   3.595   3.599   2.494  0.6678 -3.0695 -0.5879
 1156SOL     H2 5069   3.613   3.611   2.644 -0.2573  1.2382 -0.6970
 1156SOL    EPW 5070   3.566   3.579   2.576  0.0408 -0.5557 -0.1251
 1157SOL      O 5071   4.678   5.616   1.512 -0.4525 -0.0103 -0.2155
 1157SOL     H1 5072   4.752   5.664   1.548  0.6407 -2.0747  0.4724
 1157SOL     H2 5073   4.710   5.584   1.427 -0.2764 -1.4430  0.3649
 1157SOL    EPW 5074   4.690   5.618   1.507 -0.3170 -0.3834 -0.0802
 1158SOL      O 5075   5.055   5.392   3.812 -0.1720  0.3129 -0.2560
 1158SOL     H1 5076   5.117   5.374   3.883  0.8535 -0.9019 -1.4136
 1158SOL     H2 5077   5.103   5.370   3.732 -1.7984  0.2285 -1.2501
 1158SOL    EPW 5078   5.066   5.388   3.811 -0.2361  0.1743 -0.4855
 1159SOL      O 5079   3.284   2.223   4.002  0.0737  0.2582  0.2885
 1159SOL     H1 5080   3.302   2.129   4.006  0.7332  0.3135 -0.8957
 1159SOL     H2 5081   3.367   2.263   4.027  0.2783  0.5129 -0.7434
 1159SOL    EPW 5082   3.295   2.217   4.005  0.1659  0.2912  0.0521
 1160SOL      O 5083   0.929   1.658   0.088 -0.0782  0.3630 -0.2281
 1160SOL     H1 5084   0.927   1.563   0.099  0.6129  0.0888 -2.0104
 1160SOL     H2 5085   1.004   1.688   0.140  1.9624 -0.5909 -2.4041
 1160SOL    EPW 5086   0.937   1.651   0.094  0.2132  0.2320 -0.6504
 1161SOL      O 5087   4.432   0.028   2.746 -0.2145 -0.5416  0.0543
 1161SOL     H1 5088   4.450   0.037   2.653 -0.0247 -1.3630  0.0075
 1161SOL     H2 5089   4.500  -0.030   2.779 -0.6905 -0.8259  0.5634
 1161SOL    EPW 5090   4.441   0.023   2.740 -0.2450 -0.6595  0.1036
 1162SOL      O 5091   0.102   5.037   3.210 -0.1050  1.1303  0.5322
 1162SOL     H1 5092   0.113   5.097   3.284 -1.7578  0.0173  1.7580
 1162SOL     H2 5093   0.032   4.977   3.238  0.6643 -0.6373 -1.1006
 1162SOL    EPW 5094   0.096   5.037   3.221 -0.1992  0.8230  0.4888
 1163SOL      O 5095   0.560   3.027   1.294  0.6227  0.1300  0.2500
 1163SOL     H1 5096   0.497   2.997   1.229 -0.3567 -0.0074  1.2250
 1163SOL     H2 5097   0.542   3.121   1.304 -0.9178 -0.2659  2.0089
 1163SOL    EPW 5098   0.551   3.034   1.288  0.3539  0.0731  0.5416
 1164SOL      O 5099   3.751   3.407   1.032 -0.1225 -0.3584 -0.3102
 1164SOL     H1 5100   3.728   3.439   0.944  2.2108  1.1335 -0.4690
 1164SOL     H2 5101   3.836   3.447   1.050 -1.1689  0.6367  3.2646
 1164SOL    EPW 5102   3.758   3.415   1.024  0.0148 -0.0931  0.0542
 1165SOL      O 5103   5.165   1.835   1.682 -0.9522 -0.1019 -0.3169
 1165SOL     H1 5104   5.156   1.770   1.611  0.2167 -0.7902  0.1432
 1165SOL     H2 5105   5.233   1.799   1.738 -0.2065  1.5958 -0.0942
 1165SOL    EPW 5106   5.171   1.824   1.680 -0.7479  0.0058 -0.2440
 1166SOL      O 5107   0.610   3.541   0.790  0.2740 -0.2970 -0.4462
 1166SOL     H1 5108   0.597   3.513   0.881 -3.3864  1.5867 -0.1724
 1166SOL     H2 5109   0.559   3.479   0.738  1.7234 -0.9142 -1.1883
 1166SOL    EPW 5110   0.603   3.532   0.794  0.0381 -0.1619 -0.4962
 1167SOL      O 5111   5.727   2.688   2.656 -0.4951 -0.4791 -0.3895
 1167SOL     H1 5112   5.746   2.753   2.724 -0.3828  1.0074 -1.7811
 1167SOL     H2 5113   5.640   2.712   2.624  0.2764  0.1438 -2.1469
 1167SOL    EPW 5114   5.719   2.698   2.660 -0.4008 -0.2541 -0.7254
 1168SOL      O 5115   3.938   0.995   1.013  0.2094 -0.3709  0.5244
 1168SOL     H1 5116   3.947   0.913   1.061  0.1288 -0.1640  0.8992
 1168SOL     H2 5117   3.920   0.969   0.923 -0.7503 -0.7512  0.8228
 1168SOL    EPW 5118   3.937   0.983   1.008  0.0984 -0.3894  0.5962
 1169SOL      O 5119   5.653   0.587   0.770  0.2536 -0.2205  0.1729
 1169SOL     H1 5120   5.645   0.494   0.750 -1.0136 -0.1572  0.2626
 1169SOL     H2 5121   5.563   0.620   0.766  0.4658  0.6637  1.7802
 1169SOL    EPW 5122   5.642   0.581   0.767  0.1410 -0.1194  0.3539
 1170SOL      O 5123   5.529   2.553   3.942 -0.1307  0.3622 -0.2053
 1170SOL     H1 5124   5.605   2.537   3.998 -1.2885  0.6238  1.5487
 1170SOL     H2 5125   5.519   2.648   3.942 -0.3052  0.3447 -0.6235
 1170SOL    EPW 5126   5.536   2.562   3.948 -0.2728  0.3882 -0.0628
 1171SOL      O 5127   0.961   5.728   0.527 -0.1138 -0.7854  0.0915
 1171SOL     H1 5128   1.012   5.761   0.601 -1.0862 -0.1254  0.4818
 1171SOL     H2 5129   1.008   5.759   0.450  0.4298 -0.7471  0.4344
 1171SOL    EPW 5130   0.971   5.735   0.527 -0.1596 -0.7109  0.1697
 1172SOL      O 5131   4.845   0.841   0.492  0.4770  0.8564  0.7729
 1172SOL     H1 5132   4.832   0.931   0.463 -1.8242 -0.1504 -1.7330
 1172SOL     H2 5133   4.764   0.818   0.537  0.4934 -0.3468  0.2308
 1172SOL    EPW 5134   4.835   0.848   0.494  0.2333  0.6206  0.4477
 1173SOL      O 5135   4.309   2.718   3.656 -0.3587 -0.8235 -0.2326
 1173SOL     H1 5136   4.320   2.718   3.751  0.5762 -1.1321 -0.3342
 1173SOL     H2 5137   4.290   2.809   3.634 -3.3282 -1.1499  0.5288
 1173SOL    EPW 5138   4.308   2.728   3.664 -0.5757 -0.8912 -0.1622
 1174SOL      O 5139   0.319   3.583   0.899 -0.0623 -0.8343 -0.6096
 1174SOL     H1 5140   0.357   3.653   0.846 -1.0077 -0.4772 -0.8316
 1174SOL     H2 5141   0.265   3.534   0.838 -0.6940 -0.7788 -0.0997
 1174SOL    EPW 5142   0.318   3.585   0.887 -0.2305 -0.7903 -0.5789
 1175SOL      O 5143   1.259   3.281   0.281  0.3920  0.1973  0.1811
 1175SOL     H1 5144   1.311   3.280   0.201  1.6884  0.4056  0.9891
 1175SOL     H2 5145   1.277   3.196   0.323 -0.4635 -0.0122  0.1439
 1175SOL    EPW 5146   1.267   3.272   0.277  0.4391  0.1972  0.2633
 1176SOL      O 5147   0.115   1.798   3.419  0.4760  0.0542  0.2812
 1176SOL     H1 5148   0.031   1.843   3.414  0.5070  0.2797  1.4115
 1176SOL     H2 5149   0.111   1.751   3.503  2.0096  1.1980  1.0405
 1176SOL    EPW 5150   0.106   1.798   3.428  0.6429  0.2003  0.4828
 1177SOL      O 5151   3.061   0.488   2.984  0.2329 -0.1083  0.1203
 1177SOL     H1 5152   3.017   0.521   3.062 -0.6025 -1.0880  0.0874
 1177SOL     H2 5153   2.996   0.498   2.914 -0.1344 -1.9607  0.1541
 1177SOL    EPW 5154   3.049   0.493   2.985  0.1046 -0.4104  0.1204
 1178SOL      O 5155   0.871   2.801   3.268  0.0669 -0.4812 -0.3805
 1178SOL     H1 5156   0.963   2.776   3.260  0.0683 -0.9919  1.0718
 1178SOL     H2 5157   0.823   2.719   3.259 -0.1315 -0.5034  0.8173
 1178SOL    EPW 5158   0.876   2.790   3.266  0.0459 -0.5380 -0.0978
 1179SOL      O 5159   5.746   0.660   3.120  0.0225 -0.4798 -0.5481
 1179SOL     H1 5160   5.728   0.739   3.171  0.7513  0.2569 -1.3850
 1179SOL     H2 5161   5.841   0.661   3.108  0.2437 -2.2857  0.6586
 1179SOL    EPW 5162   5.755   0.669   3.124  0.1238 -0.5939 -0.5087
 1180SOL      O 5163   3.084   1.043   3.834  0.2330 -0.2051 -0.3237
 1180SOL     H1 5164   3.163   1.013   3.789 -0.9733 -0.8616 -2.0877
 1180SOL     H2 5165   3.109   1.047   3.927  2.6875  0.8178 -0.9690
 1180SOL    EPW 5166   3.095   1.040   3.839  0.3662 -0.1660 -0.5807
 1181SOL      O 5167   3.076   5.733   1.608 -0.1348 -1.0602  0.1644
 1181SOL     H1 5168   3.166   5.707   1.631  0.3186 -0.5006 -0.9402
 1181SOL     H2 5169   3.047   5.785   1.683  0.2109 -1.7893  0.8300
 1181SOL    EPW 5170   3.083   5.735   1.619 -0.0495 -1.0783  0.1176
 1182SOL      O 5171   2.671   2.509   0.867 -0.5402  0.1213  0.4076
 1182SOL     H1 5172   2.762   2.480   0.865 -0.4297  0.5057 -1.2545
 1182SOL     H2 5173   2.654   2.528   0.959  1.5986  1.7465  0.5291
 1182SOL    EPW 5174   2.679   2.508   0.877 -0.3002  0.3357  0.2433
 1183SOL      O 5175   1.121   4.171   3.495 -0.7503 -0.2862  0.1383
 1183SOL     H1 5176   1.146   4.252   3.539 -0.3743  0.2522 -1.0116
 1183SOL     H2 5177   1.034   4.188   3.459 -0.0762  0.1709 -1.3671
 1183SOL    EPW 5178   1.114   4.181   3.496 -0.6383 -0.1800 -0.1450
 1184SOL      O 5179   3.947   5.296   0.174 -0.0754  0.4232  0.6075
 1184SOL     H1 5180   3.867   5.292   0.227 -0.5296  2.7383  0.1740
 1184SOL     H2 5181   3.961   5.389   0.158  0.6721 -0.1282 -2.4494
 1184SOL    EPW 5182   3.940   5.306   0.178 -0.0441  0.6113  0.2352
 1185SOL      O 5183   3.034   4.817   3.988  0.8942 -0.0472 -0.3155
 1185SOL     H1 5184   2.941   4.832   3.970  1.0431  0.9735 -0.3182
 1185SOL     H2 5185   3.055   4.877   4.059  1.2262 -1.3074  0.6811
 1185SOL    EPW 5186   3.027   4.825   3.993  0.9455 -0.0728 -0.2095
 1186SOL      O 5187   1.843   4.233   2.472 -0.0903 -0.1836  0.2944
 1186SOL     H1 5188   1.797   4.226   2.388 -0.1838  1.0596  0.2261
 1186SOL     H2 5189   1.908   4.301   2.457 -0.9169  0.9366  1.5848
 1186SOL    EPW 5190   1.845   4.239   2.461 -0.1884  0.0685  0.4248
 1187SOL      O 5191   4.037   5.735   1.491 -0.5642 -0.7476  0.3099
 1187SOL     H1 5192   4.051   5.822   1.530 -2.3452  0.4030 -1.4235
 1187SOL     H2 5193   3.992   5.685   1.559 -2.3500  0.7608  0.3217
 1187SOL    EPW 5194   4.034   5.739   1.503 -0.9447 -0.4640  0.1262
 1188SOL      O 5195   5.244   2.788   0.765  0.0132 -0.0036  0.5551
 1188SOL     H1 5196   5.228   2.703   0.722  1.6114  0.4156 -1.0176
 1188SOL     H2 5197   5.159   2.813   0.802 -0.9009 -1.4958 -0.4161
 1188SOL    EPW 5198   5.233   2.781   0.764  0.0861 -0.1181  0.2837
 1189SOL      O 5199   0.727   1.695   3.594  0.0368 -0.0942 -0.1368
 1189SOL     H1 5200   0.749   1.625   3.531  1.0752 -1.6905  1.8513
 1189SOL     H2 5201   0.688   1.648   3.668  0.7360  1.4213  1.2505
 1189SOL    EPW 5202   0.725   1.682   3.595  0.2222 -0.1028  0.2233
 1190SOL      O 5203   3.298   5.334   4.019  0.4325 -0.0139 -0.3689
 1190SOL     H1 5204   3.299   5.398   4.091 -0.7760  0.2395 -0.5475
 1190SOL     H2 5205   3.354   5.373   3.952 -0.7670  1.1795 -0.7155
 1190SOL    EPW 5206   3.304   5.345   4.020  0.1756  0.1404 -0.4250
 1191SOL      O 5207   3.682   1.371   4.138 -0.1850  0.4140 -0.0636
 1191SOL     H1 5208   3.723   1.326   4.212 -0.1578  2.0618  0.9851
 1191SOL     H2 5209   3.700   1.316   4.063  0.3501 -0.9966  1.0558
 1191SOL    EPW 5210   3.688   1.361   4.138 -0.1250  0.4393  0.1677
 1192SOL      O 5211   4.630   2.939   1.238  0.0945 -0.0893 -0.1304
 1192SOL     H1 5212   4.662   2.849   1.230 -0.6858 -0.5760  1.7175
 1192SOL     H2 5213   4.556   2.933   1.298 -0.9635  1.5861 -1.1849
 1192SOL    EPW 5214   4.626   2.929   1.243 -0.1016  0.0375 -0.0458
 1193SOL      O 5215   3.701   4.991   3.389  0.3593  0.3287  0.3213
 1193SOL     H1 5216   3.639   4.977   3.461  0.4328  1.2009  0.5642
 1193SOL     H2 5217   3.645   5.009   3.313  0.2304 -1.8756 -0.1806
 1193SOL    EPW 5218   3.688   4.991   3.389  0.3534  0.1866  0.2937
 1194SOL      O 5219   4.564   4.000   2.884 -0.2475 -0.6883 -0.5940
 1194SOL     H1 5220   4.502   3.938   2.847 -0.3430 -1.3676  0.6604
 1194SOL     H2 5221   4.604   3.954   2.957  1.4394 -0.1256 -1.0924
 1194SOL    EPW 5222   4.562   3.989   2.888 -0.0778 -0.7007 -0.5134
 1195SOL      O 5223   2.160   5.070   3.654  0.2962 -0.2085  0.1961
 1195SOL     H1 5224   2.244   5.026   3.639  0.3164 -0.2541  0.4463
 1195SOL     H2 5225   2.130   5.093   3.566  0.1987 -0.8831  0.0508
 1195SOL    EPW 5226   2.166   5.068   3.643  0.2880 -0.2853  0.2073
 1196SOL      O 5227   4.954   5.551   3.290 -0.5138  0.2013  0.2977
 1196SOL     H1 5228   5.000   5.630   3.262  0.0671 -0.3352 -0.3165
 1196SOL     H2 5229   5.024   5.489   3.311 -0.9361 -0.6306 -0.6444
 1196SOL    EPW 5230   4.966   5.553   3.289 -0.4969  0.0553  0.1317
 1197SOL      O 5231   2.115   3.137   0.561 -0.1165 -0.7306 -0.1586
 1197SOL     H1 5232   2.122   3.221   0.517  1.1658 -0.7833 -0.0833
 1197SOL     H2 5233   2.022   3.130   0.584 -0.5278 -0.0308 -1.5003
 1197SOL    EPW 5234   2.106   3.145   0.559 -0.0236 -0.6616 -0.2937
 1198SOL      O 5235   3.582   2.177   2.368 -0.0883  0.3238 -0.1576
 1198SOL     H1 5236   3.521   2.248   2.350 -0.7953 -0.1300  0.3734
 1198SOL     H2 5237   3.596   2.181   2.463  2.2172  1.6018 -0.4657
 1198SOL    EPW 5238   3.577   2.185   2.376  0.0822  0.4117 -0.1338
 1199SOL      O 5239   2.018   4.789   3.085  0.1115 -0.0332 -0.0511
 1199SOL     H1 5240   2.050   4.721   3.026  1.8810 -1.9285  2.8374
 1199SOL     H2 5241   2.025   4.870   3.034  1.3604 -1.5406 -2.4603
 1199SOL    EPW 5242   2.022   4.790   3.074  0.4335 -0.3962  0.0000
 1200SOL      O 5243   2.958   5.579   4.037  0.4500 -0.6009 -0.0286
 1200SOL     H1 5244   2.890   5.646   4.038  1.4231  0.4442 -1.1668
 1200SOL     H2 5245   2.987   5.573   4.128  1.1533  1.4138 -0.0762
 1200SOL    EPW 5246   2.954   5.586   4.047  0.6288 -0.2745 -0.1551
 1201SOL      O 5247   5.400   5.094   4.089 -0.7675  0.5986  0.0876
 1201SOL     H1 5248   5.365   5.084   4.177  0.5051 -1.2453  0.4475
 1201SOL     H2 5249   5.348   5.034   4.036  1.3092 -1.7189  0.5153
 1201SOL    EPW 5250   5.390   5.087   4.093 -0.4102  0.1547  0.1716
 1202SOL      O 5251   0.027   4.502   2.077 -0.1793  0.4071  0.3026
 1202SOL     H1 5252   0.103   4.475   2.129 -1.0692 -0.6461  1.1152
 1202SOL     H2 5253   0.005   4.425   2.025 -0.8822  0.5865  0.3213
 1202SOL    EPW 5254   0.033   4.491   2.077 -0.3492  0.3139  0.3913
 1203SOL      O 5255   4.684   2.895   2.350  0.1528 -0.4580  0.3448
 1203SOL     H1 5256   4.666   2.940   2.268 -1.1483  0.0145  0.8581
 1203SOL     H2 5257   4.618   2.929   2.411  0.2111 -1.8040  1.2055
 1203SOL    EPW 5258   4.675   2.903   2.348  0.0202 -0.5512  0.4914
 1204SOL      O 5259   1.730   1.270   1.303 -0.2770  0.3610  0.0108
 1204SOL     H1 5260   1.814   1.267   1.259 -0.1629  1.5768  0.1005
 1204SOL     H2 5261   1.747   1.316   1.385 -1.2663  1.9369 -0.6124
 1204SOL    EPW 5262   1.740   1.275   1.307 -0.3703  0.6588 -0.0461
 1205SOL      O 5263   5.400   1.134   3.506 -0.3391  0.2027 -0.3819
 1205SOL     H1 5264   5.465   1.067   3.485 -1.5260 -1.5668  1.2608
 1205SOL     H2 5265   5.359   1.155   3.422  0.4762 -0.6914 -1.0206
 1205SOL    EPW 5266   5.402   1.129   3.495 -0.3787 -0.0814 -0.2748
 1206SOL      O 5267   0.179   5.690   1.560 -0.0795  0.1446 -0.2273
 1206SOL     H1 5268   0.265   5.672   1.600 -1.2745 -3.1766  1.2273
 1206SOL     H2 5269   0.158   5.779   1.587  3.0352  1.2337 -0.9666
 1206SOL    EPW 5270   0.186   5.698   1.567  0.1253 -0.0935 -0.1510
 1207SOL      O 5271   1.397   5.711   0.590 -0.8580 -0.0583 -0.1117
 1207SOL     H1 5272   1.468   5.656   0.558 -0.3768 -1.2120  2.6443
 1207SOL     H2 5273   1.321   5.686   0.537  0.2166 -0.5411 -1.4915
 1207SOL    EPW 5274   1.397   5.703   0.581 -0.6921 -0.2329  0.0351
 1208SOL      O 5275   1.817   3.339   1.802  0.2037  0.2805 -0.0291
 1208SOL     H1 5276   1.736   3.339   1.852  0.4749 -0.5958  0.4242
 1208SOL     H2 5277   1.794   3.301   1.717 -0.0411  0.8548 -0.2266
 1208SOL    EPW 5278   1.806   3.335   1.798  0.2065  0.2483 -0.0018
 1209SOL      O 5279   4.475   0.922   3.948  0.1487  0.5841 -0.0409
 1209SOL     H1 5280   4.571   0.926   3.951  0.1468  0.1598  1.0005
 1209SOL     H2 5281   4.454   0.939   3.857  1.2712 -0.2283 -0.4826
 1209SOL    EPW 5282   4.483   0.925   3.939  0.2682  0.4522  0.0231
 1210SOL      O 5283   4.245   4.720   0.662  0.2203  0.3075  0.1829
 1210SOL     H1 5284   4.294   4.801   0.668  0.9287 -0.1914  1.3418
 1210SOL     H2 5285   4.307   4.657   0.625 -0.5511  0.4537 -1.4311
 1210SOL    EPW 5286   4.257   4.722   0.659  0.2136  0.2699  0.1344
 1211SOL      O 5287   0.816   4.386   1.722  0.2702  0.2953  0.1697
 1211SOL     H1 5288   0.795   4.326   1.793 -2.6253 -0.3503 -1.1005
 1211SOL     H2 5289   0.838   4.329   1.648 -0.6540  0.8069 -0.5205
 1211SOL    EPW 5290   0.816   4.374   1.722 -0.1373  0.2810 -0.0395
 1212SOL      O 5291   2.229   1.283   0.332  0.0855 -0.3415  0.2842
 1212SOL     H1 5292   2.240   1.188   0.334 -0.2580 -0.3727  0.8713
 1212SOL     H2 5293   2.295   1.315   0.394  0.5702 -0.1562 -0.3195
 1212SOL    EPW 5294   2.237   1.276   0.339  0.1005 -0.3251  0.2824
 1213SOL      O 5295   0.452   4.477   0.621  0.1865  0.1900 -0.8511
 1213SOL     H1 5296   0.511   4.541   0.660  0.3582  0.9641 -2.3305
 1213SOL     H2 5297   0.464   4.398   0.674  0.9163  0.9900  0.2113
 1213SOL    EPW 5298   0.459   4.475   0.631  0.2827  0.3579 -0.8956
 1214SOL      O 5299   5.596   2.553   0.830 -0.3861  0.0161 -0.2018
 1214SOL     H1 5300   5.533   2.522   0.765 -0.2582  1.4978 -1.0843
 1214SOL     H2 5301   5.560   2.637   0.859 -0.0886 -0.2997  1.1652
 1214SOL    EPW 5302   5.585   2.559   0.826 -0.3407  0.1405 -0.1501
 1215SOL      O 5303   2.360   4.632   0.840 -0.4027  0.1540  1.1250
 1215SOL     H1 5304   2.395   4.721   0.850 -2.4513  1.3693 -1.4092
 1215SOL     H2 5305   2.270   4.644   0.811 -1.0072 -2.7875  1.4367
 1215SOL    EPW 5306   2.354   4.643   0.838 -0.6858 -0.0302  0.8879
 1216SOL      O 5307   4.343   1.233   2.130  0.4291  0.6179 -0.1353
 1216SOL     H1 5308   4.403   1.255   2.201 -0.0117  1.8225 -0.1211
 1216SOL     H2 5309   4.256   1.232   2.172  0.2992  0.1244 -0.4090
 1216SOL    EPW 5310   4.340   1.235   2.142  0.3683  0.6938 -0.1629
 1217SOL      O 5311   0.005   4.771   2.199 -0.3259  0.6033 -0.3489
 1217SOL     H1 5312   0.007   4.685   2.157 -0.1774  1.1631 -1.5174
 1217SOL     H2 5313  -0.025   4.831   2.131 -2.3373  1.2116  0.9901
 1217SOL    EPW 5314   0.002   4.768   2.187 -0.5247  0.7279 -0.3307
 1218SOL      O 5315   3.099   3.776   1.370  0.0198 -0.4563 -0.1005
 1218SOL     H1 5316   3.154   3.797   1.446  0.0122 -0.2650 -0.1469
 1218SOL     H2 5317   3.139   3.697   1.333  0.0176 -0.5563  0.1080
 1218SOL    EPW 5318   3.109   3.770   1.374  0.0187 -0.4466 -0.0832
 1219SOL      O 5319   1.571   1.721   1.012  0.2267 -0.1669  0.1274
 1219SOL     H1 5320   1.551   1.793   1.072 -2.3966 -0.6270 -0.0916
 1219SOL     H2 5321   1.573   1.644   1.069  1.9016 -0.1176  0.1863
 1219SOL    EPW 5322   1.569   1.721   1.025  0.1255 -0.2107  0.1103
 1220SOL      O 5323   1.039   3.858   0.443 -0.6050 -0.3416 -0.1209
 1220SOL     H1 5324   1.005   3.945   0.423  1.7395  0.3246 -1.6417
 1220SOL     H2 5325   1.119   3.851   0.391  1.9726 -1.5038  3.5859
 1220SOL    EPW 5326   1.044   3.867   0.436 -0.0800 -0.3945  0.1123
 1221SOL      O 5327   3.120   1.054   0.325  0.2941 -0.7116  0.1403
 1221SOL     H1 5328   3.076   1.103   0.255  1.3388  1.6815  1.0468
 1221SOL     H2 5329   3.056   0.988   0.352 -0.6758 -0.7797 -2.0719
 1221SOL    EPW 5330   3.108   1.052   0.320  0.3021 -0.4636  0.0010
 1222SOL      O 5331   3.032   2.781   2.992 -0.0122  0.2163 -0.4559
 1222SOL     H1 5332   3.063   2.758   3.080 -1.0985 -1.4089 -0.4405
 1222SOL     H2 5333   3.111   2.797   2.942  0.7372 -0.8095  0.3439
 1222SOL    EPW 5334   3.044   2.780   2.996 -0.0481 -0.0665 -0.3690
 1223SOL      O 5335   2.557   3.017   3.954 -0.0580  0.3040  0.2637
 1223SOL     H1 5336   2.625   3.052   4.010  0.5145 -4.3138  2.9858
 1223SOL     H2 5337   2.480   3.011   4.010 -0.6201 -0.8911 -0.5820
 1223SOL    EPW 5338   2.556   3.020   3.966 -0.0569 -0.3161  0.4639
 1224SOL      O 5339   2.251   4.446   0.052  0.5100  0.8123 -0.0575
 1224SOL     H1 5340   2.225   4.499  -0.023 -2.0579  0.9328  0.8148
 1224SOL     H2 5341   2.211   4.489   0.127 -0.5914 -1.5549  0.8430
 1224SOL    EPW 5342   2.244   4.456   0.052  0.1186  0.5726  0.1316
 1225SOL      O 5343   0.370   2.564   4.136 -0.0951  0.7060  0.0207
 1225SOL     H1 5344   0.363   2.482   4.186 -1.4035  2.0881  2.2797
 1225SOL     H2 5345   0.410   2.538   4.053 -0.0180 -2.1316  0.8380
 1225SOL    EPW 5346   0.374   2.552   4.132 -0.2264  0.5507  0.3489
 1226SOL      O 5347   1.411   5.660   0.841  0.3210  0.2454  0.7719
 1226SOL     H1 5348   1.422   5.660   0.746  0.9516 -1.0404  0.8149
 1226SOL     H2 5349   1.472   5.726   0.873 -0.1643  0.9499  0.2749
 1226SOL    EPW 5350   1.418   5.667   0.835  0.3365  0.1834  0.7235
 1227SOL      O 5351   0.434   3.995   2.693  0.0778  0.1915 -0.4793
 1227SOL     H1 5352   0.460   4.079   2.655  2.3404 -0.8209 -1.3505
 1227SOL     H2 5353   0.429   4.012   2.787  0.4130  1.3267 -0.6491
 1227SOL    EPW 5354   0.436   4.006   2.699  0.3549  0.2046 -0.5904
 1228SOL      O 5355   4.143   4.118   1.333  0.2783 -0.0605  0.3936
 1228SOL     H1 5356   4.107   4.082   1.252  0.9860 -0.6660  0.3410
 1228SOL     H2 5357   4.225   4.159   1.306 -0.6744  1.9626  0.3844
 1228SOL    EPW 5358   4.148   4.119   1.321  0.2521  0.0907  0.3870
 1229SOL      O 5359   1.942   0.823   2.816 -0.0638  0.2571  0.3107
 1229SOL     H1 5360   1.917   0.912   2.839  1.0072  0.3272  1.2788
 1229SOL     H2 5361   2.026   0.832   2.772 -1.0608 -0.0848 -1.7891
 1229SOL    EPW 5362   1.948   0.833   2.813 -0.0559  0.2281  0.1900
 1230SOL      O 5363   3.004   1.146   0.087  0.1509  0.0048 -0.0300
 1230SOL     H1 5364   3.035   1.181   0.004  0.0202 -1.4769 -0.7471
 1230SOL     H2 5365   2.926   1.095   0.063  0.6619 -1.2332  0.8379
 1230SOL    EPW 5366   2.999   1.144   0.075  0.1915 -0.2853 -0.0140
 1231SOL      O 5367   4.404   3.276   1.922 -0.1027  0.3270 -0.5365
 1231SOL     H1 5368   4.411   3.259   1.828 -0.6945 -0.0550 -0.5206
 1231SOL     H2 5369   4.489   3.311   1.947 -0.1172  0.9506 -1.3200
 1231SOL    EPW 5370   4.413   3.278   1.915 -0.1674  0.3528 -0.6184
 1232SOL      O 5371   0.052   3.307   0.679 -0.0260 -0.2602  0.3817
 1232SOL     H1 5372  -0.028   3.317   0.731  0.6255  1.6334  1.1005
 1232SOL     H2 5373   0.037   3.361   0.601 -0.1313 -1.3405 -0.3640
 1232SOL    EPW 5374   0.042   3.314   0.677  0.0323 -0.1734  0.3788
 1233SOL      O 5375   1.115   5.147   2.778  0.0487 -0.7166 -0.1489
 1233SOL     H1 5376   1.100   5.235   2.814 -1.7133 -1.2793  0.5673
 1233SOL     H2 5377   1.033   5.100   2.793  0.0375 -1.7169 -2.8318
 1233SOL    EPW 5378   1.105   5.152   2.783 -0.1405 -0.8833 -0.3587
 1234SOL      O 5379   5.496   0.894   1.030  0.0144  0.3103  0.0340
 1234SOL     H1 5380   5.428   0.837   0.994 -0.2802  0.0222  0.9983
 1234SOL     H2 5381   5.470   0.983   1.004 -1.2090  0.2898  1.0945
 1234SOL    EPW 5382   5.486   0.898   1.024 -0.1475  0.2774  0.2500
 1235SOL      O 5383   3.101   1.037   0.773 -0.1017 -0.0566  0.4049
 1235SOL     H1 5384   3.059   0.952   0.785  0.5716 -1.0872 -3.3868
 1235SOL     H2 5385   3.031   1.101   0.786 -1.0137 -1.2347  1.6024
 1235SOL    EPW 5386   3.089   1.035   0.776 -0.1272 -0.2922  0.1281
 1236SOL      O 5387   0.526   4.371   1.665 -0.2229  0.6494  0.3894
 1236SOL     H1 5388   0.495   4.312   1.733 -0.0279 -1.2478 -1.0905
 1236SOL     H2 5389   0.620   4.378   1.680 -0.0562 -0.3729 -0.0914
 1236SOL    EPW 5390   0.533   4.366   1.674 -0.1843  0.3380  0.1803
 1237SOL      O 5391   1.258   3.096   1.659 -0.0307  0.1077 -0.0514
 1237SOL     H1 5392   1.195   3.105   1.588  1.3558 -0.6819 -1.4368
 1237SOL     H2 5393   1.269   3.185   1.693  0.7142  0.8519 -2.1174
 1237SOL    EPW 5394   1.253   3.106   1.655  0.1967  0.1029 -0.4196
 1238SOL      O 5395   0.037   3.117   4.109 -0.0738  0.4902 -0.2323
 1238SOL     H1 5396   0.034   3.162   4.193 -0.0547  0.7217 -0.3559
 1238SOL     H2 5397  -0.022   3.042   4.120 -0.0791  0.5247 -0.0177
 1238SOL    EPW 5398   0.030   3.114   4.119 -0.0723  0.5186 -0.2226
 1239SOL      O 5399   5.668   3.592   1.994  0.2870 -0.7342  0.1305
 1239SOL     H1 5400   5.582   3.564   2.023  0.4168 -1.2355  0.0397
 1239SOL     H2 5401   5.701   3.518   1.943  0.2570 -0.0618 -0.8961
 1239SOL    EPW 5402   5.662   3.581   1.992  0.2977 -0.7160  0.0113
 1240SOL      O 5403   3.497   4.043   2.079  0.0928 -0.2873 -0.3025
 1240SOL     H1 5404   3.509   3.949   2.069 -0.2483 -0.3253 -0.3669
 1240SOL     H2 5405   3.495   4.077   1.989 -1.3509 -0.4210 -0.3421
 1240SOL    EPW 5406   3.498   4.037   2.068 -0.0976 -0.3056 -0.3136
 1241SOL      O 5407   0.188   3.825   4.151  0.3571  0.7720  0.7719
 1241SOL     H1 5408   0.139   3.906   4.137  0.8532  1.1796  1.2791
 1241SOL     H2 5409   0.204   3.791   4.063 -1.0880  0.4542  0.6114
 1241SOL    EPW 5410   0.185   3.830   4.140  0.2559  0.7816  0.8089
 1242SOL      O 5411   5.375   3.814   3.481 -0.1019 -0.3080 -0.0705
 1242SOL     H1 5412   5.426   3.860   3.415 -0.4299  1.6063  0.9376
 1242SOL     H2 5413   5.426   3.736   3.502  0.2281 -0.7264 -2.2111
 1242SOL    EPW 5414   5.386   3.811   3.476 -0.1017 -0.1484 -0.1913
 1243SOL      O 5415   1.281   0.544   0.034 -0.3141 -1.2098  0.4206
 1243SOL     H1 5416   1.187   0.531   0.048 -0.9609  2.0321 -0.1680
 1243SOL     H2 5417   1.297   0.509  -0.054 -1.7478  0.9890 -0.8214
 1243SOL    EPW 5418   1.272   0.539   0.026 -0.5361 -0.6294  0.2253
 1244SOL      O 5419   1.670   5.225   4.061 -0.1440 -0.5984  0.1357
 1244SOL     H1 5420   1.754   5.181   4.044  0.5178  0.6778 -0.0438
 1244SOL     H2 5421   1.679   5.310   4.018 -1.4373 -0.3247  0.3637
 1244SOL    EPW 5422   1.680   5.229   4.054 -0.2114 -0.4331  0.1409
 1245SOL      O 5423   5.139   5.751   3.221  0.1452  0.4787 -0.1609
 1245SOL     H1 5424   5.218   5.700   3.236 -0.9628 -1.3513 -0.2727
 1245SOL     H2 5425   5.146   5.824   3.283  1.6086  0.0143  0.2675
 1245SOL    EPW 5426   5.148   5.754   3.229  0.1831  0.2339 -0.1271
 1246SOL      O 5427   4.931   2.050   1.726 -0.0958  0.1515 -0.3565
 1246SOL     H1 5428   4.957   1.958   1.730  0.8102  0.4509  1.1472
 1246SOL     H2 5429   4.988   2.095   1.788 -1.5410  1.4891  0.0938
 1246SOL    EPW 5430   4.940   2.045   1.733 -0.1533  0.3261 -0.1481
 1247SOL      O 5431   4.969   5.199   4.070 -0.4595  0.1515 -0.0964
 1247SOL     H1 5432   4.923   5.163   4.146  0.8171  1.3639  1.3021
 1247SOL     H2 5433   4.907   5.260   4.031 -1.4273 -1.0745 -0.5738
 1247SOL    EPW 5434   4.957   5.201   4.074 -0.4265  0.1501  0.0019
 1248SOL      O 5435   5.507   5.004   0.050  0.7734  0.4217  0.4412
 1248SOL     H1 5436   5.494   4.995   0.144  0.8841 -1.9090  0.2773
 1248SOL     H2 5437   5.419   5.017   0.015  0.5375 -0.4062  0.7151
 1248SOL    EPW 5438   5.497   5.005   0.056  0.7601  0.0847  0.4529
 1249SOL      O 5439   0.048   0.388   0.845 -0.1006  0.1684 -0.0679
 1249SOL     H1 5440   0.025   0.378   0.753  1.5880 -0.6372 -0.4388
 1249SOL     H2 5441   0.090   0.474   0.850 -0.2992  0.2645 -0.0059
 1249SOL    EPW 5442   0.050   0.396   0.836  0.0583  0.0927 -0.1009
 1250SOL      O 5443   0.094   5.061   0.852  0.4110  0.3813  0.0499
 1250SOL     H1 5444   0.179   5.080   0.892 -0.0867  2.8366  0.1302
 1250SOL     H2 5445   0.038   5.037   0.926  0.4453  1.2365  0.3740
 1250SOL    EPW 5446   0.097   5.061   0.864  0.3616  0.7344  0.0931
 1251SOL      O 5447   4.859   3.107   3.892 -0.2517  0.1792  0.5382
 1251SOL     H1 5448   4.795   3.075   3.828  0.8839 -2.0910  0.4380
 1251SOL     H2 5449   4.806   3.151   3.958 -1.6228  0.9436 -0.9964
 1251SOL    EPW 5450   4.846   3.108   3.892 -0.2768  0.0185  0.3638
 1252SOL      O 5451   2.454   1.501   0.173 -0.2551  0.1786 -0.2668
 1252SOL     H1 5452   2.423   1.585   0.138  2.6057  1.7312  0.5934
 1252SOL     H2 5453   2.440   1.439   0.102  0.7844  2.1739 -2.3493
 1252SOL    EPW 5454   2.449   1.503   0.162  0.1610  0.5571 -0.3972
 1253SOL      O 5455   0.268   0.298   2.169 -0.8013  0.0872 -0.0199
 1253SOL     H1 5456   0.323   0.220   2.176 -0.6944  0.1763  0.1477
 1253SOL     H2 5457   0.180   0.265   2.152 -0.3833 -0.0094 -2.2779
 1253SOL    EPW 5458   0.264   0.286   2.168 -0.7453  0.0864 -0.2429
 1254SOL      O 5459   0.542   3.806   0.364 -0.2632 -0.0703  0.1273
 1254SOL     H1 5460   0.576   3.739   0.424  1.6709  2.1033  1.6353
 1254SOL     H2 5461   0.472   3.762   0.316  0.8479 -3.1350  1.0625
 1254SOL    EPW 5462   0.538   3.794   0.365  0.0616 -0.1654  0.3879
 1255SOL      O 5463   1.583   4.211   0.760  0.0687 -0.7500 -0.4190
 1255SOL     H1 5464   1.533   4.277   0.712  2.9997  4.4281  2.7117
 1255SOL     H2 5465   1.523   4.184   0.831 -0.8034 -0.5986 -1.0785
 1255SOL    EPW 5466   1.571   4.215   0.763  0.2883 -0.1814 -0.1554
 1256SOL      O 5467   4.922   1.929   1.119 -0.1545  0.4652  0.0858
 1256SOL     H1 5468   4.945   1.836   1.119 -0.5204  0.3703  0.8213
 1256SOL     H2 5469   4.948   1.961   1.205 -3.0361  0.2739  1.1465
 1256SOL    EPW 5470   4.927   1.923   1.128 -0.5009  0.4346  0.2774
 1257SOL      O 5471   3.767   1.654   1.948  0.2836  0.6552  0.1521
 1257SOL     H1 5472   3.828   1.588   1.914  0.6397  1.7687 -1.4721
 1257SOL     H2 5473   3.764   1.636   2.042 -0.0694 -2.0060 -0.2831
 1257SOL    EPW 5474   3.773   1.645   1.954  0.2839  0.4901 -0.0676
 1258SOL      O 5475   2.811   4.878   2.251  0.6780 -0.7911  0.1955
 1258SOL     H1 5476   2.880   4.813   2.235  1.0344 -0.4802  0.4659
 1258SOL     H2 5477   2.824   4.944   2.183  1.8129  0.2172  1.3472
 1258SOL    EPW 5478   2.819   4.878   2.242  0.8371 -0.6504  0.3472
 1259SOL      O 5479   2.399   4.934   3.583  0.3856 -0.4969  0.4498
 1259SOL     H1 5480   2.485   4.972   3.599  0.1651  0.6300 -0.8617
 1259SOL     H2 5481   2.401   4.849   3.626  0.3835  1.5013  4.8411
 1259SOL    EPW 5482   2.408   4.929   3.589  0.3619 -0.1635  0.7783
 1260SOL      O 5483   4.307   2.094   2.005 -0.3878  0.3210 -0.0251
 1260SOL     H1 5484   4.291   2.001   2.022 -1.0213  0.7205  1.8790
 1260SOL     H2 5485   4.383   2.096   1.948 -0.2413 -1.3644  0.0669
 1260SOL    EPW 5486   4.313   2.084   2.001 -0.4397  0.1838  0.1879
 1261SOL      O 5487   3.294   2.124   0.928  0.0431 -0.3313  0.5006
 1261SOL     H1 5488   3.351   2.145   1.002  0.2154  1.9152 -0.1989
 1261SOL     H2 5489   3.349   2.139   0.851 -0.4874 -1.5124 -0.1283
 1261SOL    EPW 5490   3.306   2.128   0.928  0.0049 -0.2176  0.3589
 1262SOL      O 5491   1.181   0.552   1.457 -0.1763 -0.0072 -0.0769
 1262SOL     H1 5492   1.215   0.632   1.416 -0.4461 -0.2016 -0.6910
 1262SOL     H2 5493   1.159   0.495   1.383  1.5841 -1.3239  0.3452
 1262SOL    EPW 5494   1.183   0.555   1.445 -0.0173 -0.1684 -0.0974
 1263SOL      O 5495   0.735   4.576   3.616 -0.3086 -0.4808  0.0514
 1263SOL     H1 5496   0.652   4.529   3.603  0.2207 -1.1759 -0.9567
 1263SOL     H2 5497   0.710   4.657   3.661 -1.7950  0.1830 -1.8074
 1263SOL    EPW 5498   0.723   4.580   3.619 -0.4107 -0.4842 -0.2544
 1264SOL      O 5499   4.484   2.074   0.306  0.2042 -0.6446 -0.2147
 1264SOL     H1 5500   4.534   2.083   0.224  1.5444  0.8114  0.7019
 1264SOL     H2 5501   4.443   2.159   0.319  0.0619 -0.8394  0.6696
 1264SOL    EPW 5502   4.485   2.084   0.298  0.3320 -0.5101 -0.0226
 1265SOL      O 5503   3.796   2.411   0.349  0.2305  0.1563 -0.2508
 1265SOL     H1 5504   3.711   2.375   0.374 -1.7595  3.5272 -1.5678
 1265SOL     H2 5505   3.848   2.408   0.430 -1.9585  0.1693  1.2454
 1265SOL    EPW 5506   3.793   2.407   0.360 -0.2153  0.5173 -0.2317
 1266SOL      O 5507   1.383   1.361   0.563 -0.2504 -0.7648  0.2373
 1266SOL     H1 5508   1.326   1.334   0.634 -0.7334 -0.2725  0.0440
 1266SOL     H2 5509   1.337   1.434   0.521  0.4862 -0.3919  0.0448
 1266SOL    EPW 5510   1.372   1.366   0.566 -0.2234 -0.6725  0.1962
 1267SOL      O 5511   4.800   5.575   1.277 -1.0590 -0.5679 -0.4369
 1267SOL     H1 5512   4.802   5.484   1.245 -2.2479 -0.3532 -1.1451
 1267SOL     H2 5513   4.887   5.609   1.255  0.3407 -2.1984  1.9524
 1267SOL    EPW 5514   4.810   5.569   1.271 -1.0365 -0.7189 -0.2575
 1268SOL      O 5515   4.563   0.599   3.556 -0.2616 -0.4103 -0.1548
 1268SOL     H1 5516   4.615   0.661   3.505  0.5242 -0.5798  0.4269
 1268SOL     H2 5517   4.531   0.536   3.491 -2.3896  1.4214 -1.0297
 1268SOL    EPW 5518   4.565   0.599   3.543 -0.4048 -0.2330 -0.1861
 1269SOL      O 5519   5.091   2.517   0.661  0.1554  0.2481  0.5838
 1269SOL     H1 5520   5.046   2.437   0.635 -0.7538 -0.0717  2.9027
 1269SOL     H2 5521   5.037   2.587   0.626  0.8424 -0.1169 -1.2850
 1269SOL    EPW 5522   5.081   2.516   0.655  0.1317  0.1750  0.6318
 1270SOL      O 5523   5.015   0.067   2.102  0.0122 -0.1531  0.0867
 1270SOL     H1 5524   5.006   0.010   2.178 -2.1019 -1.8177 -1.2925
 1270SOL     H2 5525   4.945   0.131   2.111 -0.4695 -0.5688 -0.5808
 1270SOL    EPW 5526   5.007   0.067   2.111 -0.2647 -0.3750 -0.1316
 1271SOL      O 5527   5.572   0.501   2.606 -0.4642 -0.1142 -0.0511
 1271SOL     H1 5528   5.612   0.525   2.523  3.3133  0.3936  1.6898
 1271SOL     H2 5529   5.600   0.411   2.621 -1.4679 -0.3492  0.4687
 1271SOL    EPW 5530   5.579   0.494   2.599 -0.1683 -0.0851  0.1900
 1272SOL      O 5531   2.994   3.063   2.416 -0.1795 -0.3276  0.1338
 1272SOL     H1 5532   2.966   3.151   2.442  0.1251 -0.5903  1.4671
 1272SOL     H2 5533   2.916   3.008   2.428 -0.3825 -0.2337 -0.7430
 1272SOL    EPW 5534   2.983   3.066   2.420 -0.1687 -0.3456  0.1825
 1273SOL      O 5535   2.705   5.435   3.097 -0.4745  0.3511  0.4017
 1273SOL     H1 5536   2.745   5.499   3.038  1.1607 -0.4024  0.6370
 1273SOL     H2 5537   2.657   5.376   3.039 -1.2262  1.2086  0.1076
 1273SOL    EPW 5538   2.704   5.436   3.085 -0.3802  0.3622  0.3954
 1274SOL      O 5539   5.060   2.014   2.973 -0.3116 -0.4812 -0.7541
 1274SOL     H1 5540   5.031   2.027   3.063  0.4303  1.7201 -0.7722
 1274SOL     H2 5541   4.986   2.043   2.920  0.0821  0.4900 -0.8060
 1274SOL    EPW 5542   5.049   2.019   2.977 -0.1904 -0.1428 -0.7616
 1275SOL      O 5543   2.044   1.654   0.815 -0.2060  0.1192  0.0903
 1275SOL     H1 5544   2.131   1.666   0.776 -0.0435  1.2738  0.7775
 1275SOL     H2 5545   2.008   1.578   0.769  0.6567  0.3982 -1.1001
 1275SOL    EPW 5546   2.050   1.647   0.806 -0.0966  0.2722  0.0366
 1276SOL      O 5547   1.640   1.837   2.084  0.1245  0.3226  0.2388
 1276SOL     H1 5548   1.700   1.876   2.147  0.8644 -1.7529  0.9091
 1276SOL     H2 5549   1.595   1.911   2.044  3.0521  1.9747 -0.2386
 1276SOL    EPW 5550   1.642   1.849   2.087  0.5157  0.2774  0.2594
 1277SOL      O 5551   0.361   1.363   1.100  0.4533 -0.3790 -0.6672
 1277SOL     H1 5552   0.443   1.406   1.123 -0.1081  0.3943 -0.0731
 1277SOL     H2 5553   0.369   1.274   1.136  0.5161  0.0919  0.5209
 1277SOL    EPW 5554   0.371   1.358   1.106  0.4001 -0.2463 -0.4771
 1278SOL      O 5555   3.945   5.094   3.290 -0.0254 -0.6431 -0.2441
 1278SOL     H1 5556   3.877   5.048   3.338  0.4709 -0.4914  0.6246
 1278SOL     H2 5557   3.953   5.179   3.334  1.4335 -1.0576  0.3341
 1278SOL    EPW 5558   3.939   5.098   3.300  0.1832 -0.6711 -0.0897
 1279SOL      O 5559   1.523   1.916   2.824 -0.2186  0.2139  0.2150
 1279SOL     H1 5560   1.594   1.930   2.887  0.5146 -0.1130 -0.5148
 1279SOL     H2 5561   1.520   1.822   2.812 -0.8940  0.2153  0.3643
 1279SOL    EPW 5562   1.531   1.908   2.829 -0.2125  0.1792  0.1531
 1280SOL      O 5563   3.827   3.358   3.559 -0.0676 -0.2666  0.3439
 1280SOL     H1 5564   3.733   3.351   3.577 -0.2945 -0.8717 -0.9073
 1280SOL     H2 5565   3.855   3.436   3.607 -1.1823 -0.1523  0.8467
 1280SOL    EPW 5566   3.820   3.366   3.566 -0.2107 -0.3190  0.2641
 1281SOL      O 5567   3.095   4.653   0.722  0.3205  0.7975  0.1790
 1281SOL     H1 5568   3.089   4.622   0.812 -1.9477  0.7541  0.0928
 1281SOL     H2 5569   3.107   4.748   0.729 -1.6665  1.0645  0.6162
 1281SOL    EPW 5570   3.095   4.660   0.732 -0.1334  0.8213  0.2165
 1282SOL      O 5571   2.686   3.571   0.400 -0.0483 -0.3599  0.2352
 1282SOL     H1 5572   2.612   3.626   0.427  0.3130 -0.6698  1.9491
 1282SOL     H2 5573   2.665   3.484   0.434  0.4073 -0.7968 -0.5687
 1282SOL    EPW 5574   2.676   3.568   0.407  0.0389 -0.4396  0.3323
 1283SOL      O 5575   1.072   2.583   0.380 -0.5283  0.1945  0.0371
 1283SOL     H1 5576   1.037   2.668   0.352 -0.2103  0.0445 -0.8308
 1283SOL     H2 5577   0.996   2.535   0.411 -0.9187  0.3112 -0.7220
 1283SOL    EPW 5578   1.060   2.587   0.380 -0.5360  0.1910 -0.1365
 1284SOL      O 5579   4.287   1.775   2.779  0.1391 -0.2958  0.0750
 1284SOL     H1 5580   4.284   1.716   2.704 -0.2818  0.8997 -0.8767
 1284SOL     H2 5581   4.266   1.719   2.854 -2.0886 -1.0026 -1.0031
 1284SOL    EPW 5582   4.285   1.762   2.779 -0.1434 -0.2436 -0.1415
 1285SOL      O 5583   4.388   0.214   1.159 -0.0277 -0.0430 -0.4132
 1285SOL     H1 5584   4.339   0.296   1.167 -0.6550 -0.4798  0.2478
 1285SOL     H2 5585   4.475   0.242   1.129  0.3791  1.0684  1.6554
 1285SOL    EPW 5586   4.392   0.226   1.156 -0.0512  0.0290 -0.1220
 1286SOL      O 5587   5.688   1.661   2.999  0.6440 -0.1549 -0.7531
 1286SOL     H1 5588   5.687   1.755   2.981 -0.4414 -0.1504 -0.7157
 1286SOL     H2 5589   5.781   1.640   3.013  0.7028  1.4317  2.0265
 1286SOL    EPW 5590   5.698   1.669   2.999  0.5345  0.0148 -0.4526
 1287SOL      O 5591   4.145   5.213   2.801 -0.0063  0.2104 -0.5837
 1287SOL     H1 5592   4.094   5.270   2.859 -0.9303 -0.9304 -0.2360
 1287SOL     H2 5593   4.133   5.251   2.714 -0.5565  0.5809 -0.3518
 1287SOL    EPW 5594   4.138   5.223   2.798 -0.1636  0.1283 -0.5219
 1288SOL      O 5595   1.746   4.429   3.312 -0.6165  0.0731 -0.2246
 1288SOL     H1 5596   1.706   4.512   3.340 -0.4041  0.3553 -0.7492
 1288SOL     H2 5597   1.673   4.377   3.280 -0.5512  0.7104 -1.4895
 1288SOL    EPW 5598   1.734   4.433   3.312 -0.5869  0.1712 -0.4155
 1289SOL      O 5599   3.235   3.250   2.947  0.0775  0.0770 -0.3207
 1289SOL     H1 5600   3.244   3.206   2.863  0.6569  0.4720 -0.4754
 1289SOL     H2 5601   3.216   3.180   3.010  1.3501 -0.4586 -0.4943
 1289SOL    EPW 5602   3.234   3.238   2.945  0.2751  0.0620 -0.3558
 1290SOL      O 5603   5.577   5.257   0.659  0.0333 -0.2305  0.1476
 1290SOL     H1 5604   5.595   5.314   0.734  0.8531  0.3702 -0.4912
 1290SOL     H2 5605   5.529   5.313   0.598  0.6984 -0.2616 -0.4124
 1290SOL    EPW 5606   5.574   5.269   0.661  0.1917 -0.1698  0.0197
 1291SOL      O 5607   0.128   5.421   2.819  0.5074 -0.2581 -0.6304
 1291SOL     H1 5608   0.066   5.415   2.892  0.4197  0.2423 -0.6539
 1291SOL     H2 5609   0.212   5.441   2.860  0.2711  0.9928 -0.7179
 1291SOL    EPW 5610   0.130   5.423   2.831  0.4728 -0.0713 -0.6422
 1292SOL      O 5611   3.627   2.622   3.388 -0.1482 -0.3708  0.4152
 1292SOL     H1 5612   3.714   2.589   3.364  0.4793  0.2118  1.7371
 1292SOL     H2 5613   3.643   2.711   3.419 -1.7109  1.0394 -2.4938
 1292SOL    EPW 5614   3.638   2.628   3.389 -0.2479 -0.1582  0.2459
 1293SOL      O 5615   3.561   1.469   1.606  1.0910  0.1183 -0.1731
 1293SOL     H1 5616   3.593   1.558   1.594 -0.7857  1.0468  1.2927
 1293SOL     H2 5617   3.618   1.432   1.674 -0.0951  1.3540  1.5747
 1293SOL    EPW 5618   3.570   1.474   1.612  0.7643  0.3492  0.1697
 1294SOL      O 5619   2.283   3.820   2.475  0.1606  0.0124  0.1282
 1294SOL     H1 5620   2.321   3.842   2.560  0.6737 -0.2603 -0.0242
 1294SOL     H2 5621   2.296   3.898   2.422 -0.2913  0.2339  0.3454
 1294SOL    EPW 5622   2.289   3.830   2.479  0.1671  0.0069  0.1351
 1295SOL      O 5623   2.508   2.331   0.332 -0.0102  0.2067  0.2606
 1295SOL     H1 5624   2.597   2.323   0.364  0.0990 -0.5140 -0.2161
 1295SOL     H2 5625   2.505   2.418   0.291  0.2069  0.6014  1.0571
 1295SOL    EPW 5626   2.517   2.340   0.331  0.0246  0.1719  0.2947
 1296SOL      O 5627   2.192   3.999   1.000  0.2202  0.2222 -0.1581
 1296SOL     H1 5628   2.221   3.908   0.999  0.6651  0.3405 -1.5024
 1296SOL     H2 5629   2.127   4.004   1.070 -1.6015 -1.7106 -1.5884
 1296SOL    EPW 5630   2.188   3.990   1.007  0.0734  0.0286 -0.4541
 1297SOL      O 5631   0.772   1.577   0.780  0.0379  0.4248  0.0083
 1297SOL     H1 5632   0.705   1.512   0.759  0.4201 -0.2031  0.7115
 1297SOL     H2 5633   0.853   1.527   0.786  0.1031  0.7014  2.0682
 1297SOL    EPW 5634   0.774   1.565   0.778  0.0856  0.3873  0.3030
 1298SOL      O 5635   5.242   5.365   2.201  0.2296 -0.4298 -0.0751
 1298SOL     H1 5636   5.328   5.349   2.163  0.8888 -0.1963  1.2596
 1298SOL     H2 5637   5.234   5.298   2.270 -0.9640 -0.8969 -0.6394
 1298SOL    EPW 5638   5.250   5.356   2.204  0.1726 -0.4548  0.0071
 1299SOL      O 5639   2.383   3.253   1.894  0.1716  0.2926  0.4075
 1299SOL     H1 5640   2.474   3.225   1.905  0.2881  0.2875 -0.4925
 1299SOL     H2 5641   2.333   3.172   1.888 -0.0969  0.2740  2.2488
 1299SOL    EPW 5642   2.387   3.241   1.895  0.1554  0.2901  0.5080
 1300SOL      O 5643   0.566   4.085   0.475  0.2293  0.2619  0.6952
 1300SOL     H1 5644   0.573   4.000   0.431  2.2156  1.3733 -1.3736
 1300SOL     H2 5645   0.535   4.144   0.406  1.4625  1.6923  1.3353
 1300SOL    EPW 5646   0.563   4.082   0.463  0.5727  0.5330  0.5428
 1301SOL      O 5647   1.004   1.419   3.849 -0.1373  0.0083  1.1830
 1301SOL     H1 5648   1.059   1.477   3.795  1.3392 -2.0141  0.4114
 1301SOL     H2 5649   0.951   1.479   3.901  0.8912  2.0546  0.0049
 1301SOL    EPW 5650   1.005   1.432   3.849  0.1299  0.0108  0.9750
 1302SOL      O 5651   5.774   2.247   2.738  0.0166 -0.0536 -0.8779
 1302SOL     H1 5652   5.754   2.312   2.671  0.2318  0.8917 -0.0440
 1302SOL     H2 5653   5.866   2.260   2.758 -0.2331  0.2502  0.1814
 1302SOL    EPW 5654   5.781   2.255   2.733  0.0130  0.0797 -0.6759
 1303SOL      O 5655   4.858   4.419   1.439 -0.5715 -0.4345  0.0130
 1303SOL     H1 5656   4.911   4.369   1.502 -0.0928 -0.6666 -0.5648
 1303SOL     H2 5657   4.813   4.484   1.492 -0.4847 -0.8867  0.6538
 1303SOL    EPW 5658   4.859   4.421   1.451 -0.5112 -0.5075  0.0197
 1304SOL      O 5659   4.738   0.397   2.291 -0.5006  0.3032 -0.4304
 1304SOL     H1 5660   4.677   0.448   2.345  1.0124  2.8615 -0.9736
 1304SOL     H2 5661   4.780   0.339   2.354 -0.9019  1.0980  0.6253
 1304SOL    EPW 5662   4.736   0.397   2.304 -0.3820  0.6609 -0.3757
 1305SOL      O 5663   0.550   4.665   0.873 -0.4628  0.6407  0.1787
 1305SOL     H1 5664   0.588   4.578   0.859 -1.0782  0.4826 -0.6060
 1305SOL     H2 5665   0.594   4.699   0.951 -0.3571 -0.4558  0.6097
 1305SOL    EPW 5666   0.559   4.659   0.880 -0.5172  0.5069  0.1409
 1306SOL      O 5667   0.306   2.490   0.263  0.3474  0.6461 -0.6311
 1306SOL     H1 5668   0.367   2.537   0.320 -0.9668  1.7799 -0.1118
 1306SOL     H2 5669   0.341   2.401   0.259  2.3076  1.3785 -0.7728
 1306SOL    EPW 5670   0.316   2.486   0.268  0.4163  0.8452 -0.5908
 1307SOL      O 5671   0.434   1.379   1.482 -0.5869 -0.2888 -0.0899
 1307SOL     H1 5672   0.439   1.400   1.575 -1.0675 -1.4709  0.2162
 1307SOL     H2 5673   0.346   1.408   1.456  0.1421  1.6339 -0.6208
 1307SOL    EPW 5674   0.425   1.385   1.489 -0.5604 -0.2098 -0.1139
 1308SOL      O 5675   4.573   3.842   0.858 -0.4376  0.7441  0.1003
 1308SOL     H1 5676   4.643   3.866   0.797 -1.2827  0.4096 -1.0456
 1308SOL     H2 5677   4.516   3.919   0.860  0.0719  1.1046  1.2132
 1308SOL    EPW 5678   4.575   3.852   0.851 -0.4734  0.7468  0.0968
 1309SOL      O 5679   5.040   0.372   1.923  0.3777  0.8006 -0.2934
 1309SOL     H1 5680   5.086   0.295   1.891  1.4667  1.2487  0.1360
 1309SOL     H2 5681   4.972   0.337   1.981 -2.5105 -0.1270 -3.8340
 1309SOL    EPW 5682   5.038   0.360   1.926  0.1857  0.7495 -0.6253
 1310SOL      O 5683   2.328   2.899   2.972 -0.3420 -0.3562  0.2565
 1310SOL     H1 5684   2.403   2.848   3.002  0.1526 -0.0042 -0.3400
 1310SOL     H2 5685   2.253   2.860   3.016 -0.2709 -2.9449 -1.6885
 1310SOL    EPW 5686   2.328   2.889   2.980 -0.2816 -0.5948 -0.0146
 1311SOL      O 5687   2.930   1.951   0.407 -0.2243 -0.1501 -0.3461
 1311SOL     H1 5688   2.899   1.954   0.316  2.2705 -0.8007 -1.3198
 1311SOL     H2 5689   2.952   2.042   0.427  1.4363 -0.2738 -1.3342
 1311SOL    EPW 5690   2.929   1.961   0.399  0.2190 -0.2327 -0.5554
 1312SOL      O 5691   2.601   1.259   2.387 -0.0609  0.0839 -0.0185
 1312SOL     H1 5692   2.538   1.254   2.458  0.7754 -2.3999  0.6465
 1312SOL     H2 5693   2.671   1.315   2.421 -0.9350  1.1976 -0.0022
 1312SOL    EPW 5694   2.602   1.265   2.398 -0.0649 -0.0622  0.0542
 1313SOL      O 5695   0.996   0.294   0.640 -0.4844  0.2515 -0.0426
 1313SOL     H1 5696   0.944   0.261   0.567 -1.6470 -1.1290  1.3227
 1313SOL     H2 5697   1.061   0.225   0.656 -1.3499 -0.3192  1.2639
 1313SOL    EPW 5698   0.997   0.283   0.634 -0.7008  0.0434  0.2424
 1314SOL      O 5699   4.036   4.709   3.840  0.8698 -0.3617  0.1146
 1314SOL     H1 5700   4.104   4.775   3.838 -1.2990  2.0310 -0.6332
 1314SOL     H2 5701   3.976   4.738   3.909  0.1047 -1.8465  0.1263
 1314SOL    EPW 5702   4.037   4.719   3.847  0.5568 -0.2648  0.0361
 1315SOL      O 5703   5.154   1.003   0.479 -0.7092 -0.1909  0.4381
 1315SOL     H1 5704   5.129   1.049   0.559  0.3113  0.5139  0.3731
 1315SOL     H2 5705   5.218   0.938   0.508 -0.1654  0.2192  0.1736
 1315SOL    EPW 5706   5.159   1.001   0.491 -0.5423 -0.0720  0.4029
 1316SOL      O 5707   5.454   4.695   2.335 -0.1224 -0.2024  0.1724
 1316SOL     H1 5708   5.435   4.692   2.429 -0.9646 -2.0726 -0.0148
 1316SOL     H2 5709   5.487   4.607   2.314 -1.2003 -0.2508 -1.5093
 1316SOL    EPW 5710   5.456   4.685   2.343 -0.3273 -0.4070 -0.0269
 1317SOL      O 5711   3.210   0.592   0.617  0.3128  0.6101  0.5487
 1317SOL     H1 5712   3.144   0.658   0.595  0.6822  1.1191  0.9513
 1317SOL     H2 5713   3.172   0.509   0.587 -1.5309  0.5423  2.8232
 1317SOL    EPW 5714   3.199   0.590   0.611  0.1555  0.6572  0.8343
 1318SOL      O 5715   4.114   2.314   1.560 -0.4642  0.4396 -0.2517
 1318SOL     H1 5716   4.108   2.232   1.609  3.2784  0.5840  0.7432
 1318SOL     H2 5717   4.141   2.287   1.472  0.8520  0.5132  0.0986
 1318SOL    EPW 5718   4.116   2.303   1.556  0.0754  0.4628 -0.1082
 1319SOL      O 5719   1.647   2.887   0.041  0.4369 -0.6945  0.0813
 1319SOL     H1 5720   1.705   2.952   0.080 -0.2462  0.2618 -0.4466
 1319SOL     H2 5721   1.702   2.810   0.028  1.5114  0.0889 -0.1316
 1319SOL    EPW 5722   1.659   2.886   0.044  0.4786 -0.5089  0.0023
 1320SOL      O 5723   4.911   2.446   1.672 -0.7396 -0.0760 -0.1072
 1320SOL     H1 5724   4.824   2.413   1.693 -0.5941 -0.2529  0.2392
 1320SOL     H2 5725   4.907   2.539   1.693 -0.7668 -0.1386  0.1733
 1320SOL    EPW 5726   4.901   2.452   1.677 -0.7270 -0.1016 -0.0403
 1321SOL      O 5727   0.523   2.636   1.764  0.8379  0.0682  0.0590
 1321SOL     H1 5728   0.609   2.603   1.790  1.0925  0.9645  0.4006
 1321SOL     H2 5729   0.477   2.650   1.847  0.0834 -1.0840 -0.1387
 1321SOL    EPW 5730   0.527   2.634   1.776  0.7846  0.0409  0.0743
 1322SOL      O 5731   3.238   3.290   0.904  0.5254 -0.4908  0.3647
 1322SOL     H1 5732   3.228   3.309   0.997  1.8925 -1.8850  0.8443
 1322SOL     H2 5733   3.299   3.216   0.901 -0.5991 -1.4246 -1.5743
 1322SOL    EPW 5734   3.244   3.284   0.914  0.5513 -0.7392  0.2090
 1323SOL      O 5735   5.682   2.447   0.476  0.4225 -0.1513  0.1986
 1323SOL     H1 5736   5.771   2.460   0.444  0.7512 -1.2770  0.6106
 1323SOL     H2 5737   5.692   2.397   0.557 -0.6399 -1.5156 -0.4665
 1323SOL    EPW 5738   5.692   2.443   0.481  0.3442 -0.4169  0.1716
 1324SOL      O 5739   1.810   2.525   1.450  0.7363 -0.0673 -0.1046
 1324SOL     H1 5740   1.821   2.613   1.416  1.4834  0.0287  0.3567
 1324SOL     H2 5741   1.750   2.482   1.389  0.3231  0.7738 -0.2963
 1324SOL    EPW 5742   1.805   2.530   1.440  0.7720  0.0327 -0.0759
 1325SOL      O 5743   0.460   3.467   3.712  0.0463 -0.2915  0.4087
 1325SOL     H1 5744   0.424   3.544   3.667  1.7541 -0.1104 -0.7516
 1325SOL     H2 5745   0.475   3.403   3.642 -0.8666 -1.5110  1.2941
 1325SOL    EPW 5746   0.458   3.469   3.700  0.1311 -0.4023  0.3794
 1326SOL      O 5747   0.760   0.849   2.974  0.1337  0.2317  0.1275
 1326SOL     H1 5748   0.775   0.798   3.054  0.6706 -0.5385 -0.4557
 1326SOL     H2 5749   0.823   0.922   2.981 -1.9723  2.0457  1.9281
 1326SOL    EPW 5750   0.769   0.852   2.983 -0.0337  0.3430  0.2574
 1327SOL      O 5751   3.338   2.221   3.071  0.2331 -0.2678  0.2475
 1327SOL     H1 5752   3.429   2.200   3.050  1.4341  2.1411  2.4470
 1327SOL     H2 5753   3.326   2.310   3.037 -1.7614 -0.9480 -1.0428
 1327SOL    EPW 5754   3.347   2.229   3.065  0.1485 -0.0834  0.3445
 1328SOL      O 5755   0.199   0.606   0.883 -0.4524 -0.0698 -0.8104
 1328SOL     H1 5756   0.188   0.617   0.978 -0.8513 -0.9181 -0.7482
 1328SOL     H2 5757   0.211   0.695   0.850  0.1317  0.1997  0.0898
 1328SOL    EPW 5758   0.199   0.617   0.890 -0.4327 -0.1315 -0.7078
 1329SOL      O 5759   0.862   4.810   0.780  0.0623 -0.2157 -0.2557
 1329SOL     H1 5760   0.954   4.824   0.800 -0.2428  2.6909 -0.3833
 1329SOL     H2 5761   0.820   4.799   0.865  0.2028  1.3758  0.0622
 1329SOL    EPW 5762   0.867   4.810   0.791  0.0447  0.2642 -0.2354
 1330SOL      O 5763   4.278   0.062   1.896  0.4525 -0.6441 -0.9003
 1330SOL     H1 5764   4.255   0.044   1.987 -1.8498 -0.7873 -1.4663
 1330SOL     H2 5765   4.311  -0.021   1.862 -0.3323 -1.0512 -0.6682
 1330SOL    EPW 5766   4.279   0.051   1.902  0.1231 -0.7028 -0.9359
 1331SOL      O 5767   3.728   3.855   0.021  0.3606 -0.3968 -0.2004
 1331SOL     H1 5768   3.805   3.819   0.065  0.0993  2.0105  2.4782
 1331SOL     H2 5769   3.665   3.868   0.091 -1.9924 -0.8818 -2.1093
 1331SOL    EPW 5770   3.730   3.852   0.033  0.0817 -0.1917 -0.1183
 1332SOL      O 5771   1.828   4.737   1.978  0.4461  0.2738  0.2315
 1332SOL     H1 5772   1.836   4.795   1.903 -0.1528  0.2721  0.1639
 1332SOL     H2 5773   1.888   4.664   1.959 -0.6689 -0.3823 -0.8612
 1332SOL    EPW 5774   1.835   4.735   1.968  0.2632  0.2037  0.1077
 1333SOL      O 5775   0.119   4.459   1.774  0.1203 -0.0192  0.1318
 1333SOL     H1 5776   0.079   4.543   1.795  0.8356  0.4215 -0.2368
 1333SOL     H2 5777   0.206   4.464   1.812 -0.2884 -1.1288  1.2939
 1333SOL    EPW 5778   0.124   4.469   1.780  0.1530 -0.0905  0.2165
 1334SOL      O 5779   4.740   3.676   1.603  0.3536  0.1776 -0.2985
 1334SOL     H1 5780   4.803   3.742   1.574 -0.3132  0.6573 -0.6858
 1334SOL     H2 5781   4.659   3.699   1.557  0.4257 -1.6588 -1.4528
 1334SOL    EPW 5782   4.738   3.685   1.595  0.2902  0.0329 -0.4630
 1335SOL      O 5783   3.961   0.890   0.019  0.6511 -0.0015 -0.5048
 1335SOL     H1 5784   3.876   0.930   0.004 -0.3772 -0.8729  2.3196
 1335SOL     H2 5785   3.947   0.797   0.001  0.8612 -0.2179  0.4303
 1335SOL    EPW 5786   3.951   0.884   0.015  0.5638 -0.1175 -0.1037
 1336SOL      O 5787   4.302   4.439   3.647 -0.0294 -0.0596 -0.2219
 1336SOL     H1 5788   4.318   4.525   3.607  2.4015  0.8051  2.2495
 1336SOL     H2 5789   4.296   4.457   3.741  3.6976 -2.7718  0.7621
 1336SOL    EPW 5790   4.303   4.450   3.652  0.6275 -0.2567  0.1467
 1337SOL      O 5791   4.102   1.273   2.266 -0.0204  0.2562  0.1932
 1337SOL     H1 5792   4.052   1.202   2.306  1.6741 -0.8016  0.5555
 1337SOL     H2 5793   4.039   1.319   2.210 -1.3783 -0.9614  0.6579
 1337SOL    EPW 5794   4.090   1.271   2.265  0.0155  0.0134  0.2814
 1338SOL      O 5795   4.908   2.015   2.726 -0.0075 -0.3731  0.0304
 1338SOL     H1 5796   4.995   2.053   2.712 -0.5869  0.9971  0.0015
 1338SOL     H2 5797   4.893   1.961   2.648  0.3802  0.2287 -0.4638
 1338SOL    EPW 5798   4.916   2.013   2.716 -0.0280 -0.1628 -0.0254
 1339SOL      O 5799   2.827   3.668   3.886  0.1757  0.0616 -0.1484
 1339SOL     H1 5800   2.760   3.600   3.886  0.2675 -0.1061  1.9690
 1339SOL     H2 5801   2.784   3.744   3.847  0.1230 -1.1825 -2.6933
 1339SOL    EPW 5802   2.816   3.669   3.882  0.1799 -0.0890 -0.1940
 1340SOL      O 5803   0.893   1.318   1.314 -0.1088  0.2531 -0.2408
 1340SOL     H1 5804   0.868   1.292   1.403 -1.2806 -3.5664 -1.4999
 1340SOL     H2 5805   0.975   1.365   1.325  1.0897 -2.1944  2.7224
 1340SOL    EPW 5806   0.899   1.320   1.325 -0.1060 -0.4154 -0.0590
 1341SOL      O 5807   1.307   2.220   4.033  0.3997 -0.2130  0.1823
 1341SOL     H1 5808   1.320   2.143   3.977 -0.2190 -0.3814  0.2590
 1341SOL     H2 5809   1.373   2.212   4.101  1.4811  0.2478 -0.7876
 1341SOL    EPW 5810   1.315   2.211   4.034  0.4490 -0.1818  0.0870
 1342SOL      O 5811   1.885   2.916   1.685  0.7050  0.0808  0.4263
 1342SOL     H1 5812   1.844   2.937   1.769 -2.3280  1.8066 -1.2493
 1342SOL     H2 5813   1.837   2.839   1.654  2.4188 -1.0985  0.6057
 1342SOL    EPW 5814   1.875   2.910   1.691  0.5643  0.1391  0.2667
 1343SOL      O 5815   0.680   0.566   3.372 -0.1403  0.2659 -0.0666
 1343SOL     H1 5816   0.589   0.554   3.398 -0.1886 -3.9673 -1.5544
 1343SOL     H2 5817   0.676   0.605   3.285 -0.6977 -1.6589 -0.9446
 1343SOL    EPW 5818   0.670   0.569   3.366 -0.2049 -0.3910 -0.3190
 1344SOL      O 5819   1.091   2.469   1.336 -0.0794  0.4429  0.1676
 1344SOL     H1 5820   1.075   2.563   1.329 -3.3977  0.0026  0.1102
 1344SOL     H2 5821   1.061   2.434   1.252 -1.0316 -0.8481  1.0148
 1344SOL    EPW 5822   1.086   2.475   1.326 -0.5350  0.2582  0.2518
 1345SOL      O 5823   0.208   3.054   0.628  0.3310 -0.1686 -0.0592
 1345SOL     H1 5824   0.297   3.088   0.621  0.5113 -0.3467  1.1308
 1345SOL     H2 5825   0.153   3.131   0.639  0.7502 -0.1865  2.7610
 1345SOL    EPW 5826   0.211   3.066   0.628  0.3950 -0.1895  0.3686
 1346SOL      O 5827   1.239   0.098   3.371 -0.4053 -0.0676  0.1089
 1346SOL     H1 5828   1.187   0.178   3.372  0.8550  0.7813  1.3399
 1346SOL     H2 5829   1.268   0.087   3.462  1.4923 -0.5422 -0.5221
 1346SOL    EPW 5830   1.236   0.105   3.381 -0.0684 -0.0277  0.1729
 1347SOL      O 5831   0.766   3.837   1.324 -0.3672 -0.1029 -0.1203
 1347SOL     H1 5832   0.714   3.896   1.378 -0.8487  0.1704 -0.8791
 1347SOL     H2 5833   0.821   3.894   1.271 -0.8236 -0.3230 -0.8441
 1347SOL    EPW 5834   0.766   3.849   1.324 -0.4673 -0.0972 -0.2785
 1348SOL      O 5835   4.287   0.242   1.641  0.3067  0.2865  0.0377
 1348SOL     H1 5836   4.309   0.287   1.723  1.0180  0.7376 -0.3899
 1348SOL     H2 5837   4.209   0.191   1.662 -0.1232  1.1966  0.7191
 1348SOL    EPW 5838   4.281   0.242   1.652  0.3368  0.4317  0.0647
 1349SOL      O 5839   4.047   1.393   2.799 -0.5136 -0.1958  0.6523
 1349SOL     H1 5840   3.983   1.394   2.870 -0.0510 -0.2240  1.0807
 1349SOL     H2 5841   4.129   1.368   2.842 -0.2783 -0.4550  0.0619
 1349SOL    EPW 5842   4.049   1.391   2.811 -0.4392 -0.2265  0.6350
 1350SOL      O 5843   4.187   2.273   0.803 -0.1670  0.0314  0.5684
 1350SOL     H1 5844   4.282   2.286   0.795  0.0422 -1.6005  0.1347
 1350SOL     H2 5845   4.158   2.250   0.715 -0.8734 -0.0204  0.8119
 1350SOL    EPW 5846   4.194   2.272   0.793 -0.2200 -0.1482  0.5481
 1351SOL      O 5847   4.207   1.623   3.026 -0.0825 -0.2302  0.0664
 1351SOL     H1 5848   4.172   1.537   3.051 -0.8511 -0.2761 -1.0753
 1351SOL     H2 5849   4.301   1.608   3.016 -0.3412 -1.2266 -1.1592
 1351SOL    EPW 5850   4.214   1.612   3.027 -0.1921 -0.3414 -0.1862
 1352SOL      O 5851   5.580   4.397   0.598 -0.3447  0.2524 -0.2251
 1352SOL     H1 5852   5.597   4.410   0.505 -1.1245  0.2962 -0.3682
 1352SOL     H2 5853   5.507   4.335   0.600 -0.3407  0.2658  0.3572
 1352SOL    EPW 5854   5.574   4.392   0.588 -0.4275  0.2585 -0.1782
 1353SOL      O 5855   5.141   0.509   1.406  0.3469  0.3778  0.1134
 1353SOL     H1 5856   5.176   0.531   1.493 -0.3637 -0.5847  0.6651
 1353SOL     H2 5857   5.197   0.439   1.375 -0.0284  0.0096  0.2552
 1353SOL    EPW 5858   5.151   0.504   1.412  0.2311  0.2358  0.1874
 1354SOL      O 5859   4.212   5.064   4.061 -0.0394  0.4914 -0.0639
 1354SOL     H1 5860   4.117   5.052   4.064 -0.0721  0.5244 -0.9146
 1354SOL     H2 5861   4.240   5.016   3.983  0.3951  2.0684 -0.9152
 1354SOL    EPW 5862   4.205   5.057   4.053  0.0035  0.6631 -0.2454
 1355SOL      O 5863   5.479   2.770   2.576  0.1684  0.0661  0.1446
 1355SOL     H1 5864   5.453   2.859   2.602  1.2560  0.1757  0.9109
 1355SOL     H2 5865   5.421   2.713   2.628 -1.5667  0.2900 -1.4436
 1355SOL    EPW 5866   5.470   2.773   2.585  0.0993  0.1017  0.0569
 1356SOL      O 5867   0.755   4.459   0.285  0.1788 -0.1730 -0.4322
 1356SOL     H1 5868   0.665   4.427   0.293  0.7264 -1.6763  0.0478
 1356SOL     H2 5869   0.750   4.527   0.217 -1.1383 -0.9119 -1.1204
 1356SOL    EPW 5870   0.745   4.463   0.278  0.0967 -0.4122 -0.4544
 1357SOL      O 5871   2.972   5.024   2.400  0.0942  0.7869 -0.2064
 1357SOL     H1 5872   2.906   4.965   2.364 -0.3387  0.1007  1.6056
 1357SOL     H2 5873   3.024   4.970   2.459 -0.4080  2.1886  1.6406
 1357SOL    EPW 5874   2.971   5.012   2.403 -0.0055  0.8632  0.1840
 1358SOL      O 5875   0.102   0.699   1.117 -0.2406  0.7117  0.1699
 1358SOL     H1 5876   0.065   0.762   1.179 -0.2152 -0.8394  1.8263
 1358SOL     H2 5877   0.059   0.617   1.137  3.2032 -0.9701  1.4951
 1358SOL    EPW 5878   0.094   0.697   1.126  0.1295  0.3668  0.4879
 1359SOL      O 5879   4.282   1.603   3.736  0.2706 -0.5195  0.0160
 1359SOL     H1 5880   4.376   1.607   3.721  0.5250 -0.3451  1.4533
 1359SOL     H2 5881   4.273   1.603   3.832 -1.1606 -1.2398 -0.0836
 1359SOL    EPW 5882   4.291   1.603   3.745  0.1451 -0.5777  0.1587
 1360SOL      O 5883   3.515   1.761   1.920  0.4115 -0.7815 -0.8007
 1360SOL     H1 5884   3.606   1.732   1.914  0.4779 -0.7880  0.0992
 1360SOL     H2 5885   3.464   1.690   1.883  0.4916 -2.5248  2.1593
 1360SOL    EPW 5886   3.519   1.751   1.915  0.4271 -0.9682 -0.3890
 1361SOL      O 5887   2.986   2.991   3.275 -0.8144 -0.3675 -0.6400
 1361SOL     H1 5888   2.967   3.071   3.323  0.4144 -0.0937 -0.5755
 1361SOL     H2 5889   2.906   2.971   3.228 -1.1780  0.8251 -0.5454
 1361SOL    EPW 5890   2.976   2.997   3.276 -0.7221 -0.2111 -0.6230
 1362SOL      O 5891   2.016   0.276   3.824 -0.5597 -0.2641  0.4712
 1362SOL     H1 5892   2.043   0.360   3.786 -1.0041  0.6302  2.0445
 1362SOL     H2 5893   2.025   0.213   3.752 -0.9777  1.2644 -0.9835
 1362SOL    EPW 5894   2.020   0.278   3.812 -0.6517 -0.0057  0.4839
 1363SOL      O 5895   0.885   4.205   0.211 -0.4177 -0.3236 -0.4751
 1363SOL     H1 5896   0.858   4.288   0.250 -3.0104 -1.6239  0.7875
 1363SOL     H2 5897   0.979   4.201   0.225 -0.6041  1.2725  1.7568
 1363SOL    EPW 5898   0.892   4.214   0.216 -0.7142 -0.2920 -0.1023
 1364SOL      O 5899   3.216   3.014   0.121  0.1726 -0.1092  0.5320
 1364SOL     H1 5900   3.306   2.994   0.147  0.2460  2.3616  2.5082
 1364SOL     H2 5901   3.171   2.930   0.128  1.8712 -0.9976  1.5533
 1364SOL    EPW 5902   3.221   3.003   0.124  0.3616  0.0596  0.8517
 1365SOL      O 5903   4.639   5.755   1.890  0.3783  1.1893 -0.2555
 1365SOL     H1 5904   4.698   5.687   1.858 -1.1334 -0.8906  1.1065
 1365SOL     H2 5905   4.553   5.730   1.856 -0.1769  2.5984  0.0433
 1365SOL    EPW 5906   4.636   5.745   1.883  0.1578  1.1178 -0.0783
 1366SOL      O 5907   2.122   4.401   0.631  0.3776 -0.1277 -0.0654
 1366SOL     H1 5908   2.111   4.319   0.584 -0.3073  0.3588 -0.7818
 1366SOL     H2 5909   2.124   4.376   0.724  1.3077 -1.0534 -0.3183
 1366SOL    EPW 5910   2.121   4.390   0.636  0.4038 -0.1746 -0.1688
 1367SOL      O 5911   0.556   3.820   4.041 -0.3990  0.8232 -0.4855
 1367SOL     H1 5912   0.508   3.777   4.112  2.3010  1.0466  1.6081
 1367SOL     H2 5913   0.601   3.749   3.996  2.1287  1.0240  1.4768
 1367SOL    EPW 5914   0.555   3.808   4.044  0.1586  0.8684 -0.0528
 1368SOL      O 5915   0.445   2.331   1.859  0.4084  0.0411  0.5023
 1368SOL     H1 5916   0.524   2.356   1.812  0.1200  1.5170  0.7705
 1368SOL     H2 5917   0.391   2.287   1.793  0.6966  0.6335 -0.1326
 1368SOL    EPW 5918   0.447   2.329   1.847  0.4084  0.2617  0.4632
 1369SOL      O 5919   4.037   4.244   1.538 -0.0935  0.4576 -0.0695
 1369SOL     H1 5920   3.957   4.296   1.525 -1.5569 -1.7136 -0.3491
 1369SOL     H2 5921   4.065   4.222   1.450  1.6614  2.2623 -0.0441
 1369SOL    EPW 5922   4.031   4.248   1.527 -0.0624  0.4185 -0.0966
 1370SOL      O 5923   4.791   4.142   1.302  0.2877  0.2801 -0.0976
 1370SOL     H1 5924   4.860   4.079   1.281 -1.5637 -2.3488  1.1758
 1370SOL     H2 5925   4.762   4.118   1.390 -1.4609  2.0561 -0.1143
 1370SOL    EPW 5926   4.796   4.133   1.309 -0.0963  0.1891  0.0364
 1371SOL      O 5927   1.806   5.142   2.567 -0.1010 -0.0674 -0.5017
 1371SOL     H1 5928   1.851   5.222   2.595  0.4438 -0.0881 -1.2839
 1371SOL     H2 5929   1.797   5.090   2.646 -0.1836  0.6327 -0.0411
 1371SOL    EPW 5930   1.810   5.145   2.578 -0.0517  0.0051 -0.5360
 1372SOL      O 5931   4.717   4.250   3.499  0.0551 -0.0930 -0.8905
 1372SOL     H1 5932   4.799   4.297   3.510  0.0207  0.1120 -1.4960
 1372SOL     H2 5933   4.714   4.227   3.406  0.7382 -2.4987 -0.3950
 1372SOL    EPW 5934   4.725   4.252   3.490  0.1243 -0.3278 -0.9022
 1373SOL      O 5935   3.417   1.287   2.799  0.2291  0.2235 -0.2105
 1373SOL     H1 5936   3.348   1.328   2.746  1.3271  2.3639 -0.0694
 1373SOL     H2 5937   3.490   1.275   2.738  1.1978  1.9113  0.5588
 1373SOL    EPW 5938   3.417   1.290   2.787  0.4496  0.6319 -0.1133
 1374SOL      O 5939   0.251   3.030   2.065 -0.4253 -0.2406  0.7323
 1374SOL     H1 5940   0.337   3.069   2.047 -1.0158 -0.4387 -3.4785
 1374SOL     H2 5941   0.189   3.102   2.051 -1.1187 -0.9423  0.1315
 1374SOL    EPW 5942   0.253   3.042   2.061 -0.5623 -0.3366  0.2190
 1375SOL      O 5943   2.741   0.587   2.524 -0.4957 -0.0324 -0.0060
 1375SOL     H1 5944   2.747   0.682   2.524  0.2895 -0.0743 -0.4373
 1375SOL     H2 5945   2.649   0.568   2.544 -0.3308  0.7897  1.7047
 1375SOL    EPW 5946   2.732   0.595   2.526 -0.3943  0.0508  0.1305
 1376SOL      O 5947   2.332   2.079   3.863 -0.4036 -0.3012  0.2874
 1376SOL     H1 5948   2.257   2.019   3.870  0.3745 -1.3384  0.0111
 1376SOL     H2 5949   2.336   2.122   3.949 -1.0934 -0.5032  0.4269
 1376SOL    EPW 5950   2.324   2.077   3.873 -0.3942 -0.4334  0.2728
 1377SOL      O 5951   3.264   3.450   1.889  0.2386  0.2665  0.6653
 1377SOL     H1 5952   3.283   3.463   1.982  0.4767  0.3090  0.6109
 1377SOL     H2 5953   3.221   3.364   1.885 -0.6895  0.7034  0.9385
 1377SOL    EPW 5954   3.261   3.442   1.899  0.1650  0.3176  0.6887
 1378SOL      O 5955   2.783   3.013   3.741  0.4821  0.3395  0.4049
 1378SOL     H1 5956   2.768   3.026   3.834 -0.0291  1.3422  0.1995
 1378SOL     H2 5957   2.872   2.978   3.736  1.6148  2.8464  1.1550
 1378SOL    EPW 5958   2.791   3.011   3.750  0.5484  0.7139  0.4630
 1379SOL      O 5959   0.069   0.463   0.185  0.2219  0.6090  0.5635
 1379SOL     H1 5960  -0.012   0.456   0.236  0.5507 -1.2023  0.9015
 1379SOL     H2 5961   0.119   0.533   0.228 -1.2684  1.9864  0.1457
 1379SOL    EPW 5962   0.066   0.470   0.195  0.0980  0.5627  0.5550
 1380SOL      O 5963   2.899   2.341   3.084  0.9398  0.5845 -0.0388
 1380SOL     H1 5964   2.851   2.393   3.148  0.4712 -0.5863  0.5719
 1380SOL     H2 5965   2.840   2.269   3.062  1.4345  0.4945 -1.1629
 1380SOL    EPW 5966   2.887   2.339   3.088  0.9426  0.4500 -0.0936
 1381SOL      O 5967   2.237   3.359   2.528  0.3000 -0.2528  0.3246
 1381SOL     H1 5968   2.256   3.281   2.476 -1.9415  0.2371 -1.4228
 1381SOL     H2 5969   2.320   3.381   2.570  2.1080 -1.1942 -2.4501
 1381SOL    EPW 5970   2.247   3.353   2.527  0.2538 -0.3010 -0.1578
 1382SOL      O 5971   3.401   4.827   0.432  0.0059  0.6702 -0.1639
 1382SOL     H1 5972   3.320   4.841   0.384 -0.0959  2.4417  0.4407
 1382SOL     H2 5973   3.419   4.911   0.473  0.0087 -0.7283  3.0100
 1382SOL    EPW 5974   3.394   4.837   0.432 -0.0047  0.7100  0.2392
 1383SOL      O 5975   2.115   2.356   0.882  0.2966  0.3115  0.1701
 1383SOL     H1 5976   2.069   2.318   0.808  0.3331  0.8076 -0.1135
 1383SOL     H2 5977   2.049   2.362   0.951  0.0593  0.5582 -0.0751
 1383SOL    EPW 5978   2.103   2.353   0.882  0.2752  0.3908  0.1137
 1384SOL      O 5979   4.242   3.462   3.521 -0.2624  0.3604 -0.2189
 1384SOL     H1 5980   4.211   3.377   3.489 -1.4339  0.3945  0.7780
 1384SOL     H2 5981   4.241   3.454   3.616  1.4535  0.8676 -0.1158
 1384SOL    EPW 5982   4.239   3.452   3.527 -0.2044  0.4181 -0.1016
 1385SOL      O 5983   1.888   0.494   1.804 -0.3128  0.5704  1.1349
 1385SOL     H1 5984   1.951   0.421   1.799 -0.5010  0.4506  0.3736
 1385SOL     H2 5985   1.807   0.458   1.767 -0.7530  0.8132  1.8424
 1385SOL    EPW 5986   1.886   0.482   1.800 -0.3799  0.5835  1.1292
 1386SOL      O 5987   2.465   2.326   2.449 -0.4311 -0.1946  0.4039
 1386SOL     H1 5988   2.507   2.383   2.514  0.4467 -0.7141  0.3110
 1386SOL     H2 5989   2.538   2.278   2.409 -1.1961 -1.8963  0.9680
 1386SOL    EPW 5990   2.477   2.327   2.452 -0.4191 -0.4315  0.4541
 1387SOL      O 5991   2.867   4.304   0.582  0.0364  0.3701 -0.3909
 1387SOL     H1 5992   2.865   4.336   0.492 -0.1384 -0.7766 -0.8130
 1387SOL     H2 5993   2.961   4.296   0.602  0.0752  0.6273 -0.4710
 1387SOL    EPW 5994   2.877   4.306   0.574  0.0219  0.2752 -0.4445
 1388SOL      O 5995   0.643   2.487   0.441  0.4773  0.5899  0.0686
 1388SOL     H1 5996   0.602   2.573   0.434 -2.7615 -0.7583  0.8827
 1388SOL     H2 5997   0.675   2.469   0.353  0.7320  2.3622 -0.2494
 1388SOL    EPW 5998   0.642   2.495   0.431  0.1589  0.6352  0.1215
 1389SOL      O 5999   1.965   3.101   3.695 -0.1320 -0.2653  0.0167
 1389SOL     H1 6000   2.050   3.068   3.666 -0.2132  0.4513 -1.0600
 1389SOL     H2 6001   1.933   3.032   3.754  0.5095 -1.2658 -0.7611
 1389SOL    EPW 6002   1.971   3.090   3.698 -0.0722 -0.2956 -0.1811
 1390SOL      O 6003   3.574   4.142   3.268  0.4018 -0.3212  0.7547
 1390SOL     H1 6004   3.575   4.089   3.188 -1.1132  0.9716 -0.1871
 1390SOL     H2 6005   3.612   4.226   3.241 -2.3444  0.9896  0.6657
 1390SOL    EPW 6006   3.578   4.146   3.256 -0.0528 -0.0434  0.6447
 1391SOL      O 6007   2.369   2.131   0.210 -0.4005  0.3582  0.4241
 1391SOL     H1 6008   2.422   2.182   0.272  0.1312 -0.0390  0.3101
 1391SOL     H2 6009   2.279   2.152   0.233 -0.1986  1.2501  0.4578
 1391SOL    EPW 6010   2.365   2.139   0.219 -0.3222  0.4110  0.4155
 1392SOL      O 6011   2.924   3.579   2.178 -0.6498 -0.0465  0.0930
 1392SOL     H1 6012   2.869   3.611   2.250 -0.1112 -0.6341  0.7875
 1392SOL     H2 6013   3.004   3.631   2.184 -0.0399 -1.0305  0.8143
 1392SOL    EPW 6014   2.927   3.588   2.186 -0.5273 -0.2142  0.2440
 1393SOL      O 6015   3.653   3.092   3.857  0.0666  0.6971 -0.5633
 1393SOL     H1 6016   3.622   3.011   3.816  0.8563 -1.3509  2.5387
 1393SOL     H2 6017   3.748   3.089   3.847  0.2757  0.1648  1.2325
 1393SOL    EPW 6018   3.659   3.083   3.851  0.1731  0.4219 -0.0409
 1394SOL      O 6019   1.784   0.908   3.629 -0.2200 -0.1292  0.3109
 1394SOL     H1 6020   1.809   0.834   3.574  0.1398 -0.0783  0.4023
 1394SOL     H2 6021   1.689   0.901   3.639 -0.1538 -0.7068  0.5182
 1394SOL    EPW 6022   1.777   0.900   3.624 -0.1746 -0.1854  0.3428
 1395SOL      O 6023   5.509   0.933   0.247 -0.5059  0.3044  0.4462
 1395SOL     H1 6024   5.523   0.838   0.253  3.4079  0.8317  2.5545
 1395SOL     H2 6025   5.529   0.954   0.156 -1.5589 -0.8434 -0.0879
 1395SOL    EPW 6026   5.512   0.925   0.238 -0.2007  0.2382  0.6141
 1396SOL      O 6027   5.492   2.984   0.102  0.0267  0.0101 -0.0663
 1396SOL     H1 6028   5.552   2.936   0.159  1.2997  0.4467 -1.0051
 1396SOL     H2 6029   5.409   2.985   0.150  0.6357 -1.0071  1.0479
 1396SOL    EPW 6030   5.490   2.979   0.113  0.2275 -0.0519 -0.0476
 1397SOL      O 6031   2.203   1.346   0.914  0.5613  0.6359 -0.4822
 1397SOL     H1 6032   2.283   1.297   0.895 -0.3531 -0.6265 -1.2538
 1397SOL     H2 6033   2.226   1.400   0.990  2.1535  0.3628 -0.7260
 1397SOL    EPW 6034   2.214   1.346   0.920  0.6336  0.4721 -0.5905
 1398SOL      O 6035   5.544   4.219   1.637  0.3122 -0.2492 -0.8926
 1398SOL     H1 6036   5.543   4.170   1.720 -1.9581  0.1131 -0.6329
 1398SOL     H2 6037   5.470   4.185   1.588 -1.4011  2.8169 -0.7079
 1398SOL    EPW 6038   5.536   4.210   1.641 -0.1128  0.1165 -0.8452
 1399SOL      O 6039   3.761   2.178   1.711 -0.0535  0.1542 -0.1323
 1399SOL     H1 6040   3.842   2.220   1.739  0.0779  0.2336 -0.6153
 1399SOL     H2 6041   3.751   2.104   1.770 -0.9818  1.5758  1.5907
 1399SOL    EPW 6042   3.769   2.175   1.720 -0.1385  0.3143 -0.0000
 1400SOL      O 6043   5.701   5.389   3.783  0.0477  0.2329  0.4773
 1400SOL     H1 6044   5.749   5.468   3.809 -0.2965  0.8975 -0.8163
 1400SOL     H2 6045   5.718   5.327   3.854 -1.5586  2.2001  2.7801
 1400SOL    EPW 6046   5.708   5.391   3.794 -0.1603  0.5137  0.5850
 1401SOL      O 6047   0.836   4.348   2.686 -0.0116  0.3462  0.3001
 1401SOL     H1 6048   0.822   4.308   2.772  1.4604 -1.3700 -0.2031
 1401SOL     H2 6049   0.876   4.279   2.634  1.2688  2.0590 -1.0915
 1401SOL    EPW 6050   0.839   4.336   2.690  0.2820  0.3459  0.0980
 1402SOL      O 6051   1.804   0.064   1.285  0.3534  0.2013 -0.1059
 1402SOL     H1 6052   1.814   0.093   1.195  1.3450 -0.9322 -0.3878
 1402SOL     H2 6053   1.749  -0.014   1.280 -1.3009  1.2599  0.5186
 1402SOL    EPW 6054   1.799   0.059   1.275  0.2827  0.1933 -0.0693
 1403SOL      O 6055   5.093   4.312   3.241 -0.2877 -0.4580  0.2439
 1403SOL     H1 6056   5.061   4.277   3.157 -0.7364  1.6314 -0.5116
 1403SOL     H2 6057   5.017   4.355   3.280  0.3144 -0.0204  0.9603
 1403SOL    EPW 6058   5.081   4.313   3.236 -0.2713 -0.1884  0.2398
 1404SOL      O 6059   4.352   3.304   4.022  0.1626  0.2681 -0.2019
 1404SOL     H1 6060   4.438   3.320   3.983  0.9545 -1.3351  0.7441
 1404SOL     H2 6061   4.367   3.231   4.082 -1.8511  0.0312  0.0813
 1404SOL    EPW 6062   4.363   3.298   4.024  0.0322  0.0718 -0.0708
 1405SOL      O 6063   2.319   3.086   0.049  0.4917 -0.4570 -0.6293
 1405SOL     H1 6064   2.406   3.049   0.062 -0.2235 -2.0387 -0.1780
 1405SOL     H2 6065   2.326   3.134  -0.034  2.3888  1.3992  0.4908
 1405SOL    EPW 6066   2.329   3.087   0.042  0.6177 -0.4277 -0.4616
 1406SOL      O 6067   1.635   4.339   2.619 -0.1279  0.2418  0.1206
 1406SOL     H1 6068   1.699   4.292   2.566 -1.5087 -2.8837  1.0085
 1406SOL     H2 6069   1.551   4.320   2.577 -0.7075  3.2298 -0.3140
 1406SOL    EPW 6070   1.633   4.332   2.609 -0.3370  0.2271  0.1689
 1407SOL      O 6071   3.863   5.054   3.016  0.0016 -0.2712 -0.0531
 1407SOL     H1 6072   3.945   5.022   2.977 -0.4159 -0.2865 -0.9406
 1407SOL     H2 6073   3.889   5.088   3.101  0.5760 -2.3641  0.6791
 1407SOL    EPW 6074   3.875   5.054   3.021  0.0184 -0.4961 -0.0696
 1408SOL      O 6075   4.946   4.347   1.178  0.0724  0.0947 -0.4257
 1408SOL     H1 6076   4.996   4.407   1.123  0.6715 -1.5772 -1.7896
 1408SOL     H2 6077   5.002   4.269   1.185 -1.1949 -0.7828  0.2839
 1408SOL    EPW 6078   4.958   4.345   1.173  0.0011 -0.1773 -0.4955
 1409SOL      O 6079   2.263   2.035   1.232 -0.3775  0.6977 -0.2531
 1409SOL     H1 6080   2.325   2.042   1.159 -0.3880  1.7989 -0.1782
 1409SOL     H2 6081   2.315   1.997   1.303  0.3530  1.9389 -0.0765
 1409SOL    EPW 6082   2.275   2.032   1.232 -0.3007  0.9475 -0.2263
 1410SOL      O 6083   0.494   3.292   2.578  0.1054 -0.2665  0.0564
 1410SOL     H1 6084   0.526   3.366   2.630  0.0597  0.5877 -1.0944
 1410SOL     H2 6085   0.480   3.222   2.642 -1.0645  1.0971  1.3703
 1410SOL    EPW 6086   0.496   3.292   2.591 -0.0243 -0.0299  0.0738
 1411SOL      O 6087   0.456   2.169   0.221  0.4318 -0.2845 -0.0956
 1411SOL     H1 6088   0.399   2.096   0.201 -1.2329  0.9568 -0.0534
 1411SOL     H2 6089   0.535   2.152   0.170 -0.1669 -1.7560 -0.5839
 1411SOL    EPW 6090   0.459   2.160   0.213  0.1904 -0.3090 -0.1432
 1412SOL      O 6091   4.624   3.835   4.106 -0.1445 -0.4206 -0.0402
 1412SOL     H1 6092   4.717   3.836   4.083 -0.3547  1.6518 -1.0616
 1412SOL     H2 6093   4.584   3.777   4.041  0.2171  0.0393 -0.6902
 1412SOL    EPW 6094   4.629   3.829   4.096 -0.1283 -0.1505 -0.2185
 1413SOL      O 6095   0.521   0.734   2.251  0.0273 -0.3415  0.3427
 1413SOL     H1 6096   0.578   0.662   2.224 -0.8189 -0.0782 -2.4652
 1413SOL     H2 6097   0.580   0.809   2.262  0.7559 -1.1146  2.1855
 1413SOL    EPW 6098   0.533   0.735   2.249  0.0147 -0.3959  0.2397
 1414SOL      O 6099   5.270   0.041   0.242  0.0126 -0.2773 -0.4383
 1414SOL     H1 6100   5.311   0.007   0.163  0.4493  0.2274 -0.4328
 1414SOL     H2 6101   5.203   0.102   0.210 -1.2988 -1.6751 -0.4731
 1414SOL    EPW 6102   5.267   0.044   0.230 -0.0807 -0.3725 -0.4415
 1415SOL      O 6103   4.302   0.651   3.675  0.8821  0.5051 -0.1367
 1415SOL     H1 6104   4.322   0.671   3.766  0.7183 -0.7865  0.1880
 1415SOL     H2 6105   4.366   0.703   3.625  2.4098 -0.4242  0.7682
 1415SOL    EPW 6106   4.311   0.659   3.679  1.0276  0.2682 -0.0055
 1416SOL      O 6107   1.257   0.718   4.007 -0.5467 -0.1611 -0.1836
 1416SOL     H1 6108   1.290   0.641   3.961  3.0735  1.2203 -0.2357
 1416SOL     H2 6109   1.205   0.682   4.078  1.3824 -2.7565  0.0864
 1416SOL    EPW 6110   1.255   0.706   4.010  0.0453 -0.2906 -0.1604
 1417SOL      O 6111   4.529   5.409   3.936  0.0096 -0.4195  0.8129
 1417SOL     H1 6112   4.505   5.316   3.935  0.2448 -0.4806  0.8452
 1417SOL     H2 6113   4.522   5.436   3.844  2.2287 -1.0629  0.3882
 1417SOL    EPW 6114   4.526   5.402   3.926  0.2714 -0.4946  0.7710
 1418SOL      O 6115   2.272   0.982   4.150 -0.5975  0.7540 -0.5160
 1418SOL     H1 6116   2.269   0.924   4.075  0.4687  0.9024 -0.6813
 1418SOL     H2 6117   2.364   0.986   4.175 -0.7890  1.5493  0.1353
 1418SOL    EPW 6118   2.281   0.976   4.145 -0.5042  0.8547 -0.4642
 1419SOL      O 6119   2.768   5.244   2.274  0.2470 -0.1366 -0.0771
 1419SOL     H1 6120   2.791   5.163   2.227  0.2399 -0.3045  0.2077
 1419SOL     H2 6121   2.818   5.240   2.355  1.7594  1.0811 -0.8970
 1419SOL    EPW 6122   2.776   5.235   2.278  0.4076 -0.0247 -0.1342
 1420SOL      O 6123   3.661   0.501   2.911 -0.5097 -0.5649  0.2119
 1420SOL     H1 6124   3.630   0.490   2.821  0.2990  0.7164 -0.2446
 1420SOL     H2 6125   3.743   0.549   2.903  0.0237 -1.1699  1.5951
 1420SOL    EPW 6126   3.666   0.505   2.901 -0.3665 -0.4927  0.3107
 1421SOL      O 6127   3.087   3.280   3.704 -0.1213 -0.3998 -0.6056
 1421SOL     H1 6128   3.119   3.369   3.686 -0.3775 -0.3956 -1.0586
 1421SOL     H2 6129   3.045   3.253   3.622 -2.5312  0.1287  0.3536
 1421SOL    EPW 6130   3.086   3.287   3.693 -0.4057 -0.3430 -0.5516
 1422SOL      O 6131   2.831   4.477   1.287  0.6134  0.0135  0.1360
 1422SOL     H1 6132   2.888   4.458   1.213  0.1464  1.3668 -0.5930
 1422SOL     H2 6133   2.877   4.440   1.362  1.2248 -1.1482 -0.7724
 1422SOL    EPW 6134   2.842   4.471   1.287  0.6288  0.0339 -0.0387
 1423SOL      O 6135   1.160   4.715   0.309  0.2104  0.1454 -0.5955
 1423SOL     H1 6136   1.156   4.680   0.399  0.7779 -2.1462 -1.3730
 1423SOL     H2 6137   1.080   4.765   0.299  1.2670  2.6378  1.9670
 1423SOL    EPW 6138   1.151   4.716   0.318  0.3837  0.1668 -0.4051
 1424SOL      O 6139   5.053   3.636   3.508  0.0562 -0.0504 -0.1837
 1424SOL     H1 6140   5.071   3.549   3.472  0.0042 -0.5674  1.0115
 1424SOL     H2 6141   5.016   3.619   3.594 -0.8076  1.1429 -0.2916
 1424SOL    EPW 6142   5.051   3.625   3.513 -0.0415  0.0217 -0.0677
 1425SOL      O 6143   2.424   5.633   3.557 -0.0446  0.0421  0.2754
 1425SOL     H1 6144   2.413   5.686   3.478  1.0021  4.0027  2.5392
 1425SOL     H2 6145   2.517   5.612   3.559 -0.2246 -0.8255  0.0767
 1425SOL    EPW 6146   2.433   5.636   3.549  0.0479  0.3720  0.4957
 1426SOL      O 6147   3.564   4.802   4.102 -0.1645  0.2739 -0.0748
 1426SOL     H1 6148   3.495   4.753   4.057 -1.7472  2.2487  0.0657
 1426SOL     H2 6149   3.544   4.791   4.195 -1.2532  2.0297 -0.0498
 1426SOL    EPW 6150   3.554   4.796   4.107 -0.4495  0.6719 -0.0572
 1427SOL      O 6151   2.046   5.352   2.954 -0.5257  0.3110  0.4221
 1427SOL     H1 6152   2.134   5.348   2.916 -1.1272 -0.1792 -0.9830
 1427SOL     H2 6153   2.054   5.415   3.026  0.5011  1.9093 -1.0133
 1427SOL    EPW 6154   2.057   5.359   2.958 -0.4804  0.4292  0.1191
 1428SOL      O 6155   2.702   2.695   0.018 -0.3135  0.1545  0.4335
 1428SOL     H1 6156   2.612   2.715   0.045 -0.0245  2.3500 -0.0172
 1428SOL     H2 6157   2.711   2.735  -0.068  0.9328 -0.5283  0.2172
 1428SOL    EPW 6158   2.694   2.701   0.012 -0.1497  0.3159  0.3624
 1429SOL      O 6159   2.778   0.920   1.657 -0.4552  0.5057 -0.6088
 1429SOL     H1 6160   2.835   0.859   1.704 -0.9955  0.7450  0.3779
 1429SOL     H2 6161   2.839   0.978   1.611  0.0716 -0.1880 -0.8029
 1429SOL    EPW 6162   2.791   0.920   1.657 -0.4566  0.4573 -0.5243
 1430SOL      O 6163   5.302   0.285   1.371  0.0797  0.3977  0.2882
 1430SOL     H1 6164   5.210   0.261   1.379  0.1453 -0.4708 -1.1298
 1430SOL     H2 6165   5.338   0.274   1.459 -0.3319 -3.0005  0.1766
 1430SOL    EPW 6166   5.296   0.281   1.381  0.0428 -0.0575  0.1251
 1431SOL      O 6167   2.280   1.886   1.553  0.1979 -0.6781 -0.5087
 1431SOL     H1 6168   2.336   1.930   1.616  0.0242  0.3883 -1.0816
 1431SOL     H2 6169   2.198   1.934   1.555  0.8820  0.8080 -3.0706
 1431SOL    EPW 6170   2.277   1.895   1.560  0.2523 -0.4058 -0.8431
 1432SOL      O 6171   1.828   2.857   0.330  0.4843  0.3655 -0.2161
 1432SOL     H1 6172   1.811   2.863   0.424  0.1706 -1.8104 -0.0660
 1432SOL     H2 6173   1.827   2.763   0.312  2.3724  0.6205 -2.0791
 1432SOL    EPW 6174   1.826   2.847   0.338  0.6522  0.1606 -0.3988
 1433SOL      O 6175   0.653   5.726   0.906 -0.0458  0.1751 -0.1849
 1433SOL     H1 6176   0.670   5.715   0.813 -1.1940  0.7478 -0.4823
 1433SOL     H2 6177   0.603   5.648   0.930  0.9416 -0.3664  0.1473
 1433SOL    EPW 6178   0.649   5.716   0.899 -0.0630  0.1785 -0.1812
 1434SOL      O 6179   3.613   3.930   2.633 -0.0992  0.2164 -0.2069
 1434SOL     H1 6180   3.653   3.859   2.684  0.5401  0.2124 -0.7060
 1434SOL     H2 6181   3.684   3.992   2.619 -1.0307  1.8066  1.6538
 1434SOL    EPW 6182   3.625   3.929   2.637 -0.1304  0.3856 -0.0616
 1435SOL      O 6183   0.722   5.209   0.935  0.5592  0.7822  0.0786
 1435SOL     H1 6184   0.787   5.254   0.989  1.9415 -2.6299  1.5138
 1435SOL     H2 6185   0.664   5.165   0.997 -0.2180 -0.1056 -1.2129
 1435SOL    EPW 6186   0.722   5.210   0.947  0.6237  0.3235  0.0940
 1436SOL      O 6187   1.831   5.258   0.616 -0.3157  0.2957 -0.1746
 1436SOL     H1 6188   1.812   5.225   0.528 -2.0202  1.3798 -0.2522
 1436SOL     H2 6189   1.871   5.183   0.661 -0.9066 -0.7798 -1.3678
 1436SOL    EPW 6190   1.833   5.247   0.611 -0.5606  0.2966 -0.3101
 1437SOL      O 6191   1.135   0.511   0.724  0.0247  0.5716 -0.1147
 1437SOL     H1 6192   1.098   0.426   0.700 -0.7063  0.1004  2.3726
 1437SOL     H2 6193   1.170   0.546   0.642  1.5867 -2.7077 -1.0059
 1437SOL    EPW 6194   1.135   0.505   0.713  0.1134  0.1715  0.0556
 1438SOL      O 6195   4.996   2.881   0.845  0.0360  0.2363  0.2246
 1438SOL     H1 6196   4.910   2.845   0.867  0.0483 -0.2970 -0.5813
 1438SOL     H2 6197   5.040   2.891   0.930  0.0766 -1.7307  0.4790
 1438SOL    EPW 6198   4.991   2.878   0.857  0.0416 -0.0304  0.1657
 1439SOL      O 6199   2.254   3.547   3.966  0.1542  0.4330 -0.0265
 1439SOL     H1 6200   2.285   3.591   4.045 -2.4318  0.7129  0.9339
 1439SOL     H2 6201   2.316   3.572   3.898  0.9590  2.3680  1.3406
 1439SOL    EPW 6202   2.264   3.554   3.967 -0.0358  0.6692  0.2218
 1440SOL      O 6203   4.243   0.846   3.001  0.3496 -0.5787  0.4935
 1440SOL     H1 6204   4.328   0.823   3.037 -0.4274 -2.1849  1.3930
 1440SOL     H2 6205   4.253   0.831   2.907  0.4041 -3.1171  0.8454
 1440SOL    EPW 6206   4.253   0.842   2.994  0.2725 -1.0209  0.6270
 1441SOL      O 6207   1.647   3.797   1.007  0.2692 -0.0163 -0.2109
 1441SOL     H1 6208   1.693   3.851   0.943  1.6987 -2.0832 -1.0330
 1441SOL     H2 6209   1.700   3.802   1.086  0.1425  0.1650 -0.1377
 1441SOL    EPW 6210   1.657   3.803   1.008  0.4082 -0.2175 -0.2908
 1442SOL      O 6211   3.111   3.603   3.588 -0.2658  0.0224  0.4510
 1442SOL     H1 6212   3.100   3.633   3.678 -0.3234 -1.0113  0.8002
 1442SOL     H2 6213   3.028   3.561   3.566  1.1726 -3.8573  1.5594
 1442SOL    EPW 6214   3.101   3.602   3.595 -0.1185 -0.5017  0.6065
 1443SOL      O 6215   4.082   4.039   2.186  0.0488 -0.0412 -0.1380
 1443SOL     H1 6216   4.162   4.053   2.237 -0.6677  2.0616  0.5247
 1443SOL     H2 6217   4.011   4.040   2.251 -0.5542 -2.0221 -0.6902
 1443SOL    EPW 6218   4.083   4.041   2.198 -0.0920 -0.0282 -0.1262
 1444SOL      O 6219   2.508   1.949   1.365 -0.1778  0.0565 -0.6738
 1444SOL     H1 6220   2.565   1.930   1.291  1.8441 -1.0822  1.0680
 1444SOL     H2 6221   2.456   1.870   1.377 -0.3044  0.1353 -0.7012
 1444SOL    EPW 6222   2.509   1.939   1.358  0.0244 -0.0566 -0.4909
 1445SOL      O 6223   3.672   1.029   1.552  0.6310 -0.5346 -0.1438
 1445SOL     H1 6224   3.647   1.108   1.504 -1.5633 -1.0455  0.0380
 1445SOL     H2 6225   3.754   1.053   1.595 -0.0141  1.7139  0.0118
 1445SOL    EPW 6226   3.678   1.040   1.552  0.3281 -0.3492 -0.1078
 1446SOL      O 6227   5.302   1.171   3.250 -0.0837 -0.4239  0.3892
 1446SOL     H1 6228   5.297   1.220   3.167 -0.5372  2.3433  1.9186
 1446SOL     H2 6229   5.298   1.079   3.224 -1.6693  0.3556 -2.5727
 1446SOL    EPW 6230   5.301   1.166   3.238 -0.3012 -0.0455  0.2364
 1447SOL      O 6231   5.365   4.235   4.153  0.3955  0.2471  0.3482
 1447SOL     H1 6232   5.271   4.237   4.138  0.4247  1.3122  0.2210
 1447SOL     H2 6233   5.398   4.168   4.093 -0.1324  0.7670 -0.5358
 1447SOL    EPW 6234   5.359   4.228   4.145  0.3423  0.4162  0.2404
 1448SOL      O 6235   1.759   4.533   0.435  0.2524 -0.1866  0.2877
 1448SOL     H1 6236   1.822   4.602   0.414  0.9781 -0.4201  1.5942
 1448SOL     H2 6237   1.744   4.543   0.529 -0.5684 -1.0486  0.2559
 1448SOL    EPW 6238   1.764   4.542   0.443  0.2423 -0.3035  0.4237
 1449SOL      O 6239   1.605   0.592   3.687  0.0488  0.0360  0.3361
 1449SOL     H1 6240   1.525   0.643   3.673  1.3689  2.2128  0.1001
 1449SOL     H2 6241   1.617   0.591   3.782  0.8657  1.7003  0.2904
 1449SOL    EPW 6242   1.598   0.597   3.695  0.2768  0.4457  0.3060
 1450SOL      O 6243   1.965   5.344   3.722  0.4892  0.3257 -0.1749
 1450SOL     H1 6244   1.873   5.322   3.709  0.1772  0.6257  1.3855
 1450SOL     H2 6245   1.967   5.440   3.722  0.6950  0.3269  0.4231
 1450SOL    EPW 6246   1.956   5.352   3.720  0.4779  0.3578  0.0554
 1451SOL      O 6247   2.388   1.383   2.043 -0.2771 -0.0557 -0.2479
 1451SOL     H1 6248   2.396   1.470   2.005  3.5605  0.3026  0.9755
 1451SOL     H2 6249   2.382   1.398   2.137 -0.4615 -1.1015 -0.0803
 1451SOL    EPW 6250   2.388   1.394   2.049  0.1126 -0.1290 -0.0996
 1452SOL      O 6251   3.893   4.494   3.393  0.2219  0.3383 -0.6878
 1452SOL     H1 6252   3.869   4.578   3.355  0.0486  0.6414  0.0791
 1452SOL     H2 6253   3.919   4.514   3.482 -0.7281 -0.5378 -0.1926
 1452SOL    EPW 6254   3.893   4.505   3.398  0.1021  0.2772 -0.5532
 1453SOL      O 6255   2.270   1.138   1.981  0.1247 -0.4778 -0.0646
 1453SOL     H1 6256   2.287   1.233   1.983 -0.3795 -0.3652 -0.7851
 1453SOL     H2 6257   2.254   1.115   2.072 -0.0143  0.1870  0.0870
 1453SOL    EPW 6258   2.270   1.146   1.991  0.0561 -0.3949 -0.1253
 1454SOL      O 6259   0.375   4.523   2.787 -0.1869  0.2662  0.3476
 1454SOL     H1 6260   0.350   4.609   2.754 -0.8479  0.9109  2.3766
 1454SOL     H2 6261   0.471   4.524   2.786 -0.1583  0.0222 -1.9949
 1454SOL    EPW 6262   0.382   4.532   2.784 -0.2544  0.3090  0.3141
 1455SOL      O 6263   4.394   3.663   0.815  0.0648 -0.2110  0.1156
 1455SOL     H1 6264   4.370   3.649   0.907 -0.3606  0.4771  0.1191
 1455SOL     H2 6265   4.464   3.728   0.818 -1.3476  1.3720 -0.1356
 1455SOL    EPW 6266   4.399   3.668   0.825 -0.1312  0.0313  0.0892
 1456SOL      O 6267   3.448   5.760   2.578 -0.1648 -0.1895 -0.3860
 1456SOL     H1 6268   3.507   5.825   2.615 -0.0342  0.0909 -1.0756
 1456SOL     H2 6269   3.507   5.696   2.537 -0.2889 -0.7777  0.3324
 1456SOL    EPW 6270   3.461   5.760   2.578 -0.1641 -0.2223 -0.3829
 1457SOL      O 6271   1.180   2.627   2.900 -0.8726  0.4579  0.5891
 1457SOL     H1 6272   1.127   2.685   2.955 -0.1815  1.0624  0.6343
 1457SOL     H2 6273   1.203   2.554   2.958 -0.8097  0.6968  0.8651
 1457SOL    EPW 6274   1.177   2.625   2.912 -0.7922  0.5479  0.6233
 1458SOL      O 6275   3.762   5.350   0.464 -0.3942  0.2225  0.3730
 1458SOL     H1 6276   3.711   5.417   0.418 -1.8367  0.0954  1.7304
 1458SOL     H2 6277   3.721   5.343   0.550 -0.3453 -2.4471  0.2735
 1458SOL    EPW 6278   3.752   5.356   0.468 -0.5429 -0.0758  0.5072
 1459SOL      O 6279   4.674   1.216   1.604  0.1170  0.1677  0.1002
 1459SOL     H1 6280   4.600   1.263   1.565  0.1595 -1.7816 -2.6848
 1459SOL     H2 6281   4.637   1.170   1.679 -1.0683  0.6290 -0.1845
 1459SOL    EPW 6282   4.662   1.216   1.608 -0.0049  0.0089 -0.2272
 1460SOL      O 6283   4.531   1.433   1.228  0.1617 -0.0591  0.1335
 1460SOL     H1 6284   4.492   1.492   1.164 -0.0431 -1.4048 -1.0135
 1460SOL     H2 6285   4.624   1.455   1.228  0.5146 -1.2840 -2.0695
 1460SOL    EPW 6286   4.537   1.442   1.222  0.1775 -0.3333 -0.2239
 1461SOL      O 6287   3.151   4.105   0.406 -0.3779 -0.2186  0.4150
 1461SOL     H1 6288   3.150   4.043   0.479 -0.0789 -0.5159  0.1700
 1461SOL     H2 6289   3.158   4.191   0.447  1.1750 -0.4617  0.6966
 1461SOL    EPW 6290   3.151   4.107   0.418 -0.1804 -0.2763  0.4189
 1462SOL      O 6291   4.929   3.824   2.995 -0.4648  0.0900 -0.3446
 1462SOL     H1 6292   4.967   3.814   2.907  1.2590  1.9857  0.1049
 1462SOL     H2 6293   4.931   3.736   3.032 -0.3223 -0.5718 -1.8359
 1462SOL    EPW 6294   4.933   3.813   2.990 -0.2657  0.2216 -0.4557
 1463SOL      O 6295   2.433   2.063   2.870 -0.1008 -0.0012 -0.4252
 1463SOL     H1 6296   2.499   2.124   2.839 -0.1670  0.6896  0.7294
 1463SOL     H2 6297   2.429   2.078   2.965 -0.9313 -0.9963 -0.2798
 1463SOL    EPW 6298   2.440   2.071   2.877 -0.1964 -0.0337 -0.2865
 1464SOL      O 6299   3.953   1.895   1.134 -0.1024 -0.6498 -0.3522
 1464SOL     H1 6300   3.903   1.968   1.170  1.6219 -0.0557  0.9493
 1464SOL     H2 6301   3.917   1.818   1.178  0.1445 -0.2241  0.6313
 1464SOL    EPW 6302   3.944   1.895   1.143  0.1079 -0.5410 -0.1084
 1465SOL      O 6303   1.230   4.675   0.586  0.1763 -0.3789  0.0010
 1465SOL     H1 6304   1.223   4.753   0.642  0.2525 -0.9670  0.8540
 1465SOL     H2 6305   1.324   4.658   0.580  0.2053  0.0569 -0.8488
 1465SOL    EPW 6306   1.239   4.681   0.591  0.1875 -0.3951  0.0013
 1466SOL      O 6307   4.769   5.352   2.613 -0.5136 -0.0811  0.4512
 1466SOL     H1 6308   4.863   5.340   2.626 -0.9003 -2.7895  1.3758
 1466SOL     H2 6309   4.728   5.288   2.671 -2.9508  0.9094 -0.0345
 1466SOL    EPW 6310   4.775   5.344   2.620 -0.8149 -0.2644  0.4980
 1467SOL      O 6311   1.467   3.406   0.605  0.0586  0.1878 -0.3582
 1467SOL     H1 6312   1.401   3.447   0.550  1.4107  0.7180 -1.6412
 1467SOL     H2 6313   1.471   3.315   0.574  0.9670  0.5379 -1.3305
 1467SOL    EPW 6314   1.461   3.401   0.596  0.2997  0.2817 -0.5988
 1468SOL      O 6315   0.575   5.225   0.648  0.2498 -0.2601  0.7592
 1468SOL     H1 6316   0.586   5.230   0.553 -0.5406  1.1202  0.7073
 1468SOL     H2 6317   0.660   5.199   0.682 -0.2521 -4.1027 -0.5222
 1468SOL    EPW 6318   0.585   5.223   0.642  0.1119 -0.5228  0.6170
 1469SOL      O 6319   4.260   5.651   0.235 -0.0182 -0.3636  0.0704
 1469SOL     H1 6320   4.320   5.586   0.199  1.4800  0.6727  0.5564
 1469SOL     H2 6321   4.239   5.707   0.161 -0.1795 -0.5865 -0.0520
 1469SOL    EPW 6322   4.265   5.650   0.224  0.1244 -0.2768  0.1092
 1470SOL      O 6323   5.431   1.123   0.853 -0.3937  0.0566 -0.5669
 1470SOL     H1 6324   5.346   1.123   0.809  0.1391 -0.3592 -1.6178
 1470SOL     H2 6325   5.472   1.205   0.825 -0.5291  0.3865  0.1489
 1470SOL    EPW 6326   5.426   1.132   0.846 -0.3513  0.0474 -0.6026
 1471SOL      O 6327   1.178   4.172   2.760 -0.4791  0.5259  0.0982
 1471SOL     H1 6328   1.196   4.253   2.807  0.8256  0.5655 -0.4401
 1471SOL     H2 6329   1.221   4.104   2.812  0.0660  0.4325 -0.4729
 1471SOL    EPW 6330   1.184   4.173   2.771 -0.2817  0.5201 -0.0202
 1472SOL      O 6331   3.385   1.773   1.459 -0.1062  0.3977 -0.4842
 1472SOL     H1 6332   3.295   1.748   1.437 -0.6426  1.3757  0.5005
 1472SOL     H2 6333   3.382   1.868   1.468  1.2018  0.5261 -1.1316
 1472SOL    EPW 6334   3.375   1.780   1.457 -0.0239  0.5157 -0.4482
 1473SOL      O 6335   2.872   5.123   0.687  0.0962  0.5059  0.2128
 1473SOL     H1 6336   2.964   5.147   0.677  0.9098 -1.6853  1.7506
 1473SOL     H2 6337   2.859   5.116   0.781 -1.3179 -0.3616 -0.0238
 1473SOL    EPW 6338   2.880   5.125   0.696  0.0321  0.1796  0.3516
 1474SOL      O 6339   5.740   5.822   1.277  0.7499  0.0064  0.2385
 1474SOL     H1 6340   5.780   5.736   1.260  1.8033  0.4976  0.1487
 1474SOL     H2 6341   5.746   5.868   1.194 -2.3983 -0.7811 -0.5558
 1474SOL    EPW 6342   5.745   5.818   1.266  0.5265 -0.0252  0.1442
 1475SOL      O 6343   3.121   0.212   3.990 -0.8322 -0.7030 -0.5688
 1475SOL     H1 6344   3.200   0.158   3.994  0.1197  0.6468 -0.1574
 1475SOL     H2 6345   3.064   0.176   4.057  0.6323  0.0162  1.1700
 1475SOL    EPW 6346   3.124   0.202   3.998 -0.5744 -0.4823 -0.3395
 1476SOL      O 6347   1.499   2.716   3.872  0.2817  0.7462  0.4358
 1476SOL     H1 6348   1.462   2.800   3.900 -0.7288  0.2226  0.7340
 1476SOL     H2 6349   1.512   2.667   3.953 -1.0376 -0.1287  0.1506
 1476SOL    EPW 6350   1.496   2.720   3.884  0.0332  0.5970  0.4372
 1477SOL      O 6351   0.555   0.815   1.381  0.0111 -0.4291 -0.8101
 1477SOL     H1 6352   0.469   0.772   1.384 -0.9656  1.4465 -0.5112
 1477SOL     H2 6353   0.548   0.887   1.444  2.0588 -0.6506 -0.2769
 1477SOL    EPW 6354   0.545   0.818   1.388  0.1254 -0.2527 -0.7213
 1478SOL      O 6355   5.070   0.698   0.654  0.0576 -0.0995 -0.2556
 1478SOL     H1 6356   5.009   0.726   0.586  0.7015  0.9141 -0.4340
 1478SOL     H2 6357   5.015   0.661   0.723 -0.7283  0.4856 -0.5598
 1478SOL    EPW 6358   5.058   0.697   0.654  0.0425  0.0711 -0.3071
 1479SOL      O 6359   2.305   1.326   3.736 -0.4482  0.5212  0.2335
 1479SOL     H1 6360   2.348   1.247   3.705 -2.3081 -0.2638 -0.4738
 1479SOL     H2 6361   2.316   1.323   3.831  0.9496  0.3209  0.0870
 1479SOL    EPW 6362   2.311   1.317   3.743 -0.4975  0.4161  0.1424
 1480SOL      O 6363   5.776   4.739   0.995 -0.3598 -0.3434  0.1376
 1480SOL     H1 6364   5.822   4.816   1.028  0.2053 -0.7930  0.4156
 1480SOL     H2 6365   5.719   4.773   0.925 -0.8869  0.4752  0.9432
 1480SOL    EPW 6366   5.775   4.751   0.991 -0.3557 -0.3040  0.2532
 1481SOL      O 6367   5.014   4.297   1.636 -0.0148  0.1027  1.0714
 1481SOL     H1 6368   4.998   4.349   1.714 -0.9642 -0.5992  1.3680
 1481SOL     H2 6369   5.103   4.321   1.609  0.3747  0.2863  2.4226
 1481SOL    EPW 6370   5.022   4.305   1.641 -0.0745  0.0474  1.2472
 1482SOL      O 6371   0.540   2.857   2.969  0.1466 -0.0549 -0.2292
 1482SOL     H1 6372   0.623   2.823   2.935 -0.4322 -2.3250  0.4664
 1482SOL     H2 6373   0.559   2.877   3.060  0.0482 -0.0803 -0.2042
 1482SOL    EPW 6374   0.551   2.855   2.975  0.0743 -0.2998 -0.1523
 1483SOL      O 6375   5.555   5.672   2.395 -0.9419  0.3627  0.2338
 1483SOL     H1 6376   5.585   5.745   2.450 -1.1515 -0.3277  1.2742
 1483SOL     H2 6377   5.499   5.620   2.452 -0.1830 -1.0496 -0.2596
 1483SOL    EPW 6378   5.553   5.675   2.407 -0.8833  0.1384  0.2921
 1484SOL      O 6379   0.712   3.782   0.163  0.1941  0.0175 -0.2989
 1484SOL     H1 6380   0.755   3.702   0.193 -1.8989 -1.2936 -0.6201
 1484SOL     H2 6381   0.656   3.808   0.236  0.0485  0.5903 -0.6097
 1484SOL    EPW 6382   0.711   3.776   0.174 -0.0447 -0.0613 -0.3663
 1485SOL      O 6383   0.182   3.252   1.740 -0.6196 -0.2556 -0.4261
 1485SOL     H1 6384   0.184   3.188   1.670  1.6423  0.3061 -0.9541
 1485SOL     H2 6385   0.167   3.201   1.820  0.3739 -1.3392 -0.9225
 1485SOL    EPW 6386   0.180   3.240   1.741 -0.2723 -0.3113 -0.5353
 1486SOL      O 6387   2.379   3.482   2.063 -0.0092 -0.8736  0.5716
 1486SOL     H1 6388   2.389   3.421   1.989  1.2450  0.2492 -0.2406
 1486SOL     H2 6389   2.306   3.539   2.037  0.2440 -0.6625  0.3077
 1486SOL    EPW 6390   2.372   3.482   2.052  0.1516 -0.7313  0.4568
 1487SOL      O 6391   0.530   3.932   3.223  0.4637  0.7133 -0.3072
 1487SOL     H1 6392   0.607   3.948   3.278  0.2923 -0.3895  0.2778
 1487SOL     H2 6393   0.464   3.994   3.256  0.9856  1.4100 -0.5729
 1487SOL    EPW 6394   0.531   3.940   3.233  0.5011  0.6700 -0.2731
 1488SOL      O 6395   4.965   5.158   0.865  1.0467  0.1387 -1.0436
 1488SOL     H1 6396   5.005   5.226   0.919 -0.6782  1.1900 -1.0317
 1488SOL     H2 6397   5.040   5.113   0.825  2.2865  0.7889  0.4251
 1488SOL    EPW 6398   4.977   5.160   0.867  0.9950  0.3202 -0.8857
 1489SOL      O 6399   0.076   0.662   2.535  0.9278 -0.6847  0.1041
 1489SOL     H1 6400   0.163   0.663   2.495  1.8366  1.2951  1.9199
 1489SOL     H2 6401   0.038   0.747   2.512  0.9192 -0.0809  2.1579
 1489SOL    EPW 6402   0.081   0.671   2.528  1.0238 -0.4091  0.5169
 1490SOL      O 6403   3.819   1.690   1.276  0.4915  0.2359  0.7273
 1490SOL     H1 6404   3.777   1.688   1.363 -0.7174  1.8881  0.2224
 1490SOL     H2 6405   3.800   1.603   1.239  0.4855 -0.2661  1.8651
 1490SOL    EPW 6406   3.813   1.680   1.282  0.3619  0.3586  0.7948
 1491SOL      O 6407   1.227   2.652   1.700 -0.7189  0.2654 -0.5398
 1491SOL     H1 6408   1.160   2.694   1.646 -0.4608  0.2180 -0.9043
 1491SOL     H2 6409   1.304   2.647   1.642 -0.5862 -0.2195 -0.3221
 1491SOL    EPW 6410   1.228   2.656   1.688 -0.6772  0.2086 -0.5555
 1492SOL      O 6411   0.091   4.692   0.783  0.3668  0.3005 -0.0127
 1492SOL     H1 6412   0.016   4.693   0.842  0.3594 -2.0546  0.1299
 1492SOL     H2 6413   0.165   4.668   0.839  0.3071 -2.2840 -0.9062
 1492SOL    EPW 6414   0.091   4.689   0.795  0.3597 -0.2265 -0.0928
 1493SOL      O 6415   4.393   1.081   3.421  0.6468  0.1843 -0.0802
 1493SOL     H1 6416   4.435   1.155   3.377  0.2816 -0.2932 -1.2865
 1493SOL     H2 6417   4.301   1.105   3.428  0.1407 -0.8636 -2.1980
 1493SOL    EPW 6418   4.388   1.091   3.417  0.5539  0.0215 -0.4348
 1494SOL      O 6419   2.452   5.138   3.816  0.1773 -0.3962 -0.6858
 1494SOL     H1 6420   2.395   5.065   3.841 -0.9992  0.5548 -0.4494
 1494SOL     H2 6421   2.522   5.099   3.765 -1.1058 -1.5255 -1.6280
 1494SOL    EPW 6422   2.453   5.126   3.813 -0.0851 -0.4152 -0.7611
 1495SOL      O 6423   4.750   4.595   4.113  0.0751 -0.4444  0.2212
 1495SOL     H1 6424   4.773   4.637   4.196  3.2292  0.3207 -0.8595
 1495SOL     H2 6425   4.725   4.506   4.136  0.1405 -0.0247  2.0404
 1495SOL    EPW 6426   4.750   4.590   4.124  0.4186 -0.3180  0.3000
 1496SOL      O 6427   1.496   5.590   0.002 -0.0509  0.7797  0.5813
 1496SOL     H1 6428   1.525   5.680   0.018 -0.9236  1.4903 -1.4604
 1496SOL     H2 6429   1.577   5.541  -0.009  0.4692  1.8006 -0.4895
 1496SOL    EPW 6430   1.508   5.595   0.003 -0.0885  0.9644  0.2493
 1497SOL      O 6431   3.689   4.369   2.478 -0.0804 -0.0803 -0.2199
 1497SOL     H1 6432   3.727   4.363   2.390  1.3085 -2.3686  0.4556
 1497SOL     H2 6433   3.719   4.290   2.523 -1.1122  0.8021  2.2006
 1497SOL    EPW 6434   3.696   4.360   2.473 -0.0423 -0.2303  0.1103
 1498SOL      O 6435   4.710   3.158   1.718  0.0816  0.2485 -0.5755
 1498SOL     H1 6436   4.685   3.251   1.718 -0.4168  0.1243 -0.0364
 1498SOL     H2 6437   4.769   3.149   1.793 -0.9890 -0.1403  0.2454
 1498SOL    EPW 6438   4.713   3.167   1.726 -0.0858  0.1937 -0.4304
 1499SOL      O 6439   2.930   0.326   0.177  0.4356  0.6795  0.5851
 1499SOL     H1 6440   2.836   0.340   0.165  0.3806  2.2946  2.5239
 1499SOL     H2 6441   2.962   0.407   0.216  2.4417 -0.2712  1.0540
 1499SOL    EPW 6442   2.923   0.336   0.180  0.6437  0.7503  0.8419
 1500SOL      O 6443   4.728   4.528   1.203 -0.4414 -0.4727  0.1562
 1500SOL     H1 6444   4.721   4.566   1.116  0.6957 -0.7741 -0.0814
 1500SOL     H2 6445   4.723   4.604   1.262 -1.8889 -0.3278 -0.1095
 1500SOL    EPW 6446   4.727   4.540   1.200 -0.4745 -0.4894  0.1025
 1501SOL      O 6447   4.665   3.555   2.947 -0.2387 -0.2012 -0.0857
 1501SOL     H1 6448   4.612   3.622   2.991  0.8319  0.9751 -0.5240
 1501SOL     H2 6449   4.748   3.556   2.994  0.1170 -0.5514 -0.7015
 1501SOL    EPW 6450   4.668   3.562   2.957 -0.0865 -0.1131 -0.1981
 1502SOL      O 6451   5.842   4.990   4.103  0.5446 -0.6894 -0.3209
 1502SOL     H1 6452   5.878   4.927   4.041 -0.8710 -1.9539  0.0910
 1502SOL     H2 6453   5.895   5.069   4.090  0.1460 -0.8168 -3.2904
 1502SOL    EPW 6454   5.852   4.992   4.095  0.3510 -0.8379 -0.5937
 1503SOL      O 6455   0.023   3.197   1.995 -0.6441  0.1634  0.3604
 1503SOL     H1 6456   0.025   3.245   2.078 -0.3342  1.2943 -0.2820
 1503SOL     H2 6457  -0.064   3.157   1.992 -0.4882 -0.2704  1.4352
 1503SOL    EPW 6458   0.014   3.198   2.003 -0.5944  0.2378  0.4065
 1504SOL      O 6459   4.967   4.013   4.065  0.2753 -0.2068 -0.3639
 1504SOL     H1 6460   4.930   3.996   3.978 -0.8466 -0.6390  0.1748
 1504SOL     H2 6461   4.906   4.076   4.104  1.0208  0.3358 -0.0441
 1504SOL    EPW 6462   4.956   4.018   4.060  0.2351 -0.1950 -0.2723
 1505SOL      O 6463   0.290   3.456   2.178  0.7809 -0.1328 -0.2176
 1505SOL     H1 6464   0.259   3.407   2.254  0.7018 -0.2692 -0.3402
 1505SOL     H2 6465   0.234   3.534   2.176  0.3285 -0.4658 -0.5464
 1505SOL    EPW 6466   0.281   3.459   2.186  0.7242 -0.1829 -0.2657
 1506SOL      O 6467   1.215   4.765   2.364  0.5978  0.0785 -0.2540
 1506SOL     H1 6468   1.270   4.738   2.291  0.5530 -1.2027  0.1589
 1506SOL     H2 6469   1.243   4.709   2.437 -0.7067 -0.0471  0.1763
 1506SOL    EPW 6470   1.224   4.756   2.364  0.4539 -0.0716 -0.1641
 1507SOL      O 6471   0.130   2.635   0.675  0.6866 -0.2680 -0.1828
 1507SOL     H1 6472   0.110   2.565   0.612 -1.4303  0.6865 -0.6501
 1507SOL     H2 6473   0.151   2.589   0.756 -0.4714 -1.4753 -0.5295
 1507SOL    EPW 6474   0.130   2.623   0.677  0.3372 -0.2949 -0.2697
 1508SOL      O 6475   3.165   3.622   1.677 -0.0935  0.2887 -0.0270
 1508SOL     H1 6476   3.193   3.551   1.734 -1.5200 -0.7264 -0.5485
 1508SOL     H2 6477   3.084   3.591   1.638  0.2125  1.4585 -1.6838
 1508SOL    EPW 6478   3.159   3.611   1.679 -0.2131  0.3052 -0.2594
 1509SOL      O 6479   2.645   1.550   3.254  0.4095 -0.0405  0.0249
 1509SOL     H1 6480   2.568   1.607   3.258 -1.5051 -2.5307  1.4128
 1509SOL     H2 6481   2.610   1.463   3.240  3.1194 -1.1370 -0.5878
 1509SOL    EPW 6482   2.633   1.547   3.253  0.4943 -0.4231  0.1076
 1510SOL      O 6483   5.221   1.809   3.839 -0.3798 -0.2782 -0.0229
 1510SOL     H1 6484   5.201   1.895   3.876  1.0588 -1.1449  3.1475
 1510SOL     H2 6485   5.203   1.818   3.746 -0.9549  3.2356  0.2958
 1510SOL    EPW 6486   5.217   1.819   3.833 -0.2876  0.0042  0.3493
 1511SOL      O 6487   3.466   4.486   2.168  0.3945  0.0949 -0.6704
 1511SOL     H1 6488   3.427   4.531   2.243  0.2052  0.3196 -0.9007
 1511SOL     H2 6489   3.557   4.473   2.192  0.1360 -0.6242 -0.0321
 1511SOL    EPW 6490   3.471   4.489   2.178  0.3467  0.0422 -0.6269
 1512SOL      O 6491   4.327   0.519   1.780 -0.7216  0.6507  0.7203
 1512SOL     H1 6492   4.383   0.545   1.707 -0.2433  0.9894  1.2019
 1512SOL     H2 6493   4.241   0.554   1.757 -0.4823  1.1220  0.5165
 1512SOL    EPW 6494   4.324   0.526   1.770 -0.6451  0.7371  0.7499
 1513SOL      O 6495   1.988   4.669   3.381  0.0366 -0.1975  0.1262
 1513SOL     H1 6496   1.930   4.700   3.312 -0.0076  0.2546  0.3599
 1513SOL     H2 6497   2.071   4.653   3.337  0.1417  0.5374  0.0465
 1513SOL    EPW 6498   1.991   4.671   3.369  0.0431 -0.0709  0.1426
 1514SOL      O 6499   2.385   4.429   0.545  0.7033 -0.1209  0.4256
 1514SOL     H1 6500   2.429   4.494   0.599 -1.1509  1.8863 -0.2887
 1514SOL     H2 6501   2.294   4.431   0.575  0.3231 -1.4192 -0.5422
 1514SOL    EPW 6502   2.380   4.436   0.554  0.4649 -0.0453  0.2462
 1515SOL      O 6503   0.406   2.924   2.338 -0.0419 -0.3831  0.5294
 1515SOL     H1 6504   0.349   2.868   2.287  0.7751  0.6880 -1.6744
 1515SOL     H2 6505   0.368   3.011   2.330  0.8882  0.0354  0.5598
 1515SOL    EPW 6506   0.396   2.927   2.332  0.1445 -0.2242  0.2976
 1516SOL      O 6507   5.261   0.538   1.900  0.0187 -0.0383 -0.3163
 1516SOL     H1 6508   5.178   0.495   1.921  0.1161  0.2654  0.7827
 1516SOL     H2 6509   5.329   0.478   1.931  0.1997  0.0545 -0.5247
 1516SOL    EPW 6510   5.259   0.527   1.905  0.0484  0.0040 -0.2213
 1517SOL      O 6511   4.664   4.281   1.106  0.5804 -0.3095  0.2275
 1517SOL     H1 6512   4.585   4.318   1.066  1.4685  1.5451  0.0763
 1517SOL     H2 6513   4.704   4.229   1.036  0.6618  0.6327 -0.4565
 1517SOL    EPW 6514   4.660   4.279   1.094  0.6838 -0.0112  0.1384
 1518SOL      O 6515   1.352   1.928   0.100  0.1566  0.4638  0.0698
 1518SOL     H1 6516   1.268   1.882   0.100 -0.4449  1.5044 -0.9702
 1518SOL     H2 6517   1.351   1.979   0.019  1.4378  1.1426  0.4580
 1518SOL    EPW 6518   1.343   1.928   0.091  0.2291  0.6472  0.0003
 1519SOL      O 6519   1.772   3.441   0.990  0.3002 -0.2676  0.2302
 1519SOL     H1 6520   1.693   3.394   1.013  0.7392  0.1006  2.7311
 1519SOL     H2 6521   1.747   3.494   0.914 -1.4158 -1.2291  0.0843
 1519SOL    EPW 6522   1.761   3.442   0.984  0.1640 -0.3309  0.4815
 1520SOL      O 6523   3.854   3.404   2.547 -0.2994  0.9661 -0.5709
 1520SOL     H1 6524   3.762   3.399   2.572 -0.0014  0.5464  0.5054
 1520SOL     H2 6525   3.886   3.484   2.590 -0.1255  1.0582 -0.8626
 1520SOL    EPW 6526   3.848   3.412   2.554 -0.2491  0.9312 -0.4872
 1521SOL      O 6527   0.964   3.543   4.101  0.3735  0.1843 -0.0832
 1521SOL     H1 6528   0.936   3.533   4.010  0.6431 -1.4522 -0.0054
 1521SOL     H2 6529   1.059   3.528   4.098  0.5303  1.0174  0.3533
 1521SOL    EPW 6530   0.971   3.541   4.091  0.4190  0.0986 -0.0283
 1522SOL      O 6531   2.605   1.416   0.729  0.5275  0.2279 -0.3156
 1522SOL     H1 6532   2.670   1.404   0.660 -0.4600 -0.7882 -1.1112
 1522SOL     H2 6533   2.578   1.508   0.721 -0.5596 -0.2073 -2.2367
 1522SOL    EPW 6534   2.609   1.424   0.721  0.3062  0.0731 -0.6054
 1523SOL      O 6535   0.693   4.436   0.919 -0.2179  0.0122 -0.2171
 1523SOL     H1 6536   0.655   4.355   0.953  1.3636 -0.7901 -0.2672
 1523SOL     H2 6537   0.759   4.460   0.984  0.3486  0.4343 -0.9375
 1523SOL    EPW 6538   0.696   4.430   0.929  0.0112 -0.0283 -0.2993
 1524SOL      O 6539   0.209   5.582   2.168 -0.0154 -0.1484  0.2495
 1524SOL     H1 6540   0.137   5.552   2.222 -1.0829  1.4334 -0.2271
 1524SOL     H2 6541   0.171   5.650   2.113  1.8603  0.8228  0.0724
 1524SOL    EPW 6542   0.198   5.586   2.168  0.0708  0.1240  0.1798
 1525SOL      O 6543   0.842   4.094   0.525  0.0607  0.2766 -0.1267
 1525SOL     H1 6544   0.755   4.077   0.490 -0.2028 -0.3155  0.7739
 1525SOL     H2 6545   0.839   4.185   0.555  0.7390  1.2907 -2.8542
 1525SOL    EPW 6546   0.832   4.102   0.525  0.1050  0.3216 -0.3216
 1526SOL      O 6547   1.792   3.144   0.587 -0.6650  0.2222 -0.7245
 1526SOL     H1 6548   1.769   3.227   0.546  0.2779  0.5732 -0.5551
 1526SOL     H2 6549   1.829   3.167   0.672 -0.9403 -0.4053 -0.4243
 1526SOL    EPW 6550   1.793   3.155   0.591 -0.5938  0.1927 -0.6744
 1527SOL      O 6551   2.159   1.079   0.996 -0.1395  0.0003 -0.5438
 1527SOL     H1 6552   2.118   1.061   0.911  0.0174  0.4733 -0.7248
 1527SOL     H2 6553   2.202   1.164   0.984  0.5809 -0.3094 -0.2510
 1527SOL    EPW 6554   2.159   1.086   0.985 -0.0459  0.0177 -0.5319
 1528SOL      O 6555   2.162   3.085   2.619 -0.6321  0.2721  0.8687
 1528SOL     H1 6556   2.251   3.075   2.653 -0.7561  1.1232  1.4563
 1528SOL     H2 6557   2.126   3.159   2.666 -1.1327  0.9086 -0.4637
 1528SOL    EPW 6558   2.168   3.091   2.628 -0.6987  0.4308  0.7892
 1529SOL      O 6559   4.364   3.033   0.892  0.5861 -0.3540  0.5463
 1529SOL     H1 6560   4.352   2.939   0.905 -0.4319 -0.5609 -1.5980
 1529SOL     H2 6561   4.451   3.041   0.854  0.2913 -0.5478 -0.1886
 1529SOL    EPW 6562   4.372   3.024   0.889  0.4461 -0.3967  0.2392
 1530SOL      O 6563   2.014   3.631   2.901 -0.3632 -0.6985 -0.9292
 1530SOL     H1 6564   1.956   3.641   2.977  0.6238  0.8083 -0.3191
 1530SOL     H2 6565   1.962   3.664   2.828 -0.9962 -1.2962 -0.7601
 1530SOL    EPW 6566   2.002   3.636   2.902 -0.3254 -0.6015 -0.8461
 1531SOL      O 6567   5.525   0.890   3.429 -0.6791  0.0470  0.2482
 1531SOL     H1 6568   5.460   0.908   3.362 -0.8346  0.9837  0.6296
 1531SOL     H2 6569   5.608   0.882   3.382 -1.0804 -1.3473 -0.2619
 1531SOL    EPW 6570   5.527   0.891   3.417 -0.7385 -0.0018  0.2344
 1532SOL      O 6571   5.790   4.874   0.269 -0.6326 -0.4274  0.1549
 1532SOL     H1 6572   5.869   4.890   0.320 -0.7723 -0.9985  0.5537
 1532SOL     H2 6573   5.727   4.938   0.302 -0.8850 -1.1364  1.0661
 1532SOL    EPW 6574   5.792   4.883   0.278 -0.6744 -0.5640  0.2947
 1533SOL      O 6575   4.572   1.538   3.160 -0.2105 -0.5841 -0.8903
 1533SOL     H1 6576   4.665   1.547   3.139 -0.1777 -0.5682 -0.7413
 1533SOL     H2 6577   4.554   1.612   3.219 -0.1856 -0.9088 -0.4738
 1533SOL    EPW 6578   4.580   1.547   3.164 -0.2043 -0.6170 -0.8300
 1534SOL      O 6579   0.606   4.005   1.467  0.1117  0.7949 -0.0813
 1534SOL     H1 6580   0.533   3.945   1.482  0.6216  0.1631 -0.0819
 1534SOL     H2 6581   0.664   3.991   1.541  1.6993 -0.9313 -1.5508
 1534SOL    EPW 6582   0.604   3.997   1.476  0.3355  0.5434 -0.2381
 1535SOL      O 6583   0.695   5.479   2.979  0.1126 -0.5135 -0.1724
 1535SOL     H1 6584   0.645   5.502   3.058  1.4165  2.2263 -0.0276
 1535SOL     H2 6585   0.630   5.481   2.909 -0.8423 -1.8281  0.6248
 1535SOL    EPW 6586   0.683   5.481   2.980  0.1498 -0.3614 -0.0719
 1536SOL      O 6587   2.253   5.371   1.149 -0.0266 -0.0672  0.1103
 1536SOL     H1 6588   2.201   5.375   1.069 -0.5979 -0.1372  0.4749
 1536SOL     H2 6589   2.295   5.285   1.146  0.0501 -0.0200 -0.1722
 1536SOL    EPW 6590   2.252   5.362   1.140 -0.0794 -0.0697  0.1191
 1537SOL      O 6591   4.855   2.335   1.143 -0.1875  0.0526  0.0403
 1537SOL     H1 6592   4.877   2.361   1.054  0.2932  0.2004  0.2009
 1537SOL     H2 6593   4.833   2.242   1.136  0.6066 -0.1317 -0.1077
 1537SOL    EPW 6594   4.855   2.328   1.133 -0.0515  0.0487  0.0417
 1538SOL      O 6595   5.393   2.897   1.428 -0.2328  0.0553 -0.4959
 1538SOL     H1 6596   5.427   2.915   1.340  0.0387  0.0941 -0.3828
 1538SOL     H2 6597   5.441   2.820   1.457 -1.1535 -0.6621 -0.8443
 1538SOL    EPW 6598   5.402   2.891   1.421 -0.3020 -0.0171 -0.5210
 1539SOL      O 6599   1.542   4.835   2.264  0.1147  0.0002  0.2776
 1539SOL     H1 6600   1.575   4.760   2.314 -1.4624 -0.6598  0.3711
 1539SOL     H2 6601   1.617   4.862   2.211  1.3480 -0.3152  1.7626
 1539SOL    EPW 6602   1.554   4.830   2.264  0.0780 -0.1039  0.4460
 1540SOL      O 6603   1.142   1.992   3.094 -0.3426 -0.0693 -0.4411
 1540SOL     H1 6604   1.185   2.052   3.156  2.9276 -0.7363 -1.8418
 1540SOL     H2 6605   1.101   2.050   3.030  1.4325  0.7670 -0.9069
 1540SOL    EPW 6606   1.143   2.005   3.094  0.1956 -0.0512 -0.6402
 1541SOL      O 6607   1.877   1.097   1.720 -0.1490 -0.1632 -0.2603
 1541SOL     H1 6608   1.875   1.040   1.644 -0.0242  0.0418 -0.4177
 1541SOL     H2 6609   1.785   1.123   1.733  0.1083  1.8042 -1.8725
 1541SOL    EPW 6610   1.867   1.094   1.714 -0.1083  0.0686 -0.4490
 1542SOL      O 6611   5.769   4.917   1.611  0.1451 -0.4164 -0.3421
 1542SOL     H1 6612   5.796   5.009   1.609 -0.7426 -0.1518 -0.4153
 1542SOL     H2 6613   5.823   4.875   1.544  0.1957  0.1524 -0.6662
 1542SOL    EPW 6614   5.778   4.922   1.604  0.0558 -0.3275 -0.3845
 1543SOL      O 6615   0.204   2.768   3.205 -0.6393 -0.7024  0.1133
 1543SOL     H1 6616   0.111   2.757   3.225 -0.9635  0.2829 -0.8177
 1543SOL     H2 6617   0.228   2.849   3.249 -0.6102 -0.1435 -0.9049
 1543SOL    EPW 6618   0.196   2.775   3.212 -0.6708 -0.5377 -0.0946
 1544SOL      O 6619   2.823   2.618   0.482 -0.3316 -0.9352 -0.1716
 1544SOL     H1 6620   2.769   2.639   0.558 -0.6599  1.0179 -0.8756
 1544SOL     H2 6621   2.913   2.624   0.514 -0.3758  2.0777 -0.3287
 1544SOL    EPW 6622   2.827   2.621   0.493 -0.3713 -0.4054 -0.2635
 1545SOL      O 6623   2.627   0.976   2.393 -0.1043 -0.0263 -0.1348
 1545SOL     H1 6624   2.536   0.947   2.387  0.3789 -1.2438 -3.0941
 1545SOL     H2 6625   2.624   1.069   2.370 -0.5075 -0.3355 -1.3835
 1545SOL    EPW 6626   2.617   0.983   2.390 -0.0958 -0.1892 -0.5837
 1546SOL      O 6627   0.352   3.669   3.501  0.5707  0.2446  0.4187
 1546SOL     H1 6628   0.420   3.643   3.440  0.8495 -0.6177  1.0848
 1546SOL     H2 6629   0.371   3.761   3.521  1.1772  0.1815  0.1371
 1546SOL    EPW 6630   0.361   3.676   3.497  0.6651  0.1459  0.4597
 1547SOL      O 6631   4.327   2.021   2.524  0.0407 -0.3623 -0.5394
 1547SOL     H1 6632   4.312   2.108   2.486  1.5446 -0.3892 -1.2878
 1547SOL     H2 6633   4.308   2.031   2.617 -0.4451  0.6011 -0.7326
 1547SOL    EPW 6634   4.324   2.032   2.530  0.1493 -0.2624 -0.6398
 1548SOL      O 6635   0.070   4.115   1.377 -0.2230  0.3484  0.0826
 1548SOL     H1 6636   0.100   4.046   1.319  1.4053  0.5017  0.6968
 1548SOL     H2 6637  -0.015   4.084   1.409 -0.3409 -0.5248 -1.0177
 1548SOL    EPW 6638   0.064   4.104   1.374 -0.0619  0.2716  0.0307
 1549SOL      O 6639   2.476   5.126   0.336 -0.0731 -0.1127  0.4899
 1549SOL     H1 6640   2.421   5.182   0.391  0.7826  0.3172  0.9256
 1549SOL     H2 6641   2.470   5.166   0.249 -1.4031 -0.7745  0.2533
 1549SOL    EPW 6642   2.470   5.136   0.333 -0.1237 -0.1375  0.5111
 1550SOL      O 6643   4.585   4.337   1.375 -0.1984 -0.5137  0.4398
 1550SOL     H1 6644   4.505   4.287   1.358 -0.0496 -1.0906  1.3977
 1550SOL     H2 6645   4.577   4.365   1.466 -0.7551  2.1326 -0.3165
 1550SOL    EPW 6646   4.575   4.335   1.383 -0.2419 -0.2930  0.4613
 1551SOL      O 6647   3.130   0.930   2.312  0.0834  0.3070  0.1420
 1551SOL     H1 6648   3.159   0.846   2.347 -0.1715  1.1173  2.5633
 1551SOL     H2 6649   3.036   0.919   2.298  0.0218  0.1969  0.6002
 1551SOL    EPW 6650   3.123   0.920   2.314  0.0496  0.3817  0.4492
 1552SOL      O 6651   2.122   5.617   1.259  0.1294 -0.5240  0.0098
 1552SOL     H1 6652   2.200   5.660   1.296  0.3904 -0.6812 -0.3523
 1552SOL     H2 6653   2.157   5.539   1.216  0.2452  1.0939 -3.1349
 1552SOL    EPW 6654   2.134   5.613   1.259  0.1696 -0.3682 -0.3643
 1553SOL      O 6655   3.080   0.922   1.507 -0.3064 -0.0980  0.2206
 1553SOL     H1 6656   3.123   0.910   1.592  1.1352  2.7881 -0.0039
 1553SOL     H2 6657   3.114   0.851   1.453  0.6786 -0.5157  1.3509
 1553SOL    EPW 6658   3.088   0.913   1.510 -0.0475  0.1653  0.3172
 1554SOL      O 6659   5.838   2.898   3.516 -0.5311  0.3953  0.4965
 1554SOL     H1 6660   5.885   2.836   3.570 -0.2573  1.0745  1.0605
 1554SOL     H2 6661   5.795   2.957   3.579  1.0303  2.1442  0.0205
 1554SOL    EPW 6662   5.838   2.898   3.528 -0.3353  0.6544  0.5059
 1555SOL      O 6663   3.300   3.418   2.158 -0.0184  0.2657 -0.7307
 1555SOL     H1 6664   3.225   3.382   2.206  0.6921 -1.6410 -0.9763
 1555SOL     H2 6665   3.376   3.380   2.202  0.7992  1.7592 -0.8201
 1555SOL    EPW 6666   3.300   3.410   2.168  0.1446  0.2217 -0.7664
 1556SOL      O 6667   0.723   4.894   0.437 -0.0639  0.2572  0.0159
 1556SOL     H1 6668   0.662   4.879   0.509  0.1906 -0.0141  0.1758
 1556SOL     H2 6669   0.804   4.852   0.464  0.1048  0.3506 -0.3302
 1556SOL    EPW 6670   0.725   4.888   0.447 -0.0188  0.2382 -0.0039
 1557SOL      O 6671   0.370   0.448   4.037 -0.2011  0.6533  0.1022
 1557SOL     H1 6672   0.433   0.394   4.085  0.6363  2.1908  0.7858
 1557SOL     H2 6673   0.293   0.451   4.094 -0.8586 -1.0147 -0.6208
 1557SOL    EPW 6674   0.368   0.443   4.048 -0.1819  0.6394  0.0980
 1558SOL      O 6675   2.719   5.519   1.952  0.4804 -0.0360  0.3268
 1558SOL     H1 6676   2.639   5.469   1.965  1.1053 -1.9959 -2.3881
 1558SOL     H2 6677   2.690   5.608   1.933 -0.9960 -0.4849  0.4142
 1558SOL    EPW 6678   2.708   5.523   1.951  0.3896 -0.2930  0.0465
 1559SOL      O 6679   2.664   3.268   3.672 -0.5653  0.6241 -0.0368
 1559SOL     H1 6680   2.655   3.292   3.579 -1.8615 -1.2996 -0.4676
 1559SOL     H2 6681   2.717   3.189   3.671 -0.1504  0.8808  0.9204
 1559SOL    EPW 6682   2.668   3.262   3.662 -0.6593  0.4462  0.0194
 1560SOL      O 6683   4.682   0.724   0.290 -0.2204 -0.1555  0.4879
 1560SOL     H1 6684   4.701   0.641   0.333 -0.2147 -0.5300 -0.2322
 1560SOL     H2 6685   4.724   0.790   0.345 -0.1100 -0.6387  0.9859
 1560SOL    EPW 6686   4.688   0.722   0.301 -0.2080 -0.2470  0.4642
 1561SOL      O 6687   4.163   5.582   3.736 -0.1465  0.4823  0.2772
 1561SOL     H1 6688   4.129   5.672   3.730  0.1534  0.5843  0.0773
 1561SOL     H2 6689   4.256   5.591   3.717  0.3506  0.4449  2.4640
 1561SOL    EPW 6690   4.169   5.593   3.733 -0.0615  0.4892  0.4891
 1562SOL      O 6691   0.198   3.627   2.493 -0.1951  0.0091  0.2204
 1562SOL     H1 6692   0.215   3.654   2.403 -1.8239 -2.4516 -0.9457
 1562SOL     H2 6693   0.189   3.532   2.488  0.5390 -0.3043  3.1754
 1562SOL    EPW 6694   0.199   3.620   2.483 -0.2905 -0.2868  0.4113
 1563SOL      O 6695   4.872   0.129   3.284 -0.0797  0.2997  0.0909
 1563SOL     H1 6696   4.787   0.138   3.327 -0.4445 -1.3648 -0.2305
 1563SOL     H2 6697   4.895   0.219   3.259 -2.6671  0.6099 -1.5780
 1563SOL    EPW 6698   4.865   0.140   3.286 -0.3946  0.1552 -0.1215
 1564SOL      O 6699   3.079   3.424   0.048  0.0349  0.3351 -0.0480
 1564SOL     H1 6700   2.993   3.410   0.009  0.1156  2.1873 -0.9549
 1564SOL     H2 6701   3.078   3.514   0.079  1.9124  0.6489 -0.7703
 1564SOL    EPW 6702   3.070   3.432   0.047  0.2438  0.5662 -0.2218
 1565SOL      O 6703   3.945   0.492   2.666 -0.0919  0.1572  0.0529
 1565SOL     H1 6704   3.937   0.585   2.686  0.2570  0.0623  0.6471
 1565SOL     H2 6705   4.006   0.488   2.592 -1.7334  0.5401 -1.3841
 1565SOL    EPW 6706   3.950   0.501   2.660 -0.2298  0.1879 -0.0370
 1566SOL      O 6707   2.617   4.719   1.508 -0.1715 -0.0986  0.0214
 1566SOL     H1 6708   2.675   4.654   1.546  0.1252 -0.1771 -0.5601
 1566SOL     H2 6709   2.532   4.702   1.548 -0.4482 -1.7785 -1.1665
 1566SOL    EPW 6710   2.614   4.711   1.516 -0.1694 -0.2862 -0.1674
 1567SOL      O 6711   1.492   1.223   1.475 -0.6408  0.0748  0.0575
 1567SOL     H1 6712   1.421   1.255   1.531 -0.2432  2.4846 -0.6692
 1567SOL     H2 6713   1.565   1.281   1.494  0.4511 -0.9714 -0.7895
 1567SOL    EPW 6714   1.492   1.233   1.483 -0.4819  0.2203 -0.1103
 1568SOL      O 6715   3.665   3.384   4.025 -0.5971  0.1055  0.5381
 1568SOL     H1 6716   3.636   3.429   4.105  0.2830  0.7211  0.5376
 1568SOL     H2 6717   3.641   3.443   3.954 -0.6751 -0.0710  0.4180
 1568SOL    EPW 6718   3.660   3.395   4.026 -0.5115  0.1523  0.5253
 1569SOL      O 6719   3.787   0.158   0.370  0.0529  0.2870 -0.5371
 1569SOL     H1 6720   3.829   0.244   0.374 -1.2025  0.9222 -0.5427
 1569SOL     H2 6721   3.858   0.097   0.349  0.7569  1.4721 -1.6869
 1569SOL    EPW 6722   3.799   0.160   0.368 -0.0059  0.4812 -0.6603
 1570SOL      O 6723   3.747   3.482   0.375 -0.4024 -0.1554  0.4597
 1570SOL     H1 6724   3.668   3.431   0.395 -0.4976 -1.6090 -2.9766
 1570SOL     H2 6725   3.734   3.514   0.286  2.1812  0.9731  0.3872
 1570SOL    EPW 6726   3.737   3.480   0.368 -0.1370 -0.1901  0.0854
 1571SOL      O 6727   3.983   5.540   1.228 -0.0524 -0.4276 -0.0321
 1571SOL     H1 6728   4.039   5.570   1.157 -0.9170  0.1390 -0.4865
 1571SOL     H2 6729   4.003   5.599   1.301  0.0981 -0.3631 -0.1256
 1571SOL    EPW 6730   3.991   5.549   1.228 -0.1286 -0.3603 -0.0906
 1572SOL      O 6731   1.096   1.801   3.912  0.2551  0.1082  0.2972
 1572SOL     H1 6732   1.016   1.819   3.862 -0.4244  0.6719  1.5376
 1572SOL     H2 6733   1.074   1.827   4.001  1.6838 -0.1829  0.7511
 1572SOL    EPW 6734   1.085   1.805   3.916  0.3350  0.1373  0.4780
 1573SOL      O 6735   4.590   5.791   0.881 -0.0614  0.1649 -0.1289
 1573SOL     H1 6736   4.581   5.773   0.974 -0.2477 -0.1229 -0.2017
 1573SOL     H2 6737   4.515   5.846   0.859 -0.9362 -1.0893 -0.4414
 1573SOL    EPW 6738   4.581   5.795   0.888 -0.1746  0.0004 -0.1700
 1574SOL      O 6739   2.947   1.530   3.205 -0.0457 -0.7427  0.1096
 1574SOL     H1 6740   2.870   1.559   3.155  0.3894  0.9443  0.3544
 1574SOL     H2 6741   3.021   1.568   3.158  0.4067  0.4126  1.6774
 1574SOL    EPW 6742   2.946   1.537   3.194  0.0490 -0.4395  0.3030
 1575SOL      O 6743   2.392   2.041   2.589  0.3541  0.2294 -0.0698
 1575SOL     H1 6744   2.435   2.110   2.539 -0.4676  0.7771 -0.0264
 1575SOL     H2 6745   2.413   2.060   2.680  0.5960  0.0895 -0.0938
 1575SOL    EPW 6746   2.399   2.050   2.593  0.2923  0.2729 -0.0677
 1576SOL      O 6747   5.209   5.175   3.232  0.0447 -0.0211  0.0289
 1576SOL     H1 6748   5.199   5.115   3.158  2.0271 -0.5489  0.1583
 1576SOL     H2 6749   5.154   5.138   3.301  0.6754 -1.2966 -0.1363
 1576SOL    EPW 6750   5.202   5.165   3.231  0.3235 -0.2135  0.0251
 1577SOL      O 6751   0.257   3.694   2.750 -0.3311  0.2445 -0.5800
 1577SOL     H1 6752   0.248   3.632   2.822 -3.5806  0.3058 -0.8149
 1577SOL     H2 6753   0.347   3.682   2.720  0.2461 -1.7903  1.6314
 1577SOL    EPW 6754   0.266   3.686   2.755 -0.6162  0.0340 -0.3692
 1578SOL      O 6755   2.002   2.002   1.211  0.0868 -0.2602  0.3739
 1578SOL     H1 6756   2.096   2.017   1.221  0.0515 -0.6426  1.3805
 1578SOL     H2 6757   1.992   1.974   1.120  0.7273  1.3760 -0.2416
 1578SOL    EPW 6758   2.011   2.001   1.203  0.1513 -0.1265  0.4156
 1579SOL      O 6759   1.462   5.093   1.555  0.4487  0.7438  0.7441
 1579SOL     H1 6760   1.423   5.068   1.471  3.6389 -0.9779 -0.3696
 1579SOL     H2 6761   1.468   5.188   1.551  1.8502  0.6402 -1.6883
 1579SOL    EPW 6762   1.458   5.100   1.545  0.9386  0.5491  0.3658
 1580SOL      O 6763   0.497   2.433   3.938 -0.2431 -0.1320  0.1301
 1580SOL     H1 6764   0.592   2.424   3.950  0.0495  1.1506 -1.0708
 1580SOL     H2 6765   0.462   2.351   3.972  1.4044 -1.1737 -0.5217
 1580SOL    EPW 6766   0.504   2.423   3.943 -0.0362 -0.1063 -0.0675
 1581SOL      O 6767   4.321   1.526   0.075 -0.1672  0.2220 -0.3504
 1581SOL     H1 6768   4.354   1.563  -0.007 -0.6869 -0.8402 -1.0513
 1581SOL     H2 6769   4.391   1.544   0.139  0.2555  1.0317 -1.0230
 1581SOL    EPW 6770   4.332   1.532   0.073 -0.1775  0.1950 -0.4970
 1582SOL      O 6771   3.666   2.380   3.137  0.2317 -0.1271 -0.4776
 1582SOL     H1 6772   3.739   2.329   3.173 -0.7488 -0.4428  1.1254
 1582SOL     H2 6773   3.593   2.364   3.196 -0.6083  1.7533 -0.9185
 1582SOL    EPW 6774   3.666   2.373   3.147  0.0375  0.0398 -0.3536
 1583SOL      O 6775   1.091   2.349   2.258  0.3831  0.2173  0.3205
 1583SOL     H1 6776   1.046   2.433   2.248  2.8702  1.5230 -0.6443
 1583SOL     H2 6777   1.023   2.290   2.291 -2.1909  1.8817 -1.5721
 1583SOL    EPW 6778   1.079   2.352   2.260  0.3738  0.5342  0.0157
 1584SOL      O 6779   1.216   2.300   2.494 -0.2205  0.0706  0.2001
 1584SOL     H1 6780   1.191   2.326   2.405 -1.5381  2.8395  1.2627
 1584SOL     H2 6781   1.294   2.352   2.513  0.4337 -0.9755  0.5149
 1584SOL    EPW 6782   1.222   2.308   2.487 -0.2913  0.2544  0.3470
 1585SOL      O 6783   1.021   5.499   2.175  0.0327  0.1321 -0.1283
 1585SOL     H1 6784   1.113   5.491   2.147  1.6732  1.4114  4.0812
 1585SOL     H2 6785   1.001   5.414   2.215  0.7672  0.9867  2.1943
 1585SOL    EPW 6786   1.029   5.489   2.176  0.2861  0.3597  0.5685
 1586SOL      O 6787   5.467   4.230   3.487 -0.7451  0.3568  0.2835
 1586SOL     H1 6788   5.549   4.279   3.499 -0.9412  0.8245 -0.2110
 1586SOL     H2 6789   5.475   4.154   3.544  1.0318 -0.8580 -1.4347
 1586SOL    EPW 6790   5.477   4.227   3.494 -0.5765  0.2771  0.0474
 1587SOL      O 6791   5.776   0.296   1.637  0.5737 -0.6206 -0.1326
 1587SOL     H1 6792   5.817   0.325   1.556  0.3158 -0.8039 -0.3293
 1587SOL     H2 6793   5.847   0.254   1.686  1.0009  0.5120  0.2501
 1587SOL    EPW 6794   5.788   0.294   1.634  0.5918 -0.5193 -0.1128
 1588SOL      O 6795   5.063   0.822   1.184 -0.3616  0.1758 -0.0112
 1588SOL     H1 6796   5.075   0.904   1.135 -0.7844  0.1736 -0.1263
 1588SOL     H2 6797   5.092   0.843   1.272  1.2669 -0.0814 -0.4552
 1588SOL    EPW 6798   5.067   0.833   1.188 -0.2330  0.1481 -0.0709
 1589SOL      O 6799   5.080   4.807   4.113  0.0803  0.3131 -0.1660
 1589SOL     H1 6800   5.059   4.732   4.057  0.6208  1.1909 -1.5839
 1589SOL     H2 6801   5.165   4.837   4.083  1.1986 -0.1818  2.2566
 1589SOL    EPW 6802   5.087   4.802   4.104  0.2572  0.3539 -0.0588
 1590SOL      O 6803   2.553   1.575   1.408  0.0963 -0.3276  0.0284
 1590SOL     H1 6804   2.611   1.609   1.340  1.9210 -1.5296  0.8855
 1590SOL     H2 6805   2.530   1.487   1.377 -1.8275  0.3500 -0.5875
 1590SOL    EPW 6806   2.557   1.569   1.397  0.0857 -0.3836  0.0541
 1591SOL      O 6807   0.885   5.006   3.675  0.6024  0.4727 -0.8552
 1591SOL     H1 6808   0.905   5.054   3.755  0.2444 -0.3565 -0.2524
 1591SOL     H2 6809   0.969   4.995   3.632  0.9654 -0.0443 -0.0293
 1591SOL    EPW 6810   0.896   5.010   3.679  0.6029  0.3291 -0.7028
 1592SOL      O 6811   3.124   0.635   2.318  0.0788  0.0707  0.1333
 1592SOL     H1 6812   3.069   0.622   2.396  0.5291  1.1738  0.6473
 1592SOL     H2 6813   3.062   0.631   2.245 -0.2709 -1.5660  0.4762
 1592SOL    EPW 6814   3.111   0.633   2.319  0.0895  0.0137  0.2247
 1593SOL      O 6815   0.318   2.650   2.964 -0.3567 -0.4223 -0.1756
 1593SOL     H1 6816   0.404   2.692   2.969  0.9226 -2.9804  0.7492
 1593SOL     H2 6817   0.268   2.690   3.035  0.5678  0.0087  0.2491
 1593SOL    EPW 6818   0.321   2.659   2.972 -0.1216 -0.6492 -0.0317
 1594SOL      O 6819   5.048   4.754   3.041  0.3749 -0.7259  0.6995
 1594SOL     H1 6820   5.026   4.704   2.962 -0.7568 -1.4540  1.4454
 1594SOL     H2 6821   5.014   4.700   3.113  0.7068  0.2928  1.6345
 1594SOL    EPW 6822   5.042   4.743   3.040  0.2896 -0.6949  0.8788
 1595SOL      O 6823   1.988   0.536   0.900 -0.3110  0.5170 -0.0102
 1595SOL     H1 6824   1.894   0.526   0.912 -0.2700 -0.2047 -0.2295
 1595SOL     H2 6825   2.016   0.452   0.863  0.3769  0.8169 -0.1832
 1595SOL    EPW 6826   1.981   0.526   0.897 -0.2332  0.4720 -0.0520
 1596SOL      O 6827   0.035   1.436   0.447 -0.4722 -0.4242 -0.1295
 1596SOL     H1 6828   0.044   1.379   0.370  0.0204 -0.5126 -0.0094
 1596SOL     H2 6829  -0.056   1.463   0.445 -0.1363  0.7635 -1.5935
 1596SOL    EPW 6830   0.027   1.432   0.438 -0.3838 -0.3069 -0.2729
 1597SOL      O 6831   1.476   0.550   1.045 -0.2187  0.6185 -0.0736
 1597SOL     H1 6832   1.567   0.543   1.017 -0.2988 -1.3007  0.0103
 1597SOL     H2 6833   1.475   0.624   1.105  1.7347 -0.5261  1.5026
 1597SOL    EPW 6834   1.486   0.557   1.048 -0.0188  0.2917  0.1035
 1598SOL      O 6835   5.017   5.210   0.059  0.6637 -0.2929  0.1221
 1598SOL     H1 6836   4.978   5.142   0.004  0.4765  0.0302 -0.1479
 1598SOL     H2 6837   4.986   5.190   0.147 -0.7714  0.4075 -0.1909
 1598SOL    EPW 6838   5.010   5.201   0.062  0.4906 -0.1838  0.0599
 1599SOL      O 6839   4.928   5.754   2.315 -0.4397  0.2269 -0.0591
 1599SOL     H1 6840   4.833   5.746   2.309 -0.8530  3.4161  0.6275
 1599SOL     H2 6841   4.944   5.789   2.403  1.0234  2.8236 -1.2492
 1599SOL    EPW 6842   4.920   5.757   2.324 -0.3277  0.8442 -0.1128
 1600SOL      O 6843   3.350   1.677   4.013 -0.3304 -0.0989  1.0684
 1600SOL     H1 6844   3.444   1.675   3.991 -0.5391  0.0467  0.1209
 1600SOL     H2 6845   3.348   1.666   4.108  0.6689  0.2896  1.1539
 1600SOL    EPW 6846   3.360   1.676   4.021 -0.2461 -0.0419  0.9764
 1601SOL      O 6847   1.429   5.269   0.994  0.3277  0.4169  0.1696
 1601SOL     H1 6848   1.476   5.231   0.921 -0.0705 -0.3583  0.3077
 1601SOL     H2 6849   1.336   5.260   0.970  0.0437 -2.1811  1.8376
 1601SOL    EPW 6850   1.424   5.264   0.984  0.2549  0.0570  0.3623
 1602SOL      O 6851   4.090   5.578   2.171  0.4885 -0.1311  0.2954
 1602SOL     H1 6852   4.030   5.589   2.245 -0.2334  1.0386 -0.4340
 1602SOL     H2 6853   4.056   5.503   2.124 -0.5676  0.6719 -0.2458
 1602SOL    EPW 6854   4.080   5.571   2.174  0.2988  0.0794  0.1599
 1603SOL      O 6855   1.761   2.012   0.971 -0.2701  0.3881  0.5333
 1603SOL     H1 6856   1.692   1.974   1.024  0.1580 -0.1327  0.7325
 1603SOL     H2 6857   1.833   1.948   0.975 -0.5922 -0.1992 -1.5219
 1603SOL    EPW 6858   1.762   2.001   0.977 -0.2588  0.2699  0.3353
 1604SOL      O 6859   5.774   3.767   3.974  0.5961  0.5770 -0.1004
 1604SOL     H1 6860   5.725   3.722   4.043  0.4468 -0.4886 -0.8670
 1604SOL     H2 6861   5.841   3.704   3.948 -0.3409  0.3084 -2.0023
 1604SOL    EPW 6862   5.776   3.755   3.979  0.4802  0.4347 -0.3850
 1605SOL      O 6863   0.148   2.054   3.525  0.0220 -0.1709  0.4838
 1605SOL     H1 6864   0.060   2.051   3.562  0.5477 -0.0900  1.8190
 1605SOL     H2 6865   0.156   1.973   3.474 -0.8617 -0.1063  0.2399
 1605SOL    EPW 6866   0.140   2.045   3.524 -0.0162 -0.1554  0.6002
 1606SOL      O 6867   3.161   5.481   0.346  0.2850 -0.3781 -0.3640
 1606SOL     H1 6868   3.234   5.531   0.383  0.9773 -2.3177  1.0506
 1606SOL     H2 6869   3.112   5.545   0.295  3.8689  0.7236 -2.7952
 1606SOL    EPW 6870   3.164   5.493   0.345  0.7411 -0.4675 -0.4725
 1607SOL      O 6871   3.666   5.621   0.717  0.1764  0.1330 -0.2982
 1607SOL     H1 6872   3.637   5.700   0.761 -1.6779  0.2035 -1.5241
 1607SOL     H2 6873   3.691   5.650   0.630  0.3213 -0.5036 -0.4721
 1607SOL    EPW 6874   3.665   5.632   0.713 -0.0060  0.0726 -0.4475
 1608SOL      O 6875   0.807   2.052   0.779 -0.2806  0.3076  0.2147
 1608SOL     H1 6876   0.714   2.062   0.759 -0.2959  2.8148  1.1762
 1608SOL     H2 6877   0.811   1.971   0.830 -1.9145  0.1130  0.1084
 1608SOL    EPW 6878   0.797   2.044   0.782 -0.4565  0.5543  0.3060
 1609SOL      O 6879   4.989   3.342   0.552  0.5591 -0.1444  0.1949
 1609SOL     H1 6880   5.002   3.283   0.626 -0.9401 -0.4676  0.2333
 1609SOL     H2 6881   4.926   3.407   0.583 -0.4272 -0.5289 -0.9061
 1609SOL    EPW 6882   4.983   3.343   0.563  0.2939 -0.2199  0.0815
 1610SOL      O 6883   0.911   0.623   3.177 -0.5055 -0.4286 -0.2495
 1610SOL     H1 6884   0.925   0.534   3.143 -1.3638 -1.0697  1.0128
 1610SOL     H2 6885   0.968   0.628   3.254 -0.0573  0.3233 -0.6201
 1610SOL    EPW 6886   0.919   0.614   3.182 -0.5493 -0.4167 -0.1544
 1611SOL      O 6887   0.951   4.825   2.438  0.1075  0.0373  0.7982
 1611SOL     H1 6888   1.040   4.801   2.412 -0.6440  0.3752 -2.5716
 1611SOL     H2 6889   0.928   4.762   2.506  2.5529 -0.6412  1.0975
 1611SOL    EPW 6890   0.958   4.816   2.443  0.2882  0.0010  0.4707
 1612SOL      O 6891   0.101   0.576   2.975  0.0741 -0.0322  0.1036
 1612SOL     H1 6892   0.049   0.529   2.910 -1.2679  0.3867  0.8279
 1612SOL     H2 6893   0.107   0.517   3.050  0.4565  0.0167  0.1169
 1612SOL    EPW 6894   0.096   0.565   2.976 -0.0283  0.0177  0.1823
 1613SOL      O 6895   2.725   2.977   3.168 -0.4844  0.4628 -0.1729
 1613SOL     H1 6896   2.671   2.907   3.131 -0.3369  1.0279 -1.5220
 1613SOL     H2 6897   2.669   3.020   3.231 -0.8729 -0.3237  0.0304
 1613SOL    EPW 6898   2.713   2.974   3.170 -0.5101  0.4392 -0.2951
 1614SOL      O 6899   3.713   3.700   2.758 -0.2934  0.6076  0.5330
 1614SOL     H1 6900   3.721   3.745   2.842 -0.4617  1.5517  0.0463
 1614SOL     H2 6901   3.799   3.660   2.744 -1.1973 -2.5554  2.7949
 1614SOL    EPW 6902   3.723   3.700   2.766 -0.4077  0.3709  0.7224
 1615SOL      O 6903   4.662   5.202   0.168 -0.3754  0.0159 -0.4097
 1615SOL     H1 6904   4.666   5.200   0.264 -0.6858 -0.6223 -0.4009
 1615SOL     H2 6905   4.723   5.133   0.140  0.4480  0.8443 -0.7084
 1615SOL    EPW 6906   4.669   5.194   0.175 -0.3207  0.0362 -0.4407
 1616SOL      O 6907   5.632   2.403   1.663  0.2741 -0.0755  0.3446
 1616SOL     H1 6908   5.541   2.382   1.641  0.5893 -1.6104  0.3625
 1616SOL     H2 6909   5.678   2.398   1.579  0.1005  2.3320  0.0547
 1616SOL    EPW 6910   5.627   2.400   1.652  0.2892  0.0176  0.3156
 1617SOL      O 6911   0.652   2.728   1.501  0.4876  0.8420  0.4314
 1617SOL     H1 6912   0.709   2.689   1.434  1.0411  1.5448  0.4831
 1617SOL     H2 6913   0.597   2.656   1.530  1.1785  0.2038  0.1929
 1617SOL    EPW 6914   0.652   2.716   1.497  0.6203  0.8489  0.4115
 1618SOL      O 6915   1.542   0.700   0.733 -0.4528 -0.7218 -0.5189
 1618SOL     H1 6916   1.522   0.626   0.675  0.2564 -1.5106  0.2088
 1618SOL     H2 6917   1.460   0.718   0.778  0.0859 -3.2959  1.7468
 1618SOL    EPW 6918   1.532   0.694   0.732 -0.3197 -1.0805 -0.1996
 1619SOL      O 6919   5.103   4.097   1.913  0.1622 -0.3325  0.0670
 1619SOL     H1 6920   5.182   4.048   1.937  1.0394  0.0507 -1.7929
 1619SOL     H2 6921   5.124   4.188   1.935  0.8301 -0.0330 -1.6166
 1619SOL    EPW 6922   5.114   4.101   1.918  0.3271 -0.2596 -0.3110
 1620SOL      O 6923   4.560   3.283   0.372 -0.3426 -0.4081 -0.3838
 1620SOL     H1 6924   4.583   3.373   0.347  0.1874 -0.4755 -0.1458
 1620SOL     H2 6925   4.466   3.287   0.387 -0.2433  0.2375  0.1423
 1620SOL    EPW 6926   4.552   3.293   0.371 -0.2754 -0.3464 -0.3023
 1621SOL      O 6927   2.360   4.724   2.773 -0.3525  0.8323  0.2144
 1621SOL     H1 6928   2.396   4.762   2.853 -0.0783  1.0419 -0.0068
 1621SOL     H2 6929   2.274   4.766   2.764 -1.8070 -1.4552  2.0748
 1621SOL    EPW 6930   2.355   4.733   2.781 -0.4784  0.6107  0.3892
 1622SOL      O 6931   3.360   2.981   2.123  0.4134  0.4049 -0.3501
 1622SOL     H1 6932   3.407   3.047   2.174 -0.8862 -0.3649  1.9885
 1622SOL     H2 6933   3.362   2.903   2.177 -0.7222 -0.6034 -1.6821
 1622SOL    EPW 6934   3.365   2.980   2.134  0.1536  0.2152 -0.2427
 1623SOL      O 6935   3.821   0.672   1.343 -0.2685 -0.4561  0.8408
 1623SOL     H1 6936   3.881   0.605   1.310 -1.0120 -1.4366  1.4128
 1623SOL     H2 6937   3.748   0.672   1.281 -0.2345 -0.1068  0.7976
 1623SOL    EPW 6938   3.819   0.665   1.333 -0.3442 -0.5234  0.8972
 1624SOL      O 6939   5.856   4.786   2.920  0.1779  0.6212  0.2888
 1624SOL     H1 6940   5.931   4.846   2.918  0.7655 -0.0944  0.2932
 1624SOL     H2 6941   5.862   4.738   2.837  0.5258 -0.3766  0.8706
 1624SOL    EPW 6942   5.865   4.787   2.911  0.2777  0.4384  0.3514
 1625SOL      O 6943   1.797   0.152   1.017  0.2916  0.4723  0.2663
 1625SOL     H1 6944   1.853   0.119   0.947  0.5810  0.3866  0.5349
 1625SOL     H2 6945   1.830   0.240   1.036 -0.0457  0.6562  0.0185
 1625SOL    EPW 6946   1.806   0.158   1.012  0.2865  0.4827  0.2685
 1626SOL      O 6947   0.496   0.709   1.083  0.6243  0.2820  0.6695
 1626SOL     H1 6948   0.591   0.707   1.094  0.6668  2.3074  1.0281
 1626SOL     H2 6949   0.462   0.732   1.169 -0.2516 -0.7978  0.6417
 1626SOL    EPW 6950   0.502   0.711   1.093  0.5354  0.3829  0.7048
 1627SOL      O 6951   2.680   1.234   3.855 -0.0899 -0.0430 -0.3696
 1627SOL     H1 6952   2.700   1.323   3.828 -1.6961 -0.0774 -1.8407
 1627SOL     H2 6953   2.653   1.242   3.947 -0.8263  1.0885 -0.6655
 1627SOL    EPW 6954   2.679   1.244   3.862 -0.3398  0.0741 -0.5581
 1628SOL      O 6955   3.070   0.552   0.890  0.6338  0.5419  0.2060
 1628SOL     H1 6956   3.117   0.540   0.807 -0.2863  1.2544 -0.4562
 1628SOL     H2 6957   3.134   0.531   0.958  1.0005 -1.4756 -0.6850
 1628SOL    EPW 6958   3.082   0.549   0.888  0.5748  0.4027  0.0403
 1629SOL      O 6959   1.973   5.563   0.220  0.2243  0.5172 -0.2237
 1629SOL     H1 6960   1.998   5.580   0.129 -0.3395  1.2295 -0.2520
 1629SOL     H2 6961   2.000   5.472   0.235  0.8240  0.5668 -0.9260
 1629SOL    EPW 6962   1.978   5.555   0.212  0.2281  0.5984 -0.3016
 1630SOL      O 6963   2.492   4.454   1.811  0.6149 -0.0797 -0.4264
 1630SOL     H1 6964   2.450   4.513   1.748  0.4954 -0.2132 -0.4730
 1630SOL     H2 6965   2.512   4.375   1.759  0.0046 -0.4138 -0.1650
 1630SOL    EPW 6966   2.489   4.452   1.799  0.5370 -0.1296 -0.4035
 1631SOL      O 6967   1.181   1.144   1.013 -0.3262  0.3730  0.4257
 1631SOL     H1 6968   1.114   1.144   0.945 -0.1349 -0.1212  0.2295
 1631SOL     H2 6969   1.264   1.145   0.965 -0.1911 -0.1777  0.6433
 1631SOL    EPW 6970   1.183   1.144   1.001 -0.2914  0.2616  0.4280
 1632SOL      O 6971   0.519   1.071   2.395 -0.5041 -0.8283 -0.5870
 1632SOL     H1 6972   0.581   1.024   2.339 -0.6223 -0.6402 -0.8803
 1632SOL     H2 6973   0.529   1.162   2.368  1.6021 -0.2649  1.7308
 1632SOL    EPW 6974   0.527   1.076   2.386 -0.2920 -0.7481 -0.3710
 1633SOL      O 6975   2.008   1.388   0.452  0.0425 -0.0484  0.1137
 1633SOL     H1 6976   1.985   1.312   0.506  0.5774 -0.9004 -0.8172
 1633SOL     H2 6977   2.089   1.362   0.408 -0.2555  0.7174 -0.9077
 1633SOL    EPW 6978   2.014   1.377   0.453  0.0678 -0.0576 -0.0945
 1634SOL      O 6979   5.546   3.221   0.204 -0.1099 -0.5729 -0.1969
 1634SOL     H1 6980   5.555   3.143   0.149  1.3723 -0.8280  0.3430
 1634SOL     H2 6981   5.539   3.186   0.293 -3.1768 -0.2023 -0.1980
 1634SOL    EPW 6982   5.547   3.209   0.208 -0.2790 -0.5606 -0.1394
 1635SOL      O 6983   2.795   0.089   2.878  0.4852  0.7279 -0.1953
 1635SOL     H1 6984   2.856   0.134   2.938  1.1171 -0.1866 -0.1353
 1635SOL     H2 6985   2.849   0.066   2.803  0.2427 -0.1884 -0.0954
 1635SOL    EPW 6986   2.808   0.091   2.877  0.5267  0.5326 -0.1782
 1636SOL      O 6987   4.866   1.592   3.110  0.4369  0.2647  0.6090
 1636SOL     H1 6988   4.841   1.660   3.047 -1.5662 -0.2907  0.7345
 1636SOL     H2 6989   4.935   1.542   3.065  0.0710  0.7710 -0.5525
 1636SOL    EPW 6990   4.871   1.594   3.098  0.1842  0.2595  0.4985
 1637SOL      O 6991   2.834   4.438   3.519 -0.6309  0.1595  0.0108
 1637SOL     H1 6992   2.882   4.510   3.559 -0.9496 -0.1624  1.0054
 1637SOL     H2 6993   2.742   4.458   3.537 -0.7191 -0.5055  0.3117
 1637SOL    EPW 6994   2.829   4.448   3.525 -0.6743  0.0542  0.1490
 1638SOL      O 6995   4.458   5.205   2.893 -0.4343 -0.4223  0.2980
 1638SOL     H1 6996   4.402   5.259   2.838  1.0690  1.1752  0.2561
 1638SOL     H2 6997   4.452   5.245   2.980  1.8249  0.8135 -0.0401
 1638SOL    EPW 6998   4.452   5.215   2.897 -0.0330 -0.1201  0.2574
 1639SOL      O 6999   3.307   3.180   0.502  0.5210 -0.5679  0.1074
 1639SOL     H1 7000   3.265   3.119   0.563  0.5889 -0.3368  0.3918
 1639SOL     H2 7001   3.238   3.206   0.442  0.2624 -0.2132  0.5523
 1639SOL    EPW 7002   3.295   3.176   0.502  0.5006 -0.5054  0.1852
 1640SOL      O 7003   4.829   2.652   2.211 -0.3008 -0.0527 -0.7068
 1640SOL     H1 7004   4.734   2.652   2.216 -0.2645  1.9425  1.6601
 1640SOL     H2 7005   4.855   2.743   2.227  2.0313 -0.7829  0.1805
 1640SOL    EPW 7006   4.822   2.662   2.213 -0.0482  0.0822 -0.3596
 1641SOL      O 7007   0.311   0.697   1.343  0.1958  0.2058 -0.4903
 1641SOL     H1 7008   0.251   0.674   1.272  0.4911  0.4158 -0.8066
 1641SOL     H2 7009   0.311   0.619   1.400  0.4498 -0.2101 -1.0519
 1641SOL    EPW 7010   0.304   0.686   1.342  0.2544  0.1838 -0.5840
 1642SOL      O 7011   1.995   4.222   1.980  0.2897  0.1914 -0.1601
 1642SOL     H1 7012   2.064   4.203   1.916 -0.5264  1.3094 -1.4260
 1642SOL     H2 7013   1.996   4.318   1.988  0.4498  0.0742  1.6344
 1642SOL    EPW 7014   2.003   4.230   1.974  0.2197  0.2981 -0.1037
 1643SOL      O 7015   0.963   1.189   0.840 -0.3981 -0.1462  0.5143
 1643SOL     H1 7016   0.890   1.201   0.900 -2.2261 -2.1260 -1.1753
 1643SOL     H2 7017   0.922   1.174   0.755  2.0491  0.6285 -0.9002
 1643SOL    EPW 7018   0.951   1.189   0.837 -0.3321 -0.2747  0.1832
 1644SOL      O 7019   2.128   2.562   2.280 -0.2468  0.1212  0.2239
 1644SOL     H1 7020   2.217   2.531   2.298  0.2724 -0.6544 -3.0967
 1644SOL     H2 7021   2.075   2.483   2.283 -0.7048  0.4513  1.2826
 1644SOL    EPW 7022   2.132   2.551   2.283 -0.2402  0.0737 -0.0174
 1645SOL      O 7023   0.087   5.465   1.164  0.1182  0.1096 -0.4661
 1645SOL     H1 7024   0.143   5.410   1.109 -0.1110 -2.1369  1.3448
 1645SOL     H2 7025   0.148   5.515   1.218  0.3288  1.0672 -1.5522
 1645SOL    EPW 7026   0.099   5.464   1.164  0.1162 -0.0279 -0.3887
 1646SOL      O 7027   3.887   1.190   0.197  0.3629  0.5513  0.6298
 1646SOL     H1 7028   3.923   1.129   0.262  0.8416 -0.3890 -0.4888
 1646SOL     H2 7029   3.963   1.222   0.149  0.0054  1.1870  0.4799
 1646SOL    EPW 7030   3.899   1.187   0.199  0.3758  0.5188  0.4945
 1647SOL      O 7031   3.886   0.810   2.663 -0.6341 -0.7879  0.4335
 1647SOL     H1 7032   3.883   0.904   2.642  0.4280 -0.7053  0.6282
 1647SOL     H2 7033   3.956   0.775   2.609  0.0612 -1.1601  1.5460
 1647SOL    EPW 7034   3.893   0.817   2.655 -0.4467 -0.8188  0.5729
 1648SOL      O 7035   2.819   5.727   2.993 -0.3760 -0.2176 -0.5519
 1648SOL     H1 7036   2.808   5.818   2.967  0.9172  0.2104  0.2728
 1648SOL     H2 7037   2.771   5.720   3.076  0.1899 -0.0556 -0.2036
 1648SOL    EPW 7038   2.813   5.736   2.999 -0.1777 -0.1547 -0.4267
 1649SOL      O 7039   0.207   1.074   2.345 -0.3957  0.1238 -0.2363
 1649SOL     H1 7040   0.295   1.038   2.336 -0.7361 -1.8784  3.0375
 1649SOL     H2 7041   0.221   1.165   2.370  0.8687 -0.5836  1.8476
 1649SOL    EPW 7042   0.218   1.080   2.347 -0.2972 -0.1652  0.3352
 1650SOL      O 7043   1.272   3.453   0.959 -0.3012 -0.1860 -0.4822
 1650SOL     H1 7044   1.233   3.421   1.041 -0.0732  1.3449  0.2436
 1650SOL     H2 7045   1.364   3.428   0.965 -0.0040  1.0190  0.3348
 1650SOL    EPW 7046   1.278   3.447   0.968 -0.2452  0.1059 -0.3176
 1651SOL      O 7047   5.112   3.024   3.337 -0.0976  0.0236 -0.1282
 1651SOL     H1 7048   5.052   3.046   3.266  0.7203 -2.1686 -1.5820
 1651SOL     H2 7049   5.185   2.979   3.295  0.5747 -1.0915  2.0591
 1651SOL    EPW 7050   5.113   3.021   3.325  0.0614 -0.3292 -0.0499
 1652SOL      O 7051   2.436   1.204   0.923 -0.1158 -0.2294 -0.0504
 1652SOL     H1 7052   2.456   1.112   0.936 -0.2388 -0.5103 -1.6208
 1652SOL     H2 7053   2.520   1.244   0.898 -0.3090 -0.2120 -0.7164
 1652SOL    EPW 7054   2.447   1.199   0.921 -0.1495 -0.2575 -0.2890
 1653SOL      O 7055   0.415   5.809   0.116  0.0205 -0.0235  0.6345
 1653SOL     H1 7056   0.498   5.825   0.072  0.2854 -0.1331  1.0853
 1653SOL     H2 7057   0.365   5.889   0.102  0.3457  0.1902  0.6795
 1653SOL    EPW 7058   0.419   5.819   0.110  0.0834 -0.0124  0.6874
 1654SOL      O 7059   3.380   4.449   0.390 -0.4684  0.1557 -0.0689
 1654SOL     H1 7060   3.421   4.507   0.326 -0.8020  0.7101  0.2138
 1654SOL     H2 7061   3.407   4.484   0.475 -2.4649  1.2849  0.1691
 1654SOL    EPW 7062   3.387   4.459   0.392 -0.7170  0.3353 -0.0133
 1655SOL      O 7063   1.912   0.778   3.832 -0.1267 -0.0314  0.3189
 1655SOL     H1 7064   1.853   0.803   3.761  1.2405  1.1088 -0.4583
 1655SOL     H2 7065   1.972   0.852   3.840  1.9655 -1.6493  0.2588
 1655SOL    EPW 7066   1.912   0.789   3.826  0.2424 -0.0823  0.2296
 1656SOL      O 7067   0.535   4.416   3.166  0.3492  0.1086 -0.2604
 1656SOL     H1 7068   0.502   4.354   3.102 -1.9064 -0.0770  0.9455
 1656SOL     H2 7069   0.562   4.492   3.115  1.2742 -1.0892 -1.6036
 1656SOL    EPW 7070   0.534   4.418   3.154  0.2073 -0.0390 -0.2750
 1657SOL      O 7071   3.984   2.628   3.101  0.7682 -0.0054  0.2976
 1657SOL     H1 7072   4.021   2.614   3.013  2.6426 -1.7976  1.2735
 1657SOL     H2 7073   3.890   2.616   3.089  1.0369 -0.7646 -1.3966
 1657SOL    EPW 7074   3.978   2.625   3.090  0.9968 -0.2775  0.2209
 1658SOL      O 7075   4.829   4.809   0.259 -0.1910 -0.4754  0.4744
 1658SOL     H1 7076   4.738   4.791   0.235 -0.3449 -1.0790  1.4443
 1658SOL     H2 7077   4.824   4.844   0.348  0.4790  0.1385  0.2807
 1658SOL    EPW 7078   4.819   4.811   0.266 -0.1359 -0.4743  0.5572
 1659SOL      O 7079   0.467   3.110   3.092  0.4643  0.0128  0.2266
 1659SOL     H1 7080   0.411   3.042   3.055  0.2989 -0.1812  0.8214
 1659SOL     H2 7081   0.556   3.075   3.082  0.3917 -0.2140  0.3736
 1659SOL    EPW 7082   0.471   3.099   3.087  0.4389 -0.0321  0.3058
 1660SOL      O 7083   0.128   3.880   1.591  0.0014 -0.0370 -0.0549
 1660SOL     H1 7084   0.114   3.884   1.685 -0.8346 -1.5599 -0.0805
 1660SOL     H2 7085   0.040   3.881   1.553  0.3254  0.6508 -0.8398
 1660SOL    EPW 7086   0.117   3.881   1.597 -0.0532 -0.1261 -0.1414
 1661SOL      O 7087   3.827   5.310   1.210 -0.3273  0.4882  0.7982
 1661SOL     H1 7088   3.819   5.275   1.299  1.8829  0.0721  0.8773
 1661SOL     H2 7089   3.869   5.395   1.221 -0.3917  0.6070  0.1673
 1661SOL    EPW 7090   3.830   5.315   1.221 -0.0984  0.4565  0.7393
 1662SOL      O 7091   5.099   1.786   2.478 -0.0575 -0.0168 -0.4903
 1662SOL     H1 7092   5.010   1.819   2.488 -0.6417 -1.2619 -1.2962
 1662SOL     H2 7093   5.144   1.812   2.558 -1.5483 -0.5987  0.5727
 1662SOL    EPW 7094   5.094   1.792   2.488 -0.2789 -0.2117 -0.4629
 1663SOL      O 7095   2.922   5.187   0.118  0.2756  0.1796  0.1707
 1663SOL     H1 7096   2.934   5.105   0.071 -0.7231  0.6081 -0.8818
 1663SOL     H2 7097   3.007   5.231   0.112  0.8042 -0.7455  0.7147
 1663SOL    EPW 7098   2.933   5.183   0.112  0.2254  0.1266  0.1165
 1664SOL      O 7099   4.366   0.658   3.934 -0.0666  0.1838 -0.1946
 1664SOL     H1 7100   4.435   0.593   3.949  0.2041  0.4695 -0.1871
 1664SOL     H2 7101   4.410   0.742   3.946 -0.2206  0.3869 -1.0162
 1664SOL    EPW 7102   4.378   0.660   3.937 -0.0542  0.2359 -0.2815
 1665SOL      O 7103   1.285   1.653   2.586 -0.7362  0.0523 -0.6765
 1665SOL     H1 7104   1.349   1.582   2.594 -1.5403 -0.8628 -1.8955
 1665SOL     H2 7105   1.284   1.695   2.672  0.3421 -0.9064 -0.1705
 1665SOL    EPW 7106   1.292   1.650   2.596 -0.7069 -0.1476 -0.7526
 1666SOL      O 7107   0.908   1.353   3.211  0.1915  0.2750  0.2687
 1666SOL     H1 7108   0.949   1.278   3.254 -2.1528  0.9338  4.1121
 1666SOL     H2 7109   0.831   1.316   3.167  0.0618  0.1490  0.5954
 1666SOL    EPW 7110   0.904   1.341   3.211 -0.0724  0.3319  0.7136
 1667SOL      O 7111   5.805   1.595   3.660  0.0435 -0.3864 -0.9128
 1667SOL     H1 7112   5.803   1.503   3.688 -0.0647  0.2135  1.2415
 1667SOL     H2 7113   5.892   1.606   3.622  0.3535 -1.1926 -0.4684
 1667SOL    EPW 7114   5.814   1.586   3.659  0.0650 -0.4084 -0.6356
 1668SOL      O 7115   1.692   1.828   3.386  0.2030  0.3081  0.0831
 1668SOL     H1 7116   1.611   1.853   3.341  0.3922  0.0433 -0.4026
 1668SOL     H2 7117   1.708   1.901   3.447  0.1953  0.8949 -0.6019
 1668SOL    EPW 7118   1.685   1.839   3.388  0.2223  0.3425 -0.0418
 1669SOL      O 7119   1.031   0.209   0.201  0.0417  0.0355  0.4576
 1669SOL     H1 7120   0.966   0.199   0.272 -0.4055 -1.4947 -0.1212
 1669SOL     H2 7121   1.108   0.164   0.234  0.4332  0.8405  0.6637
 1669SOL    EPW 7122   1.032   0.203   0.212  0.0358 -0.0419  0.4178
 1670SOL      O 7123   1.117   3.513   1.423 -0.2304  0.1162  0.2644
 1670SOL     H1 7124   1.026   3.544   1.425 -0.4812 -0.6144  0.7365
 1670SOL     H2 7125   1.168   3.586   1.456 -0.3834  1.3214 -1.9763
 1670SOL    EPW 7126   1.113   3.524   1.427 -0.2735  0.1669  0.0758
 1671SOL      O 7127   4.418   3.387   0.764  0.2136 -0.8458  0.0963
 1671SOL     H1 7128   4.418   3.481   0.780  2.2453 -0.5980 -0.9590
 1671SOL     H2 7129   4.456   3.349   0.843  0.2837 -0.6740  0.1450
 1671SOL    EPW 7130   4.422   3.393   0.774  0.4378 -0.8010 -0.0111
 1672SOL      O 7131   2.578   0.791   3.566 -1.0472 -0.1157 -0.6505
 1672SOL     H1 7132   2.650   0.854   3.570 -0.3466 -0.9484  0.1273
 1672SOL     H2 7133   2.560   0.770   3.657  0.3545 -2.8626 -0.9272
 1672SOL    EPW 7134   2.584   0.796   3.576 -0.8230 -0.4975 -0.5970
 1673SOL      O 7135   0.729   5.094   3.301 -0.5281 -0.2745 -0.5897
 1673SOL     H1 7136   0.719   5.140   3.385 -0.2049  1.5742 -1.5087
 1673SOL     H2 7137   0.748   5.164   3.238 -0.0357 -1.6983 -2.0825
 1673SOL    EPW 7138   0.730   5.107   3.303 -0.4411 -0.2291 -0.8470
 1674SOL      O 7139   1.848   3.961   2.512 -0.3016 -0.0965  0.3988
 1674SOL     H1 7140   1.806   3.935   2.431 -1.1834  0.0634  0.7876
 1674SOL     H2 7141   1.873   4.052   2.498  1.4469 -0.6713 -0.4294
 1674SOL    EPW 7142   1.846   3.968   2.502 -0.2092 -0.1407  0.3520
 1675SOL      O 7143   3.620   4.397   0.789 -0.2370  0.4529 -0.2047
 1675SOL     H1 7144   3.605   4.380   0.882 -0.1548  2.4123  0.2014
 1675SOL     H2 7145   3.705   4.357   0.771 -0.7807 -0.9766  0.2351
 1675SOL    EPW 7146   3.627   4.391   0.797 -0.2862  0.5094 -0.1145
 1676SOL      O 7147   2.730   4.957   0.511  0.6422  0.1496  0.4962
 1676SOL     H1 7148   2.774   5.030   0.555  0.9579  0.0803  0.3034
 1676SOL     H2 7149   2.701   4.994   0.427 -2.4071  1.0577  1.8451
 1676SOL    EPW 7150   2.732   4.969   0.506  0.3505  0.2390  0.6195
 1677SOL      O 7151   1.169   0.012   0.340  0.5417 -0.5457 -0.4618
 1677SOL     H1 7152   1.258   0.028   0.373  0.3764  0.5610 -0.4999
 1677SOL     H2 7153   1.182  -0.043   0.263  1.2652  0.1866 -0.8869
 1677SOL    EPW 7154   1.180   0.008   0.335  0.6013 -0.3495 -0.5112
 1678SOL      O 7155   0.397   1.389   0.547 -0.5054 -0.4570 -0.2126
 1678SOL     H1 7156   0.373   1.464   0.492  0.5833  1.1446  1.4056
 1678SOL     H2 7157   0.346   1.316   0.510 -3.9380  1.6322 -0.0962
 1678SOL    EPW 7158   0.389   1.389   0.537 -0.7554 -0.0632 -0.0275
 1679SOL      O 7159   2.589   2.999   1.682 -0.1686  0.0895 -0.4937
 1679SOL     H1 7160   2.601   3.033   1.770  0.7932  0.3299 -0.7105
 1679SOL     H2 7161   2.547   2.914   1.694  0.7989 -0.2921  0.2507
 1679SOL    EPW 7162   2.586   2.994   1.692  0.0372  0.0745 -0.4374
 1680SOL      O 7163   3.037   2.376   0.637 -0.1648  0.2759 -0.1203
 1680SOL     H1 7164   3.115   2.420   0.602  0.0191  0.0989  0.0664
 1680SOL     H2 7165   3.062   2.284   0.642  0.2137  0.4230  1.5047
 1680SOL    EPW 7166   3.048   2.371   0.634 -0.1048  0.2727  0.0730
 1681SOL      O 7167   0.395   0.972   1.930  0.0859  0.5925 -0.7022
 1681SOL     H1 7168   0.385   0.882   1.961  1.7796  0.4672 -0.4528
 1681SOL     H2 7169   0.351   0.973   1.845  0.9269 -0.7595 -1.1840
 1681SOL    EPW 7170   0.389   0.962   1.924  0.3563  0.4349 -0.7270
 1682SOL      O 7171   2.196   2.836   0.039  0.0207 -0.5497 -0.5789
 1682SOL     H1 7172   2.128   2.840  -0.028 -0.6791 -0.8464  0.0972
 1682SOL     H2 7173   2.230   2.926   0.045 -1.4743 -0.0097  0.2375
 1682SOL    EPW 7174   2.193   2.846   0.033 -0.2134 -0.5238 -0.4197
 1683SOL      O 7175   0.942   4.274   2.130  0.1933 -0.0452  0.4327
 1683SOL     H1 7176   1.011   4.229   2.179  0.7041  0.9257  0.6329
 1683SOL     H2 7177   0.868   4.277   2.190  0.5816  0.4972  0.9066
 1683SOL    EPW 7178   0.942   4.270   2.142  0.2892  0.1162  0.5046
 1684SOL      O 7179   3.174   3.248   0.248 -0.0179  0.5222  0.6305
 1684SOL     H1 7180   3.137   3.304   0.180  0.5155 -0.1048 -0.1856
 1684SOL     H2 7181   3.197   3.167   0.203  1.1731  0.4294  1.3705
 1684SOL    EPW 7182   3.172   3.245   0.236  0.1660  0.4454  0.6224
 1685SOL      O 7183   0.680   2.306   1.117  0.4575 -0.1135 -0.6868
 1685SOL     H1 7184   0.629   2.380   1.151  0.3209 -0.2494 -0.5913
 1685SOL     H2 7185   0.616   2.253   1.070  0.4848 -0.3488 -0.4617
 1685SOL    EPW 7186   0.668   2.308   1.116  0.4459 -0.1531 -0.6526
 1686SOL      O 7187   1.254   0.200   0.665 -0.5612  0.2172  0.0225
 1686SOL     H1 7188   1.304   0.176   0.587  0.8446  0.9255  0.6538
 1686SOL     H2 7189   1.229   0.116   0.704  0.7086 -0.2000  0.0075
 1686SOL    EPW 7190   1.257   0.189   0.661 -0.2757  0.2482  0.0882
 1687SOL      O 7191   0.366   4.994   1.016 -0.1086 -0.4711 -0.8529
 1687SOL     H1 7192   0.366   5.063   0.949  1.4037  0.6455  0.2396
 1687SOL     H2 7193   0.447   5.008   1.065  0.7050 -3.5453 -1.0795
 1687SOL    EPW 7194   0.375   5.003   1.014  0.1395 -0.6799 -0.7605
 1688SOL      O 7195   2.537   2.623   2.225 -0.0774 -0.6852 -0.2981
 1688SOL     H1 7196   2.566   2.697   2.171  1.3963  0.1455  1.5164
 1688SOL     H2 7197   2.527   2.660   2.313  0.1308 -2.5229  0.5538
 1688SOL    EPW 7198   2.539   2.635   2.228  0.1020 -0.7926 -0.0136
 1689SOL      O 7199   2.028   1.286   3.423  0.6247  1.0291 -0.2037
 1689SOL     H1 7200   2.096   1.229   3.387  0.5107  0.1893  0.8726
 1689SOL     H2 7201   2.002   1.342   3.349  0.2177 -0.7867 -1.4942
 1689SOL    EPW 7202   2.033   1.286   3.411  0.5691  0.7458 -0.2265
 1690SOL      O 7203   4.986   5.857   0.923 -0.3434  0.7545 -0.4157
 1690SOL     H1 7204   4.976   5.792   0.992 -0.7409  0.4910 -0.7196
 1690SOL     H2 7205   5.051   5.819   0.864 -1.8560 -0.1925 -1.5361
 1690SOL    EPW 7206   4.992   5.846   0.924 -0.5471  0.6254 -0.5677
 1691SOL      O 7207   0.534   3.253   3.557 -0.3616 -0.4218 -0.1198
 1691SOL     H1 7208   0.591   3.215   3.490  0.5987 -0.0430  0.4546
 1691SOL     H2 7209   0.462   3.191   3.565 -0.4396 -0.5176 -1.4252
 1691SOL    EPW 7210   0.533   3.242   3.551 -0.2675 -0.3916 -0.1978
 1692SOL      O 7211   1.397   2.706   2.745  0.1296  0.8388 -0.1182
 1692SOL     H1 7212   1.317   2.697   2.797  0.5265  0.8637  0.5059
 1692SOL     H2 7213   1.418   2.617   2.717  0.3579  0.7077  0.4482
 1692SOL    EPW 7214   1.391   2.696   2.747  0.1963  0.8274  0.0088
 1693SOL      O 7215   0.423   1.507   0.048  0.2494 -0.0651  0.2171
 1693SOL     H1 7216   0.328   1.511   0.056  0.3055  1.1851  0.5449
 1693SOL     H2 7217   0.440   1.517  -0.045  0.0112 -2.5939 -0.1671
 1693SOL    EPW 7218   0.415   1.508   0.039  0.2300 -0.2015  0.2111
 1694SOL      O 7219   3.556   4.153   3.766 -0.0778 -0.2986  0.2840
 1694SOL     H1 7220   3.487   4.209   3.729  0.9360 -1.0080 -3.0130
 1694SOL     H2 7221   3.628   4.160   3.704  1.8607 -1.6479  2.2377
 1694SOL    EPW 7222   3.556   4.160   3.755  0.2371 -0.5182  0.1407
 1695SOL      O 7223   1.231   1.831   1.691 -0.0615 -0.2595 -0.0520
 1695SOL     H1 7224   1.222   1.925   1.702  0.0075 -0.1536 -0.8436
 1695SOL     H2 7225   1.197   1.814   1.603  1.3134 -0.7605 -0.5099
 1695SOL    EPW 7226   1.226   1.839   1.683  0.0926 -0.3016 -0.1853
 1696SOL      O 7227   3.017   0.053   3.655 -0.6338  0.3501 -0.2346
 1696SOL     H1 7228   3.000  -0.019   3.594 -0.7484  0.8034 -0.7431
 1696SOL     H2 7229   2.933   0.065   3.700  0.0204 -1.4670  1.6574
 1696SOL    EPW 7230   3.006   0.046   3.654 -0.5763  0.2046 -0.0870
 1697SOL      O 7231   2.978   0.787   0.230 -0.3576 -0.1640  0.4330
 1697SOL     H1 7232   2.885   0.811   0.238 -0.6687 -1.5602  1.1984
 1697SOL     H2 7233   2.993   0.786   0.135 -1.0918  0.1642  0.3009
 1697SOL    EPW 7234   2.969   0.789   0.221 -0.4691 -0.2779  0.5005
 1698SOL      O 7235   3.184   5.353   2.074 -0.1757 -0.5553 -0.0466
 1698SOL     H1 7236   3.199   5.340   1.980  1.3909 -1.8283  0.3355
 1698SOL     H2 7237   3.164   5.265   2.107 -1.2164 -0.0389  0.7440
 1698SOL    EPW 7238   3.184   5.342   2.067 -0.1196 -0.6360  0.0785
 1699SOL      O 7239   4.024   0.146   1.036  0.1696 -0.2729  0.2821
 1699SOL     H1 7240   3.983   0.061   1.019 -0.5943 -0.4522  2.6520
 1699SOL     H2 7241   4.069   0.135   1.119 -0.4841  1.8023  0.9900
 1699SOL    EPW 7242   4.024   0.136   1.043  0.0184 -0.0706  0.6104
 1700SOL      O 7243   3.775   0.501   0.983 -0.3156  0.0876  0.6383
 1700SOL     H1 7244   3.711   0.465   0.922 -1.3064  0.3406  1.4973
 1700SOL     H2 7245   3.799   0.428   1.040  0.1862 -0.0108  0.3094
 1700SOL    EPW 7246   3.771   0.489   0.983 -0.3678  0.1041  0.6949
 1701SOL      O 7247   1.440   4.299   1.421  0.3930  0.3709 -0.6064
 1701SOL     H1 7248   1.355   4.334   1.448  0.4751  1.8233 -2.0470
 1701SOL     H2 7249   1.424   4.262   1.334  1.2875  0.9732 -1.0427
 1701SOL    EPW 7250   1.429   4.299   1.414  0.4972  0.5901 -0.8066
 1702SOL      O 7251   0.069   5.338   3.251  0.1763 -0.0335 -0.3916
 1702SOL     H1 7252   0.115   5.258   3.228  1.5095  0.1925  1.2532
 1702SOL     H2 7253   0.006   5.311   3.319  0.7249  0.3054  0.2660
 1702SOL    EPW 7254   0.067   5.327   3.256  0.3771  0.0267 -0.1459
 1703SOL      O 7255   1.652   0.395   1.697 -0.0120 -0.3004  0.2173
 1703SOL     H1 7256   1.599   0.461   1.654 -0.3378  0.5554  1.8371
 1703SOL     H2 7257   1.680   0.336   1.627 -1.8027  0.1164 -0.9058
 1703SOL    EPW 7258   1.649   0.395   1.685 -0.2378 -0.1646  0.2703
 1704SOL      O 7259   1.246   2.759   0.494 -0.2756 -0.3552 -0.3521
 1704SOL     H1 7260   1.202   2.810   0.562  0.9903  0.5465 -0.1895
 1704SOL     H2 7261   1.190   2.682   0.482 -1.5764  0.4650  0.2664
 1704SOL    EPW 7262   1.235   2.756   0.500 -0.2794 -0.1715 -0.2688
 1705SOL      O 7263   5.210   0.497   3.404  0.6889  0.2441  0.1627
 1705SOL     H1 7264   5.283   0.442   3.376 -2.4683 -3.1458 -2.4094
 1705SOL     H2 7265   5.173   0.531   3.322 -0.2838  2.4228  1.4259
 1705SOL    EPW 7266   5.214   0.495   3.392  0.2483  0.1149  0.0231
 1706SOL      O 7267   0.350   0.352   1.496 -0.1833 -0.5069  0.0137
 1706SOL     H1 7268   0.407   0.365   1.420  1.4909 -0.5451  1.2083
 1706SOL     H2 7269   0.367   0.428   1.552 -1.2730 -0.5628  0.4546
 1706SOL    EPW 7270   0.358   0.362   1.494 -0.1210 -0.5169  0.1881
 1707SOL      O 7271   0.663   3.419   0.354  0.1341  0.2475  0.2722
 1707SOL     H1 7272   0.736   3.377   0.401  0.5168  1.6754  1.0318
 1707SOL     H2 7273   0.704   3.459   0.277  0.1069  0.7978  0.5405
 1707SOL    EPW 7274   0.675   3.419   0.351  0.1720  0.4585  0.3818
 1708SOL      O 7275   0.980   2.808   0.245 -0.5991 -0.4093  0.4132
 1708SOL     H1 7276   0.961   2.901   0.257  1.9717  0.3939 -1.0453
 1708SOL     H2 7277   0.998   2.799   0.152  1.7478 -1.7789  0.9183
 1708SOL    EPW 7278   0.980   2.817   0.237 -0.0745 -0.4698  0.3115
 1709SOL      O 7279   3.507   2.020   3.966  0.1463 -0.0582 -0.8604
 1709SOL     H1 7280   3.501   1.977   3.881  1.5882  0.7668 -1.4137
 1709SOL     H2 7281   3.519   2.113   3.945 -0.8294  0.3362  0.2726
 1709SOL    EPW 7282   3.508   2.026   3.955  0.1960  0.0719 -0.7985
 1710SOL      O 7283   0.824   5.049   2.529  0.0096  0.3298  0.3836
 1710SOL     H1 7284   0.896   4.997   2.493 -1.9206 -1.1907 -1.5724
 1710SOL     H2 7285   0.826   5.130   2.479 -0.0739 -0.0259 -0.2108
 1710SOL    EPW 7286   0.832   5.052   2.520 -0.2052  0.1297  0.1116
 1711SOL      O 7287   2.093   0.207   1.162 -0.0958  0.2565  0.2749
 1711SOL     H1 7288   2.150   0.282   1.175 -0.2748  0.2705  1.0143
 1711SOL     H2 7289   2.131   0.138   1.217 -0.3984  0.0579  0.2383
 1711SOL    EPW 7290   2.103   0.208   1.169 -0.1472  0.2368  0.3499
 1712SOL      O 7291   0.813   3.373   0.757 -0.1906  0.3834  0.3193
 1712SOL     H1 7292   0.905   3.400   0.755  0.1604 -0.6050  1.8583
 1712SOL     H2 7293   0.767   3.450   0.790  0.3958  0.1540  1.7253
 1712SOL    EPW 7294   0.818   3.384   0.760 -0.0906  0.2535  0.6335
 1713SOL      O 7295   2.590   1.254   4.103 -0.6572 -0.5035  0.5274
 1713SOL     H1 7296   2.518   1.239   4.165  0.0500  0.6750  1.6819
 1713SOL     H2 7297   2.659   1.292   4.156  0.8625 -1.6291 -0.5481
 1713SOL    EPW 7298   2.590   1.256   4.115 -0.4196 -0.4979  0.5358
 1714SOL      O 7299   5.538   3.145   0.457 -0.8063  0.2689 -0.6497
 1714SOL     H1 7300   5.494   3.077   0.508 -1.1647  0.7577 -0.3058
 1714SOL     H2 7301   5.631   3.129   0.472 -0.9121  1.3362  1.4237
 1714SOL    EPW 7302   5.543   3.136   0.464 -0.8558  0.4349 -0.3918
 1715SOL      O 7303   4.791   3.318   4.089  0.0633 -0.0406 -0.5370
 1715SOL     H1 7304   4.878   3.320   4.049  0.2140  0.0324 -0.2065
 1715SOL     H2 7305   4.775   3.408   4.118  0.1922 -0.2078  0.0696
 1715SOL    EPW 7306   4.798   3.328   4.088  0.0931 -0.0507 -0.4370
 1716SOL      O 7307   2.662   3.033   0.406 -0.4997 -0.8122 -0.8189
 1716SOL     H1 7308   2.587   3.074   0.364 -0.8471 -2.8031 -2.3392
 1716SOL     H2 7309   2.725   3.020   0.334  1.1944  0.5082  0.3537
 1716SOL    EPW 7310   2.661   3.036   0.394 -0.3561 -0.8838 -0.8560
 1717SOL      O 7311   5.605   4.768   1.317 -0.0679  0.5263  0.7813
 1717SOL     H1 7312   5.623   4.674   1.314  1.4703  0.8097  0.0933
 1717SOL     H2 7313   5.692   4.809   1.319 -0.6526  1.9756 -1.1052
 1717SOL    EPW 7314   5.617   4.762   1.317  0.0338  0.7112  0.5066
 1718SOL      O 7315   4.439   3.696   3.961  0.6103  0.0923 -0.0624
 1718SOL     H1 7316   4.387   3.629   3.917 -0.3235  0.6072  0.2280
 1718SOL     H2 7317   4.377   3.740   4.019  1.3887  0.6919  0.3369
 1718SOL    EPW 7318   4.427   3.693   3.963  0.5937  0.2112  0.0112
 1719SOL      O 7319   0.300   1.215   0.348 -0.1089 -0.3609  0.2577
 1719SOL     H1 7320   0.375   1.213   0.288  0.3435  2.5446  0.5321
 1719SOL     H2 7321   0.230   1.256   0.298 -0.9829 -1.4350  0.5620
 1719SOL    EPW 7322   0.301   1.220   0.336 -0.1539 -0.1655  0.3194
 1720SOL      O 7323   4.157   1.419   3.354  0.1405  0.5465  0.1598
 1720SOL     H1 7324   4.134   1.369   3.275 -1.6685 -1.1858  1.6815
 1720SOL     H2 7325   4.220   1.484   3.323  0.6671 -1.0376 -2.4304
 1720SOL    EPW 7326   4.161   1.420   3.342  0.0037  0.1927  0.0458
 1721SOL      O 7327   5.292   2.829   3.916 -0.3413 -0.3019 -0.2251
 1721SOL     H1 7328   5.374   2.848   3.961  0.3249  1.1222 -1.9134
 1721SOL     H2 7329   5.225   2.879   3.963  0.2097  0.5932 -0.3861
 1721SOL    EPW 7330   5.293   2.836   3.926 -0.2115 -0.0545 -0.4224
 1722SOL      O 7331   1.357   1.730   1.274 -0.0252 -0.3270  0.5422
 1722SOL     H1 7332   1.406   1.812   1.267 -0.4384 -0.1036  0.2262
 1722SOL     H2 7333   1.282   1.751   1.330  1.1321 -1.1058  2.5133
 1722SOL    EPW 7334   1.354   1.741   1.279  0.0541 -0.3863  0.7188
 1723SOL      O 7335   4.783   4.797   3.619 -0.2390 -0.5211  0.3400
 1723SOL     H1 7336   4.741   4.832   3.540 -0.9858  0.3305  1.1052
 1723SOL     H2 7337   4.876   4.795   3.597 -0.3818  0.1771 -0.3828
 1723SOL    EPW 7338   4.788   4.800   3.608 -0.3339 -0.3558  0.3445
 1724SOL      O 7339   3.448   4.748   3.339  0.3209 -0.4216 -0.0363
 1724SOL     H1 7340   3.418   4.784   3.256  1.4375 -0.6039 -0.5488
 1724SOL     H2 7341   3.507   4.677   3.314  0.6009 -0.5438  0.9185
 1724SOL    EPW 7342   3.451   4.744   3.328  0.4699 -0.4540  0.0109
 1725SOL      O 7343   5.231   5.350   1.886 -0.1219  0.3795 -0.2393
 1725SOL     H1 7344   5.264   5.291   1.953  1.2842  1.7017  0.2938
 1725SOL     H2 7345   5.158   5.303   1.846  0.7899 -1.6116  0.3070
 1725SOL    EPW 7346   5.227   5.338   1.889  0.1254  0.3081 -0.1241
 1726SOL      O 7347   3.459   3.269   3.835 -0.6051 -0.6537 -0.3156
 1726SOL     H1 7348   3.535   3.214   3.856  0.3900  0.2387 -1.4233
 1726SOL     H2 7349   3.418   3.287   3.919  0.4294 -1.1403  0.3084
 1726SOL    EPW 7350   3.463   3.265   3.846 -0.3886 -0.6104 -0.3672
 1727SOL      O 7351   0.903   3.952   0.127  0.3818 -0.8187 -0.0905
 1727SOL     H1 7352   0.826   3.896   0.142 -0.0954 -0.2601 -0.4063
 1727SOL     H2 7353   0.876   4.038   0.160  0.8459 -0.6010 -0.2791
 1727SOL    EPW 7354   0.892   3.955   0.132  0.3804 -0.7359 -0.1443
 1728SOL      O 7355   1.990   5.811   2.093  0.0545 -0.1870 -0.3296
 1728SOL     H1 7356   1.945   5.841   2.172 -0.3900  0.5188 -0.8357
 1728SOL     H2 7357   2.043   5.886   2.066  2.7944 -1.4707  1.0996
 1728SOL    EPW 7358   1.990   5.822   2.098  0.2994 -0.2487 -0.2311
 1729SOL      O 7359   4.172   0.406   0.599  0.2371 -0.1963  0.5334
 1729SOL     H1 7360   4.086   0.445   0.607 -0.6811 -1.6473 -1.4322
 1729SOL     H2 7361   4.177   0.377   0.508  3.1715  0.6329  0.3280
 1729SOL    EPW 7362   4.164   0.407   0.590  0.4522 -0.2627  0.3018
 1730SOL      O 7363   3.144   3.863   0.600 -0.8170 -0.0615 -0.1967
 1730SOL     H1 7364   3.052   3.848   0.625 -0.4314 -2.1717  0.0802
 1730SOL     H2 7365   3.160   3.801   0.530  0.3810  0.3912 -0.3362
 1730SOL    EPW 7366   3.136   3.855   0.595 -0.6481 -0.2383 -0.1820
 1731SOL      O 7367   1.057   2.130   1.860 -0.5965 -0.3348  0.1911
 1731SOL     H1 7368   1.111   2.198   1.900 -1.5457  1.0516 -0.7830
 1731SOL     H2 7369   1.102   2.109   1.778 -0.3457 -0.8340  0.4541
 1731SOL    EPW 7370   1.067   2.135   1.855 -0.6710 -0.2401  0.1153
 1732SOL      O 7371   5.401   2.328   0.631 -0.1630 -0.0346 -0.6080
 1732SOL     H1 7372   5.472   2.275   0.595  0.0421  0.0316 -0.3016
 1732SOL     H2 7373   5.353   2.360   0.554  0.7158  0.7243 -0.8574
 1732SOL    EPW 7374   5.403   2.326   0.619 -0.0474  0.0534 -0.6020
 1733SOL      O 7375   5.198   0.786   0.001  0.2942 -0.3719 -0.3529
 1733SOL     H1 7376   5.139   0.783   0.076  0.1297 -0.5734 -0.4882
 1733SOL     H2 7377   5.252   0.863   0.016 -0.1183 -0.0895 -0.3143
 1733SOL    EPW 7378   5.198   0.794   0.011  0.2327 -0.3633 -0.3632
 1734SOL      O 7379   5.174   2.074   3.913  0.3658  0.0785 -0.6019
 1734SOL     H1 7380   5.206   2.114   3.832 -0.4922  0.3599 -0.8040
 1734SOL     H2 7381   5.099   2.127   3.938  0.7218  0.0958  0.4725
 1734SOL    EPW 7382   5.170   2.084   3.907  0.3122  0.1104 -0.5088
 1735SOL      O 7383   3.385   1.400   3.801  0.2048  0.0955 -0.0220
 1735SOL     H1 7384   3.379   1.376   3.709  3.3738 -1.0957 -0.0329
 1735SOL     H2 7385   3.393   1.496   3.801 -0.1982  0.1357 -0.9191
 1735SOL    EPW 7386   3.385   1.408   3.791  0.4999 -0.0273 -0.1188
 1736SOL      O 7387   3.979   3.415   1.702 -0.2223  0.4854  0.1153
 1736SOL     H1 7388   3.903   3.459   1.741 -1.1434  0.3227 -1.4303
 1736SOL     H2 7389   3.964   3.322   1.722  0.3545  0.5892  1.0857
 1736SOL    EPW 7390   3.969   3.410   1.708 -0.2590  0.4791  0.0540
 1737SOL      O 7391   3.759   0.980   3.623 -0.1537 -0.5770  0.1455
 1737SOL     H1 7392   3.751   1.047   3.556  2.0982  0.8841  1.2341
 1737SOL     H2 7393   3.797   0.905   3.577  0.3900  0.0459 -0.4474
 1737SOL    EPW 7394   3.762   0.979   3.611  0.1445 -0.3547  0.1984
 1738SOL      O 7395   5.387   2.942   0.561  0.2307 -0.6546 -0.4386
 1738SOL     H1 7396   5.423   2.854   0.548 -0.7846 -1.1417 -0.0061
 1738SOL     H2 7397   5.324   2.932   0.632 -1.0141  0.1127 -1.3939
 1738SOL    EPW 7398   5.384   2.931   0.567 -0.0104 -0.6247 -0.4944
 1739SOL      O 7399   0.310   1.934   0.203  0.7161 -0.1938  0.4045
 1739SOL     H1 7400   0.246   1.863   0.208  1.1950 -0.5984  0.9860
 1739SOL     H2 7401   0.395   1.889   0.198  0.8856  0.2419 -3.1806
 1739SOL    EPW 7402   0.312   1.922   0.203  0.7852 -0.1905  0.0841
 1740SOL      O 7403   5.520   3.194   1.718  0.1921  0.7865 -0.1516
 1740SOL     H1 7404   5.605   3.153   1.703  1.0539  1.8111  1.5674
 1740SOL     H2 7405   5.457   3.121   1.716  1.1526 -0.0355 -1.0613
 1740SOL    EPW 7406   5.522   3.182   1.716  0.3865  0.8081 -0.0653
 1741SOL      O 7407   4.459   2.478   0.062 -0.2578 -0.0265  0.0156
 1741SOL     H1 7408   4.472   2.568   0.091 -1.1561 -0.0722  0.5987
 1741SOL     H2 7409   4.537   2.458   0.010 -1.2320  1.9492 -2.3847
 1741SOL    EPW 7410   4.469   2.485   0.060 -0.4575  0.1794 -0.1782
 1742SOL      O 7411   5.763   4.438   2.844  0.4209  0.1413 -0.0558
 1742SOL     H1 7412   5.813   4.454   2.924  0.1051 -0.4695  0.2702
 1742SOL     H2 7413   5.727   4.350   2.855 -1.9926  1.0985  0.4251
 1742SOL    EPW 7414   5.765   4.430   2.854  0.1298  0.1782  0.0303
 1743SOL      O 7415   0.097   0.669   1.655  0.1948  0.3014 -0.8566
 1743SOL     H1 7416   0.071   0.637   1.568  2.0141 -1.0135 -0.9746
 1743SOL     H2 7417   0.036   0.626   1.715  0.0610 -0.2232 -1.3526
 1743SOL    EPW 7418   0.088   0.661   1.652  0.3746  0.1051 -0.9221
 1744SOL      O 7419   3.971   2.416   2.225 -0.2610  0.3419  0.2168
 1744SOL     H1 7420   3.911   2.491   2.230 -0.7194  0.1827 -2.0089
 1744SOL     H2 7421   4.041   2.446   2.168 -0.3523 -0.8624 -0.5447
 1744SOL    EPW 7422   3.972   2.427   2.220 -0.3196  0.1964 -0.1018
 1745SOL      O 7423   4.672   3.586   3.755  0.2319 -0.2451 -0.0923
 1745SOL     H1 7424   4.609   3.554   3.819 -0.5623 -0.6706 -1.0594
 1745SOL     H2 7425   4.635   3.561   3.670  1.5260 -0.1961 -0.7028
 1745SOL    EPW 7426   4.661   3.580   3.752  0.2853 -0.2852 -0.2606
 1746SOL      O 7427   5.158   0.465   2.558  0.2924  0.2777 -0.0929
 1746SOL     H1 7428   5.233   0.493   2.610 -0.1070  1.7427 -0.2701
 1746SOL     H2 7429   5.188   0.468   2.467 -0.1395  1.4699 -0.2125
 1746SOL    EPW 7430   5.169   0.468   2.554  0.2038  0.5611 -0.1246
 1747SOL      O 7431   5.579   2.108   0.567  0.3994 -0.9061 -0.3069
 1747SOL     H1 7432   5.570   2.042   0.499 -1.0509 -0.0355 -1.0098
 1747SOL     H2 7433   5.651   2.163   0.538 -0.1649 -0.5821 -1.1238
 1747SOL    EPW 7434   5.586   2.107   0.557  0.1845 -0.7786 -0.4690
 1748SOL      O 7435   2.622   3.979   1.245  0.2437 -0.1647  0.2477
 1748SOL     H1 7436   2.621   3.981   1.341 -1.5989 -0.8686  0.2888
 1748SOL     H2 7437   2.700   4.029   1.220  0.6938  0.1157  2.1030
 1748SOL    EPW 7438   2.630   3.984   1.253  0.0952 -0.2098  0.4500
 1749SOL      O 7439   3.571   2.921   2.899  0.3831  0.2566 -0.3248
 1749SOL     H1 7440   3.647   2.979   2.904  1.8866 -1.5242 -1.4946
 1749SOL     H2 7441   3.521   2.953   2.824  1.6815 -0.4805 -1.5299
 1749SOL    EPW 7442   3.574   2.931   2.892  0.6820 -0.0120 -0.5782
 1750SOL      O 7443   2.251   5.270   0.726 -0.7920 -0.4677  0.0170
 1750SOL     H1 7444   2.238   5.184   0.765 -0.0277 -0.7762 -0.3773
 1750SOL     H2 7445   2.337   5.298   0.757 -0.1695 -0.7197 -1.3953
 1750SOL    EPW 7446   2.259   5.264   0.733 -0.6441 -0.5275 -0.1757
 1751SOL      O 7447   0.130   0.080   3.808  0.0355 -0.3177 -0.1126
 1751SOL     H1 7448   0.200   0.137   3.774  0.7053 -1.2978 -0.4148
 1751SOL     H2 7449   0.132   0.093   3.902  1.6999 -1.4787  0.0598
 1751SOL    EPW 7450   0.138   0.088   3.814  0.2845 -0.5461 -0.1264
 1752SOL      O 7451   0.571   0.629   3.924  0.0524  0.0994  0.2434
 1752SOL     H1 7452   0.543   0.584   4.004 -1.5751  0.0824 -0.2984
 1752SOL     H2 7453   0.490   0.659   3.883  0.9536  1.5313 -0.5920
 1752SOL    EPW 7454   0.559   0.627   3.928 -0.0251  0.2503  0.0965
 1753SOL      O 7455   5.796   0.033   2.881  1.1481 -0.2380  0.5797
 1753SOL     H1 7456   5.795  -0.047   2.934  0.8525  0.1057  1.0950
 1753SOL     H2 7457   5.888   0.061   2.881  1.3887 -0.9772 -0.2187
 1753SOL    EPW 7458   5.806   0.027   2.886  1.1422 -0.2802  0.5495
 1754SOL      O 7459   2.659   0.966   2.800  0.7444  0.1239  0.1614
 1754SOL     H1 7460   2.715   0.905   2.752  0.7063 -0.0759  0.3694
 1754SOL     H2 7461   2.699   0.972   2.887  1.7810  1.7680 -0.3801
 1754SOL    EPW 7462   2.669   0.960   2.804  0.8510  0.2780  0.1258
 1755SOL      O 7463   3.734   4.178   3.545  0.5646 -0.0525  0.3540
 1755SOL     H1 7464   3.815   4.229   3.542  0.7248 -0.3191  0.0233
 1755SOL     H2 7465   3.746   4.111   3.477  0.4268 -0.6318  0.8988
 1755SOL    EPW 7466   3.744   4.176   3.537  0.5670 -0.1427  0.3768
 1756SOL      O 7467   3.538   4.256   0.209 -0.4221 -0.0253 -1.0230
 1756SOL     H1 7468   3.480   4.263   0.134  1.9332 -0.8014 -3.0645
 1756SOL     H2 7469   3.626   4.272   0.173  0.7026  1.1524  1.8754
 1756SOL    EPW 7470   3.541   4.259   0.197 -0.0509  0.0175 -0.9316
 1757SOL      O 7471   3.005   4.467   2.311  0.8532 -0.2214  0.4903
 1757SOL     H1 7472   2.992   4.374   2.292  1.5693 -0.6072  1.8043
 1757SOL     H2 7473   2.995   4.474   2.406  0.9616  1.0194  0.4259
 1757SOL    EPW 7474   3.003   4.458   2.319  0.9412 -0.1302  0.6236
 1758SOL      O 7475   1.564   1.655   0.524  0.5883  0.2062  0.1088
 1758SOL     H1 7476   1.649   1.675   0.485  1.4499  0.0547  1.7883
 1758SOL     H2 7477   1.563   1.707   0.604 -0.2429 -0.9441  0.8681
 1758SOL    EPW 7478   1.573   1.663   0.529  0.5915  0.0674  0.3690
 1759SOL      O 7479   3.626   1.613   4.016 -0.1231  0.1919  0.3168
 1759SOL     H1 7480   3.670   1.603   3.932  0.7873 -1.4480  0.9423
 1759SOL     H2 7481   3.633   1.527   4.057 -0.3656  1.0053  2.1653
 1759SOL    EPW 7482   3.631   1.603   4.011 -0.0518  0.1037  0.5807
 1760SOL      O 7483   0.594   4.182   3.618 -0.4365  0.1376 -0.3439
 1760SOL     H1 7484   0.532   4.122   3.578 -0.9804 -0.4594  1.3371
 1760SOL     H2 7485   0.578   4.176   3.712  1.3596  0.8686  0.0652
 1760SOL    EPW 7486   0.586   4.175   3.624 -0.3029  0.1519 -0.1209
 1761SOL      O 7487   1.929   4.990   2.378  0.9100 -0.3620 -0.5684
 1761SOL     H1 7488   1.881   5.027   2.452  0.3010 -1.9983 -0.1060
 1761SOL     H2 7489   2.005   5.047   2.368  0.0065  1.0188  0.0700
 1761SOL    EPW 7490   1.932   5.000   2.384  0.7486 -0.3893 -0.4510
 1762SOL      O 7491   2.690   0.571   0.234 -0.1224  0.2753  0.4762
 1762SOL     H1 7492   2.658   0.482   0.222  1.0942 -0.0700 -0.4664
 1762SOL     H2 7493   2.667   0.593   0.324 -0.4664 -0.9767  0.7157
 1762SOL    EPW 7494   2.684   0.564   0.242 -0.0293  0.1049  0.4012
 1763SOL      O 7495   2.158   0.387   1.717  0.1893  0.0303 -0.5860
 1763SOL     H1 7496   2.205   0.425   1.791  0.1964 -0.2745 -0.4311
 1763SOL     H2 7497   2.216   0.320   1.683 -0.3028 -0.6390 -0.1273
 1763SOL    EPW 7498   2.169   0.384   1.722  0.1375 -0.0736 -0.5205
 1764SOL      O 7499   1.245   4.897   2.689  0.6110  0.0046 -0.5894
 1764SOL     H1 7500   1.224   4.989   2.707  2.1243  0.0531  1.1490
 1764SOL     H2 7501   1.317   4.900   2.626  1.2810  0.0610  0.1619
 1764SOL    EPW 7502   1.250   4.907   2.684  0.8439  0.0158 -0.3238
 1765SOL      O 7503   5.779   4.026   2.181 -0.2481  0.1700 -0.0828
 1765SOL     H1 7504   5.757   4.027   2.274  0.1873 -1.0290  0.0496
 1765SOL     H2 7505   5.733   4.101   2.145  0.0623  1.0094  1.2056
 1765SOL    EPW 7506   5.772   4.034   2.187 -0.1685  0.1316  0.0687
 1766SOL      O 7507   4.033   4.320   0.235  0.0626  0.2340 -0.5377
 1766SOL     H1 7508   4.027   4.415   0.229  1.7236  0.3615 -0.7009
 1766SOL     H2 7509   4.075   4.294   0.153  1.7303 -0.3823  0.4657
 1766SOL    EPW 7510   4.037   4.327   0.226  0.4177  0.1818 -0.4481
 1767SOL      O 7511   0.017   4.259   1.932 -0.1646  0.0644 -0.0294
 1767SOL     H1 7512   0.047   4.323   1.868 -1.7929  1.3501  0.4078
 1767SOL     H2 7513   0.009   4.177   1.882 -0.2566  0.7501 -1.1891
 1767SOL    EPW 7514   0.019   4.257   1.920 -0.3481  0.2747 -0.1065
 1768SOL      O 7515   4.373   4.920   2.930 -0.6675 -0.0174 -0.3763
 1768SOL     H1 7516   4.410   5.007   2.918 -1.9695  0.4783 -1.0447
 1768SOL     H2 7517   4.278   4.934   2.925 -0.9682 -1.2438  1.0954
 1768SOL    EPW 7518   4.367   4.931   2.928 -0.8385 -0.0954 -0.2906
 1769SOL      O 7519   3.335   5.349   0.619 -0.1860  0.6849  0.2682
 1769SOL     H1 7520   3.421   5.338   0.661 -0.5631  0.7245  1.0776
 1769SOL     H2 7521   3.340   5.434   0.575  0.7862 -0.0816 -1.1917
 1769SOL    EPW 7522   3.345   5.357   0.619 -0.1225  0.6074  0.1988
 1770SOL      O 7523   0.142   0.539   2.071 -0.0359 -0.2934 -0.2285
 1770SOL     H1 7524   0.184   0.464   2.113  1.0678 -0.6734 -1.9315
 1770SOL     H2 7525   0.213   0.601   2.056  0.3464 -1.4061 -4.2240
 1770SOL    EPW 7526   0.154   0.538   2.074  0.1226 -0.4526 -0.8364
 1771SOL      O 7527   1.278   0.742   0.397 -0.1483 -0.1778  0.3607
 1771SOL     H1 7528   1.293   0.765   0.489 -1.4190 -1.9423  1.0555
 1771SOL     H2 7529   1.341   0.673   0.379 -0.7848 -0.7684  0.3403
 1771SOL    EPW 7530   1.286   0.738   0.405 -0.3518 -0.4291  0.4326
 1772SOL      O 7531   0.661   2.928   0.373  0.3207 -0.1430  0.2384
 1772SOL     H1 7532   0.662   2.955   0.281  0.5846 -0.8836  0.0179
 1772SOL     H2 7533   0.753   2.930   0.400  0.1777  0.7424  0.6962
 1772SOL    EPW 7534   0.671   2.931   0.366  0.3336 -0.1276  0.2637
 1773SOL      O 7535   2.124   0.632   3.541 -0.1050 -0.8292  0.1687
 1773SOL     H1 7536   2.034   0.612   3.515  0.2581 -2.8704  0.2817
 1773SOL     H2 7537   2.130   0.604   3.632  0.3232  0.4471  0.5467
 1773SOL    EPW 7538   2.115   0.627   3.548 -0.0206 -0.9108  0.2211
 1774SOL      O 7539   0.080   5.439   1.894 -0.0485  0.2837 -0.2990
 1774SOL     H1 7540   0.041   5.460   1.809  0.1312  1.2563 -0.1512
 1774SOL     H2 7541   0.006   5.434   1.954 -0.0384  1.1905 -0.2039
 1774SOL    EPW 7542   0.068   5.441   1.892 -0.0282  0.4842 -0.2731
 1775SOL      O 7543   3.321   2.705   1.119  0.2004 -0.0351 -0.0370
 1775SOL     H1 7544   3.369   2.644   1.063 -0.9407 -0.2742 -0.7855
 1775SOL     H2 7545   3.276   2.649   1.183 -2.1623 -0.2213 -1.7070
 1775SOL    EPW 7546   3.321   2.692   1.120 -0.1734 -0.0804 -0.2950
 1776SOL      O 7547   0.333   2.320   0.964  0.3671 -0.4211  0.2551
 1776SOL     H1 7548   0.259   2.316   0.904  0.0648  3.2561  0.1302
 1776SOL     H2 7549   0.409   2.332   0.906  0.4090  0.5037  0.4851
 1776SOL    EPW 7550   0.333   2.321   0.951  0.3393  0.0698  0.2663
 1777SOL      O 7551   1.268   5.829   3.147 -0.4377 -0.1275  0.2706
 1777SOL     H1 7552   1.246   5.895   3.214 -1.8566  0.5022 -0.7731
 1777SOL     H2 7553   1.185   5.787   3.126  0.1782 -1.0926 -0.3004
 1777SOL    EPW 7554   1.257   5.832   3.152 -0.5234 -0.1633  0.0984
 1778SOL      O 7555   4.026   1.632   0.695  0.7397 -0.2677 -0.2317
 1778SOL     H1 7556   3.974   1.588   0.763  0.9211  0.2919  0.2832
 1778SOL     H2 7557   4.044   1.719   0.732  2.7622 -0.7259 -0.0161
 1778SOL    EPW 7558   4.023   1.636   0.706  0.9748 -0.2569 -0.1538
 1779SOL      O 7559   5.237   2.194   3.670 -0.5627 -0.1118 -0.0457
 1779SOL     H1 7560   5.331   2.174   3.674 -0.4415  0.6899  1.8437
 1779SOL     H2 7561   5.231   2.265   3.606  0.3214  0.7734  0.8139
 1779SOL    EPW 7562   5.246   2.199   3.663 -0.4554  0.0681  0.2476
 1780SOL      O 7563   4.372   0.310   3.944  0.3922  0.2757  0.6031
 1780SOL     H1 7564   4.407   0.221   3.953 -0.3952 -0.1874 -0.5906
 1780SOL     H2 7565   4.403   0.339   3.859 -1.9694 -0.1283 -0.4686
 1780SOL    EPW 7566   4.379   0.304   3.936  0.0563  0.1832  0.3615
 1781SOL      O 7567   4.285   5.192   2.064 -0.1479  0.3225  0.5985
 1781SOL     H1 7568   4.333   5.198   2.146 -3.8915 -1.2837  3.1525
 1781SOL     H2 7569   4.324   5.116   2.019  2.7212  1.9127  0.1003
 1781SOL    EPW 7570   4.295   5.185   2.068 -0.2412  0.3208  0.8178
 1782SOL      O 7571   5.567   1.776   1.282 -0.2548 -0.1366 -0.0193
 1782SOL     H1 7572   5.544   1.685   1.265  0.6243 -0.6065  1.1503
 1782SOL     H2 7573   5.550   1.821   1.199  2.1164 -1.9229 -1.6133
 1782SOL    EPW 7574   5.563   1.771   1.271  0.0919 -0.3772 -0.0646
 1783SOL      O 7575   5.075   1.618   3.575 -0.1211 -0.5621 -0.2281
 1783SOL     H1 7576   5.102   1.554   3.509  1.6405  0.8599 -0.9339
 1783SOL     H2 7577   5.070   1.701   3.528  0.5663  0.3729  1.3031
 1783SOL    EPW 7578   5.077   1.620   3.563  0.1402 -0.3106 -0.1400
 1784SOL      O 7579   0.101   4.268   3.191  0.4171  0.3937  0.0050
 1784SOL     H1 7580   0.022   4.213   3.195  1.9929 -2.0627 -0.1874
 1784SOL     H2 7581   0.094   4.324   3.268  0.0067 -2.1221  1.9662
 1784SOL    EPW 7582   0.092   4.268   3.200  0.5414 -0.1367  0.1937
 1785SOL      O 7583   5.772   1.502   1.186 -0.4127  0.2169  0.3210
 1785SOL     H1 7584   5.743   1.581   1.139  0.8135  1.0232  0.8612
 1785SOL     H2 7585   5.742   1.429   1.132 -1.3048  1.0568 -0.3529
 1785SOL    EPW 7586   5.766   1.503   1.176 -0.3770  0.3926  0.3067
 1786SOL      O 7587   0.553   1.231   1.274  0.4821 -0.2932 -0.4762
 1786SOL     H1 7588   0.504   1.151   1.256 -0.6767  0.2953 -0.0620
 1786SOL     H2 7589   0.500   1.278   1.339  1.7029  0.2874  0.1429
 1786SOL    EPW 7590   0.542   1.228   1.279  0.4887 -0.1685 -0.3660
 1787SOL      O 7591   3.823   0.288   1.123  0.2903 -0.0226 -0.1542
 1787SOL     H1 7592   3.858   0.310   1.209  1.0264  0.5446 -0.5880
 1787SOL     H2 7593   3.890   0.234   1.082 -0.8047 -1.7697  0.2661
 1787SOL    EPW 7594   3.834   0.285   1.128  0.2520 -0.1485 -0.1557
 1788SOL      O 7595   2.284   1.147   1.364  0.3846 -0.4399 -0.2672
 1788SOL     H1 7596   2.204   1.124   1.317  0.3274  1.5053 -1.1818
 1788SOL     H2 7597   2.263   1.129   1.456 -1.0502 -0.1014 -0.5095
 1788SOL    EPW 7598   2.274   1.143   1.369  0.2254 -0.1962 -0.3906
 1789SOL      O 7599   4.724   3.956   0.499  0.2358 -0.1690 -0.0794
 1789SOL     H1 7600   4.694   4.004   0.422 -1.0423  0.3954  0.7176
 1789SOL     H2 7601   4.766   3.877   0.465  2.5331  1.5250 -1.4460
 1789SOL    EPW 7602   4.725   3.953   0.487  0.3446  0.0719 -0.1402
 1790SOL      O 7603   1.962   4.855   0.636  0.4993 -0.6911 -0.4098
 1790SOL     H1 7604   1.927   4.877   0.722 -3.2967 -1.0913 -1.6610
 1790SOL     H2 7605   2.014   4.776   0.651 -0.0975 -0.7672  1.4880
 1790SOL    EPW 7606   1.964   4.849   0.647  0.0307 -0.7419 -0.3408
 1791SOL      O 7607   2.047   5.075   2.991 -0.2404 -0.3818  0.1689
 1791SOL     H1 7608   2.136   5.063   3.024 -0.8842 -2.1296  1.4282
 1791SOL     H2 7609   2.042   5.168   2.968  2.5798 -0.6486 -2.0739
 1791SOL    EPW 7610   2.056   5.084   2.992 -0.0082 -0.5967  0.0640
 1792SOL      O 7611   4.277   0.968   2.168  0.2429 -0.2518 -0.2070
 1792SOL     H1 7612   4.313   1.043   2.120 -1.2505  0.6159 -0.0125
 1792SOL     H2 7613   4.210   0.933   2.110 -1.5282  0.7607  1.1439
 1792SOL    EPW 7614   4.274   0.972   2.157 -0.1054 -0.0513 -0.0421
 1793SOL      O 7615   1.186   0.694   3.063  0.5021  0.1793  0.1425
 1793SOL     H1 7616   1.248   0.626   3.037  2.8132  1.5169  1.7360
 1793SOL     H2 7617   1.113   0.646   3.103  1.2457 -1.4160 -0.3254
 1793SOL    EPW 7618   1.185   0.681   3.065  0.8280  0.1518  0.2626
 1794SOL      O 7619   5.006   3.097   2.993 -0.2470 -0.2789  0.5614
 1794SOL     H1 7620   4.969   3.046   2.922 -0.3128  0.9399 -0.3068
 1794SOL     H2 7621   5.083   3.139   2.955 -0.7881  1.1014  0.9233
 1794SOL    EPW 7622   5.010   3.096   2.982 -0.3118 -0.0017  0.5074
 1795SOL      O 7623   4.273   3.769   0.238  0.6003  0.4629 -0.1971
 1795SOL     H1 7624   4.329   3.754   0.162 -0.7308  0.3482 -1.1817
 1795SOL     H2 7625   4.329   3.748   0.313  1.8783  0.3884 -1.1389
 1795SOL    EPW 7626   4.285   3.765   0.238  0.5947  0.4427 -0.4026
 1796SOL      O 7627   4.654   1.880   0.568  0.3332  0.0610 -0.0283
 1796SOL     H1 7628   4.665   1.966   0.528  0.0906  0.5093  0.8569
 1796SOL     H2 7629   4.560   1.862   0.559  0.8316 -1.7181 -3.4083
 1796SOL    EPW 7630   4.645   1.887   0.563  0.3605 -0.0809 -0.2945
 1797SOL      O 7631   2.941   3.788   2.785 -0.5141  0.3074 -0.3324
 1797SOL     H1 7632   2.939   3.693   2.774 -1.9987  0.1919  0.6297
 1797SOL     H2 7633   2.873   3.806   2.850 -0.2700  2.0321 -0.5073
 1797SOL    EPW 7634   2.934   3.779   2.790 -0.6464  0.4791 -0.2484
 1798SOL      O 7635   2.247   2.675   1.861 -0.1089  0.4997  0.1313
 1798SOL     H1 7636   2.170   2.715   1.902 -0.6284  1.0025 -1.2955
 1798SOL     H2 7637   2.287   2.624   1.932 -1.2693  0.9112  1.1257
 1798SOL    EPW 7638   2.243   2.674   1.873 -0.2881  0.5973  0.0852
 1799SOL      O 7639   4.669   3.216   3.287 -0.4839  0.2684  0.1347
 1799SOL     H1 7640   4.738   3.209   3.221  0.2857  2.4318  0.6320
 1799SOL     H2 7641   4.637   3.306   3.278 -0.9397  0.3389  2.1393
 1799SOL    EPW 7642   4.673   3.225   3.279 -0.4504  0.5067  0.4016
 1800SOL      O 7643   2.227   1.644   0.593  0.7110  0.4310  0.0393
 1800SOL     H1 7644   2.270   1.559   0.590  0.2089  0.1841 -0.1711
 1800SOL     H2 7645   2.185   1.654   0.508  0.5850  0.7893  0.1396
 1800SOL    EPW 7646   2.227   1.636   0.584  0.6440  0.4429  0.0276
 1801SOL      O 7647   2.592   4.501   2.532 -0.6778 -0.1239  0.4028
 1801SOL     H1 7648   2.639   4.581   2.557 -1.4793  0.3352  0.4974
 1801SOL     H2 7649   2.501   4.518   2.558 -1.3316 -0.0999 -1.6643
 1801SOL    EPW 7650   2.587   4.512   2.537 -0.8330 -0.0724  0.1923
 1802SOL      O 7651   2.600   2.464   2.635 -0.4418 -0.5269  0.1031
 1802SOL     H1 7652   2.550   2.481   2.715  0.0079 -1.2404  0.5455
 1802SOL     H2 7653   2.602   2.549   2.589 -1.0556 -0.2145  0.6401
 1802SOL    EPW 7654   2.595   2.475   2.639 -0.4593 -0.5697  0.2076
 1803SOL      O 7655   2.638   5.666   1.485 -0.3526 -0.7292  1.0671
 1803SOL     H1 7656   2.552   5.668   1.443  0.0059 -1.7859  0.2278
 1803SOL     H2 7657   2.655   5.574   1.501  1.6631 -0.8198 -1.0615
 1803SOL    EPW 7658   2.631   5.657   1.482 -0.0994 -0.8516  0.7505
 1804SOL      O 7659   0.407   1.678   2.749 -0.0291  0.7211 -0.3874
 1804SOL     H1 7660   0.501   1.681   2.729 -0.1477  0.4347 -1.0378
 1804SOL     H2 7661   0.368   1.637   2.672 -0.6907  0.8291 -0.1179
 1804SOL    EPW 7662   0.413   1.674   2.738 -0.1123  0.7021 -0.4281
 1805SOL      O 7663   5.498   1.108   2.114  0.7417 -0.3643  0.1112
 1805SOL     H1 7664   5.588   1.125   2.088  0.6460 -0.5556 -0.3528
 1805SOL     H2 7665   5.448   1.110   2.032  0.3229 -0.2526  0.3626
 1805SOL    EPW 7666   5.502   1.110   2.102  0.6868 -0.3728  0.0886
 1806SOL      O 7667   0.205   2.982   1.682  0.1118 -0.2997  0.3335
 1806SOL     H1 7668   0.285   2.990   1.630 -0.5630 -0.7994 -0.8300
 1806SOL     H2 7669   0.217   2.902   1.733 -0.3742 -1.4293 -1.2375
 1806SOL    EPW 7670   0.214   2.975   1.682 -0.0121 -0.4735  0.0418
 1807SOL      O 7671   2.734   0.922   0.277 -0.1214 -0.4186 -0.2633
 1807SOL     H1 7672   2.667   0.987   0.255 -0.8345 -0.9617  0.2655
 1807SOL     H2 7673   2.750   0.934   0.371  1.1100  0.2302 -0.5277
 1807SOL    EPW 7674   2.729   0.931   0.285 -0.0661 -0.4073 -0.2351
 1808SOL      O 7675   4.842   2.611   0.261 -0.6523 -0.2845  0.1427
 1808SOL     H1 7676   4.900   2.673   0.306 -0.8635 -0.6179  0.8829
 1808SOL     H2 7677   4.763   2.609   0.315 -1.3583  0.1394 -0.8395
 1808SOL    EPW 7678   4.840   2.618   0.271 -0.7501 -0.2748  0.1168
 1809SOL      O 7679   5.400   5.638   3.241 -0.1500 -0.1867 -0.1923
 1809SOL     H1 7680   5.425   5.723   3.205  0.0628 -0.1529  0.0324
 1809SOL     H2 7681   5.475   5.581   3.222  0.4701  0.1208  1.2095
 1809SOL    EPW 7682   5.411   5.641   3.235 -0.0612 -0.1503 -0.0188
 1810SOL      O 7683   0.812   3.062   1.582 -0.1364 -0.4264 -0.4629
 1810SOL     H1 7684   0.817   3.027   1.494  0.4686  0.1061 -0.6482
 1810SOL     H2 7685   0.884   3.125   1.587 -0.4362 -0.1285  0.2622
 1810SOL    EPW 7686   0.820   3.065   1.573 -0.1038 -0.3379 -0.4053
 1811SOL      O 7687   5.735   3.205   2.460  0.2753  0.0754  0.7419
 1811SOL     H1 7688   5.805   3.207   2.524 -0.1776 -0.2577  1.2551
 1811SOL     H2 7689   5.656   3.229   2.510 -0.1638 -0.6798  0.4235
 1811SOL    EPW 7690   5.734   3.208   2.472  0.1801 -0.0407  0.7627
 1812SOL      O 7691   3.110   5.131   0.891 -0.3620  0.3316 -0.2891
 1812SOL     H1 7692   3.024   5.094   0.913 -0.1645  1.2788  2.5660
 1812SOL     H2 7693   3.093   5.224   0.878  0.2779  0.6187  0.8335
 1812SOL    EPW 7694   3.099   5.137   0.892 -0.2727  0.4633  0.1352
 1813SOL      O 7695   4.573   1.390   0.417 -0.1594  0.4618  0.0258
 1813SOL     H1 7696   4.510   1.319   0.403 -1.1772  1.4915 -0.8503
 1813SOL     H2 7697   4.650   1.364   0.366  0.5366 -1.2406  1.8131
 1813SOL    EPW 7698   4.574   1.379   0.410 -0.1937  0.3900  0.1230
 1814SOL      O 7699   5.828   3.746   0.867 -0.4123  0.4536  0.0252
 1814SOL     H1 7700   5.753   3.694   0.895 -0.4751  1.5100  2.0748
 1814SOL     H2 7701   5.892   3.734   0.938  1.2331 -0.1180 -1.4865
 1814SOL    EPW 7702   5.827   3.739   0.878 -0.2435  0.5053  0.0826
 1815SOL      O 7703   0.991   3.209   1.903 -0.0723 -0.1907  0.5692
 1815SOL     H1 7704   1.071   3.182   1.950 -0.8060  1.4831  2.9305
 1815SOL     H2 7705   1.010   3.297   1.872 -0.5600 -0.2695  0.0374
 1815SOL    EPW 7706   1.002   3.215   1.905 -0.2026 -0.0205  0.7644
 1816SOL      O 7707   2.506   4.457   1.036 -0.3691  0.6830 -0.0067
 1816SOL     H1 7708   2.492   4.523   0.968 -0.6813 -0.7801 -1.4296
 1816SOL     H2 7709   2.540   4.381   0.989 -0.8920 -0.4918  1.4369
 1816SOL    EPW 7710   2.508   4.456   1.024 -0.4582  0.4016 -0.0045
 1817SOL      O 7711   5.256   1.390   1.782 -0.0672 -0.0289 -0.3645
 1817SOL     H1 7712   5.348   1.396   1.759 -0.4300 -0.2815 -1.9512
 1817SOL     H2 7713   5.253   1.416   1.874  1.6108 -0.2798 -0.2099
 1817SOL    EPW 7714   5.266   1.393   1.790  0.0731 -0.0826 -0.5173
 1818SOL      O 7715   1.454   3.587   3.439  0.0797 -0.3852  0.4697
 1818SOL     H1 7716   1.486   3.563   3.526  0.8645 -0.9458  0.0261
 1818SOL     H2 7717   1.496   3.671   3.421 -0.9586  0.3026  1.0853
 1818SOL    EPW 7718   1.462   3.593   3.447  0.0527 -0.3716  0.4881
 1819SOL      O 7719   2.931   3.317   3.918  0.2313  0.4333  0.1474
 1819SOL     H1 7720   2.970   3.301   3.832 -0.7585  2.1339 -0.6717
 1819SOL     H2 7721   2.980   3.390   3.954 -1.2112  1.6859 -0.3008
 1819SOL    EPW 7722   2.940   3.323   3.913 -0.0282  0.7483  0.0122
 1820SOL      O 7723   5.844   5.843   0.814 -0.5378 -0.0204  0.4068
 1820SOL     H1 7724   5.935   5.814   0.808 -0.1757  0.7353  1.8157
 1820SOL     H2 7725   5.826   5.880   0.728  0.1604 -1.0539 -0.2134
 1820SOL    EPW 7726   5.852   5.844   0.804 -0.4247 -0.0500  0.4910
 1821SOL      O 7727   5.597   5.800   1.650  0.9710  0.0656  0.1311
 1821SOL     H1 7728   5.660   5.858   1.608 -0.9647  0.7093 -2.1038
 1821SOL     H2 7729   5.520   5.802   1.592 -0.7460 -1.4225  2.1972
 1821SOL    EPW 7730   5.596   5.806   1.639  0.5813 -0.0245  0.1131
 1822SOL      O 7731   3.588   1.977   0.529  0.5058  0.3393  0.4243
 1822SOL     H1 7732   3.614   1.893   0.491  0.3609 -0.7070  2.4696
 1822SOL     H2 7733   3.653   2.039   0.497  1.6156 -0.9000  0.1737
 1822SOL    EPW 7734   3.598   1.974   0.522  0.6087  0.0955  0.6157
 1823SOL      O 7735   0.279   4.916   1.255  0.0198  0.0859  0.6593
 1823SOL     H1 7736   0.303   4.939   1.165 -0.1679  0.4755  0.7050
 1823SOL     H2 7737   0.351   4.861   1.286  0.7806  1.1027  0.7462
 1823SOL    EPW 7738   0.289   4.913   1.249  0.0809  0.2360  0.6735
 1824SOL      O 7739   5.108   5.026   3.028  0.0219 -0.1969  0.4686
 1824SOL     H1 7740   5.111   4.932   3.010  0.1317  0.0540 -0.9553
 1824SOL     H2 7741   5.040   5.060   2.969 -0.0596  0.6091  1.0072
 1824SOL    EPW 7742   5.101   5.020   3.020  0.0249 -0.0841  0.3742
 1825SOL      O 7743   2.057   1.234   3.795  0.3353  0.4100  0.2788
 1825SOL     H1 7744   2.128   1.271   3.742  0.8149 -1.2679 -0.3247
 1825SOL     H2 7745   2.100   1.171   3.852 -0.7589 -1.8607 -1.2265
 1825SOL    EPW 7746   2.069   1.231   3.795  0.2697 -0.0112  0.0539
 1826SOL      O 7747   5.144   2.233   0.938 -0.2398 -0.3181  0.3686
 1826SOL     H1 7748   5.195   2.307   0.906 -0.7161 -0.4498 -0.7246
 1826SOL     H2 7749   5.194   2.201   1.013  0.1787  0.8548  0.6165
 1826SOL    EPW 7750   5.155   2.238   0.943 -0.2460 -0.2070  0.2785
 1827SOL      O 7751   4.398   4.857   3.314  0.0593  0.3257  0.0637
 1827SOL     H1 7752   4.318   4.891   3.274 -0.0911 -0.8082 -0.6587
 1827SOL     H2 7753   4.435   4.799   3.247  1.6307  1.0339  0.2759
 1827SOL    EPW 7754   4.394   4.854   3.302  0.2109  0.2803  0.0093
 1828SOL      O 7755   1.091   0.706   2.280 -0.1604 -0.1159  0.1753
 1828SOL     H1 7756   1.067   0.702   2.372  2.5166 -2.6396  0.9034
 1828SOL     H2 7757   1.111   0.616   2.256 -0.6934  0.4661 -2.8982
 1828SOL    EPW 7758   1.091   0.696   2.287  0.0683 -0.3231 -0.0749
 1829SOL      O 7759   5.052   1.484   2.478 -0.2175  0.4539  0.3042
 1829SOL     H1 7760   5.075   1.574   2.459 -0.2992  0.4884  0.3692
 1829SOL     H2 7761   5.130   1.448   2.520  0.5935 -0.1115 -1.5969
 1829SOL    EPW 7762   5.063   1.489   2.481 -0.1397  0.3973  0.1084
 1830SOL      O 7763   0.973   1.241   1.852 -0.0239  0.4775 -0.3242
 1830SOL     H1 7764   1.022   1.159   1.860  1.0155  1.0553 -0.5845
 1830SOL     H2 7765   1.017   1.301   1.912 -1.4472  0.5551  0.6798
 1830SOL    EPW 7766   0.983   1.239   1.859 -0.0649  0.5474 -0.2449
 1831SOL      O 7767   4.842   3.317   0.186  0.0115  0.2268  0.1230
 1831SOL     H1 7768   4.809   3.228   0.199 -1.5604  0.2103 -2.8752
 1831SOL     H2 7769   4.797   3.370   0.252  0.5036 -1.0734  1.5447
 1831SOL    EPW 7770   4.834   3.313   0.194 -0.1037  0.0863 -0.0452
 1832SOL      O 7771   0.050   2.080   2.571  0.2847 -0.4057 -0.2672
 1832SOL     H1 7772   0.134   2.124   2.587  0.6883 -1.3960  0.4686
 1832SOL     H2 7773  -0.015   2.149   2.582  0.9881  0.3860 -0.8581
 1832SOL    EPW 7774   0.052   2.092   2.574  0.4028 -0.4269 -0.2517
 1833SOL      O 7775   4.159   2.375   3.990 -0.4823  0.3309 -0.2436
 1833SOL     H1 7776   4.243   2.334   4.014 -0.3023  0.3123 -0.9008
 1833SOL     H2 7777   4.095   2.305   4.000 -0.0445 -0.4457 -2.3292
 1833SOL    EPW 7778   4.161   2.363   3.994 -0.4164  0.2461 -0.5362
 1834SOL      O 7779   2.323   5.556   3.798 -0.4304 -0.6376  1.0803
 1834SOL     H1 7780   2.284   5.470   3.783 -1.8729  0.0765  0.5893
 1834SOL     H2 7781   2.355   5.584   3.712  1.0608 -1.1384  1.4440
 1834SOL    EPW 7782   2.323   5.550   3.787 -0.4252 -0.6149  1.0667
 1835SOL      O 7783   3.667   4.885   0.637 -0.3136  0.5626 -0.1002
 1835SOL     H1 7784   3.645   4.800   0.600  0.1034  0.7530 -0.8142
 1835SOL     H2 7785   3.607   4.896   0.711 -1.1521  0.1557 -0.7045
 1835SOL    EPW 7786   3.658   4.877   0.641 -0.3586  0.5395 -0.2409
 1836SOL      O 7787   0.602   4.663   3.067  0.0665  0.4146  0.5578
 1836SOL     H1 7788   0.636   4.651   2.978 -0.5600  0.2840  0.3338
 1836SOL     H2 7789   0.613   4.757   3.084  0.0981  0.4586  0.3072
 1836SOL    EPW 7790   0.607   4.672   3.059  0.0031  0.4054  0.5072
 1837SOL      O 7791   3.423   3.065   2.712  0.1352  0.0841  0.2363
 1837SOL     H1 7792   3.359   3.066   2.642 -1.4072  0.8504  1.5944
 1837SOL     H2 7793   3.457   3.154   2.716  0.6256 -0.0906  0.1220
 1837SOL    EPW 7794   3.420   3.074   2.705  0.0230  0.1472  0.3690
 1838SOL      O 7795   1.098   4.807   3.083 -1.0102  0.1474  0.3112
 1838SOL     H1 7796   1.186   4.835   3.111 -0.6597 -0.2208 -0.3960
 1838SOL     H2 7797   1.040   4.835   3.154 -0.3255  0.4357  0.7650
 1838SOL    EPW 7798   1.101   4.813   3.093 -0.8998  0.1389  0.2842
 1839SOL      O 7799   3.751   5.206   4.054  0.4415 -0.3450 -0.1537
 1839SOL     H1 7800   3.796   5.290   4.063 -0.9283  0.3221  0.9425
 1839SOL     H2 7801   3.821   5.141   4.046  1.5290  0.8665 -0.6642
 1839SOL    EPW 7802   3.763   5.208   4.054  0.4114 -0.1446 -0.0912
 1840SOL      O 7803   5.202   1.508   2.020 -0.7296 -0.1769  0.0321
 1840SOL     H1 7804   5.218   1.572   2.090 -1.1094 -1.1541  1.0420
 1840SOL     H2 7805   5.106   1.502   2.014 -0.6966 -0.7047 -0.0031
 1840SOL    EPW 7806   5.193   1.515   2.027 -0.7666 -0.3374  0.1361
 1841SOL      O 7807   3.065   4.901   3.697 -0.6327 -0.4501 -0.4153
 1841SOL     H1 7808   3.138   4.880   3.639  0.0086  0.0431  0.1949
 1841SOL     H2 7809   3.080   4.847   3.775  0.4154  1.3749  0.7031
 1841SOL    EPW 7810   3.074   4.893   3.699 -0.4524 -0.2028 -0.2309
 1842SOL      O 7811   1.914   4.487   1.583 -0.2505 -0.1928  0.0544
 1842SOL     H1 7812   1.997   4.491   1.630  0.6434 -0.0895 -1.4379
 1842SOL     H2 7813   1.858   4.550   1.628 -0.6451 -2.4670  3.0293
 1842SOL    EPW 7814   1.917   4.494   1.592 -0.1972 -0.4244  0.2125
 1843SOL      O 7815   3.297   5.577   2.216  0.5653 -0.1043  0.5209
 1843SOL     H1 7816   3.368   5.630   2.180  0.5027  1.8174  2.9839
 1843SOL     H2 7817   3.341   5.500   2.252  1.0049 -0.3979 -0.6163
 1843SOL    EPW 7818   3.309   5.574   2.216  0.6055  0.0694  0.6624
 1844SOL      O 7819   1.783   1.496   0.754  0.6498 -0.4817  0.1121
 1844SOL     H1 7820   1.721   1.444   0.703 -0.8879 -0.7343  2.1267
 1844SOL     H2 7821   1.833   1.432   0.805  1.9821 -0.2176 -0.8028
 1844SOL    EPW 7822   1.782   1.483   0.754  0.6279 -0.4804  0.2295
 1845SOL      O 7823   3.065   5.705   2.247  0.0187 -0.4831  0.0145
 1845SOL     H1 7824   3.003   5.778   2.237 -0.4315 -0.9511 -0.7339
 1845SOL     H2 7825   3.100   5.715   2.335 -1.7367 -0.6721  0.7688
 1845SOL    EPW 7826   3.062   5.714   2.255 -0.2165 -0.5532  0.0151
 1846SOL      O 7827   5.694   4.273   0.887 -0.2758 -0.5950  0.0358
 1846SOL     H1 7828   5.714   4.348   0.830  3.1761 -0.7253  0.9001
 1846SOL     H2 7829   5.681   4.201   0.826 -1.7590  0.2515 -0.7219
 1846SOL    EPW 7830   5.695   4.273   0.874 -0.0658 -0.5186  0.0472
 1847SOL      O 7831   0.553   1.878   3.501 -0.4206  0.0453  0.6189
 1847SOL     H1 7832   0.610   1.806   3.527  0.2386  0.4749  0.3946
 1847SOL     H2 7833   0.505   1.844   3.425 -0.8213 -0.4873  1.1063
 1847SOL    EPW 7834   0.554   1.867   3.495 -0.3930  0.0343  0.6470
 1848SOL      O 7835   1.093   0.906   3.203  0.1762 -0.1013  0.3007
 1848SOL     H1 7836   1.010   0.891   3.249  0.0997  1.2890  0.6735
 1848SOL     H2 7837   1.120   0.820   3.173 -0.4320 -0.8681  1.8494
 1848SOL    EPW 7838   1.087   0.895   3.204  0.1032 -0.0348  0.5057
 1849SOL      O 7839   5.706   5.464   2.003 -0.3361 -0.0019  0.8716
 1849SOL     H1 7840   5.681   5.414   1.925 -0.8045  0.1905  0.8993
 1849SOL     H2 7841   5.701   5.555   1.976  0.9148  0.0433  0.6999
 1849SOL    EPW 7842   5.703   5.468   1.991 -0.2526  0.0234  0.8562
 1850SOL      O 7843   2.628   3.506   0.995  0.0184  0.1215  0.1557
 1850SOL     H1 7844   2.616   3.421   0.952 -0.7168  1.0534 -1.6186
 1850SOL     H2 7845   2.678   3.558   0.931  1.8010  0.5640  1.8446
 1850SOL    EPW 7846   2.632   3.503   0.983  0.1301  0.2681  0.1466
 1851SOL      O 7847   3.398   5.870   0.323  0.2333 -0.0958  0.3249
 1851SOL     H1 7848   3.420   5.784   0.286  1.1852  0.1583  0.2525
 1851SOL     H2 7849   3.313   5.892   0.286  0.2370 -0.7681 -0.0964
 1851SOL    EPW 7850   3.392   5.863   0.315  0.3353 -0.1404  0.2722
 1852SOL      O 7851   4.029   1.575   0.108  0.2795 -0.1160 -0.1746
 1852SOL     H1 7852   4.025   1.556   0.202 -1.2035 -0.5741 -0.2919
 1852SOL     H2 7853   4.121   1.590   0.090  0.7546 -1.2197  1.1347
 1852SOL    EPW 7854   4.038   1.575   0.116  0.1720 -0.2826 -0.0474
 1853SOL      O 7855   3.707   2.785   2.040 -0.2911  0.3052  0.0993
 1853SOL     H1 7856   3.795   2.748   2.044  0.0806  1.2608  2.1478
 1853SOL     H2 7857   3.675   2.763   1.953  1.7166 -0.6420 -0.4435
 1853SOL    EPW 7858   3.713   2.779   2.031 -0.0373  0.3061  0.2600
 1854SOL      O 7859   2.145   1.875   4.095  0.1113 -0.5534  0.7511
 1854SOL     H1 7860   2.065   1.884   4.044  0.3151 -0.5077  0.4322
 1854SOL     H2 7861   2.202   1.821   4.040  0.4049 -0.3393  0.8428
 1854SOL    EPW 7862   2.143   1.870   4.083  0.1643 -0.5257  0.7268
 1855SOL      O 7863   4.613   3.538   0.292 -0.0205  0.0964  0.0687
 1855SOL     H1 7864   4.569   3.595   0.355 -0.2418  0.3497 -0.3110
 1855SOL     H2 7865   4.579   3.565   0.207  0.6251  0.0697 -0.2032
 1855SOL    EPW 7866   4.604   3.547   0.290  0.0248  0.1206 -0.0008
 1856SOL      O 7867   0.770   2.259   3.600 -0.4667  0.1366 -0.3400
 1856SOL     H1 7868   0.728   2.242   3.684  0.3840 -0.9664 -0.1050
 1856SOL     H2 7869   0.861   2.233   3.614 -0.3239 -0.0957 -1.6194
 1856SOL    EPW 7870   0.776   2.255   3.611 -0.3607 -0.0058 -0.4514
 1857SOL      O 7871   1.846   5.434   1.803 -0.0285  0.2949 -0.3184
 1857SOL     H1 7872   1.902   5.507   1.829  0.9027 -0.3078 -0.5928
 1857SOL     H2 7873   1.764   5.448   1.850  0.3581  1.1816  0.1011
 1857SOL    EPW 7874   1.843   5.443   1.811  0.1121  0.3252 -0.3029
 1858SOL      O 7875   1.101   5.006   3.475  0.1128  0.0793 -0.5355
 1858SOL     H1 7876   1.181   4.955   3.461  0.3721  0.6052 -0.9950
 1858SOL     H2 7877   1.041   4.976   3.407  0.7993  1.4561 -1.8064
 1858SOL    EPW 7878   1.103   4.997   3.467  0.2137  0.2823 -0.7201
 1859SOL      O 7879   3.123   5.593   1.965 -0.0845 -0.0795 -0.5954
 1859SOL     H1 7880   3.163   5.552   1.888 -0.6278 -1.0699 -0.3644
 1859SOL     H2 7881   3.135   5.687   1.951  0.0781 -0.2617 -1.7466
 1859SOL    EPW 7882   3.128   5.599   1.955 -0.1251 -0.2046 -0.6936
 1860SOL      O 7883   3.381   3.867   3.241  0.0529 -1.0524  0.5456
 1860SOL     H1 7884   3.358   3.933   3.176  2.2679  0.5055  1.2417
 1860SOL     H2 7885   3.303   3.860   3.297 -0.7391 -0.1130 -0.3979
 1860SOL    EPW 7886   3.370   3.873   3.240  0.2047 -0.7860  0.5192
 1861SOL      O 7887   4.655   0.428   2.771 -0.8928  0.3864 -0.1429
 1861SOL     H1 7888   4.602   0.460   2.699 -3.0702 -1.6336  0.4527
 1861SOL     H2 7889   4.742   0.417   2.733 -1.6443  0.6736 -2.0683
 1861SOL    EPW 7890   4.659   0.430   2.759 -1.2052  0.2015 -0.2848
 1862SOL      O 7891   3.644   1.940   3.016  0.6230  0.7432  0.2828
 1862SOL     H1 7892   3.722   1.887   3.031  0.1738 -0.0298 -0.0402
 1862SOL     H2 7893   3.592   1.930   3.096  0.9436  1.4287  0.5837
 1862SOL    EPW 7894   3.647   1.933   3.026  0.6093  0.7339  0.2805
 1863SOL      O 7895   1.763   2.230   2.991  0.1541  0.1473 -0.2785
 1863SOL     H1 7896   1.855   2.237   2.968  0.1516  0.4737 -0.2034
 1863SOL     H2 7897   1.736   2.321   3.007  0.3399 -0.1224  1.7306
 1863SOL    EPW 7898   1.770   2.241   2.990  0.1737  0.1534 -0.0561
 1864SOL      O 7899   0.610   2.911   3.267 -0.4864  0.4032  0.2169
 1864SOL     H1 7900   0.589   2.890   3.358  1.6396 -1.3134  0.3986
 1864SOL     H2 7901   0.693   2.866   3.251 -0.0297  1.9230 -2.1270
 1864SOL    EPW 7902   0.617   2.904   3.275 -0.2109  0.3822 -0.0138
 1865SOL      O 7903   3.230   0.214   1.846  0.5239  1.0602 -0.0024
 1865SOL     H1 7904   3.301   0.165   1.804  0.9492  1.9823 -0.3817
 1865SOL     H2 7905   3.202   0.277   1.779 -1.5729 -0.1602 -0.3624
 1865SOL    EPW 7906   3.235   0.216   1.834  0.3456  1.0284 -0.0812
 1866SOL      O 7907   0.382   1.981   3.700  0.0567  0.7677 -0.4790
 1866SOL     H1 7908   0.435   1.937   3.634 -2.9234  0.1203 -2.6399
 1866SOL     H2 7909   0.317   2.030   3.650 -0.7310  2.4063  1.9824
 1866SOL    EPW 7910   0.380   1.981   3.688 -0.3452  0.8734 -0.4469
 1867SOL      O 7911   2.441   3.746   0.422 -0.4770 -0.2878 -0.0473
 1867SOL     H1 7912   2.465   3.838   0.414 -1.8967 -0.0092 -1.8101
 1867SOL     H2 7913   2.412   3.737   0.513  1.2877  0.5601  0.6394
 1867SOL    EPW 7914   2.440   3.755   0.431 -0.4402 -0.1676 -0.1621
 1868SOL      O 7915   0.589   5.083   1.145 -0.0590 -0.4479  0.0480
 1868SOL     H1 7916   0.617   5.011   1.201  0.5794 -0.4870 -0.3101
 1868SOL     H2 7917   0.549   5.146   1.205  0.4842 -0.5527  0.5226
 1868SOL    EPW 7918   0.587   5.082   1.158  0.0671 -0.4633  0.0605
 1869SOL      O 7919   4.563   1.023   1.784  0.2020 -0.2678 -0.0984
 1869SOL     H1 7920   4.555   1.013   1.879 -0.1383  1.1588  0.0460
 1869SOL     H2 7921   4.616   0.948   1.756 -1.4584 -1.8758  0.9210
 1869SOL    EPW 7922   4.568   1.014   1.791 -0.0114 -0.2872  0.0257
 1870SOL      O 7923   5.513   0.019   2.038 -0.3371  0.0001 -0.4290
 1870SOL     H1 7924   5.453  -0.023   2.099  1.7635 -0.2124  1.6295
 1870SOL     H2 7925   5.554   0.090   2.089  2.7032 -1.2043 -0.9611
 1870SOL    EPW 7926   5.511   0.022   2.050  0.2113 -0.1511 -0.2662
 1871SOL      O 7927   3.221   4.578   1.237 -0.4251  0.3636  0.6907
 1871SOL     H1 7928   3.205   4.609   1.326  0.3486  0.2192  0.8829
 1871SOL     H2 7929   3.307   4.536   1.240 -0.2081  0.7037 -0.2130
 1871SOL    EPW 7930   3.228   4.577   1.246 -0.3194  0.3845  0.6148
 1872SOL      O 7931   4.693   2.299   1.718 -0.1035 -0.2970  0.1532
 1872SOL     H1 7932   4.689   2.207   1.692  1.1696 -0.5449  0.7699
 1872SOL     H2 7933   4.697   2.296   1.814 -2.6151  0.5171  0.3506
 1872SOL    EPW 7934   4.693   2.289   1.726 -0.2356 -0.2366  0.2401
 1873SOL      O 7935   4.421   3.510   1.335 -0.5178 -0.3428 -0.1111
 1873SOL     H1 7936   4.390   3.535   1.248 -2.2014  1.2636  0.8973
 1873SOL     H2 7937   4.385   3.422   1.349 -0.1361 -0.6646 -1.0395
 1873SOL    EPW 7938   4.414   3.503   1.327 -0.6567 -0.2058 -0.1026
 1874SOL      O 7939   5.101   0.899   1.449  0.1344 -0.1682 -0.5213
 1874SOL     H1 7940   5.064   0.979   1.414  0.5265  0.3569  0.2403
 1874SOL     H2 7941   5.167   0.928   1.512 -0.9332 -1.0561  1.0906
 1874SOL    EPW 7942   5.104   0.910   1.452  0.0623 -0.2069 -0.2681
 1875SOL      O 7943   0.626   1.043   0.891 -0.0007 -0.5814  0.0065
 1875SOL     H1 7944   0.547   1.009   0.933  0.6339  0.6873  2.4300
 1875SOL     H2 7945   0.646   0.980   0.822 -1.9944 -1.9775  0.6216
 1875SOL    EPW 7946   0.619   1.033   0.888 -0.1456 -0.5950  0.3307
 1876SOL      O 7947   2.851   2.721   1.713  0.6084 -0.2342  0.1125
 1876SOL     H1 7948   2.873   2.788   1.649  0.5233  0.9325  1.2758
 1876SOL     H2 7949   2.850   2.766   1.797 -2.5643 -0.9589  0.6028
 1876SOL    EPW 7950   2.853   2.733   1.715  0.2609 -0.1870  0.2889
 1877SOL      O 7951   1.180   2.427   0.123  0.7511  0.0766 -0.3093
 1877SOL     H1 7952   1.109   2.471   0.169 -1.7027 -3.3289 -0.4697
 1877SOL     H2 7953   1.144   2.406   0.037  1.5474 -2.5598 -0.0799
 1877SOL    EPW 7954   1.169   2.430   0.118  0.5743 -0.5679 -0.3019
 1878SOL      O 7955   5.046   5.075   3.436 -0.9807 -0.2546  0.6515
 1878SOL     H1 7956   4.992   5.045   3.363 -0.0782 -1.8780  0.6082
 1878SOL     H2 7957   4.988   5.129   3.488 -2.4496 -1.3797  0.2313
 1878SOL    EPW 7958   5.034   5.078   3.433 -1.0411 -0.5478  0.6020
 1879SOL      O 7959   0.163   1.604   1.190 -0.8202 -0.0250 -0.8979
 1879SOL     H1 7960   0.079   1.560   1.202 -0.6947 -0.1129 -0.3081
 1879SOL     H2 7961   0.223   1.535   1.162 -0.5966 -0.2640  0.1350
 1879SOL    EPW 7962   0.161   1.592   1.188 -0.7830 -0.0599 -0.7248
 1880SOL      O 7963   2.461   3.451   1.218  0.1090  0.3456  0.1726
 1880SOL     H1 7964   2.366   3.456   1.224  0.2227  1.0088  2.2003
 1880SOL     H2 7965   2.481   3.358   1.212 -0.6917  0.2570 -1.7372
 1880SOL    EPW 7966   2.453   3.442   1.218  0.0357  0.4069  0.1852
 1881SOL      O 7967   4.716   2.549   3.426  0.1358  0.0718 -0.4571
 1881SOL     H1 7968   4.682   2.625   3.475 -0.2411 -0.2528 -0.2083
 1881SOL     H2 7969   4.703   2.475   3.485  3.1058  0.1861  0.4806
 1881SOL    EPW 7970   4.711   2.549   3.438  0.4124  0.0494 -0.3305
 1882SOL      O 7971   4.024   3.506   2.916  0.5758  0.0975 -0.0775
 1882SOL     H1 7972   4.007   3.546   2.831 -1.2012  0.7342  0.5337
 1882SOL     H2 7973   4.102   3.452   2.902  1.5161  1.7372 -1.5948
 1882SOL    EPW 7974   4.030   3.504   2.905  0.4865  0.3403 -0.1741
 1883SOL      O 7975   5.225   3.211   3.934  0.2995  0.0607  0.1518
 1883SOL     H1 7976   5.177   3.129   3.943 -0.1197  0.2924  0.0281
 1883SOL     H2 7977   5.316   3.187   3.952  0.1230 -0.3517  0.5233
 1883SOL    EPW 7978   5.230   3.200   3.937  0.2359  0.0414  0.1782
 1884SOL      O 7979   3.832   2.676   0.308  0.2528  0.1069  0.4929
 1884SOL     H1 7980   3.824   2.583   0.329 -2.0809 -0.2502 -1.5627
 1884SOL     H2 7981   3.774   2.720   0.371 -2.0209 -0.3573 -1.1384
 1884SOL    EPW 7982   3.825   2.671   0.317 -0.2387  0.0193  0.0996
 1885SOL      O 7983   3.959   2.858   2.293  0.2579 -1.0813  0.0136
 1885SOL     H1 7984   3.890   2.923   2.297  0.4562 -0.8278 -0.5097
 1885SOL     H2 7985   4.001   2.860   2.379 -0.5049 -1.3782  0.3978
 1885SOL    EPW 7986   3.956   2.865   2.302  0.1977 -1.0859 -0.0013
 1886SOL      O 7987   4.792   4.072   1.895 -0.7878 -0.3876 -0.1552
 1886SOL     H1 7988   4.883   4.064   1.924 -1.3323 -0.5652  1.6490
 1886SOL     H2 7989   4.765   3.981   1.877 -0.8082 -0.4158  0.0123
 1886SOL    EPW 7990   4.799   4.061   1.897 -0.8480 -0.4095  0.0552
 1887SOL      O 7991   4.378   4.045   1.564  0.4546  0.1081 -0.0317
 1887SOL     H1 7992   4.368   4.039   1.469 -1.6897 -0.4937  0.1684
 1887SOL     H2 7993   4.355   4.135   1.586  0.0031 -0.0164  0.0057
 1887SOL    EPW 7994   4.375   4.054   1.556  0.1777  0.0306 -0.0064
 1888SOL      O 7995   3.619   5.820   0.876 -0.6101 -0.3971  0.1125
 1888SOL     H1 7996   3.683   5.880   0.837 -0.1545 -1.3423 -0.6679
 1888SOL     H2 7997   3.552   5.876   0.913  0.5261  0.6245  0.6849
 1888SOL    EPW 7998   3.619   5.832   0.876 -0.4403 -0.3890  0.0903
 1889SOL      O 7999   5.318   5.016   0.279  0.3518  0.2950 -0.3026
 1889SOL     H1 8000   5.311   5.105   0.243 -0.2799  0.2226 -0.3678
 1889SOL     H2 8001   5.242   4.970   0.243  0.5112 -0.1839 -0.0227
 1889SOL    EPW 8002   5.309   5.021   0.271  0.3014  0.2362 -0.2797
 1890SOL      O 8003   5.019   2.311   0.514 -1.0062  0.3194 -0.1287
 1890SOL     H1 8004   5.028   2.218   0.537  1.6456  0.3179 -0.8933
 1890SOL     H2 8005   4.968   2.311   0.433 -0.1673 -0.5817 -0.6817
 1890SOL    EPW 8006   5.014   2.301   0.508 -0.6338  0.2231 -0.2693
 1891SOL      O 8007   1.188   0.133   2.924  0.3318 -0.0231 -0.5287
 1891SOL     H1 8008   1.150   0.065   2.867 -2.1534  0.2804  0.6267
 1891SOL     H2 8009   1.223   0.084   2.999 -1.6478 -0.1175  0.4064
 1891SOL    EPW 8010   1.188   0.120   2.926 -0.1445 -0.0008 -0.3057
 1892SOL      O 8011   3.713   0.577   3.983 -0.1772  0.1694 -0.0563
 1892SOL     H1 8012   3.672   0.492   3.966  0.1949  0.0130 -0.1925
 1892SOL     H2 8013   3.640   0.638   3.989 -0.5469 -0.3549  1.2782
 1892SOL    EPW 8014   3.701   0.574   3.982 -0.1770  0.0968  0.0715
 1893SOL      O 8015   4.582   1.100   2.936  0.0917 -0.7908  0.2606
 1893SOL     H1 8016   4.627   1.118   3.018  1.0293 -0.4337 -0.3265
 1893SOL     H2 8017   4.604   1.010   2.915 -0.2856 -0.9378  0.4730
 1893SOL    EPW 8018   4.589   1.092   2.942  0.1515 -0.7684  0.2207
 1894SOL      O 8019   5.642   3.969   0.243 -0.1251  0.2876 -0.1742
 1894SOL     H1 8020   5.616   3.908   0.313 -0.7235  2.1277  1.2860
 1894SOL     H2 8021   5.734   3.987   0.259 -0.3329  0.9282  0.3394
 1894SOL    EPW 8022   5.649   3.964   0.252 -0.2111  0.5522  0.0364
 1895SOL      O 8023   5.252   4.282   1.298  0.3127  1.1264  0.5038
 1895SOL     H1 8024   5.317   4.326   1.243  1.5176  0.1098  1.0503
 1895SOL     H2 8025   5.231   4.346   1.366 -1.7086  2.6509 -1.4458
 1895SOL    EPW 8026   5.257   4.293   1.300  0.2256  1.1806  0.3541
 1896SOL      O 8027   4.233   2.632   2.453  0.2817  0.5419  0.3148
 1896SOL     H1 8028   4.173   2.560   2.471  1.3418 -0.1400  1.2618
 1896SOL     H2 8029   4.239   2.635   2.358 -2.2393  1.4933  0.0984
 1896SOL    EPW 8030   4.227   2.625   2.445  0.1259  0.5707  0.3927
 1897SOL      O 8031   4.312   3.079   2.718 -0.1135 -0.0701  0.0044
 1897SOL     H1 8032   4.281   2.993   2.691  0.5993 -1.0685  2.1583
 1897SOL     H2 8033   4.386   3.060   2.776  2.2018  2.0828 -1.9640
 1897SOL    EPW 8034   4.317   3.068   2.721  0.2095  0.0530  0.0242
 1898SOL      O 8035   5.219   5.056   3.662  0.5531  0.3272 -0.3619
 1898SOL     H1 8036   5.151   5.061   3.729  1.4490 -0.7029  0.6511
 1898SOL     H2 8037   5.171   5.056   3.579 -0.6013  0.9439  0.2848
 1898SOL    EPW 8038   5.207   5.057   3.660  0.5255  0.2831 -0.1849
 1899SOL      O 8039   3.007   2.794   2.604 -0.6185 -0.0343  0.2614
 1899SOL     H1 8040   3.022   2.887   2.621 -3.1442  0.3013  1.0691
 1899SOL     H2 8041   3.090   2.752   2.627  0.4065  1.9295  0.4083
 1899SOL    EPW 8042   3.018   2.800   2.608 -0.7786  0.2110  0.3632
 1900SOL      O 8043   0.399   3.940   3.546  0.4353  0.1529  0.1947
 1900SOL     H1 8044   0.349   3.956   3.626  1.5691  0.9933  0.7629
 1900SOL     H2 8045   0.352   3.988   3.478  0.6340  1.2194  0.7873
 1900SOL    EPW 8046   0.389   3.947   3.548  0.5775  0.3563  0.3185
 1901SOL      O 8047   4.653   3.167   0.601  0.1082 -0.2816  0.0076
 1901SOL     H1 8048   4.618   3.216   0.527 -2.1182 -1.0250  0.4745
 1901SOL     H2 8049   4.705   3.231   0.650  1.0997  0.3671 -1.8291
 1901SOL    EPW 8050   4.655   3.179   0.599 -0.0235 -0.2917 -0.1385
 1902SOL      O 8051   2.260   4.223   1.855 -0.1359 -0.1918  0.4592
 1902SOL     H1 8052   2.283   4.196   1.767  0.5695 -1.6615  1.0583
 1902SOL     H2 8053   2.329   4.284   1.881  0.6800 -1.1776  0.6460
 1902SOL    EPW 8054   2.270   4.227   1.849  0.0264 -0.4537  0.5431
 1903SOL      O 8055   4.771   4.557   0.912 -0.4439  0.1287  0.0534
 1903SOL     H1 8056   4.820   4.492   0.861 -0.5259 -0.9534  1.3216
 1903SOL     H2 8057   4.680   4.544   0.887 -0.4825 -0.3929  0.4473
 1903SOL    EPW 8058   4.767   4.549   0.904 -0.4568 -0.0424  0.2307
 1904SOL      O 8059   1.874   1.526   3.834 -0.4279 -0.1492 -0.3258
 1904SOL     H1 8060   1.920   1.470   3.897  1.0303  1.9318  0.5936
 1904SOL     H2 8061   1.923   1.516   3.753  2.7371  2.9499  0.9266
 1904SOL    EPW 8062   1.884   1.519   3.832  0.0653  0.4034 -0.0941
 1905SOL      O 8063   5.821   4.905   0.684  0.1918 -0.5969  0.5547
 1905SOL     H1 8064   5.865   4.965   0.745  0.7083 -0.0003 -0.3951
 1905SOL     H2 8065   5.881   4.831   0.676  0.0915 -0.7087  0.8138
 1905SOL    EPW 8066   5.832   4.904   0.690  0.2362 -0.5452  0.4810
 1906SOL      O 8067   0.274   3.614   0.579  0.4088 -0.3112 -0.3530
 1906SOL     H1 8068   0.234   3.599   0.493 -0.5173 -0.8968  0.1590
 1906SOL     H2 8069   0.336   3.542   0.589 -0.6202 -1.1704  0.1058
 1906SOL    EPW 8070   0.276   3.605   0.571  0.2002 -0.4654 -0.2494
 1907SOL      O 8071   4.479   1.150   1.177  0.3259  0.0912 -0.5263
 1907SOL     H1 8072   4.436   1.147   1.092 -0.7439  0.4381 -0.0101
 1907SOL     H2 8073   4.485   1.243   1.199  1.6833  0.0770 -0.7406
 1907SOL    EPW 8074   4.475   1.159   1.170  0.3565  0.1267 -0.4941
 1908SOL      O 8075   4.460   4.721   2.780  0.0022  0.0985  0.3877
 1908SOL     H1 8076   4.422   4.637   2.806 -0.6344 -0.6643 -2.6376
 1908SOL     H2 8077   4.403   4.786   2.822 -0.1758 -0.9627  1.8728
 1908SOL    EPW 8078   4.450   4.719   2.788 -0.0847 -0.0961  0.2234
 1909SOL      O 8079   2.508   5.603   2.905 -0.1012  0.0249 -0.9002
 1909SOL     H1 8080   2.496   5.698   2.899 -1.4141 -0.1545 -1.5765
 1909SOL     H2 8081   2.574   5.582   2.840  0.6697  0.5371 -0.2987
 1909SOL    EPW 8082   2.514   5.611   2.898 -0.1590  0.0604 -0.9082
 1910SOL      O 8083   2.458   3.263   2.907  0.0161 -0.3516 -0.3389
 1910SOL     H1 8084   2.383   3.263   2.966 -0.5553  0.1841 -1.0507
 1910SOL     H2 8085   2.431   3.318   2.833  1.4050  0.5574 -0.2227
 1910SOL    EPW 8086   2.447   3.269   2.906  0.1033 -0.1975 -0.4024
 1911SOL      O 8087   3.672   0.430   1.784 -0.3558 -0.4183  0.0899
 1911SOL     H1 8088   3.735   0.471   1.724  1.8690 -3.0399  0.4536
 1911SOL     H2 8089   3.604   0.394   1.727  0.0561 -0.1402 -0.5853
 1911SOL    EPW 8090   3.671   0.431   1.772 -0.0745 -0.6683  0.0567
 1912SOL      O 8091   4.657   5.457   3.352  0.0640 -0.1973  0.3009
 1912SOL     H1 8092   4.707   5.534   3.324  0.3694 -0.7381 -0.7151
 1912SOL     H2 8093   4.684   5.443   3.442  1.3155 -0.1049 -0.0305
 1912SOL    EPW 8094   4.665   5.463   3.358  0.2301 -0.2451  0.1572
 1913SOL      O 8095   2.513   3.728   1.123 -0.8616 -0.3034  0.0770
 1913SOL     H1 8096   2.428   3.721   1.079 -2.1552  0.5588  2.3075
 1913SOL     H2 8097   2.542   3.817   1.105  1.0168 -1.3354 -2.9455
 1913SOL    EPW 8098   2.507   3.737   1.116 -0.7992 -0.3215 -0.0075
 1914SOL      O 8099   1.044   5.082   0.141 -0.3664 -0.5816 -0.7137
 1914SOL     H1 8100   0.988   5.004   0.137 -2.4606  0.8484 -1.3300
 1914SOL     H2 8101   0.998   5.147   0.087  1.9194  0.7319 -1.2192
 1914SOL    EPW 8102   1.033   5.081   0.135 -0.3460 -0.2889 -0.8334
 1915SOL      O 8103   5.720   5.093   3.737  0.2536 -0.5899  0.3427
 1915SOL     H1 8104   5.640   5.067   3.691  0.1369 -0.5920  0.5468
 1915SOL     H2 8105   5.756   5.164   3.684 -0.7868  0.5862  1.1526
 1915SOL    EPW 8106   5.715   5.097   3.726  0.1301 -0.4647  0.4508
 1916SOL      O 8107   5.050   1.770   3.319  0.1594  0.4710  0.5081
 1916SOL     H1 8108   4.974   1.728   3.280 -0.3484 -0.5953  2.5133
 1916SOL     H2 8109   5.030   1.864   3.314 -0.4757  0.2944 -0.5422
 1916SOL    EPW 8110   5.040   1.776   3.314  0.0375  0.3384  0.6100
 1917SOL      O 8111   2.554   0.954   1.822 -0.9549 -0.0415 -0.0377
 1917SOL     H1 8112   2.637   0.976   1.779 -2.0791 -1.4591 -3.2236
 1917SOL     H2 8113   2.579   0.893   1.891  0.7930  0.8501  0.1719
 1917SOL    EPW 8114   2.566   0.950   1.825 -0.8883 -0.0976 -0.3552
 1918SOL      O 8115   0.721   1.610   1.796 -0.6219 -0.2332  0.1293
 1918SOL     H1 8116   0.682   1.687   1.835  1.3755  0.1145  1.6108
 1918SOL     H2 8117   0.700   1.539   1.857 -2.9287 -1.0647 -1.5015
 1918SOL    EPW 8118   0.715   1.610   1.807 -0.6549 -0.2848  0.1134
 1919SOL      O 8119   1.211   1.151   3.068 -0.1078  0.0945  0.1929
 1919SOL     H1 8120   1.286   1.211   3.066  0.7540 -0.7837  2.7196
 1919SOL     H2 8121   1.225   1.097   3.146 -1.8138 -2.1776 -0.9516
 1919SOL    EPW 8122   1.220   1.152   3.076 -0.1979 -0.2416  0.3404
 1920SOL      O 8123   4.154   4.770   0.397  1.1852  0.5196 -0.7018
 1920SOL     H1 8124   4.211   4.765   0.473  0.3459  0.3605 -0.0608
 1920SOL     H2 8125   4.106   4.852   0.409  1.2788  0.6543 -1.2332
 1920SOL    EPW 8126   4.155   4.778   0.406  1.1056  0.5170 -0.6901
 1921SOL      O 8127   1.751   3.830   0.211 -0.1607 -0.2986 -0.3619
 1921SOL     H1 8128   1.724   3.747   0.250 -0.4729  0.5849  1.3717
 1921SOL     H2 8129   1.805   3.872   0.277  0.5895  0.5913 -1.4911
 1921SOL    EPW 8130   1.754   3.826   0.222 -0.1140 -0.1095 -0.2974
 1922SOL      O 8131   3.762   4.418   2.205  0.4769 -0.2935  0.3089
 1922SOL     H1 8132   3.785   4.384   2.119 -0.2902  0.1491 -0.0788
 1922SOL     H2 8133   3.815   4.498   2.214  2.7313 -1.8176  1.4673
 1922SOL    EPW 8134   3.770   4.423   2.197  0.6356 -0.4089  0.3911
 1923SOL      O 8135   3.374   3.650   0.016  0.2100 -0.4089 -0.3188
 1923SOL     H1 8136   3.363   3.736  -0.026  0.6686 -0.5463 -0.7259
 1923SOL     H2 8137   3.290   3.634   0.059  0.5716  0.8493  0.8952
 1923SOL    EPW 8138   3.364   3.658   0.016  0.2975 -0.2893 -0.2327
 1924SOL      O 8139   2.080   0.738   1.818 -0.4380  0.1038  0.3900
 1924SOL     H1 8140   1.990   0.767   1.832 -0.5614  0.0951 -0.3521
 1924SOL     H2 8141   2.078   0.644   1.835 -1.0567 -0.3178 -1.6826
 1924SOL    EPW 8142   2.070   0.731   1.821 -0.5172  0.0579  0.0897
 1925SOL      O 8143   1.884   5.582   1.429  0.0042 -0.3271 -0.4631
 1925SOL     H1 8144   1.814   5.629   1.385 -0.7400  1.0387  1.9779
 1925SOL     H2 8145   1.963   5.607   1.381 -0.9221 -0.2377 -2.0009
 1925SOL    EPW 8146   1.885   5.590   1.419 -0.1740 -0.1719 -0.3668
 1926SOL      O 8147   3.433   3.016   3.526  0.3881  0.7725 -0.6967
 1926SOL     H1 8148   3.492   2.986   3.595 -0.6192 -0.7544 -0.4483
 1926SOL     H2 8149   3.358   3.053   3.572 -0.2985 -0.2756 -0.9427
 1926SOL    EPW 8150   3.432   3.017   3.538  0.2074  0.4978 -0.6965
 1927SOL      O 8151   1.570   2.470   0.261  0.7765  0.4391 -0.0474
 1927SOL     H1 8152   1.629   2.407   0.302  0.7098 -1.1289 -2.1851
 1927SOL     H2 8153   1.626   2.546   0.242  1.4578  0.0403  0.3421
 1927SOL    EPW 8154   1.583   2.472   0.263  0.8420  0.2293 -0.2339
 1928SOL      O 8155   5.270   0.230   2.664 -0.5886 -0.2447 -0.3235
 1928SOL     H1 8156   5.202   0.295   2.645  0.2575  1.0433  0.8552
 1928SOL     H2 8157   5.307   0.258   2.748  0.1718 -1.9666 -0.0408
 1928SOL    EPW 8158   5.267   0.240   2.671 -0.4173 -0.2910 -0.1676
 1929SOL      O 8159   0.600   4.915   2.470  0.0071 -0.1529 -0.6238
 1929SOL     H1 8160   0.618   4.828   2.433  1.2669  0.1142 -0.6927
 1929SOL     H2 8161   0.687   4.956   2.478 -0.3594  0.3731  1.2317
 1929SOL    EPW 8162   0.612   4.910   2.467  0.1024 -0.0683 -0.4332
 1930SOL      O 8163   2.963   2.664   1.451  0.6041  0.0221 -0.0863
 1930SOL     H1 8164   2.977   2.739   1.510 -0.4631 -0.6534  1.0659
 1930SOL     H2 8165   2.947   2.590   1.509  1.9152 -1.2093 -1.1986
 1930SOL    EPW 8166   2.963   2.664   1.463  0.6301 -0.1814 -0.0820
 1931SOL      O 8167   3.424   0.472   1.221 -0.2110 -0.0284 -0.4970
 1931SOL     H1 8168   3.441   0.415   1.146  0.1052 -2.6671  1.4190
 1931SOL     H2 8169   3.330   0.491   1.216 -0.5418 -1.6092 -0.6604
 1931SOL    EPW 8170   3.415   0.468   1.213 -0.2125 -0.4785 -0.3101
 1932SOL      O 8171   0.988   0.968   2.356 -0.1517  0.2092  0.6192
 1932SOL     H1 8172   1.013   1.034   2.291  0.0441 -1.1583 -0.7667
 1932SOL     H2 8173   1.028   0.887   2.324 -0.3465 -0.5883  2.2861
 1932SOL    EPW 8174   0.995   0.967   2.346 -0.1516 -0.0218  0.6492
 1933SOL      O 8175   0.823   5.507   0.437  0.0868  0.0680 -0.7063
 1933SOL     H1 8176   0.880   5.575   0.474 -0.0678 -0.8927  1.4419
 1933SOL     H2 8177   0.857   5.425   0.473 -1.1338 -0.7720 -1.3951
 1933SOL    EPW 8178   0.832   5.506   0.445 -0.0599 -0.1241 -0.5506
 1934SOL      O 8179   1.235   0.799   1.382  0.4849 -0.3661  0.9664
 1934SOL     H1 8180   1.241   0.879   1.435  0.5492 -0.5892  1.2973
 1934SOL     H2 8181   1.264   0.827   1.294  0.9866 -0.1406  1.2007
 1934SOL    EPW 8182   1.239   0.811   1.378  0.5453 -0.3658  1.0267
 1935SOL      O 8183   5.185   5.827   0.739  0.3508  0.4410 -0.0260
 1935SOL     H1 8184   5.271   5.869   0.732  0.4983  0.0541 -0.6389
 1935SOL     H2 8185   5.148   5.834   0.651 -0.5074  1.1410  0.3762
 1935SOL    EPW 8186   5.190   5.832   0.728  0.2750  0.4744 -0.0484
 1936SOL      O 8187   0.715   0.860   3.889 -0.4128 -0.0484 -0.1538
 1936SOL     H1 8188   0.673   0.778   3.914 -0.8515  0.3350  0.4121
 1936SOL     H2 8189   0.747   0.896   3.972  2.0067 -0.8425 -0.6846
 1936SOL    EPW 8190   0.714   0.855   3.901 -0.2015 -0.0922 -0.1500
 1937SOL      O 8191   1.283   4.110   1.813 -0.4915 -1.0483  0.0399
 1937SOL     H1 8192   1.279   4.048   1.885 -0.1289 -0.9969  0.1092
 1937SOL     H2 8193   1.367   4.091   1.770  0.1903  0.1624  0.7746
 1937SOL    EPW 8194   1.292   4.102   1.816 -0.3801 -0.9137  0.1257
 1938SOL      O 8195   3.086   3.057   2.702 -0.3801 -0.0254  0.0290
 1938SOL     H1 8196   3.083   3.109   2.621 -0.3815 -0.0401  0.0198
 1938SOL     H2 8197   3.000   3.071   2.742  0.2880  1.5828  1.0191
 1938SOL    EPW 8198   3.076   3.064   2.698 -0.3090  0.1446  0.1336
 1939SOL      O 8199   4.684   2.154   4.098 -0.2425  0.6782  0.1444
 1939SOL     H1 8200   4.614   2.098   4.131  0.2417  0.8115  1.4572
 1939SOL     H2 8201   4.720   2.105   4.024 -2.4169  1.1201 -1.3016
 1939SOL    EPW 8202   4.680   2.143   4.094 -0.4228  0.7396  0.1302
 1940SOL      O 8203   3.356   5.783   3.521 -0.5396  0.0593 -0.4016
 1940SOL     H1 8204   3.390   5.804   3.608  1.9833 -2.3115 -0.6844
 1940SOL     H2 8205   3.361   5.865   3.473 -1.4534  1.2959  1.4766
 1940SOL    EPW 8206   3.360   5.794   3.525 -0.3680 -0.0617 -0.2314
 1941SOL      O 8207   2.129   4.569   0.279 -0.4803  0.0840 -0.1260
 1941SOL     H1 8208   2.066   4.640   0.288  0.7809  1.3719 -0.9551
 1941SOL     H2 8209   2.181   4.572   0.359 -2.0135 -1.6246  1.0219
 1941SOL    EPW 8210   2.128   4.577   0.288 -0.5093  0.0391 -0.0920
 1942SOL      O 8211   0.033   5.044   0.089  0.0603  0.1046 -0.0040
 1942SOL     H1 8212  -0.001   4.990   0.161  0.7226  0.3212  0.4710
 1942SOL     H2 8213   0.043   4.982   0.016 -1.9962  0.1517 -0.3942
 1942SOL    EPW 8214   0.030   5.031   0.089 -0.0884  0.1327  0.0050
 1943SOL      O 8215   2.800   4.522   2.120 -0.5613  0.4518  0.1538
 1943SOL     H1 8216   2.875   4.509   2.179  2.0585  2.2904 -2.4664
 1943SOL     H2 8217   2.809   4.452   2.055 -0.1659  1.4999 -0.9718
 1943SOL    EPW 8218   2.809   4.513   2.119 -0.2397  0.7598 -0.2458
 1944SOL      O 8219   0.122   0.177   3.491  0.1612 -0.0375 -0.3923
 1944SOL     H1 8220   0.126   0.273   3.488  0.7508  0.0745  2.0975
 1944SOL     H2 8221   0.034   0.159   3.525 -0.0919 -0.4189 -1.2290
 1944SOL    EPW 8222   0.113   0.186   3.494  0.1971 -0.0662 -0.2159
 1945SOL      O 8223   3.949   3.259   0.408  0.2999 -0.5535 -0.4190
 1945SOL     H1 8224   3.893   3.331   0.378  0.8871 -0.9142 -2.5467
 1945SOL     H2 8225   3.891   3.201   0.457 -0.2726  1.1139  0.9943
 1945SOL    EPW 8226   3.937   3.261   0.410  0.3015 -0.4141 -0.4952
 1946SOL      O 8227   3.485   0.449   3.618  0.3989 -0.4500  0.3613
 1946SOL     H1 8228   3.445   0.383   3.562 -1.4322  1.8426 -1.2541
 1946SOL     H2 8229   3.444   0.436   3.704 -0.3078 -1.1216 -0.0655
 1946SOL    EPW 8230   3.476   0.441   3.621  0.1281 -0.2771  0.1435
 1947SOL      O 8231   3.299   0.435   2.315 -0.3699 -0.6712  0.0644
 1947SOL     H1 8232   3.225   0.495   2.322 -0.2554 -0.4548 -0.4865
 1947SOL     H2 8233   3.338   0.455   2.230  0.0983 -1.0395  0.1857
 1947SOL    EPW 8234   3.295   0.443   2.307 -0.3077 -0.6874  0.0186
 1948SOL      O 8235   1.897   0.901   1.142 -0.1451  0.0808 -0.4265
 1948SOL     H1 8236   1.966   0.953   1.184 -1.6461  2.8469 -1.1096
 1948SOL     H2 8237   1.864   0.958   1.073 -3.1756 -1.0785 -0.0668
 1948SOL    EPW 8238   1.901   0.913   1.139 -0.6285  0.2522 -0.4610
 1949SOL      O 8239   2.067   3.005   2.363 -0.0415  0.2023  0.7722
 1949SOL     H1 8240   2.077   3.031   2.455 -3.1199  2.0718  0.7337
 1949SOL     H2 8241   2.025   2.919   2.367 -0.3202  0.3494  1.1265
 1949SOL    EPW 8242   2.064   2.999   2.374 -0.3996  0.4174  0.8059
 1950SOL      O 8243   2.775   4.645   0.064 -0.1775  0.4784  0.0389
 1950SOL     H1 8244   2.792   4.613   0.153 -1.5870  0.3534  0.2975
 1950SOL     H2 8245   2.781   4.567   0.009  1.4219  0.6777 -0.1092
 1950SOL    EPW 8246   2.777   4.633   0.068 -0.1572  0.4863  0.0507
 1951SOL      O 8247   1.359   2.651   0.241 -0.3900  0.6486  0.5492
 1951SOL     H1 8248   1.339   2.688   0.327 -0.1765  0.9373  0.4736
 1951SOL     H2 8249   1.347   2.723   0.180 -2.5208 -0.0475  0.0691
 1951SOL    EPW 8250   1.356   2.662   0.244 -0.5945  0.6052  0.4899
 1952SOL      O 8251   4.489   5.112   3.935  0.2980  0.4045  0.5927
 1952SOL     H1 8252   4.514   5.087   4.024  0.1522 -0.0602  0.5031
 1952SOL     H2 8253   4.538   5.053   3.878 -1.4653 -0.9909  0.4295
 1952SOL    EPW 8254   4.497   5.103   3.939  0.0944  0.2061  0.5657
 1953SOL      O 8255   5.425   0.356   2.039 -0.6396  0.0728  0.1224
 1953SOL     H1 8256   5.358   0.309   2.090 -0.7371  1.4068  1.2883
 1953SOL     H2 8257   5.508   0.323   2.072 -0.7179 -0.2652 -0.0216
 1953SOL    EPW 8258   5.426   0.348   2.048 -0.6583  0.1791  0.2314
 1954SOL      O 8259   2.788   3.694   1.157 -0.5164  0.1182  0.6706
 1954SOL     H1 8260   2.803   3.748   1.235  1.1350 -0.5743  0.8591
 1954SOL     H2 8261   2.856   3.721   1.096  0.6438 -2.0383  0.9355
 1954SOL    EPW 8262   2.797   3.703   1.159 -0.2165 -0.1857  0.7190
 1955SOL      O 8263   4.360   5.461   4.143  0.3576  0.3248 -0.0227
 1955SOL     H1 8264   4.430   5.440   4.081 -0.6577 -2.4045 -0.3746
 1955SOL     H2 8265   4.292   5.501   4.089  0.8237  1.1825 -0.0066
 1955SOL    EPW 8266   4.361   5.463   4.130  0.2990  0.1251 -0.0585
 1956SOL      O 8267   4.400   4.498   0.593  0.1547 -0.3063  0.1562
 1956SOL     H1 8268   4.452   4.479   0.671  0.6841 -2.0040 -0.5660
 1956SOL     H2 8269   4.346   4.420   0.581  0.1896 -0.1329 -1.2614
 1956SOL    EPW 8270   4.399   4.488   0.600  0.2149 -0.4689 -0.0721
 1957SOL      O 8271   1.316   2.394   0.366 -0.2952 -0.2341 -0.0824
 1957SOL     H1 8272   1.324   2.310   0.410 -1.1146 -0.8942 -1.1364
 1957SOL     H2 8273   1.230   2.428   0.393  0.0078  0.2480  0.2959
 1957SOL    EPW 8274   1.307   2.389   0.373 -0.3503 -0.2531 -0.1545
 1958SOL      O 8275   0.311   1.381   3.695 -0.6760  0.1539  0.0128
 1958SOL     H1 8276   0.394   1.385   3.741 -1.1795 -0.6363  1.0234
 1958SOL     H2 8277   0.272   1.298   3.721 -1.8310  0.5536 -0.3604
 1958SOL    EPW 8278   0.315   1.373   3.702 -0.8529  0.1123  0.0808
 1959SOL      O 8279   2.312   4.588   4.039 -0.3123 -0.0763 -0.6007
 1959SOL     H1 8280   2.229   4.628   4.066 -0.6323 -0.6175 -0.7579
 1959SOL     H2 8281   2.287   4.527   3.969 -0.0501 -1.5959  0.5941
 1959SOL    EPW 8282   2.300   4.586   4.034 -0.3185 -0.2961 -0.4901
 1960SOL      O 8283   3.654   2.560   3.664 -0.1978 -0.3527  0.3223
 1960SOL     H1 8284   3.615   2.592   3.583 -2.0534  1.7819  1.9141
 1960SOL     H2 8285   3.731   2.510   3.636  1.6790  3.6681 -2.6093
 1960SOL    EPW 8286   3.658   2.558   3.652 -0.1956  0.3039  0.1794
 1961SOL      O 8287   5.169   1.961   3.591  0.4172 -0.6225  0.3142
 1961SOL     H1 8288   5.194   2.050   3.616 -0.2551  0.7313 -3.2991
 1961SOL     H2 8289   5.244   1.928   3.542  0.8817 -2.3564  2.0572
 1961SOL    EPW 8290   5.180   1.967   3.588  0.3950 -0.6630  0.1147
 1962SOL      O 8291   2.252   5.743   0.877 -0.0228  0.3145 -0.3468
 1962SOL     H1 8292   2.307   5.702   0.810 -0.8926 -1.0448 -0.2725
 1962SOL     H2 8293   2.165   5.706   0.862 -0.0063 -0.9886  2.2971
 1962SOL    EPW 8294   2.249   5.735   0.868 -0.1138  0.0305 -0.0568
 1963SOL      O 8295   0.503   1.763   0.655 -0.0010 -0.8556 -0.3994
 1963SOL     H1 8296   0.462   1.757   0.741 -0.6058 -0.5269 -0.6604
 1963SOL     H2 8297   0.575   1.700   0.659  2.6237  1.9825  1.7872
 1963SOL    EPW 8298   0.506   1.756   0.665  0.2145 -0.5178 -0.1940
 1964SOL      O 8299   4.883   0.653   0.121 -0.2458 -0.5854  0.4712
 1964SOL     H1 8300   4.859   0.660   0.029 -0.1235  0.5937  0.5130
 1964SOL     H2 8301   4.811   0.695   0.168 -0.5064 -1.5422  0.9554
 1964SOL    EPW 8302   4.873   0.658   0.117 -0.2605 -0.5617  0.5273
 1965SOL      O 8303   1.262   1.779   2.339 -0.2120 -0.3696  0.4405
 1965SOL     H1 8304   1.285   1.865   2.373  0.5754 -0.8275  1.0997
 1965SOL     H2 8305   1.271   1.720   2.414 -1.1072 -0.9743  0.0927
 1965SOL    EPW 8306   1.265   1.782   2.350 -0.2235 -0.4830  0.4737
 1966SOL      O 8307   0.348   0.466   2.844  0.0894  0.4978  0.6422
 1966SOL     H1 8308   0.286   0.537   2.853 -1.2520 -0.3598 -1.1359
 1966SOL     H2 8309   0.433   0.505   2.865 -0.7764  2.2402  1.0711
 1966SOL    EPW 8310   0.351   0.477   2.847 -0.1461  0.5922  0.4983
 1967SOL      O 8311   1.092   0.438   1.214 -0.1869 -0.0319 -0.1042
 1967SOL     H1 8312   1.047   0.354   1.216 -1.1742  0.4900 -0.1571
 1967SOL     H2 8313   1.134   0.441   1.128 -1.2644  0.1055 -0.6338
 1967SOL    EPW 8314   1.092   0.429   1.205 -0.4072  0.0385 -0.1663
 1968SOL      O 8315   0.611   1.757   2.252  0.2604 -0.3113 -0.0046
 1968SOL     H1 8316   0.565   1.676   2.275  0.2334  0.3022  2.3186
 1968SOL     H2 8317   0.583   1.820   2.319  1.6904  1.1115 -0.6907
 1968SOL    EPW 8318   0.603   1.755   2.262  0.4101 -0.0941  0.1700
 1969SOL      O 8319   2.298   5.168   1.400 -0.6402 -0.0876  0.4966
 1969SOL     H1 8320   2.283   5.099   1.464  0.2979 -0.7700 -0.0036
 1969SOL     H2 8321   2.288   5.124   1.315 -0.9192  0.5952  0.1690
 1969SOL    EPW 8322   2.295   5.156   1.398 -0.5699 -0.0875  0.4083
 1970SOL      O 8323   0.738   1.778   0.299  0.4576 -0.2402 -0.4639
 1970SOL     H1 8324   0.784   1.723   0.235  1.9606 -0.6080  0.8422
 1970SOL     H2 8325   0.761   1.739   0.384 -1.4379  0.2401  0.3206
 1970SOL    EPW 8326   0.745   1.768   0.301  0.4158 -0.2282 -0.2409
 1971SOL      O 8327   3.541   1.863   2.440 -0.0131 -0.1571  0.0013
 1971SOL     H1 8328   3.633   1.890   2.439  0.1056 -0.5149 -1.6875
 1971SOL     H2 8329   3.492   1.946   2.442  0.3279  0.0432  0.3650
 1971SOL    EPW 8330   3.545   1.875   2.440  0.0360 -0.1739 -0.1400
 1972SOL      O 8331   0.126   2.924   2.553 -0.1559  0.4029  0.2291
 1972SOL     H1 8332   0.208   2.878   2.572  1.2270  2.7341  0.2379
 1972SOL     H2 8333   0.087   2.874   2.482  1.3147 -0.7249  0.1609
 1972SOL    EPW 8334   0.131   2.914   2.547  0.1485  0.5313  0.2228
 1973SOL      O 8335   0.341   1.573   1.952 -0.1018  0.2421 -0.5428
 1973SOL     H1 8336   0.249   1.587   1.976  0.4574  1.2968  1.1655
 1973SOL     H2 8337   0.367   1.654   1.907  0.9127  1.5319  2.1599
 1973SOL    EPW 8338   0.334   1.583   1.950  0.0661  0.4922 -0.0723
 1974SOL      O 8339   4.798   0.013   3.585  0.4015  0.6925  0.0058
 1974SOL     H1 8340   4.741  -0.030   3.649 -0.7936  1.2627 -0.6617
 1974SOL     H2 8341   4.739   0.064   3.530  1.4395  0.4748 -1.3684
 1974SOL    EPW 8342   4.786   0.014   3.586  0.3847  0.7301 -0.2120
 1975SOL      O 8343   0.720   0.269   2.061  0.0170  0.1552  0.2548
 1975SOL     H1 8344   0.738   0.227   1.977 -0.7119  0.2894  0.0235
 1975SOL     H2 8345   0.805   0.278   2.103  0.6987  2.1301 -1.4243
 1975SOL    EPW 8346   0.731   0.265   2.057  0.0119  0.3802  0.0510
 1976SOL      O 8347   1.937   3.292   3.436 -0.2552  0.0167  0.0088
 1976SOL     H1 8348   2.002   3.345   3.481  0.2517  0.2124 -0.9180
 1976SOL     H2 8349   1.908   3.228   3.501 -0.6258  1.1926  1.0414
 1976SOL    EPW 8350   1.940   3.291   3.447 -0.2407  0.1630  0.0201
 1977SOL      O 8351   0.909   4.861   0.220  0.0922  0.4024  0.3959
 1977SOL     H1 8352   0.863   4.796   0.167  0.8181  0.9140 -0.9389
 1977SOL     H2 8353   0.840   4.904   0.271 -0.2546 -2.1931  2.2788
 1977SOL    EPW 8354   0.897   4.859   0.220  0.1326  0.1801  0.4544
 1978SOL      O 8355   0.903   0.638   0.874 -0.3579 -0.4266  0.4055
 1978SOL     H1 8356   0.966   0.568   0.890 -0.9719 -1.1695 -0.3193
 1978SOL     H2 8357   0.876   0.666   0.961 -0.8862 -1.8318  0.7152
 1978SOL    EPW 8358   0.907   0.634   0.885 -0.4798 -0.6558  0.3612
 1979SOL      O 8359   0.506   3.374   3.198 -0.3919  0.3975 -0.2842
 1979SOL     H1 8360   0.457   3.323   3.134  0.4719  1.0665 -1.5344
 1979SOL     H2 8361   0.562   3.311   3.242 -0.0261  0.1063 -1.1424
 1979SOL    EPW 8362   0.507   3.362   3.196 -0.2607  0.4378 -0.5091
 1980SOL      O 8363   1.987   4.510   4.147 -0.2867 -0.4059 -0.4274
 1980SOL     H1 8364   1.953   4.526   4.059  0.0099  0.0328 -0.4641
 1980SOL     H2 8365   2.037   4.588   4.168  0.3440 -0.8651 -0.2021
 1980SOL    EPW 8366   1.988   4.520   4.140 -0.1878 -0.4081 -0.4073
 1981SOL      O 8367   3.684   3.758   3.584 -0.8469 -0.4333 -0.3751
 1981SOL     H1 8368   3.638   3.705   3.519 -2.2009  0.9620 -0.6055
 1981SOL     H2 8369   3.698   3.842   3.542  1.7321 -0.6796 -0.1910
 1981SOL    EPW 8370   3.680   3.761   3.573 -0.7162 -0.3107 -0.3800
 1982SOL      O 8371   2.012   1.053   2.478  0.0987 -0.0543  0.3580
 1982SOL     H1 8372   1.997   1.145   2.500 -0.3741 -0.2553  0.8802
 1982SOL     H2 8373   1.926   1.019   2.456  0.2843 -0.3629  0.0900
 1982SOL    EPW 8374   2.001   1.059   2.478  0.0680 -0.1086  0.3851
 1983SOL      O 8375   0.443   4.292   2.061  0.9819 -0.1651  0.7349
 1983SOL     H1 8376   0.418   4.253   1.978 -0.7029 -2.1322  2.0753
 1983SOL     H2 8377   0.477   4.219   2.113 -0.6086  0.4135  2.7079
 1983SOL    EPW 8378   0.444   4.280   2.058  0.6325 -0.3132  1.0884
 1984SOL      O 8379   5.471   2.797   0.904  0.3800 -0.0324  0.0805
 1984SOL     H1 8380   5.516   2.881   0.892  0.6893 -0.2291 -0.1692
 1984SOL     H2 8381   5.402   2.798   0.838  1.0470 -0.4160 -0.6340
 1984SOL    EPW 8382   5.468   2.806   0.896  0.4841 -0.0943 -0.0223
 1985SOL      O 8383   2.919   5.461   2.125 -0.2464 -0.4000 -0.5143
 1985SOL     H1 8384   2.856   5.509   2.071 -0.4894  0.9282  0.8919
 1985SOL     H2 8385   2.868   5.394   2.169 -0.5548  0.1630  0.0056
 1985SOL    EPW 8386   2.907   5.459   2.124 -0.3052 -0.1982 -0.3088
 1986SOL      O 8387   2.716   4.383   3.961  0.0785 -0.4449 -0.7177
 1986SOL     H1 8388   2.728   4.312   4.024 -2.3268 -0.5708 -0.3004
 1986SOL     H2 8389   2.738   4.344   3.877 -2.6731 -2.2993 -0.7259
 1986SOL    EPW 8390   2.719   4.371   3.959 -0.4716 -0.6561 -0.6741
 1987SOL      O 8391   4.861   3.872   3.686  0.8239  0.2797 -0.1569
 1987SOL     H1 8392   4.843   3.948   3.742 -2.6493 -0.1284 -0.5104
 1987SOL     H2 8393   4.830   3.899   3.599  1.8448 -0.7198 -0.8528
 1987SOL    EPW 8394   4.856   3.883   3.683  0.5623  0.1295 -0.2688
 1988SOL      O 8395   5.250   4.428   1.518 -0.0351  0.0317  0.2233
 1988SOL     H1 8396   5.224   4.520   1.525  0.9436  0.3923 -0.6217
 1988SOL     H2 8397   5.342   4.427   1.542 -0.1276 -0.7905  0.5605
 1988SOL    EPW 8398   5.257   4.438   1.521  0.0594 -0.0175  0.1691
 1989SOL      O 8399   3.762   1.211   2.086  0.2841 -0.6839  0.0760
 1989SOL     H1 8400   3.838   1.268   2.077  0.2339 -0.7563 -0.9256
 1989SOL     H2 8401   3.783   1.135   2.032  0.3848 -1.6681  1.4485
 1989SOL    EPW 8402   3.772   1.209   2.080  0.2895 -0.7966  0.1156
 1990SOL      O 8403   0.775   3.033   2.713  0.0332 -0.5566  0.9722
 1990SOL     H1 8404   0.822   3.113   2.692  2.6003 -1.8581  1.3253
 1990SOL     H2 8405   0.687   3.062   2.737  1.1506  2.2664  2.1039
 1990SOL    EPW 8406   0.771   3.044   2.714  0.4262 -0.3943  1.1306
 1991SOL      O 8407   3.511   0.819   3.217 -0.1712  0.1076 -0.0160
 1991SOL     H1 8408   3.519   0.839   3.310  0.8038 -0.8326  0.1195
 1991SOL     H2 8409   3.512   0.724   3.212 -2.5103  0.0744 -0.8278
 1991SOL    EPW 8410   3.512   0.811   3.226 -0.3167  0.0037 -0.0882
 1992SOL      O 8411   3.380   1.846   0.848  0.4510  0.0839  0.3252
 1992SOL     H1 8412   3.473   1.866   0.836  0.7507  0.2597  2.5012
 1992SOL     H2 8413   3.343   1.926   0.885  0.0565 -0.8786  2.0945
 1992SOL    EPW 8414   3.386   1.857   0.850  0.4409 -0.0000  0.7460
 1993SOL      O 8415   2.212   1.077   3.336  0.1195 -0.1022  0.0452
 1993SOL     H1 8416   2.196   1.000   3.391  0.2705  0.3853  0.7885
 1993SOL     H2 8417   2.304   1.070   3.312  0.7013  0.8830  1.8024
 1993SOL    EPW 8418   2.220   1.068   3.339  0.1977  0.0549  0.3119
 1994SOL      O 8419   1.788   5.187   1.027  0.0014  0.4574 -0.0908
 1994SOL     H1 8420   1.818   5.119   0.967 -0.3043  0.4662 -0.2523
 1994SOL     H2 8421   1.862   5.201   1.086  0.2753  0.3916 -0.4164
 1994SOL    EPW 8422   1.799   5.182   1.027 -0.0020  0.4513 -0.1427
 1995SOL      O 8423   5.219   3.937   1.046 -0.0923  0.2792 -0.1963
 1995SOL     H1 8424   5.155   3.866   1.033  0.4487 -0.1422 -0.6003
 1995SOL     H2 8425   5.291   3.895   1.093 -0.0725  0.7356  0.1834
 1995SOL    EPW 8426   5.220   3.925   1.050 -0.0324  0.2829 -0.1989
 1996SOL      O 8427   4.739   1.975   3.893 -0.2480  0.6874  0.1328
 1996SOL     H1 8428   4.787   1.941   3.818  0.2163  2.0470 -0.2038
 1996SOL     H2 8429   4.677   1.905   3.915  0.6546 -0.3583 -0.5355
 1996SOL    EPW 8430   4.737   1.964   3.888 -0.1022  0.7209  0.0256
 1997SOL      O 8431   1.666   5.645   2.251 -0.3771 -0.4187  0.3628
 1997SOL     H1 8432   1.630   5.717   2.302  2.1836  1.2819 -0.0470
 1997SOL     H2 8433   1.647   5.668   2.160 -0.4784 -0.8085  0.2852
 1997SOL    EPW 8434   1.660   5.655   2.246 -0.1148 -0.2788  0.3108
 1998SOL      O 8435   2.810   1.996   1.932 -0.2553  0.1904 -0.3512
 1998SOL     H1 8436   2.801   1.902   1.913  0.6309  0.3296 -1.5724
 1998SOL     H2 8437   2.825   1.999   2.026 -2.1766 -0.7361  0.0416
 1998SOL    EPW 8438   2.811   1.986   1.940 -0.3657  0.1064 -0.4396
 1999SOL      O 8439   1.222   3.890   2.278  0.0501  0.6880  0.0082
 1999SOL     H1 8440   1.306   3.910   2.317 -0.4489  0.3203  1.3286
 1999SOL     H2 8441   1.159   3.896   2.350 -0.9445  0.2067 -0.7748
 1999SOL    EPW 8442   1.224   3.892   2.290 -0.1092  0.5974  0.0655
 2000SOL      O 8443   0.414   1.606   4.078  0.5285  0.5135 -0.1799
 2000SOL     H1 8444   0.349   1.588   4.009  0.2474 -0.0999  0.2368
 2000SOL     H2 8445   0.471   1.529   4.078  0.2786  0.3232  0.5451
 2000SOL    EPW 8446   0.413   1.596   4.071  0.4719  0.4278 -0.0581
 2001SOL      O 8447   0.320   3.876   0.701 -0.1040  0.3975  0.0339
 2001SOL     H1 8448   0.411   3.855   0.682  0.0050  1.1432 -0.3236
 2001SOL     H2 8449   0.270   3.804   0.663  0.3864 -0.6030  1.2321
 2001SOL    EPW 8450   0.324   3.866   0.695 -0.0401  0.3703  0.1236
 2002SOL      O 8451   1.424   2.269   0.120 -0.3477 -0.3088  0.3650
 2002SOL     H1 8452   1.358   2.220   0.071 -0.2587 -0.6617  0.5891
 2002SOL     H2 8453   1.504   2.218   0.109  0.0612  0.4972 -0.4937
 2002SOL    EPW 8454   1.425   2.258   0.114 -0.2946 -0.2604  0.2973
 2003SOL      O 8455   4.498   1.403   1.497  0.6422 -0.4104 -0.0144
 2003SOL     H1 8456   4.403   1.403   1.506  0.7243  0.9877  1.2630
 2003SOL     H2 8457   4.514   1.425   1.405 -0.2661  0.7125  0.0858
 2003SOL    EPW 8458   4.490   1.405   1.488  0.5541 -0.1414  0.1326
 2004SOL      O 8459   1.586   0.829   1.474  0.3297  0.0225  0.5758
 2004SOL     H1 8460   1.556   0.842   1.384  0.4515 -0.1550  0.5089
 2004SOL     H2 8461   1.532   0.888   1.527 -0.8823 -1.0697  0.5972
 2004SOL    EPW 8462   1.577   0.836   1.470  0.2134 -0.1130  0.5710
 2005SOL      O 8463   5.609   4.793   0.797  0.1562  0.5454  0.0448
 2005SOL     H1 8464   5.551   4.761   0.728  0.2851 -0.3299  0.3349
 2005SOL     H2 8465   5.685   4.828   0.750 -0.9133  2.4427 -0.3906
 2005SOL    EPW 8466   5.611   4.793   0.784  0.0558  0.6544  0.0293
 2006SOL      O 8467   2.684   1.514   3.793  0.6774 -0.2298  0.1737
 2006SOL     H1 8468   2.735   1.521   3.713  0.9037  0.9959  0.4157
 2006SOL     H2 8469   2.646   1.601   3.806 -0.5097 -0.7955  0.6421
 2006SOL    EPW 8470   2.685   1.524   3.786  0.5749 -0.1594  0.2494
 2007SOL      O 8471   4.151   3.045   2.990  0.5260 -0.0270 -0.0382
 2007SOL     H1 8472   4.176   2.952   2.998  1.5536  0.2330 -0.0831
 2007SOL     H2 8473   4.218   3.082   2.932  0.3720  0.8445  0.3409
 2007SOL    EPW 8474   4.161   3.039   2.984  0.6192  0.0937 -0.0026
 2008SOL      O 8475   5.499   4.203   0.270  0.2183  0.1334  0.2421
 2008SOL     H1 8476   5.546   4.123   0.246 -1.0969 -0.4913 -0.3768
 2008SOL     H2 8477   5.424   4.172   0.321 -0.2815  0.9704  0.0337
 2008SOL    EPW 8478   5.496   4.191   0.273  0.0247  0.1560  0.1538
 2009SOL      O 8479   2.851   4.312   3.274  0.0250  0.8690  0.3606
 2009SOL     H1 8480   2.812   4.368   3.207 -2.2125 -1.7754 -0.7905
 2009SOL     H2 8481   2.826   4.352   3.357 -1.6242  1.5223 -0.4081
 2009SOL    EPW 8482   2.844   4.322   3.276 -0.3896  0.6566  0.1558
 2010SOL      O 8483   4.144   0.212   3.810 -0.1428  0.2335 -0.0436
 2010SOL     H1 8484   4.111   0.283   3.755 -2.1877 -0.9978 -0.5025
 2010SOL     H2 8485   4.211   0.253   3.865  0.1276  2.0572 -1.6421
 2010SOL    EPW 8486   4.148   0.224   3.810 -0.3321  0.2967 -0.2631
 2011SOL      O 8487   4.925   3.295   0.974 -0.2092 -0.4838 -0.1999
 2011SOL     H1 8488   4.892   3.381   0.949  0.2144 -0.1081  0.5126
 2011SOL     H2 8489   4.851   3.253   1.018  0.3718  0.5631  1.8831
 2011SOL    EPW 8490   4.913   3.299   0.976 -0.1021 -0.3320  0.0983
 2012SOL      O 8491   2.656   1.105   3.380 -0.0263  0.4603 -0.0871
 2012SOL     H1 8492   2.680   1.045   3.451  1.7097 -0.9031 -1.7362
 2012SOL     H2 8493   2.736   1.154   3.362 -0.8443  1.8088 -0.2008
 2012SOL    EPW 8494   2.667   1.104   3.386  0.0717  0.4587 -0.2752
 2013SOL      O 8495   3.091   5.438   2.342  0.2126 -0.0625  0.3519
 2013SOL     H1 8496   3.018   5.442   2.404  0.8515 -0.0309  1.1218
 2013SOL     H2 8497   3.164   5.403   2.393  0.6703 -0.3534 -0.4757
 2013SOL    EPW 8498   3.091   5.435   2.354  0.3295 -0.0902  0.3457
 2014SOL      O 8499   2.626   3.637   1.388  0.2218  0.8036 -0.0100
 2014SOL     H1 8500   2.543   3.663   1.426  0.1458  1.0347 -0.3302
 2014SOL     H2 8501   2.691   3.695   1.429 -0.1369  2.6303 -1.8719
 2014SOL    EPW 8502   2.624   3.646   1.396  0.1754  1.0231 -0.2428
 2015SOL      O 8503   0.626   1.124   1.993  0.1959  0.2242  0.6226
 2015SOL     H1 8504   0.554   1.061   1.995  0.2956 -0.1218 -2.0882
 2015SOL     H2 8505   0.689   1.092   2.057 -0.4355 -1.6149  0.3812
 2015SOL    EPW 8506   0.625   1.114   2.000  0.1392 -0.0089  0.3077
 2016SOL      O 8507   5.742   1.409   1.853  0.2464  0.2803  0.6368
 2016SOL     H1 8508   5.723   1.334   1.909 -2.8243 -0.6962 -1.4118
 2016SOL     H2 8509   5.746   1.484   1.913  0.7500 -1.1465  2.4621
 2016SOL    EPW 8510   5.740   1.409   1.865 -0.0275  0.0239  0.6130
 2017SOL      O 8511   1.870   2.439   3.976 -0.6785 -0.9192 -0.1120
 2017SOL     H1 8512   1.946   2.384   3.959  0.0294 -0.1238  0.4164
 2017SOL     H2 8513   1.871   2.453   4.071  0.4361  1.7933 -0.4571
 2017SOL    EPW 8514   1.878   2.435   3.985 -0.4841 -0.5450 -0.0924
 2018SOL      O 8515   1.458   1.183   0.330  0.5911  0.3234 -0.1203
 2018SOL     H1 8516   1.518   1.173   0.256 -0.0511 -0.1078 -0.5901
 2018SOL     H2 8517   1.469   1.274   0.358 -0.1392  0.9101 -1.6155
 2018SOL    EPW 8518   1.465   1.192   0.325  0.4447  0.3400 -0.3299
 2019SOL      O 8519   3.337   1.317   3.558  0.3353  0.5704  0.0208
 2019SOL     H1 8520   3.253   1.331   3.514 -0.9922 -2.2866  1.3932
 2019SOL     H2 8521   3.369   1.234   3.523  1.6346  0.6675  0.9106
 2019SOL    EPW 8522   3.331   1.309   3.549  0.3323  0.2760  0.2621
 2020SOL      O 8523   4.681   4.878   2.788  0.0252  0.3686  0.0034
 2020SOL     H1 8524   4.616   4.810   2.804 -1.7426  1.6878 -1.1407
 2020SOL     H2 8525   4.734   4.880   2.868  0.8374 -2.9754 -0.3067
 2020SOL    EPW 8526   4.680   4.871   2.799 -0.0768  0.1526 -0.1517
 2021SOL      O 8527   4.649   4.622   3.371 -0.0253  0.0778 -0.3122
 2021SOL     H1 8528   4.646   4.572   3.452  1.4910 -0.4012 -0.5096
 2021SOL     H2 8529   4.595   4.573   3.310 -0.6947  0.1252  0.2307
 2021SOL    EPW 8530   4.643   4.612   3.373  0.0650  0.0318 -0.2754
 2022SOL      O 8531   5.637   2.080   0.042 -0.5784 -0.0254  0.0457
 2022SOL     H1 8532   5.631   2.151   0.105 -1.1920  0.4655 -0.5449
 2022SOL     H2 8533   5.547   2.048   0.033 -0.1688 -1.5432  1.0321
 2022SOL    EPW 8534   5.627   2.084   0.047 -0.6002 -0.1350  0.0880
 2023SOL      O 8535   2.747   3.417   1.233 -0.4517 -0.3120 -0.1039
 2023SOL     H1 8536   2.752   3.341   1.292 -1.3792 -0.2020  0.1409
 2023SOL     H2 8537   2.818   3.404   1.171 -1.7477 -2.4373 -1.2955
 2023SOL    EPW 8538   2.755   3.408   1.233 -0.6889 -0.5270 -0.2049
 2024SOL      O 8539   4.150   5.173   3.798  0.5652  0.2997 -0.1599
 2024SOL     H1 8540   4.195   5.194   3.881  1.9815  0.4502 -0.9368
 2024SOL     H2 8541   4.205   5.106   3.758  0.6508  1.1899 -1.5980
 2024SOL    EPW 8542   4.161   5.168   3.803  0.7254  0.4107 -0.3962
 2025SOL      O 8543   3.244   4.002   1.507  0.6565 -0.4504  0.3085
 2025SOL     H1 8544   3.248   3.946   1.585  0.0153 -2.4965 -1.0487
 2025SOL     H2 8545   3.321   3.976   1.456 -0.4722 -1.2477 -1.0453
 2025SOL    EPW 8546   3.253   3.993   1.510  0.4677 -0.7537  0.0193
 2026SOL      O 8547   3.009   2.868   4.026  0.1975  0.3540  0.2246
 2026SOL     H1 8548   2.951   2.791   4.031  0.2243  0.4028  2.0582
 2026SOL     H2 8549   3.091   2.833   3.993  0.5254 -0.6629  1.9523
 2026SOL    EPW 8550   3.011   2.856   4.023  0.2353  0.2508  0.6045
 2027SOL      O 8551   0.214   4.103   2.137  0.1276 -0.0545 -0.4708
 2027SOL     H1 8552   0.154   4.121   2.065 -1.0728 -2.3557 -0.1563
 2027SOL     H2 8553   0.258   4.021   2.112  1.4983  0.4048  0.3308
 2027SOL    EPW 8554   0.212   4.096   2.127  0.1457 -0.2510 -0.3517
 2028SOL      O 8555   2.687   3.411   3.911 -0.1103  0.4561  0.5823
 2028SOL     H1 8556   2.637   3.379   3.837 -2.6551 -2.0802  3.1351
 2028SOL     H2 8557   2.772   3.367   3.904 -0.8835 -0.9952 -0.0060
 2028SOL    EPW 8558   2.691   3.403   3.903 -0.4642  0.0308  0.7919
 2029SOL      O 8559   4.276   3.588   1.062 -0.1524  0.2114  0.0919
 2029SOL     H1 8560   4.193   3.541   1.061  0.4504 -0.9190 -2.0464
 2029SOL     H2 8561   4.261   3.661   1.123 -2.3739 -0.4867  0.4793
 2029SOL    EPW 8562   4.266   3.591   1.069 -0.3251  0.0164 -0.0949
 2030SOL      O 8563   0.417   0.076   2.242 -0.3576 -0.0710 -0.1284
 2030SOL     H1 8564   0.416   0.000   2.183 -1.2646  0.5795 -0.9743
 2030SOL     H2 8565   0.334   0.070   2.289  0.0241 -0.1558  0.5538
 2030SOL    EPW 8566   0.408   0.067   2.241 -0.4136 -0.0106 -0.1458
 2031SOL      O 8567   0.971   4.776   3.921 -0.1206  0.1882 -0.0442
 2031SOL     H1 8568   0.912   4.760   3.994  0.8055 -2.2408  0.2586
 2031SOL     H2 8569   0.914   4.800   3.848 -1.4828 -1.6493  0.3557
 2031SOL    EPW 8570   0.959   4.777   3.921 -0.1671 -0.2669  0.0307
 2032SOL      O 8571   5.626   3.103   2.054  0.2066 -0.1597 -0.6262
 2032SOL     H1 8572   5.546   3.157   2.052  1.4553  1.7940 -0.5676
 2032SOL     H2 8573   5.605   3.033   2.116 -1.8156 -0.3147 -1.3896
 2032SOL    EPW 8574   5.615   3.102   2.060  0.1241  0.0321 -0.7013
 2033SOL      O 8575   2.844   0.912   2.277  0.1807 -0.2209 -0.4096
 2033SOL     H1 8576   2.768   0.939   2.329  0.0350 -1.0895 -0.1547
 2033SOL     H2 8577   2.847   0.975   2.204 -0.2408  0.3638  0.0677
 2033SOL    EPW 8578   2.836   0.922   2.274  0.1202 -0.2512 -0.3315
 2034SOL      O 8579   4.997   4.154   3.052 -0.5189  0.6148 -0.5776
 2034SOL     H1 8580   4.981   4.093   3.124 -0.7920 -0.4544 -1.5211
 2034SOL     H2 8581   4.978   4.103   2.973 -0.3276  1.7980 -1.4026
 2034SOL    EPW 8582   4.994   4.142   3.052 -0.5276  0.6270 -0.7663
 2035SOL      O 8583   1.922   5.790   0.765 -0.2983  0.2292  0.5565
 2035SOL     H1 8584   1.880   5.708   0.740  0.5957 -0.3523  0.9112
 2035SOL     H2 8585   1.943   5.778   0.858 -1.7306  1.5477  1.0851
 2035SOL    EPW 8586   1.920   5.780   0.773 -0.3557  0.3078  0.6508
 2036SOL      O 8587   0.602   4.106   2.203  0.7536  0.2990 -0.0161
 2036SOL     H1 8588   0.670   4.125   2.267  0.3406 -1.8985  1.1510
 2036SOL     H2 8589   0.626   4.020   2.167 -0.6857  0.1039 -0.5637
 2036SOL    EPW 8590   0.612   4.099   2.206  0.5560  0.0438  0.0500
 2037SOL      O 8591   3.312   3.754   1.129 -0.3521  0.1447 -0.0557
 2037SOL     H1 8592   3.263   3.707   1.062 -1.2105  0.2360  0.4882
 2037SOL     H2 8593   3.396   3.708   1.134 -1.2279 -1.5021  0.5966
 2037SOL    EPW 8594   3.315   3.744   1.123 -0.5371 -0.0213  0.0719
 2038SOL      O 8595   5.167   0.411   0.929 -0.1129  0.1540 -0.0247
 2038SOL     H1 8596   5.181   0.331   0.980  2.4676 -0.5997 -1.7159
 2038SOL     H2 8597   5.215   0.479   0.977  1.2805 -0.2871 -0.7512
 2038SOL    EPW 8598   5.173   0.410   0.939  0.3110  0.0266 -0.2826
 2039SOL      O 8599   0.035   0.157   2.059 -0.2110 -0.6276  0.1182
 2039SOL     H1 8600   0.067   0.068   2.044  1.2324  0.0377 -0.9272
 2039SOL     H2 8601   0.045   0.201   1.975 -1.2727  0.4237  0.5231
 2039SOL    EPW 8602   0.040   0.152   2.049 -0.1703 -0.4444  0.0498
 2040SOL      O 8603   5.783   0.829   0.711  0.1021 -0.1021 -0.2155
 2040SOL     H1 8604   5.861   0.820   0.656  0.4619 -0.2192  0.3134
 2040SOL     H2 8605   5.748   0.741   0.718 -1.2623  0.2028 -2.1345
 2040SOL    EPW 8606   5.787   0.819   0.706 -0.0051 -0.0821 -0.3638
 2041SOL      O 8607   1.497   0.620   3.375 -0.9576 -0.3121  0.0974
 2041SOL     H1 8608   1.485   0.561   3.449  0.1531  0.6714  1.1023
 2041SOL     H2 8609   1.462   0.572   3.300 -0.9371 -1.8534  1.0367
 2041SOL    EPW 8610   1.492   0.608   3.375 -0.8369 -0.3716  0.3048
 2042SOL      O 8611   5.702   5.870   0.123  0.2757 -0.0970  0.1959
 2042SOL     H1 8612   5.747   5.952   0.104  0.9028 -0.1535  1.3072
 2042SOL     H2 8613   5.770   5.803   0.119  0.1718 -0.2835  1.2116
 2042SOL    EPW 8614   5.714   5.872   0.121  0.3315 -0.1230  0.4228
 2043SOL      O 8615   0.303   2.198   1.668  0.2723  0.7709 -0.1597
 2043SOL     H1 8616   0.326   2.122   1.722  0.2386  1.5833  1.0395
 2043SOL     H2 8617   0.355   2.187   1.588  0.0272 -0.6684 -0.1493
 2043SOL    EPW 8618   0.311   2.188   1.665  0.2426  0.7041 -0.0306
 2044SOL      O 8619   4.519   0.175   1.487 -0.0331  0.5466 -0.8892
 2044SOL     H1 8620   4.504   0.088   1.450  2.0237  0.4987 -1.7914
 2044SOL     H2 8621   4.468   0.176   1.568 -0.2681 -1.4224 -0.9594
 2044SOL    EPW 8622   4.512   0.166   1.492  0.1612  0.3315 -0.9929
 2045SOL      O 8623   2.802   4.812   3.691 -0.1695 -0.0318 -0.3037
 2045SOL     H1 8624   2.787   4.816   3.785  0.5472 -0.4552 -0.1588
 2045SOL     H2 8625   2.893   4.842   3.680  0.1085 -0.9703 -0.7400
 2045SOL    EPW 8626   2.810   4.815   3.700 -0.0634 -0.1771 -0.3348
 2046SOL      O 8627   2.401   5.478   3.133  0.2177 -0.3855  0.2226
 2046SOL     H1 8628   2.406   5.538   3.059 -0.3226 -0.0171  0.4724
 2046SOL     H2 8629   2.492   5.450   3.147  0.3227 -0.4597 -0.5662
 2046SOL    EPW 8630   2.412   5.482   3.127  0.1712 -0.3541  0.1651
 2047SOL      O 8631   4.916   3.565   3.088 -0.0897 -0.3246  0.6757
 2047SOL     H1 8632   4.875   3.596   3.169  0.7042  0.1809  0.8948
 2047SOL     H2 8633   4.940   3.475   3.107 -3.2245 -1.4763 -0.2659
 2047SOL    EPW 8634   4.914   3.559   3.099 -0.3394 -0.3935  0.5986
 2048SOL      O 8635   5.716   3.558   2.361 -0.2524  0.5430 -0.8716
 2048SOL     H1 8636   5.674   3.534   2.443  2.3482  1.2926  0.7874
 2048SOL     H2 8637   5.720   3.476   2.311 -1.0255 -0.1324  0.1445
 2048SOL    EPW 8638   5.712   3.547   2.364 -0.0575  0.5509 -0.5862
 2049SOL      O 8639   1.130   1.305   0.655 -0.2321 -0.1400 -0.3843
 2049SOL     H1 8640   1.101   1.395   0.673  2.2716  0.6086  0.3115
 2049SOL     H2 8641   1.116   1.259   0.738  0.5673  0.2366 -0.0265
 2049SOL    EPW 8642   1.125   1.310   0.666  0.1203 -0.0200 -0.2719
 2050SOL      O 8643   1.445   0.155   0.446 -0.0929  0.3644  0.5029
 2050SOL     H1 8644   1.539   0.146   0.430 -0.2304  0.5275 -0.4385
 2050SOL     H2 8645   1.420   0.236   0.401 -1.2381 -1.1875 -1.8733
 2050SOL    EPW 8646   1.452   0.163   0.440 -0.2297  0.2163  0.1490
 2051SOL      O 8647   2.400   4.277   2.412 -0.3054 -0.1971  0.4842
 2051SOL     H1 8648   2.449   4.206   2.455 -2.0177 -0.5481  1.9910
 2051SOL     H2 8649   2.386   4.341   2.481 -2.2260 -0.2737  0.2129
 2051SOL    EPW 8650   2.404   4.276   2.424 -0.6930 -0.2427  0.6160
 2052SOL      O 8651   0.672   1.390   0.455  0.0007 -0.0598 -0.8394
 2052SOL     H1 8652   0.684   1.420   0.365 -0.2983 -0.6538 -1.0874
 2052SOL     H2 8653   0.577   1.385   0.467 -0.0745  2.6366  0.4313
 2052SOL    EPW 8654   0.663   1.392   0.447 -0.0392  0.1645 -0.7303
 2053SOL      O 8655   2.065   5.430   2.310  0.0555 -0.3382 -0.1967
 2053SOL     H1 8656   2.094   5.521   2.319 -1.9941  0.1938  1.9167
 2053SOL     H2 8657   1.992   5.434   2.247 -0.2663 -0.4507  0.1661
 2053SOL    EPW 8658   2.060   5.440   2.304 -0.1975 -0.2935  0.0674
 2054SOL      O 8659   3.596   3.716   1.615 -0.2353  0.0020 -0.2213
 2054SOL     H1 8660   3.559   3.635   1.580 -0.4463  1.0269 -2.4847
 2054SOL     H2 8661   3.532   3.784   1.592  0.6912  1.0525  0.2267
 2054SOL    EPW 8662   3.585   3.714   1.609 -0.1590  0.2234 -0.4150
 2055SOL      O 8663   5.198   1.078   3.780  0.5045  0.2154 -0.5330
 2055SOL     H1 8664   5.271   1.096   3.721  0.1092  0.9844 -0.7982
 2055SOL     H2 8665   5.187   1.159   3.829  0.7686 -0.3853  0.5426
 2055SOL    EPW 8666   5.204   1.088   3.779  0.4905  0.2333 -0.4465
 2056SOL      O 8667   1.762   2.318   0.367 -0.2913 -0.2284  0.4290
 2056SOL     H1 8668   1.754   2.244   0.427  0.3052 -0.4357  0.2537
 2056SOL     H2 8669   1.792   2.390   0.422  1.8829 -0.8281  0.1188
 2056SOL    EPW 8670   1.764   2.318   0.379  0.0043 -0.3145  0.3772
 2057SOL      O 8671   2.307   5.275   2.840 -0.5302  0.1628 -0.3232
 2057SOL     H1 8672   2.397   5.297   2.863  0.1441 -0.6846 -1.9682
 2057SOL     H2 8673   2.313   5.243   2.750 -2.4626 -0.0442 -0.4108
 2057SOL    EPW 8674   2.317   5.274   2.833 -0.6644  0.0503 -0.5081
 2058SOL      O 8675   0.108   1.739   0.246  0.1386  0.2242  0.3891
 2058SOL     H1 8676   0.021   1.778   0.245  0.2870  0.5875 -1.4110
 2058SOL     H2 8677   0.120   1.709   0.336 -0.7742  2.5304  1.3359
 2058SOL    EPW 8678   0.100   1.740   0.255  0.0571  0.5090  0.2981
 2059SOL      O 8679   0.260   2.651   1.914 -0.1963 -0.0101 -0.5136
 2059SOL     H1 8680   0.187   2.711   1.924 -1.1027 -1.1000 -0.4642
 2059SOL     H2 8681   0.272   2.642   1.820  0.3254  0.6892 -0.5210
 2059SOL    EPW 8682   0.254   2.656   1.905 -0.2374 -0.0517 -0.5091
 2060SOL      O 8683   4.626   0.316   1.091  0.4126  0.2048 -0.0170
 2060SOL     H1 8684   4.630   0.300   0.997  2.7825  0.3734 -0.0032
 2060SOL     H2 8685   4.717   0.316   1.119 -0.2790 -1.4316  2.5662
 2060SOL    EPW 8686   4.636   0.314   1.084  0.5916  0.0482  0.2600
 2061SOL      O 8687   0.024   5.155   1.600 -0.2731 -0.5120 -0.0994
 2061SOL     H1 8688   0.116   5.145   1.579  0.1496  1.0090  0.8671
 2061SOL     H2 8689   0.004   5.247   1.581 -1.8288 -1.0065 -1.1082
 2061SOL    EPW 8690   0.031   5.164   1.596 -0.3939 -0.4025 -0.1039
 2062SOL      O 8691   4.260   1.494   0.655  0.2683  0.0342  0.0562
 2062SOL     H1 8692   4.316   1.543   0.716 -1.9278  1.0561  1.3528
 2062SOL     H2 8693   4.173   1.529   0.669 -1.0929 -2.8520 -0.4500
 2062SOL    EPW 8694   4.257   1.503   0.663 -0.1112 -0.1647  0.1405
 2063SOL      O 8695   5.010   4.806   3.486 -0.5032  0.3774 -0.4841
 2063SOL     H1 8696   5.089   4.754   3.503 -0.5123  0.0320 -1.4385
 2063SOL     H2 8697   5.034   4.895   3.512 -0.3436 -0.0112  0.7656
 2063SOL    EPW 8698   5.021   4.810   3.490 -0.4871  0.2991 -0.4526
 2064SOL      O 8699   5.778   2.701   1.242 -0.0974 -0.1756 -0.4315
 2064SOL     H1 8700   5.703   2.697   1.301 -1.0018 -0.6210 -1.5809
 2064SOL     H2 8701   5.850   2.662   1.292 -0.8753 -0.6863  0.3115
 2064SOL    EPW 8702   5.778   2.697   1.254 -0.2769 -0.2776 -0.4749
 2065SOL      O 8703   4.068   3.671   0.884  0.2186 -0.1005  0.5072
 2065SOL     H1 8704   4.092   3.757   0.919  0.6891 -0.1763  0.3829
 2065SOL     H2 8705   4.150   3.635   0.850 -0.0087 -0.5221  0.3898
 2065SOL    EPW 8706   4.079   3.676   0.884  0.2446 -0.1535  0.4814
 2066SOL      O 8707   4.634   5.694   0.495 -0.3276 -0.1388  0.1862
 2066SOL     H1 8708   4.543   5.694   0.522 -0.5769  1.4843 -0.5379
 2066SOL     H2 8709   4.631   5.669   0.402 -0.4058  2.6994 -0.6804
 2066SOL    EPW 8710   4.624   5.692   0.488 -0.3626  0.3371  0.0165
 2067SOL      O 8711   3.425   1.435   2.045  0.1548  0.4618 -0.1578
 2067SOL     H1 8712   3.442   1.345   2.072 -2.4520  0.2205  0.9437
 2067SOL     H2 8713   3.456   1.489   2.117  0.1477  0.3275 -0.0547
 2067SOL    EPW 8714   3.430   1.432   2.055 -0.1241  0.4217 -0.0293
 2068SOL      O 8715   1.976   1.867   0.957  0.5349 -0.2330  0.0908
 2068SOL     H1 8716   2.015   1.939   0.907 -2.8095  0.2650 -2.1877
 2068SOL     H2 8717   2.008   1.788   0.915 -0.0020  0.1276 -1.0383
 2068SOL    EPW 8718   1.983   1.866   0.947  0.1209 -0.1414 -0.2727
 2069SOL      O 8719   5.503   5.044   0.853 -0.0512  0.2612  0.2624
 2069SOL     H1 8720   5.549   5.098   0.789  1.2087  0.8989  1.6508
 2069SOL     H2 8721   5.536   4.955   0.837  0.1550  0.3927 -0.0589
 2069SOL    EPW 8722   5.512   5.040   0.844  0.1052  0.3432  0.3763
 2070SOL      O 8723   1.242   5.722   3.636 -0.4097  0.0278  0.1566
 2070SOL     H1 8724   1.277   5.699   3.722 -2.2029  0.0512  0.9508
 2070SOL     H2 8725   1.306   5.687   3.574  1.1349  0.3713  1.4817
 2070SOL    EPW 8726   1.252   5.715   3.639 -0.4362  0.0669  0.3827
 2071SOL      O 8727   0.529   5.495   0.665  0.3419  0.3094 -0.2519
 2071SOL     H1 8728   0.486   5.516   0.582 -0.7131  2.7049  0.7789
 2071SOL     H2 8729   0.535   5.400   0.666 -0.3586  0.1693 -2.6825
 2071SOL    EPW 8730   0.525   5.487   0.656  0.1547  0.5500 -0.4012
 2072SOL      O 8731   1.838   3.235   3.037 -0.0429  0.6630  0.7177
 2072SOL     H1 8732   1.785   3.239   3.117 -1.6715  0.8386 -0.3216
 2072SOL     H2 8733   1.846   3.326   3.009 -0.3558  0.5248  0.1511
 2072SOL    EPW 8734   1.833   3.245   3.043 -0.2500  0.6670  0.5464
 2073SOL      O 8735   5.259   3.797   0.400 -0.5687 -0.5379 -0.0377
 2073SOL     H1 8736   5.272   3.715   0.353 -0.8760 -1.3329  1.2031
 2073SOL     H2 8737   5.206   3.851   0.341  2.1124 -0.0054 -2.1478
 2073SOL    EPW 8738   5.254   3.794   0.389 -0.3155 -0.5659 -0.1304
 2074SOL      O 8739   0.727   0.933   2.298 -0.0811  0.4136 -0.2832
 2074SOL     H1 8740   0.800   0.982   2.336  0.4989 -1.5328  1.2705
 2074SOL     H2 8741   0.768   0.870   2.238 -0.4529 -0.6260  0.5193
 2074SOL    EPW 8742   0.739   0.931   2.295 -0.0589  0.0951 -0.0318
 2075SOL      O 8743   1.812   5.127   0.377 -0.5641 -0.4808  0.5047
 2075SOL     H1 8744   1.880   5.061   0.366 -0.7524 -0.7341  0.8453
 2075SOL     H2 8745   1.730   5.079   0.373 -0.6810 -0.3983  1.6034
 2075SOL    EPW 8746   1.811   5.115   0.376 -0.5967 -0.4990  0.6582
 2076SOL      O 8747   5.009   1.052   3.402  0.3939 -0.4294  0.8357
 2076SOL     H1 8748   4.934   1.075   3.456  1.5240  0.3368  2.1316
 2076SOL     H2 8749   5.061   0.994   3.457  0.2467 -1.8560 -0.4481
 2076SOL    EPW 8750   5.006   1.048   3.414  0.4988 -0.4998  0.8370
 2077SOL      O 8751   0.745   0.343   3.520 -0.1183  0.1644 -0.1004
 2077SOL     H1 8752   0.728   0.424   3.472  0.4088  0.8388  0.8283
 2077SOL     H2 8753   0.721   0.363   3.611  1.2720 -0.2899  0.3908
 2077SOL    EPW 8754   0.740   0.353   3.525  0.0863  0.1879  0.0510
 2078SOL      O 8755   1.258   1.610   4.134  0.2644 -0.1614  0.4410
 2078SOL     H1 8756   1.299   1.599   4.220  1.5644  1.2368  0.0463
 2078SOL     H2 8757   1.191   1.678   4.148  0.7003  0.3062  0.3025
 2078SOL    EPW 8758   1.255   1.616   4.145  0.4496  0.0376  0.3841
 2079SOL      O 8759   3.003   3.363   3.252  1.0872  0.2206  0.0265
 2079SOL     H1 8760   2.991   3.394   3.162  0.4986 -0.8626 -0.2911
 2079SOL     H2 8761   3.098   3.358   3.263  1.2158  2.1447  0.1285
 2079SOL    EPW 8762   3.012   3.366   3.244  1.0381  0.3103  0.0035
 2080SOL      O 8763   2.134   1.176   2.891  0.5365 -0.3702  0.0352
 2080SOL     H1 8764   2.221   1.166   2.852  0.2725  0.1626 -0.6973
 2080SOL     H2 8765   2.080   1.111   2.847  0.1113  0.5877 -0.8991
 2080SOL    EPW 8766   2.138   1.168   2.882  0.4630 -0.2112 -0.1426
 2081SOL      O 8767   3.281   2.177   0.393 -0.4809 -1.0487  0.4155
 2081SOL     H1 8768   3.204   2.224   0.360  0.8372  1.4480  0.6758
 2081SOL     H2 8769   3.261   2.085   0.376 -2.2921 -0.3164 -2.1230
 2081SOL    EPW 8770   3.271   2.172   0.388 -0.5335 -0.7042  0.1725
 2082SOL      O 8771   5.291   1.341   3.041  0.4707 -0.1445  0.3204
 2082SOL     H1 8772   5.332   1.418   3.080 -0.2421 -0.5474  1.9754
 2082SOL     H2 8773   5.205   1.372   3.011  0.4395 -0.1518  0.4017
 2082SOL    EPW 8774   5.286   1.353   3.042  0.3913 -0.1882  0.5056
 2083SOL      O 8775   0.055   4.165   2.773 -0.2974  0.0829 -0.0832
 2083SOL     H1 8776   0.079   4.245   2.725  0.7467 -0.0068  0.2618
 2083SOL     H2 8777  -0.019   4.191   2.827  0.2866  0.9459  0.3307
 2083SOL    EPW 8778   0.050   4.176   2.773 -0.1237  0.1654 -0.0023
 2084SOL      O 8779   0.300   2.534   3.289  0.1377 -0.1679  0.0182
 2084SOL     H1 8780   0.234   2.465   3.288 -1.2593  1.1137  0.3288
 2084SOL     H2 8781   0.256   2.610   3.251  1.3297  0.8307  0.5707
 2084SOL    EPW 8782   0.288   2.534   3.285  0.1158  0.0753  0.1103
 2085SOL      O 8783   5.507   5.867   3.718  0.0628 -0.0130  0.4788
 2085SOL     H1 8784   5.413   5.885   3.730  0.3450  1.4409  0.7227
 2085SOL     H2 8785   5.522   5.878   3.624 -0.1827 -1.1932  0.2924
 2085SOL    EPW 8786   5.498   5.870   3.710  0.0667  0.0162  0.4849
 2086SOL      O 8787   1.933   3.777   0.915 -0.0043  0.2056 -0.1215
 2086SOL     H1 8788   1.883   3.700   0.940 -0.1021 -0.5445 -2.4048
 2086SOL     H2 8789   2.025   3.750   0.926 -0.0393  0.4153  0.7939
 2086SOL    EPW 8790   1.938   3.766   0.919 -0.0184  0.1480 -0.2674
 2087SOL      O 8791   0.307   5.357   0.253  0.5662 -0.6241  0.1365
 2087SOL     H1 8792   0.318   5.397   0.166  0.4762 -1.2255 -0.1514
 2087SOL     H2 8793   0.214   5.336   0.259  0.5543 -0.5008  0.4192
 2087SOL    EPW 8794   0.299   5.359   0.245  0.5554 -0.6751  0.1359
 2088SOL      O 8795   5.123   0.096   3.393 -0.1645 -0.1036 -0.1320
 2088SOL     H1 8796   5.122   0.080   3.487 -0.1907  0.9933  0.0728
 2088SOL     H2 8797   5.031   0.107   3.369 -0.0561  2.1017  0.2118
 2088SOL    EPW 8798   5.113   0.095   3.400 -0.1557  0.2487 -0.0735
 2089SOL      O 8799   3.460   4.122   1.822  0.6526  0.2783 -0.3795
 2089SOL     H1 8800   3.482   4.066   1.748 -2.2672  0.0175 -1.1523
 2089SOL     H2 8801   3.507   4.204   1.804 -0.2925  0.3788 -2.7984
 2089SOL    EPW 8802   3.467   4.125   1.812  0.2403  0.2612 -0.7200
 2090SOL      O 8803   4.378   4.551   0.229 -0.2373 -0.1742 -0.2788
 2090SOL     H1 8804   4.345   4.544   0.319  2.6377  3.5209  1.3553
 2090SOL     H2 8805   4.462   4.506   0.232  1.8080  3.3311  0.2927
 2090SOL    EPW 8806   4.383   4.546   0.239  0.2876  0.5939 -0.0435
 2091SOL      O 8807   0.123   4.497   0.598 -0.8028 -0.2121  0.4984
 2091SOL     H1 8808   0.086   4.559   0.661 -0.7647 -0.9025  1.1999
 2091SOL     H2 8809   0.218   4.510   0.605 -0.7690 -0.7635  1.0684
 2091SOL    EPW 8810   0.129   4.505   0.605 -0.7951 -0.3445  0.6341
 2092SOL      O 8811   1.985   1.434   4.133 -0.8921 -0.5247  0.1028
 2092SOL     H1 8812   2.032   1.497   4.188 -2.3748 -0.9652  2.0301
 2092SOL     H2 8813   2.036   1.353   4.141 -0.7045 -0.3934  0.2612
 2092SOL    EPW 8814   1.995   1.432   4.140 -1.0303 -0.5577  0.3253
 2093SOL      O 8815   4.028   5.566   2.902 -0.1999  0.5165  0.0498
 2093SOL     H1 8816   4.020   5.484   2.950 -0.6961  0.0380 -0.8139
 2093SOL     H2 8817   3.940   5.583   2.868 -0.0250  1.2262 -0.0757
 2093SOL    EPW 8818   4.018   5.559   2.903 -0.2342  0.5411 -0.0558
 2094SOL      O 8819   2.387   5.191   2.157  0.0662  0.1382  0.3751
 2094SOL     H1 8820   2.303   5.175   2.113  0.2157 -2.3188  0.8681
 2094SOL     H2 8821   2.418   5.273   2.119 -1.7842  0.2734 -1.0034
 2094SOL    EPW 8822   2.381   5.198   2.148 -0.1153 -0.1095  0.2806
 2095SOL      O 8823   3.083   2.115   0.725  0.2174 -0.8188  0.0381
 2095SOL     H1 8824   3.140   2.136   0.799  0.2500  0.9746 -0.4664
 2095SOL     H2 8825   3.078   2.019   0.726  2.0436 -0.9518  0.9765
 2095SOL    EPW 8826   3.088   2.107   0.733  0.4157 -0.6417  0.0844
 2096SOL      O 8827   3.870   3.096   3.625 -0.4674  0.9442  0.0354
 2096SOL     H1 8828   3.834   3.078   3.538  0.4857  1.0199 -0.3835
 2096SOL     H2 8829   3.895   3.188   3.622  1.3493  0.4868 -0.2897
 2096SOL    EPW 8830   3.869   3.104   3.615 -0.1719  0.9035 -0.0440
 2097SOL      O 8831   1.314   0.179   1.098  0.6194 -0.1861 -0.0681
 2097SOL     H1 8832   1.289   0.258   1.049  0.1373  0.0932  0.6047
 2097SOL     H2 8833   1.396   0.150   1.058  0.5037  0.3345 -0.6914
 2097SOL    EPW 8834   1.320   0.184   1.088  0.5557 -0.1008 -0.0628
 2098SOL      O 8835   2.419   5.719   0.414 -0.4447 -0.4036  0.0747
 2098SOL     H1 8836   2.494   5.762   0.371  0.6517 -2.6639 -0.4217
 2098SOL     H2 8837   2.393   5.650   0.353 -1.8676 -0.7389  1.0201
 2098SOL    EPW 8838   2.425   5.717   0.403 -0.4795 -0.6805  0.1226
 2099SOL      O 8839   2.343   3.647   0.693 -0.6493  0.1136 -0.4063
 2099SOL     H1 8840   2.259   3.635   0.650 -0.1481  2.0822 -2.0859
 2099SOL     H2 8841   2.322   3.663   0.785 -1.9739 -0.9437 -0.5028
 2099SOL    EPW 8842   2.332   3.647   0.698 -0.7371  0.2108 -0.5957
 2100SOL      O 8843   2.890   2.392   1.543 -0.0164  0.2794  0.3769
 2100SOL     H1 8844   2.960   2.328   1.533  2.0554  2.0064  2.6023
 2100SOL     H2 8845   2.850   2.370   1.627 -1.7411 -0.2280 -0.5277
 2100SOL    EPW 8846   2.893   2.383   1.551  0.0206  0.4095  0.5178
 2101SOL      O 8847   4.337   5.687   2.218  0.1123  0.3878 -0.3940
 2101SOL     H1 8848   4.254   5.641   2.203 -1.0705  1.8956  1.1843
 2101SOL     H2 8849   4.324   5.774   2.180  1.3477  0.3236 -1.0016
 2101SOL    EPW 8850   4.327   5.691   2.212  0.1179  0.5418 -0.2905
 2102SOL      O 8851   4.875   2.341   0.290  0.1002 -0.3221 -0.3205
 2102SOL     H1 8852   4.948   2.333   0.228  2.4142  2.4430  1.7320
 2102SOL     H2 8853   4.855   2.435   0.289 -1.1188 -0.5316  1.6458
 2102SOL    EPW 8854   4.881   2.351   0.283  0.2170 -0.0495  0.1082
 2103SOL      O 8855   0.951   0.093   2.672  0.1981  0.3105 -0.4072
 2103SOL     H1 8856   0.970   0.037   2.748  0.6399 -1.1265 -1.5317
 2103SOL     H2 8857   0.856   0.095   2.667  0.1435  0.8637  0.4732
 2103SOL    EPW 8858   0.943   0.087   2.680  0.2394  0.2162 -0.4333
 2104SOL      O 8859   2.468   5.654   2.160  0.2627 -0.3163 -0.2039
 2104SOL     H1 8860   2.543   5.709   2.139 -0.8444  2.3079  2.0098
 2104SOL     H2 8861   2.490   5.614   2.244 -0.1412 -0.8878 -0.3650
 2104SOL    EPW 8862   2.478   5.656   2.166  0.1015 -0.0973  0.0150
 2105SOL      O 8863   5.403   0.255   0.351  0.0723 -0.0770 -0.7296
 2105SOL     H1 8864   5.364   0.172   0.324  1.2469 -0.1842 -2.1905
 2105SOL     H2 8865   5.335   0.320   0.330 -0.6170 -0.5919 -0.1354
 2105SOL    EPW 8866   5.391   0.253   0.346  0.1240 -0.1433 -0.8221
 2106SOL      O 8867   0.538   4.256   2.596  0.3042  0.0027 -0.2965
 2106SOL     H1 8868   0.569   4.317   2.663  0.3350  0.0373 -0.3429
 2106SOL     H2 8869   0.601   4.265   2.524  0.3708 -0.1637 -0.2591
 2106SOL    EPW 8870   0.548   4.264   2.596  0.3146 -0.0114 -0.2975
 2107SOL      O 8871   0.264   5.783   0.859  0.1003 -0.5156  0.3963
 2107SOL     H1 8872   0.250   5.690   0.843 -2.8910 -0.0677 -0.1000
 2107SOL     H2 8873   0.261   5.791   0.955 -1.8361 -0.7210  0.3973
 2107SOL    EPW 8874   0.262   5.774   0.868 -0.4254 -0.4897  0.3435
 2108SOL      O 8875   1.930   4.955   3.687  0.6024  0.2829 -0.3154
 2108SOL     H1 8876   2.014   5.000   3.702 -0.4126  1.9866  0.5629
 2108SOL     H2 8877   1.892   4.946   3.774 -1.7538  2.9264 -0.9410
 2108SOL    EPW 8878   1.935   4.959   3.698  0.2428  0.7467 -0.2885
 2109SOL      O 8879   5.279   2.081   0.422 -0.7060 -0.3056  0.2227
 2109SOL     H1 8880   5.302   2.173   0.409  1.2948 -0.8126 -0.1527
 2109SOL     H2 8881   5.285   2.068   0.517 -1.9007  0.1562  0.3697
 2109SOL    EPW 8882   5.282   2.089   0.431 -0.6200 -0.3104  0.1984
 2110SOL      O 8883   4.968   4.425   1.866 -0.2832 -0.4686  0.1282
 2110SOL     H1 8884   4.954   4.388   1.954  0.9596  0.2220  0.6408
 2110SOL     H2 8885   5.014   4.507   1.883 -0.4659 -0.0885 -1.1620
 2110SOL    EPW 8886   4.971   4.430   1.877 -0.1701 -0.3544  0.0452
 2111SOL      O 8887   2.132   2.429   1.472  0.3080 -0.1909 -0.6045
 2111SOL     H1 8888   2.188   2.440   1.395  0.2868  2.0547 -0.3703
 2111SOL     H2 8889   2.062   2.493   1.460  0.4736  0.4505  1.3990
 2111SOL    EPW 8890   2.131   2.437   1.463  0.3234  0.1171 -0.3658
 2112SOL      O 8891   0.521   0.038   1.750 -0.2837 -0.5521 -1.0864
 2112SOL     H1 8892   0.596  -0.006   1.791 -1.0130 -1.5746 -0.8113
 2112SOL     H2 8893   0.505   0.114   1.806  0.6795 -0.2115 -1.2700
 2112SOL    EPW 8894   0.527   0.041   1.761 -0.2588 -0.6249 -1.0767
 2113SOL      O 8895   2.219   0.445   1.187 -0.2357 -0.3830 -0.1553
 2113SOL     H1 8896   2.291   0.471   1.130  0.5915 -0.9901  0.5814
 2113SOL     H2 8897   2.161   0.521   1.188  0.8639  0.4943 -0.0308
 2113SOL    EPW 8898   2.221   0.456   1.181 -0.0302 -0.3542 -0.0635
 2114SOL      O 8899   5.179   0.177   1.746  0.0104 -0.1136 -0.1406
 2114SOL     H1 8900   5.133   0.096   1.767 -0.0608  0.0977  0.5688
 2114SOL     H2 8901   5.270   0.160   1.771  0.3041 -0.4741 -1.3875
 2114SOL    EPW 8902   5.184   0.167   1.751  0.0342 -0.1295 -0.1979
 2115SOL      O 8903   2.017   4.327   0.303  0.0558 -0.6525 -0.6135
 2115SOL     H1 8904   2.066   4.409   0.292  0.2028 -0.7136 -0.4139
 2115SOL     H2 8905   1.925   4.355   0.308  0.2982 -0.0701  3.3395
 2115SOL    EPW 8906   2.012   4.339   0.302  0.0973 -0.5969 -0.1705
 2116SOL      O 8907   1.302   3.907   2.001  0.1744 -0.4719 -0.3251
 2116SOL     H1 8908   1.268   3.894   2.090  0.4268 -0.1291 -0.1778
 2116SOL     H2 8909   1.385   3.860   2.000 -0.9990 -2.7021 -1.1738
 2116SOL    EPW 8910   1.307   3.900   2.011  0.0761 -0.6732 -0.3999
 2117SOL      O 8911   2.930   5.240   1.183 -0.4267  0.1053 -0.0702
 2117SOL     H1 8912   2.869   5.231   1.110  1.2389 -2.6363 -1.3042
 2117SOL     H2 8913   2.889   5.191   1.255  0.4769 -2.3572 -1.1162
 2117SOL    EPW 8914   2.919   5.234   1.183 -0.1527 -0.4499 -0.3135
 2118SOL      O 8915   4.288   0.625   2.033 -0.0981  0.1902 -0.3497
 2118SOL     H1 8916   4.333   0.611   1.950 -1.1070 -0.0615 -0.8726
 2118SOL     H2 8917   4.254   0.714   2.028  2.8341  1.5564  1.2971
 2118SOL    EPW 8918   4.289   0.633   2.024  0.1070  0.3091 -0.2298
 2119SOL      O 8919   4.369   5.398   1.879 -0.1126  0.1921 -0.2759
 2119SOL     H1 8920   4.341   5.353   1.958 -1.7492 -0.1645 -1.0117
 2119SOL     H2 8921   4.453   5.358   1.858 -1.3803 -2.4962 -0.7737
 2119SOL    EPW 8922   4.375   5.389   1.885 -0.4224 -0.1327 -0.4075
 2120SOL      O 8923   3.969   5.557   2.453 -0.1792  0.0713  0.4195
 2120SOL     H1 8924   3.997   5.481   2.504 -1.2793 -0.0037  0.9472
 2120SOL     H2 8925   3.957   5.626   2.519  2.2854  1.2159 -0.2012
 2120SOL    EPW 8926   3.971   5.556   2.466 -0.0336  0.1854  0.4096
 2121SOL      O 8927   1.533   5.770   1.298  0.2238 -0.5252 -0.7807
 2121SOL     H1 8928   1.456   5.716   1.281 -0.6620  1.3103 -3.1801
 2121SOL     H2 8929   1.498   5.851   1.335  1.3700 -0.8714  1.1908
 2121SOL    EPW 8930   1.521   5.772   1.300  0.2516 -0.3663 -0.8264
 2122SOL      O 8931   1.488   3.838   2.998  0.2478 -0.6138  0.4122
 2122SOL     H1 8932   1.505   3.747   3.023  0.7673 -0.2810  1.3186
 2122SOL     H2 8933   1.509   3.842   2.905 -0.9517 -1.6985  0.0636
 2122SOL    EPW 8934   1.492   3.829   2.991  0.1752 -0.6940  0.4717
 2123SOL      O 8935   1.514   2.341   0.804  0.6160 -0.2657 -0.5251
 2123SOL     H1 8936   1.489   2.425   0.765 -0.0784  0.5798  1.5753
 2123SOL     H2 8937   1.608   2.336   0.791  1.0852  2.0093  1.2762
 2123SOL    EPW 8938   1.521   2.349   0.799  0.5920  0.0672 -0.1089
 2124SOL      O 8939   5.337   0.580   2.700  0.6296 -0.4443 -0.6398
 2124SOL     H1 8940   5.311   0.653   2.643  0.8410 -0.0453 -0.2330
 2124SOL     H2 8941   5.429   0.566   2.680  0.6820 -0.3600 -0.4549
 2124SOL    EPW 8942   5.344   0.586   2.692  0.6578 -0.3928 -0.5767
 2125SOL      O 8943   2.901   0.052   1.764 -0.3422 -0.6528 -0.5858
 2125SOL     H1 8944   2.808   0.031   1.756 -0.5871 -0.2061  0.7824
 2125SOL     H2 8945   2.910   0.137   1.721 -1.3469  1.0687  2.2654
 2125SOL    EPW 8946   2.892   0.059   1.759 -0.4755 -0.4215 -0.1357
 2126SOL      O 8947   1.390   3.865   1.073  0.2547 -0.1589  0.3484
 2126SOL     H1 8948   1.330   3.827   1.009 -0.1642  0.9640  0.0564
 2126SOL     H2 8949   1.477   3.850   1.036  0.0067  0.6954 -0.6207
 2126SOL    EPW 8950   1.393   3.860   1.062  0.1835  0.0520  0.2139
 2127SOL      O 8951   4.939   4.434   3.455 -0.3149 -0.3980  0.1209
 2127SOL     H1 8952   4.938   4.468   3.545  2.3258  0.6177 -0.1415
 2127SOL     H2 8953   4.934   4.511   3.400  1.5845 -0.6843 -0.5294
 2127SOL    EPW 8954   4.938   4.446   3.459  0.1694 -0.3202  0.0235
 2128SOL      O 8955   5.548   0.375   0.570 -0.0619  0.1477  0.0175
 2128SOL     H1 8956   5.470   0.411   0.612  1.3407  2.3294  0.9646
 2128SOL     H2 8957   5.517   0.340   0.487 -2.3119 -0.7383  1.1601
 2128SOL    EPW 8958   5.536   0.375   0.565 -0.1523  0.2859  0.2404
 2129SOL      O 8959   0.609   1.662   3.846  0.6971 -0.4502  0.3530
 2129SOL     H1 8960   0.523   1.700   3.865  0.7562  0.5624 -1.1952
 2129SOL     H2 8961   0.666   1.696   3.915  0.1026 -0.1630  0.7126
 2129SOL    EPW 8962   0.605   1.670   3.855  0.6400 -0.3115  0.2262
 2130SOL      O 8963   3.791   0.089   0.708 -0.4042  0.9778 -0.3005
 2130SOL     H1 8964   3.745   0.165   0.675 -1.1455 -0.2432 -2.2289
 2130SOL     H2 8965   3.802   0.032   0.632  2.6927  0.3799  0.4510
 2130SOL    EPW 8966   3.787   0.091   0.697 -0.1529  0.7838 -0.4261
 2131SOL      O 8967   1.180   4.749   1.467 -0.4002 -0.2914  0.2986
 2131SOL     H1 8968   1.199   4.811   1.396 -0.1835  1.8247  2.1009
 2131SOL     H2 8969   1.085   4.736   1.463 -0.6321  1.1290  0.5988
 2131SOL    EPW 8970   1.172   4.754   1.459 -0.4018  0.0859  0.5229
 2132SOL      O 8971   0.859   4.634   2.623 -1.1687 -0.2484 -0.1640
 2132SOL     H1 8972   0.873   4.540   2.610  1.6025  0.0658 -0.1189
 2132SOL     H2 8973   0.919   4.656   2.694  1.1578  2.1978 -2.6719
 2132SOL    EPW 8974   0.867   4.626   2.630 -0.6249  0.0461 -0.4268
 2133SOL      O 8975   4.480   4.212   3.026 -0.0485 -0.7540  0.1783
 2133SOL     H1 8976   4.521   4.131   2.996  3.0216  0.4462  0.8395
 2133SOL     H2 8977   4.467   4.263   2.946  0.6426 -0.7688  0.0517
 2133SOL    EPW 8978   4.483   4.209   3.014  0.3527 -0.6275  0.2353
 2134SOL      O 8979   0.312   4.746   3.011 -0.0807 -0.1016  0.1515
 2134SOL     H1 8980   0.320   4.771   3.103 -0.2438  0.1321  0.1040
 2134SOL     H2 8981   0.384   4.685   2.996 -0.8960 -1.2724  0.8024
 2134SOL    EPW 8982   0.320   4.742   3.019 -0.1850 -0.2016  0.2159
 2135SOL      O 8983   2.788   0.567   1.090  0.6732  0.4805 -0.2735
 2135SOL     H1 8984   2.785   0.659   1.116 -0.2588  0.7101 -1.1460
 2135SOL     H2 8985   2.737   0.522   1.157 -0.4137  0.8584 -0.8290
 2135SOL    EPW 8986   2.782   0.572   1.100  0.4578  0.5453 -0.4259
 2136SOL      O 8987   3.614   5.332   0.705 -0.1394 -0.3000 -0.4578
 2136SOL     H1 8988   3.612   5.293   0.792  0.4410  0.4918 -0.0719
 2136SOL     H2 8989   3.629   5.425   0.721 -1.2544  0.0607 -1.3550
 2136SOL    EPW 8990   3.615   5.338   0.716 -0.1965 -0.1771 -0.5123
 2137SOL      O 8991   4.687   2.388   0.623 -0.1279  0.3762  0.8181
 2137SOL     H1 8992   4.591   2.396   0.616  0.0234  1.3233 -0.7265
 2137SOL     H2 8993   4.707   2.306   0.576  0.0354  1.7775 -1.7334
 2137SOL    EPW 8994   4.679   2.380   0.617 -0.0943  0.6267  0.3811
 2138SOL      O 8995   3.001   0.439   3.899  0.5673  0.3401  0.4786
 2138SOL     H1 8996   3.062   0.513   3.907  0.8214  0.1480  0.3225
 2138SOL     H2 8997   3.041   0.371   3.953 -0.3499  0.7599  1.7270
 2138SOL    EPW 8998   3.012   0.440   3.906  0.4965  0.3644  0.5951
 2139SOL      O 8999   5.237   5.812   2.619 -0.0614  0.0108 -1.0815
 2139SOL     H1 9000   5.309   5.758   2.587 -0.6638 -0.5653 -1.4790
 2139SOL     H2 9001   5.277   5.898   2.635  1.0108 -0.6595  0.0147
 2139SOL    EPW 9002   5.249   5.815   2.618 -0.0113 -0.1222 -1.0069
 2140SOL      O 9003   0.911   0.901   1.597  0.2928  0.9175  0.2472
 2140SOL     H1 9004   0.850   0.949   1.654  1.4614  0.5874  1.8532
 2140SOL     H2 9005   0.904   0.810   1.627  0.5072  0.6367 -0.5447
 2140SOL    EPW 9006   0.904   0.897   1.606  0.4403  0.8523  0.3340
 2141SOL      O 9007   1.657   4.622   2.538  0.1162  0.2099 -0.1040
 2141SOL     H1 9008   1.664   4.527   2.544  0.8016  0.2598 -0.0599
 2141SOL     H2 9009   1.728   4.648   2.479 -0.9569  0.5652 -1.2865
 2141SOL    EPW 9010   1.665   4.614   2.533  0.0748  0.2531 -0.2254
 2142SOL      O 9011   3.376   4.281   0.720 -0.1148  0.3786 -0.6154
 2142SOL     H1 9012   3.462   4.318   0.740 -0.0880 -0.4599  1.0160
 2142SOL     H2 9013   3.395   4.194   0.686 -0.3065 -0.4712  1.3129
 2142SOL    EPW 9014   3.387   4.276   0.718 -0.1324  0.1985 -0.2357
 2143SOL      O 9015   2.174   2.665   1.000  0.3990  0.2635 -0.0431
 2143SOL     H1 9016   2.182   2.622   0.915  1.7628  1.4822 -0.5817
 2143SOL     H2 9017   2.092   2.632   1.036 -0.5927  0.2577 -2.1424
 2143SOL    EPW 9018   2.166   2.657   0.995  0.4387  0.3929 -0.3245
 2144SOL      O 9019   1.690   0.730   2.778  0.3835  0.2461 -0.4894
 2144SOL     H1 9020   1.780   0.763   2.771  0.6776 -0.8223 -2.3359
 2144SOL     H2 9021   1.640   0.788   2.721 -0.0281  0.5280  0.1473
 2144SOL    EPW 9022   1.694   0.740   2.771  0.3710  0.1622 -0.6185
 2145SOL      O 9023   4.138   5.562   0.954  0.0704 -0.0120  0.1852
 2145SOL     H1 9024   4.196   5.492   0.983 -0.8556 -0.9172 -0.1266
 2145SOL     H2 9025   4.111   5.537   0.866  1.8045  2.0497 -1.0346
 2145SOL    EPW 9026   4.142   5.552   0.948  0.1566  0.1114  0.0218
 2146SOL      O 9027   2.672   1.665   2.103 -0.1420 -1.1699 -0.1602
 2146SOL     H1 9028   2.659   1.687   2.195  1.2216 -2.9529  0.4974
 2146SOL     H2 9029   2.766   1.672   2.089 -0.2045 -2.0276 -1.1222
 2146SOL    EPW 9030   2.680   1.668   2.111 -0.0032 -1.4516 -0.1927
 2147SOL      O 9031   4.386   1.889   0.636 -0.0572 -0.0316 -0.1882
 2147SOL     H1 9032   4.416   1.822   0.698  1.5743 -0.8554 -1.7463
 2147SOL     H2 9033   4.345   1.839   0.566 -1.0317  0.8036 -0.2214
 2147SOL    EPW 9034   4.385   1.876   0.635  0.0128 -0.0304 -0.3579
 2148SOL      O 9035   0.159   0.447   3.479 -0.2942 -0.2798 -0.3757
 2148SOL     H1 9036   0.110   0.470   3.399 -0.5195  1.0752  0.1150
 2148SOL     H2 9037   0.127   0.510   3.544 -1.4487 -2.5012  1.3131
 2148SOL    EPW 9038   0.150   0.456   3.477 -0.4414 -0.3722 -0.1432
 2149SOL      O 9039   2.945   3.554   1.533 -0.1229  0.1445 -0.1490
 2149SOL     H1 9040   2.957   3.634   1.482 -0.2629 -0.1879 -0.7072
 2149SOL     H2 9041   2.855   3.526   1.515  0.3129 -0.8151 -0.9598
 2149SOL    EPW 9042   2.937   3.559   1.526 -0.0914  0.0067 -0.2950
 2150SOL      O 9043   0.391   5.378   2.137  0.0336 -0.2257 -0.7670
 2150SOL     H1 9044   0.317   5.436   2.158 -0.0265 -0.8038  0.7144
 2150SOL     H2 9045   0.354   5.315   2.075 -0.9298 -0.8706  0.3977
 2150SOL    EPW 9046   0.379   5.377   2.133 -0.0756 -0.3562 -0.4847
 2151SOL      O 9047   1.863   3.023   0.978 -0.6099 -0.2389 -0.2221
 2151SOL     H1 9048   1.856   3.106   0.930 -2.2087 -0.8049 -1.0426
 2151SOL     H2 9049   1.954   2.995   0.965 -0.1003  1.2624 -0.1056
 2151SOL    EPW 9050   1.872   3.029   0.972 -0.7261 -0.1391 -0.2972
 2152SOL      O 9051   2.536   2.196   3.366 -0.3337  0.4338 -0.2750
 2152SOL     H1 9052   2.488   2.250   3.429 -1.5825  0.3066 -1.0963
 2152SOL     H2 9053   2.614   2.249   3.345  0.3701  0.2854  1.6765
 2152SOL    EPW 9054   2.539   2.207   3.371 -0.3918  0.4044 -0.1544
 2153SOL      O 9055   5.083   2.979   4.006 -0.2375 -0.1040  0.1113
 2153SOL     H1 9056   5.016   3.012   3.946 -1.4648 -1.9444  0.3815
 2153SOL     H2 9057   5.056   3.011   4.092  1.5190  2.5296 -0.1932
 2153SOL    EPW 9058   5.073   2.986   4.008 -0.1811 -0.0194  0.1076
 2154SOL      O 9059   0.917   3.232   0.041 -0.2578  0.4315  0.2691
 2154SOL     H1 9060   0.983   3.264  -0.020 -1.2992  1.2681 -0.4650
 2154SOL     H2 9061   0.870   3.164  -0.008  1.7265 -2.1372  1.7038
 2154SOL    EPW 9062   0.919   3.228   0.029 -0.1572  0.2467  0.3438
 2155SOL      O 9063   2.504   2.551   3.153  0.4190  0.0765 -0.1108
 2155SOL     H1 9064   2.453   2.579   3.229  1.2885 -1.1833  0.9877
 2155SOL     H2 9065   2.543   2.468   3.180  0.1630 -0.7873 -2.2145
 2155SOL    EPW 9066   2.503   2.545   3.164  0.4845 -0.1500 -0.2180
 2156SOL      O 9067   4.044   3.220   1.025  0.4423  0.4870 -0.2053
 2156SOL     H1 9068   4.007   3.233   0.937  1.0212 -2.2010 -0.9177
 2156SOL     H2 9069   4.129   3.265   1.021 -0.4502  2.2535 -0.2476
 2156SOL    EPW 9070   4.049   3.227   1.015  0.4089  0.3887 -0.2858
 2157SOL      O 9071   2.871   2.875   1.981 -0.4613  0.1008  0.2552
 2157SOL     H1 9072   2.946   2.927   2.010 -0.3766  0.8806 -1.2601
 2157SOL     H2 9073   2.903   2.784   1.982  0.0757  0.2859  0.8589
 2157SOL    EPW 9074   2.882   2.871   1.984 -0.3950  0.2037  0.1580
 2158SOL      O 9075   4.311   0.237   0.089  0.7010  0.0254 -0.2203
 2158SOL     H1 9076   4.272   0.244   0.177  1.3205 -1.1147  0.1766
 2158SOL     H2 9077   4.406   0.243   0.105  0.8347 -0.6272 -0.7528
 2158SOL    EPW 9078   4.317   0.238   0.100  0.7814 -0.1658 -0.2348
 2159SOL      O 9079   5.690   4.418   3.473  0.3049  0.0418  0.6654
 2159SOL     H1 9080   5.689   4.421   3.377 -0.0220 -1.8068  0.5868
 2159SOL     H2 9081   5.778   4.447   3.496  0.1604  1.2279 -0.1305
 2159SOL    EPW 9082   5.699   4.422   3.465  0.2546 -0.0288  0.5721
 2160SOL      O 9083   4.073   1.628   2.164 -0.2044 -0.4811  0.3400
 2160SOL     H1 9084   4.047   1.627   2.256 -0.1345 -0.8732  0.3587
 2160SOL     H2 9085   4.168   1.618   2.166 -0.4135 -3.6582  0.1736
 2160SOL    EPW 9086   4.081   1.627   2.174 -0.2192 -0.8618  0.3242
 2161SOL      O 9087   2.371   5.125   1.073  0.2455  0.1462  0.0371
 2161SOL     H1 9088   2.315   5.090   1.003  0.0718 -0.7737  0.6212
 2161SOL     H2 9089   2.378   5.054   1.136 -1.4657  1.6614  2.0874
 2161SOL    EPW 9090   2.366   5.114   1.072  0.0444  0.2097  0.3181
 2162SOL      O 9091   3.078   2.321   2.821  0.3208  0.0141 -1.1486
 2162SOL     H1 9092   3.000   2.334   2.766  0.7042  0.5278 -1.5759
 2162SOL     H2 9093   3.044   2.325   2.911 -0.4041 -1.4044 -1.3242
 2162SOL    EPW 9094   3.066   2.323   2.825  0.2843 -0.0824 -1.2129
 2163SOL      O 9095   1.187   2.342   2.008  0.1150  0.1388 -0.3426
 2163SOL     H1 9096   1.171   2.429   1.972  0.7891 -0.4386 -2.1267
 2163SOL     H2 9097   1.169   2.351   2.102 -1.9060  1.6665 -0.7993
 2163SOL    EPW 9098   1.183   2.352   2.014 -0.0287  0.2402 -0.5816
 2164SOL      O 9099   4.286   4.177   3.219 -0.3848 -0.4139 -0.4792
 2164SOL     H1 9100   4.279   4.254   3.276  2.0943 -1.8529  1.9799
 2164SOL     H2 9101   4.346   4.203   3.150 -0.7283  0.3205 -0.5035
 2164SOL    EPW 9102   4.291   4.188   3.218 -0.1570 -0.4891 -0.2195
 2165SOL      O 9103   5.017   0.881   0.196 -0.3972  0.8965  0.0921
 2165SOL     H1 9104   5.035   0.865   0.289  1.0275  0.3517 -0.2605
 2165SOL     H2 9105   4.965   0.805   0.169 -1.1011  1.2156  0.4978
 2165SOL    EPW 9106   5.013   0.871   0.203 -0.3203  0.8724  0.0978
 2166SOL      O 9107   4.830   3.741   3.950  0.3837  0.0404  0.5670
 2166SOL     H1 9108   4.800   3.733   3.859 -0.6663 -0.0149  0.9022
 2166SOL     H2 9109   4.923   3.719   3.947  0.5538  0.8473 -0.6227
 2166SOL    EPW 9110   4.837   3.738   3.940  0.2898  0.1205  0.4758
 2167SOL      O 9111   3.079   1.784   1.633 -0.4289  1.2800  0.2753
 2167SOL     H1 9112   3.092   1.690   1.643  0.2924  1.2861 -0.4445
 2167SOL     H2 9113   3.110   1.822   1.716 -0.9177  0.8767  0.6463
 2167SOL    EPW 9114   3.084   1.778   1.643 -0.4041  1.2376  0.2381
 2168SOL      O 9115   1.876   5.080   3.220  0.1048 -0.0603  0.2740
 2168SOL     H1 9116   1.932   5.085   3.142  1.8712 -0.0782  1.4971
 2168SOL     H2 9117   1.824   5.001   3.207 -0.7623  0.7462 -1.5821
 2168SOL    EPW 9118   1.876   5.072   3.210  0.2007  0.0238  0.2064
 2169SOL      O 9119   5.832   1.018   2.476  0.2896 -0.6382 -0.7137
 2169SOL     H1 9120   5.892   1.089   2.454 -1.0325  0.9689  0.5703
 2169SOL     H2 9121   5.845   1.004   2.570 -0.8879 -0.6533 -0.5314
 2169SOL    EPW 9122   5.840   1.024   2.484  0.0230 -0.4684 -0.5573
 2170SOL      O 9123   3.023   5.500   3.358  0.0579 -0.4266  0.8498
 2170SOL     H1 9124   3.013   5.575   3.416 -0.1670 -0.3065  0.6529
 2170SOL     H2 9125   3.108   5.463   3.382 -0.1198 -0.4887  1.3844
 2170SOL    EPW 9126   3.031   5.504   3.367  0.0150 -0.4204  0.8858
 2171SOL      O 9127   3.742   3.047   1.284  0.2871 -0.1002  0.9985
 2171SOL     H1 9128   3.800   2.972   1.295  0.5890 -0.0555 -0.2502
 2171SOL     H2 9129   3.700   3.057   1.370  0.2808 -1.6506  1.2059
 2171SOL    EPW 9130   3.743   3.040   1.295  0.3187 -0.2608  0.8874
 2172SOL      O 9131   1.789   1.525   2.071 -0.1761  0.0192  0.3858
 2172SOL     H1 9132   1.750   1.571   1.997 -0.4557 -2.2151 -0.9410
 2172SOL     H2 9133   1.719   1.518   2.135 -1.4279 -2.0241 -1.0837
 2172SOL    EPW 9134   1.778   1.529   2.070 -0.3395 -0.4371  0.0875
 2173SOL      O 9135   2.365   3.909   1.542  0.5143 -0.1083 -0.3598
 2173SOL     H1 9136   2.323   3.901   1.627 -0.3207  1.4346 -0.5983
 2173SOL     H2 9137   2.348   3.825   1.499 -0.7093 -0.1957  0.2668
 2173SOL    EPW 9138   2.359   3.899   1.546  0.2947  0.0470 -0.3184
 2174SOL      O 9139   2.367   2.891   3.447 -0.1434 -0.4072 -0.1300
 2174SOL     H1 9140   2.309   2.929   3.380  0.2923  1.0645  0.2936
 2174SOL     H2 9141   2.342   2.936   3.528  1.4942  0.1781  0.0837
 2174SOL    EPW 9142   2.358   2.900   3.448  0.0778 -0.1878 -0.0620
 2175SOL      O 9143   5.792   3.968   1.056  0.3651  0.3246  0.1868
 2175SOL     H1 9144   5.801   3.886   1.008 -1.1479  0.4589 -0.3546
 2175SOL     H2 9145   5.844   4.031   1.005  0.9988 -0.1300  0.2538
 2175SOL    EPW 9146   5.799   3.966   1.046  0.2713  0.2904  0.1362
 2176SOL      O 9147   2.156   3.654   1.971  0.0654 -0.4034 -0.5851
 2176SOL     H1 9148   2.083   3.613   1.925 -0.0018 -0.6067 -0.2966
 2176SOL     H2 9149   2.123   3.670   2.059  0.5415 -0.9728 -0.3041
 2176SOL    EPW 9150   2.145   3.652   1.975  0.1090 -0.4858 -0.5243
 2177SOL      O 9151   2.061   4.983   0.420  0.2107  0.4219  0.0425
 2177SOL     H1 9152   2.122   5.051   0.449  1.5881 -0.9253  0.4660
 2177SOL     H2 9153   2.012   4.959   0.499  1.4454 -0.7384  0.4995
 2177SOL    EPW 9154   2.063   4.987   0.432  0.4893  0.1544  0.1364
 2178SOL      O 9155   1.321   1.017   3.276 -0.0874  0.4401  0.3643
 2178SOL     H1 9156   1.247   0.957   3.264 -0.0018 -0.0143  1.8647
 2178SOL     H2 9157   1.393   0.976   3.228  0.3479 -1.4607  2.4909
 2178SOL    EPW 9158   1.321   1.006   3.269 -0.0319  0.1889  0.7512
 2179SOL      O 9159   0.206   3.382   3.507 -0.3411  0.6462 -0.1294
 2179SOL     H1 9160   0.195   3.413   3.417  0.4370  0.8079 -0.1696
 2179SOL     H2 9161   0.245   3.456   3.553 -2.6210  1.3224  0.8504
 2179SOL    EPW 9162   0.209   3.393   3.502 -0.5013  0.7356 -0.0292
 2180SOL      O 9163   0.205   2.901   3.795  0.3126  0.0798 -0.6766
 2180SOL     H1 9164   0.287   2.881   3.841  1.0996  0.6952 -1.7914
 2180SOL     H2 9165   0.171   2.979   3.840  0.0081 -0.5131  0.1649
 2180SOL    EPW 9166   0.210   2.907   3.805  0.3641  0.0822 -0.7058
 2181SOL      O 9167   0.880   5.014   2.801  0.1429  0.1168 -0.3076
 2181SOL     H1 9168   0.849   5.002   2.712  2.5181  0.5251 -1.2740
 2181SOL     H2 9169   0.908   4.927   2.829 -0.7335 -0.0381  0.1191
 2181SOL    EPW 9170   0.880   5.004   2.794  0.3028  0.1438 -0.3652
 2182SOL      O 9171   5.261   5.195   1.592 -0.2843 -0.8595 -0.2411
 2182SOL     H1 9172   5.289   5.280   1.557  2.1806 -1.4140  0.2363
 2182SOL     H2 9173   5.175   5.213   1.630 -0.8363  0.8928 -2.0909
 2182SOL    EPW 9174   5.255   5.206   1.592 -0.0802 -0.7317 -0.3875
 2183SOL      O 9175   5.774   3.389   1.839 -0.0001 -0.9483  0.4857
 2183SOL     H1 9176   5.828   3.431   1.772 -2.7211  1.8609 -0.1529
 2183SOL     H2 9177   5.834   3.329   1.883  3.7966  2.1266  0.0869
 2183SOL    EPW 9178   5.787   3.387   1.837  0.1147 -0.3206  0.3750
 2184SOL      O 9179   1.941   4.346   2.787 -0.4789 -0.3068 -0.1770
 2184SOL     H1 9180   1.924   4.274   2.726  0.4570 -0.8812  0.2152
 2184SOL     H2 9181   1.919   4.310   2.873  1.6729 -0.7939  0.2495
 2184SOL    EPW 9182   1.937   4.334   2.790 -0.1495 -0.4201 -0.0897
 2185SOL      O 9183   2.020   4.585   1.347 -0.2340  0.7587 -0.4758
 2185SOL     H1 9184   1.986   4.550   1.429  2.1990 -0.3770  0.1409
 2185SOL     H2 9185   1.969   4.664   1.332 -2.5118 -0.3703  0.7330
 2185SOL    EPW 9186   2.011   4.589   1.354 -0.2174  0.5171 -0.2811
 2186SOL      O 9187   5.869   2.578   3.077 -0.0940 -0.3811 -0.8820
 2186SOL     H1 9188   5.782   2.584   3.037 -0.1320  0.1946 -0.7081
 2186SOL     H2 9189   5.854   2.531   3.160 -0.3860  0.5041 -0.4217
 2186SOL    EPW 9190   5.858   2.573   3.082 -0.1292 -0.2252 -0.8144
 2187SOL      O 9191   1.636   3.959   3.193  0.2616 -0.1747  0.0759
 2187SOL     H1 9192   1.596   3.932   3.110 -0.6121  0.5323  0.2536
 2187SOL     H2 9193   1.585   3.915   3.260  0.1930  0.2262  0.2874
 2187SOL    EPW 9194   1.627   3.952   3.191  0.1611 -0.0565  0.1174
 2188SOL      O 9195   3.459   1.744   2.938  0.2617 -0.0979 -0.0573
 2188SOL     H1 9196   3.525   1.801   2.978 -0.1361 -0.0992  0.6049
 2188SOL     H2 9197   3.411   1.802   2.878  0.6259 -0.0139 -0.2710
 2188SOL    EPW 9198   3.461   1.757   2.935  0.2581 -0.0891 -0.0094
 2189SOL      O 9199   0.831   0.991   1.076  0.0380 -0.5585 -0.3620
 2189SOL     H1 9200   0.775   1.022   1.005 -2.3520 -0.9728  1.2118
 2189SOL     H2 9201   0.787   1.020   1.156  0.9157 -2.7604  1.0296
 2189SOL    EPW 9202   0.821   0.998   1.077 -0.1233 -0.8376 -0.0457
 2190SOL      O 9203   3.662   1.195   0.472 -0.1017  0.0745 -0.2154
 2190SOL     H1 9204   3.627   1.229   0.390  1.3525 -1.2018 -1.4186
 2190SOL     H2 9205   3.688   1.105   0.452  0.0514 -0.3622  1.7271
 2190SOL    EPW 9206   3.661   1.189   0.461  0.0697 -0.1083 -0.1365
 2191SOL      O 9207   0.754   3.999   2.794 -0.2735  0.8816 -0.3294
 2191SOL     H1 9208   0.809   3.921   2.802 -0.9473  0.2695 -1.4354
 2191SOL     H2 9209   0.682   3.984   2.857 -0.3592  0.6496 -0.4827
 2191SOL    EPW 9210   0.752   3.989   2.802 -0.3545  0.7916 -0.4637
 2192SOL      O 9211   0.656   2.339   1.696 -0.4354  0.5513 -0.8165
 2192SOL     H1 9212   0.746   2.350   1.727 -0.4945 -0.5588 -0.1839
 2192SOL     H2 9213   0.657   2.257   1.647 -0.8420  1.1748 -1.8968
 2192SOL    EPW 9214   0.666   2.332   1.694 -0.4851  0.4994 -0.8643
 2193SOL      O 9215   5.513   0.269   1.578  0.2159 -0.2216  0.3191
 2193SOL     H1 9216   5.603   0.287   1.604  0.3184  0.5296 -0.5279
 2193SOL     H2 9217   5.469   0.246   1.660  0.3740  2.7468  1.3761
 2193SOL    EPW 9218   5.518   0.268   1.590  0.2437  0.1752  0.3415
 2194SOL      O 9219   4.028   0.785   3.142  0.2815 -0.3109  0.6274
 2194SOL     H1 9220   4.094   0.800   3.074 -0.7022  1.0676 -0.0898
 2194SOL     H2 9221   4.033   0.862   3.198 -1.9058  0.7789 -0.5155
 2194SOL    EPW 9222   4.035   0.795   3.141 -0.0568 -0.0476  0.4290
 2195SOL      O 9223   4.422   1.599   2.031 -0.0249 -0.6302 -0.1022
 2195SOL     H1 9224   4.404   1.689   2.002  2.3923 -0.2764 -0.7359
 2195SOL     H2 9225   4.417   1.603   2.126 -1.6761 -0.2606 -0.1804
 2195SOL    EPW 9226   4.420   1.609   2.038  0.0568 -0.5530 -0.1781
 2196SOL      O 9227   0.571   4.842   0.653  0.5247 -0.0096 -0.4772
 2196SOL     H1 9228   0.579   4.781   0.727 -0.6851 -0.5748 -0.7920
 2196SOL     H2 9229   0.552   4.926   0.694 -0.2329 -0.3389 -0.1402
 2196SOL    EPW 9230   0.570   4.844   0.666  0.3149 -0.1050 -0.4748
 2197SOL      O 9231   5.098   3.383   3.382  0.6378 -0.1452 -0.4454
 2197SOL     H1 9232   5.168   3.398   3.320  1.4679  1.9477  0.8897
 2197SOL     H2 9233   5.134   3.322   3.446  1.2902  0.9098  0.2256
 2197SOL    EPW 9234   5.109   3.379   3.382  0.7959  0.1906 -0.2314
 2198SOL      O 9235   4.845   2.519   4.015 -0.4367  0.5718 -0.2952
 2198SOL     H1 9236   4.780   2.489   4.079 -2.2132 -0.5004 -2.4855
 2198SOL     H2 9237   4.883   2.438   3.981  0.4387  1.1233 -0.6653
 2198SOL    EPW 9238   4.842   2.507   4.018 -0.5328  0.5162 -0.5684
 2199SOL      O 9239   4.642   0.532   3.036 -0.4195  0.2874 -0.0245
 2199SOL     H1 9240   4.573   0.599   3.030  0.1801  0.8405 -1.0108
 2199SOL     H2 9241   4.631   0.480   2.956  1.7515  1.8332 -1.4136
 2199SOL    EPW 9242   4.633   0.533   3.027 -0.1239  0.5113 -0.2779
 2200SOL      O 9243   0.462   3.191   1.701 -0.1116  0.3244  0.2992
 2200SOL     H1 9244   0.471   3.111   1.649 -0.4489 -0.2620  1.1167
 2200SOL     H2 9245   0.368   3.210   1.699  0.0895  1.3175 -0.7695
 2200SOL    EPW 9246   0.453   3.185   1.695 -0.1261  0.3678  0.2724
 2201SOL      O 9247   1.950   1.253   0.845 -0.0407  0.1055 -0.8294
 2201SOL     H1 9248   1.944   1.223   0.755  1.0769 -0.6926 -0.6630
 2201SOL     H2 9249   2.043   1.269   0.859 -0.1178 -0.3484  0.3451
 2201SOL    EPW 9250   1.959   1.252   0.837  0.0703 -0.0281 -0.6864
 2202SOL      O 9251   3.754   0.212   3.697  0.5614  0.4831  0.2767
 2202SOL     H1 9252   3.713   0.236   3.780  1.2797  1.7183  0.2897
 2202SOL     H2 9253   3.681   0.192   3.639 -0.2007  3.6210 -0.0128
 2202SOL    EPW 9254   3.742   0.212   3.700  0.5567  0.9496  0.2472
 2203SOL      O 9255   1.768   4.625   0.694  0.1626  0.3961 -0.0768
 2203SOL     H1 9256   1.786   4.534   0.720  1.5529  0.1700 -1.6691
 2203SOL     H2 9257   1.814   4.678   0.759 -0.4396 -0.0269  0.7112
 2203SOL    EPW 9258   1.775   4.621   0.704  0.2467  0.3269 -0.1626
 2204SOL      O 9259   0.261   5.605   1.300  0.1204 -0.6265 -0.4057
 2204SOL     H1 9260   0.228   5.645   1.381 -0.8873 -1.7780 -0.2179
 2204SOL     H2 9261   0.272   5.679   1.240  1.4673  0.3303  0.9344
 2204SOL    EPW 9262   0.259   5.617   1.302  0.1566 -0.6472 -0.2427
 2205SOL      O 9263   4.832   0.280   2.057 -0.4889 -0.3699 -0.1944
 2205SOL     H1 9264   4.778   0.341   2.109 -0.7092  0.4940 -1.3849
 2205SOL     H2 9265   4.769   0.237   1.999 -0.2858 -1.5445  0.4348
 2205SOL    EPW 9266   4.819   0.282   2.057 -0.4907 -0.4030 -0.2543
 2206SOL      O 9267   5.493   3.132   4.001 -0.1478  0.1399 -1.0708
 2206SOL     H1 9268   5.576   3.162   3.965 -0.6440  1.1802 -1.3767
 2206SOL     H2 9269   5.509   3.128   4.096 -0.3042  2.2937 -0.8956
 2206SOL    EPW 9270   5.504   3.135   4.007 -0.2175  0.4806 -1.0847
 2207SOL      O 9271   4.316   4.280   1.771 -0.5349 -0.0588  0.2396
 2207SOL     H1 9272   4.288   4.360   1.817 -3.4953 -0.2463 -0.9661
 2207SOL     H2 9273   4.383   4.311   1.709  0.2442  0.9770  1.5354
 2207SOL    EPW 9274   4.320   4.292   1.769 -0.7676  0.0317  0.2492
 2208SOL      O 9275   3.281   4.832   1.962 -0.1481 -0.2529  0.0494
 2208SOL     H1 9276   3.254   4.742   1.942 -1.7349  0.0603  0.6811
 2208SOL     H2 9277   3.210   4.887   1.928  0.0536  0.6586  1.0522
 2208SOL    EPW 9278   3.271   4.828   1.956 -0.2959 -0.1222  0.2238
 2209SOL      O 9279   4.078   2.893   1.858 -0.4701 -0.0458  0.1785
 2209SOL     H1 9280   4.062   2.826   1.792 -1.5468  0.4970 -0.1408
 2209SOL     H2 9281   4.170   2.882   1.882  0.1605  0.2002 -1.9306
 2209SOL    EPW 9282   4.086   2.885   1.854 -0.5177  0.0384 -0.0805
 2210SOL      O 9283   5.667   1.529   0.497  0.2694 -0.1707  0.3594
 2210SOL     H1 9284   5.634   1.571   0.576  0.0626 -2.5991  1.6791
 2210SOL     H2 9285   5.609   1.558   0.428 -0.8606  0.3990  1.5070
 2210SOL    EPW 9286   5.657   1.536   0.498  0.1268 -0.3690  0.6226
 2211SOL      O 9287   3.066   3.344   2.258  0.2871  0.2412  0.1202
 2211SOL     H1 9288   2.995   3.382   2.207 -0.8978 -1.1454  0.6579
 2211SOL     H2 9289   3.052   3.378   2.347  1.6171  1.6820 -0.1875
 2211SOL    EPW 9290   3.057   3.351   2.262  0.3026  0.2470  0.1447
 2212SOL      O 9291   4.785   5.493   2.098 -0.3561 -0.4892 -0.5862
 2212SOL     H1 9292   4.764   5.581   2.127  1.0337 -0.6419  1.0114
 2212SOL     H2 9293   4.804   5.502   2.005  1.9094  1.3329 -0.0358
 2212SOL    EPW 9294   4.784   5.503   2.091  0.0338 -0.3111 -0.3571
 2213SOL      O 9295   3.284   5.864   1.471 -0.0921  0.7825 -0.5168
 2213SOL     H1 9296   3.194   5.831   1.463  0.5205 -0.8126 -1.4612
 2213SOL     H2 9297   3.308   5.889   1.382  0.9079 -0.3213 -0.5813
 2213SOL    EPW 9298   3.277   5.863   1.461  0.0800  0.4946 -0.6244
 2214SOL      O 9299   4.020   2.035   2.918  0.6122 -0.2635 -0.9976
 2214SOL     H1 9300   4.000   1.952   2.962 -0.2994  0.0267 -0.8393
 2214SOL     H2 9301   3.965   2.035   2.841  0.3048  0.3713 -0.7865
 2214SOL    EPW 9302   4.012   2.026   2.915  0.4822 -0.1648 -0.9582
 2215SOL      O 9303   2.026   3.920   1.574  0.1331  0.1121 -0.1113
 2215SOL     H1 9304   2.069   3.899   1.657 -0.3291 -3.0787 -0.5698
 2215SOL     H2 9305   1.932   3.922   1.595  0.0732  0.3587 -0.3869
 2215SOL    EPW 9306   2.020   3.918   1.585  0.0774 -0.2020 -0.1896
 2216SOL      O 9307   3.991   0.479   1.271  0.1594  0.3286  0.1698
 2216SOL     H1 9308   4.065   0.459   1.214 -0.0409 -0.9829  0.3386
 2216SOL     H2 9309   4.002   0.421   1.346  0.9874  2.7084  2.0290
 2216SOL    EPW 9310   4.000   0.471   1.273  0.2264  0.4426  0.3862
 2217SOL      O 9311   2.773   1.467   2.983  0.5534 -0.3049  0.3382
 2217SOL     H1 9312   2.844   1.448   2.921  2.0144  1.0104  1.5051
 2217SOL     H2 9313   2.719   1.532   2.938 -0.0512 -1.4566 -0.6399
 2217SOL    EPW 9314   2.775   1.472   2.972  0.6447 -0.2874  0.3583
 2218SOL      O 9315   3.356   0.162   3.443 -0.2829 -0.6016  0.4553
 2218SOL     H1 9316   3.328   0.181   3.532  0.9394  2.0835  0.3787
 2218SOL     H2 9317   3.282   0.189   3.388 -0.0357  0.3314  0.5615
 2218SOL    EPW 9318   3.345   0.167   3.446 -0.1262 -0.2157  0.4584
 2219SOL      O 9319   4.067   1.080   3.003 -0.2505  0.1779 -0.2631
 2219SOL     H1 9320   4.138   1.019   2.984  1.7799  1.9231  1.2554
 2219SOL     H2 9321   4.006   1.069   2.930  1.3117 -1.7439 -1.3846
 2219SOL    EPW 9322   4.068   1.072   2.993  0.1327  0.1590 -0.2208
 2220SOL      O 9323   0.543   2.436   3.179 -0.8547  0.5079  0.1019
 2220SOL     H1 9324   0.545   2.355   3.229 -0.4438  1.3212  1.4818
 2220SOL     H2 9325   0.490   2.496   3.233  0.0710  1.5860 -0.1339
 2220SOL    EPW 9326   0.538   2.434   3.190 -0.7122  0.7097  0.2240
 2221SOL      O 9327   4.518   3.332   2.924 -0.1316 -0.8129 -0.5337
 2221SOL     H1 9328   4.568   3.413   2.911 -1.4643  0.0331 -0.5113
 2221SOL     H2 9329   4.584   3.262   2.920  1.0693  0.2835 -0.3349
 2221SOL    EPW 9330   4.531   3.333   2.922 -0.1457 -0.6057 -0.5101
 2222SOL      O 9331   1.850   1.080   2.854  0.3796 -0.0824  0.2379
 2222SOL     H1 9332   1.815   1.126   2.778  0.0866 -0.5984  0.0579
 2222SOL     H2 9333   1.809   1.124   2.929  2.0082  1.6021  0.2177
 2222SOL    EPW 9334   1.842   1.090   2.854  0.5221  0.0423  0.2165
 2223SOL      O 9335   1.090   4.484   3.056  0.3368 -0.2666  0.2100
 2223SOL     H1 9336   1.008   4.532   3.073  0.7341  0.5422 -0.1159
 2223SOL     H2 9337   1.156   4.531   3.107  0.7618 -0.3693 -0.2432
 2223SOL    EPW 9338   1.088   4.494   3.063  0.4245 -0.1913  0.1269
 2224SOL      O 9339   0.808   2.824   1.707 -0.4521  0.1902  0.5317
 2224SOL     H1 9340   0.812   2.917   1.683  0.2635 -0.1134 -0.5978
 2224SOL     H2 9341   0.759   2.783   1.636  0.5434 -0.5229  0.2366
 2224SOL    EPW 9342   0.803   2.830   1.697 -0.2696  0.0817  0.3797
 2225SOL      O 9343   0.746   4.652   0.108 -0.0034  0.2077  0.1594
 2225SOL     H1 9344   0.666   4.701   0.129 -0.4944 -0.2794 -0.5207
 2225SOL     H2 9345   0.730   4.617   0.021  1.2895  0.7529 -0.3088
 2225SOL    EPW 9346   0.736   4.654   0.101  0.0821  0.2139  0.0369
 2226SOL      O 9347   2.553   0.178   0.800  0.5440  0.3588  0.0705
 2226SOL     H1 9348   2.482   0.129   0.841  0.2319  1.2477  0.6196
 2226SOL     H2 9349   2.600   0.113   0.748 -0.6424 -0.2554 -0.2753
 2226SOL    EPW 9350   2.551   0.166   0.799  0.3842  0.3881  0.0921
 2227SOL      O 9351   2.553   2.708   2.493  0.6418 -0.0984 -0.1425
 2227SOL     H1 9352   2.600   2.774   2.544  0.3539  0.0486 -0.0659
 2227SOL     H2 9353   2.468   2.700   2.537  1.9813 -3.3502  2.2957
 2227SOL    EPW 9354   2.549   2.714   2.503  0.7540 -0.4296  0.1258
 2228SOL      O 9355   4.978   0.020   2.543  0.1449 -0.0188  0.1454
 2228SOL     H1 9356   5.065  -0.005   2.574 -0.0266 -2.3633 -1.0650
 2228SOL     H2 9357   4.917  -0.029   2.599 -0.4238  1.0586  0.5180
 2228SOL    EPW 9358   4.980   0.012   2.552  0.0659 -0.1540  0.0560
 2229SOL      O 9359   3.603   5.372   1.058 -0.0324  0.1724  0.0629
 2229SOL     H1 9360   3.665   5.341   1.124 -0.7268 -1.2202  0.1123
 2229SOL     H2 9361   3.546   5.297   1.043 -1.3539  1.2332 -0.3895
 2229SOL    EPW 9362   3.604   5.361   1.064 -0.2474  0.1370  0.0199
 2230SOL      O 9363   2.591   0.174   0.437 -0.4177  0.6217  0.3453
 2230SOL     H1 9364   2.596   0.197   0.344  0.1977 -2.0457 -0.3528
 2230SOL     H2 9365   2.559   0.254   0.479  0.8253  2.4232 -1.9127
 2230SOL    EPW 9366   2.588   0.185   0.432 -0.2194  0.5293  0.0300
 2231SOL      O 9367   3.214   4.824   0.008  0.2506 -0.5021 -0.4956
 2231SOL     H1 9368   3.210   4.778   0.092  2.7344 -0.6650 -0.4079
 2231SOL     H2 9369   3.134   4.797  -0.038 -0.3821 -1.6302  1.1890
 2231SOL    EPW 9370   3.205   4.816   0.012  0.4481 -0.6398 -0.3066
 2232SOL      O 9371   0.092   2.714   3.669 -0.5045 -0.7037 -0.0417
 2232SOL     H1 9372   0.130   2.766   3.740  0.7452  0.2108 -1.3139
 2232SOL     H2 9373   0.164   2.704   3.606 -1.1086 -2.8287 -0.4732
 2232SOL    EPW 9374   0.104   2.718   3.669 -0.4356 -0.8328 -0.2235
 2233SOL      O 9375   0.217   1.568   3.219 -0.1886 -0.3326 -0.5657
 2233SOL     H1 9376   0.228   1.637   3.285 -2.1775 -1.0600  0.6229
 2233SOL     H2 9377   0.305   1.555   3.183  0.6124  1.3897  0.6249
 2233SOL    EPW 9378   0.227   1.574   3.222 -0.3153 -0.2264 -0.3119
 2234SOL      O 9379   4.792   0.418   0.670 -0.6566  0.2877 -0.9416
 2234SOL     H1 9380   4.838   0.341   0.636 -1.4146  0.4679 -2.4516
 2234SOL     H2 9381   4.726   0.382   0.730  0.5754 -0.0483  0.2664
 2234SOL    EPW 9382   4.790   0.406   0.673 -0.6060  0.2711 -0.9738
 2235SOL      O 9383   5.725   1.008   0.917  0.0761  0.4604 -0.5719
 2235SOL     H1 9384   5.763   0.951   0.851  2.8621  0.9231  0.4759
 2235SOL     H2 9385   5.638   0.973   0.933  1.7791 -3.9248  0.4131
 2235SOL    EPW 9386   5.720   0.998   0.912  0.5550  0.0420 -0.3551
 2236SOL      O 9387   3.690   5.284   3.548  0.1933  0.1428 -0.4498
 2236SOL     H1 9388   3.662   5.371   3.519 -1.5346 -0.8396 -1.9750
 2236SOL     H2 9389   3.769   5.266   3.496 -0.1041  0.3398 -0.9771
 2236SOL    EPW 9390   3.696   5.292   3.539 -0.0227  0.0590 -0.6688
 2237SOL      O 9391   3.712   0.210   1.953  0.7607 -0.0244 -0.4647
 2237SOL     H1 9392   3.722   0.160   1.872  1.5252  0.4254 -0.6539
 2237SOL     H2 9393   3.698   0.300   1.925 -1.1155 -0.1854 -0.1321
 2237SOL    EPW 9394   3.712   0.214   1.941  0.6421  0.0064 -0.4494
 2238SOL      O 9395   2.677   3.356   2.456  0.4367 -0.0343 -0.2776
 2238SOL     H1 9396   2.703   3.447   2.446  1.4023 -0.3757 -1.0715
 2238SOL     H2 9397   2.592   3.350   2.412  0.4787  0.4325 -0.4260
 2238SOL    EPW 9398   2.671   3.365   2.450  0.5442 -0.0209 -0.3781
 2239SOL      O 9399   4.072   1.520   0.391  0.4255  0.2501 -0.1398
 2239SOL     H1 9400   4.076   1.551   0.481  2.6615  1.5220 -0.5993
 2239SOL     H2 9401   4.128   1.442   0.390  0.3257  0.1806 -0.3990
 2239SOL    EPW 9402   4.078   1.515   0.400  0.6534  0.3783 -0.2165
 2240SOL      O 9403   1.242   5.425   3.332 -0.6147  0.8531  0.5567
 2240SOL     H1 9404   1.307   5.455   3.395 -0.6919 -1.0200  1.5925
 2240SOL     H2 9405   1.289   5.424   3.248  1.3126 -1.9268  1.5032
 2240SOL    EPW 9406   1.254   5.428   3.330 -0.4174  0.3568  0.7682
 2241SOL      O 9407   4.783   1.098   0.701  0.2140 -0.0515 -0.3186
 2241SOL     H1 9408   4.789   1.123   0.609 -0.2307  0.1683 -0.2896
 2241SOL     H2 9409   4.712   1.035   0.704  0.3428 -0.1910 -0.1501
 2241SOL    EPW 9410   4.776   1.094   0.691  0.1803 -0.0430 -0.2976
 2242SOL      O 9411   2.944   0.080   0.782  0.1432 -0.7816  0.0734
 2242SOL     H1 9412   2.922   0.062   0.874 -0.5453 -1.8340 -0.2715
 2242SOL     H2 9413   2.970  -0.006   0.747  2.2464 -0.0565 -0.2498
 2242SOL    EPW 9414   2.945   0.069   0.788  0.2941 -0.8165  0.0022
 2243SOL      O 9415   0.595   5.847   2.694  0.4403  0.1423  0.1729
 2243SOL     H1 9416   0.640   5.861   2.777 -0.3633  1.1515  0.4640
 2243SOL     H2 9417   0.626   5.918   2.637  0.8100 -0.4065 -0.3160
 2243SOL    EPW 9418   0.603   5.856   2.697  0.3940  0.1914  0.1518
 2244SOL      O 9419   0.319   2.468   3.722  0.5670  0.4658 -0.2342
 2244SOL     H1 9420   0.333   2.554   3.681 -0.8643  1.6198  1.5149
 2244SOL     H2 9421   0.371   2.472   3.802  0.0819 -0.0962  0.1105
 2244SOL    EPW 9422   0.326   2.478   3.726  0.3625  0.5289 -0.0109
 2245SOL      O 9423   5.651   2.205   3.193 -0.0476  0.1654 -0.3650
 2245SOL     H1 9424   5.582   2.267   3.175  1.2358  1.3768 -1.3050
 2245SOL     H2 9425   5.669   2.163   3.109  1.6159  1.2441 -0.6004
 2245SOL    EPW 9426   5.646   2.207   3.183  0.2668  0.4097 -0.4904
 2246SOL      O 9427   2.309   0.114   0.929 -0.6412  0.0032  0.3351
 2246SOL     H1 9428   2.287   0.026   0.898 -0.0692  0.2884 -0.9506
 2246SOL     H2 9429   2.326   0.103   1.023  0.6247 -1.4935 -0.0387
 2246SOL    EPW 9430   2.308   0.103   0.936 -0.4452 -0.1260  0.1580
 2247SOL      O 9431   2.426   4.410   0.288  0.2470 -0.3650  0.3527
 2247SOL     H1 9432   2.362   4.465   0.241 -0.4934  1.0247  2.8203
 2247SOL     H2 9433   2.414   4.433   0.380  0.4731 -4.1541  1.4760
 2247SOL    EPW 9434   2.418   4.418   0.293  0.1921 -0.6209  0.7357
 2248SOL      O 9435   3.406   2.409   1.420  0.2514 -0.3018 -0.0895
 2248SOL     H1 9436   3.490   2.448   1.396  0.2124 -0.1215  0.0729
 2248SOL     H2 9437   3.430   2.333   1.473  0.3157 -0.3135 -0.1345
 2248SOL    EPW 9438   3.418   2.405   1.423  0.2541 -0.2838 -0.0770
 2249SOL      O 9439   4.271   5.703   1.188 -0.3989  0.1864  0.6014
 2249SOL     H1 9440   4.297   5.615   1.217  2.9029  0.5901 -0.6188
 2249SOL     H2 9441   4.245   5.691   1.096 -0.3823  0.4096  0.5674
 2249SOL    EPW 9442   4.271   5.692   1.181 -0.0449  0.2533  0.4676
 2250SOL      O 9443   1.826   2.769   0.872 -0.7599  0.2661 -0.2443
 2250SOL     H1 9444   1.845   2.707   0.942 -1.3570  0.9606  0.5537
 2250SOL     H2 9445   1.840   2.855   0.911  0.5734  0.6568 -1.4839
 2250SOL    EPW 9446   1.830   2.772   0.883 -0.6813  0.3818 -0.2914
 2251SOL      O 9447   5.147   3.680   0.617  0.6759  0.0339  0.2978
 2251SOL     H1 9448   5.170   3.719   0.533  0.1803  0.2933  0.2748
 2251SOL     H2 9449   5.198   3.600   0.622 -0.7932 -1.0576 -1.1857
 2251SOL    EPW 9450   5.155   3.676   0.609  0.4663 -0.0549  0.1371
 2252SOL      O 9451   4.483   4.509   3.179  0.4323  0.3992  0.0408
 2252SOL     H1 9452   4.508   4.595   3.145  1.2686  0.1309 -0.0478
 2252SOL     H2 9453   4.556   4.452   3.154  0.0318 -0.2669  0.3770
 2252SOL    EPW 9454   4.493   4.512   3.172  0.4788  0.2995  0.0672
 2253SOL      O 9455   1.962   5.253   1.251  0.0605  0.5503  0.2637
 2253SOL     H1 9456   1.894   5.222   1.310 -1.1728  0.9826 -0.8759
 2253SOL     H2 9457   1.993   5.334   1.290 -1.4907  1.3985 -0.1803
 2253SOL    EPW 9458   1.958   5.258   1.261 -0.2366  0.6869  0.0948
 2254SOL      O 9459   4.565   3.371   0.983  0.3137  0.1980 -0.0597
 2254SOL     H1 9460   4.597   3.289   1.022  0.9988  0.2671 -0.4660
 2254SOL     H2 9461   4.601   3.440   1.038  1.8224  0.3238 -1.1674
 2254SOL    EPW 9462   4.572   3.369   0.993  0.5477  0.2188 -0.2212
 2255SOL      O 9463   2.660   4.653   1.917  0.5398 -0.5976  0.5685
 2255SOL     H1 9464   2.616   4.574   1.888  0.4495 -1.0709  1.9110
 2255SOL     H2 9465   2.708   4.626   1.996  1.4129  0.4239  0.4120
 2255SOL    EPW 9466   2.661   4.642   1.922  0.6233 -0.5391  0.6950
 2256SOL      O 9467   0.141   2.526   0.918  0.4452  0.2923 -0.1009
 2256SOL     H1 9468   0.195   2.467   0.971 -0.9099 -0.6761  0.2599
 2256SOL     H2 9469   0.055   2.525   0.960 -0.5549 -0.1481 -2.0097
 2256SOL    EPW 9470   0.138   2.519   0.928  0.1940  0.1420 -0.2660
 2257SOL      O 9471   0.861   5.681   2.894  0.0766 -0.1088  0.5211
 2257SOL     H1 9472   0.816   5.762   2.916 -0.8893  0.0973 -1.9403
 2257SOL     H2 9473   0.811   5.613   2.939 -0.9173  0.3968  0.2069
 2257SOL    EPW 9474   0.851   5.682   2.902 -0.1324 -0.0329  0.2250
 2258SOL      O 9475   5.643   5.215   2.571  0.0210  0.4699  0.0868
 2258SOL     H1 9476   5.560   5.263   2.578 -0.1531  0.2516 -0.4092
 2258SOL     H2 9477   5.672   5.203   2.662 -0.1998  1.0476  0.2340
 2258SOL    EPW 9478   5.637   5.219   2.582 -0.0211  0.5082  0.0496
 2259SOL      O 9479   2.283   3.082   3.239 -0.0979  0.1836  0.1259
 2259SOL     H1 9480   2.196   3.074   3.198 -0.2069  0.3456  0.3224
 2259SOL     H2 9481   2.282   3.169   3.279  0.6891  0.7856 -1.1130
 2259SOL    EPW 9482   2.273   3.090   3.239 -0.0255  0.2651  0.0147
 2260SOL      O 9483   2.025   2.170   1.460  0.3244 -0.1614  0.1442
 2260SOL     H1 9484   2.087   2.242   1.469  0.1849 -0.0915  0.5532
 2260SOL     H2 9485   2.033   2.143   1.368 -0.8490  1.5019 -0.4970
 2260SOL    EPW 9486   2.032   2.175   1.451  0.1843  0.0235  0.1195
 2261SOL      O 9487   2.201   5.634   0.018  0.2580 -0.5734 -0.1224
 2261SOL     H1 9488   2.171   5.720  -0.011  2.2727  0.2169 -0.0141
 2261SOL     H2 9489   2.240   5.594  -0.060  2.7705  0.2314  0.6280
 2261SOL    EPW 9490   2.202   5.639   0.007  0.7409 -0.4032 -0.0308
 2262SOL      O 9491   3.042   2.296   0.307 -0.0652 -0.1859 -0.5160
 2262SOL     H1 9492   3.007   2.290   0.218 -1.9426 -0.8233  0.2211
 2262SOL     H2 9493   2.967   2.322   0.361  0.7788 -0.8251  1.0390
 2262SOL    EPW 9494   3.030   2.298   0.303 -0.1755 -0.3221 -0.2715
 2263SOL      O 9495   0.187   0.099   2.806  0.5224  0.5487  0.5985
 2263SOL     H1 9496   0.153   0.074   2.721  0.3257 -1.3231  1.1627
 2263SOL     H2 9497   0.247   0.171   2.789 -1.2639  1.7676 -0.8039
 2263SOL    EPW 9498   0.190   0.104   2.795  0.3108  0.4790  0.5091
 2264SOL      O 9499   4.715   4.305   1.786  0.1583 -0.4408 -0.7184
 2264SOL     H1 9500   4.792   4.360   1.800  0.1252 -0.6093  0.1958
 2264SOL     H2 9501   4.735   4.223   1.830 -0.3319 -0.6828 -0.9332
 2264SOL    EPW 9502   4.725   4.302   1.792  0.1025 -0.4846 -0.6438
 2265SOL      O 9503   4.011   4.355   0.514 -0.3358  0.2143 -0.6252
 2265SOL     H1 9504   4.010   4.380   0.422  1.3493 -1.3978 -1.1290
 2265SOL     H2 9505   3.982   4.434   0.560  0.5924  1.6619 -2.4011
 2265SOL    EPW 9506   4.008   4.367   0.509 -0.0570  0.1967 -0.8684
 2266SOL      O 9507   2.928   3.515   2.775 -0.0688 -0.9178 -0.2282
 2266SOL     H1 9508   2.977   3.495   2.855 -0.5999 -0.5261  0.1967
 2266SOL     H2 9509   2.846   3.466   2.784 -0.8058  0.3641  0.2005
 2266SOL    EPW 9510   2.924   3.507   2.784 -0.2041 -0.7392 -0.1371
 2267SOL      O 9511   2.495   4.195   0.615  0.1237  0.5459 -0.1352
 2267SOL     H1 9512   2.422   4.139   0.641  1.6838 -1.2498  0.5781
 2267SOL     H2 9513   2.453   4.276   0.585 -2.0921  0.0207  1.3039
 2267SOL    EPW 9514   2.482   4.198   0.614  0.0537  0.2983  0.0944
 2268SOL      O 9515   3.601   2.918   2.542  0.6575  0.0439 -0.4062
 2268SOL     H1 9516   3.567   2.972   2.613  0.1562  1.2846 -1.5415
 2268SOL     H2 9517   3.572   2.829   2.563 -1.0203  0.6647  0.0270
 2268SOL    EPW 9518   3.594   2.914   2.552  0.4250  0.2425 -0.4811
 2269SOL      O 9519   4.710   1.757   2.970  0.3041 -0.2414  0.2939
 2269SOL     H1 9520   4.731   1.848   2.951  0.9927 -0.4587 -0.0012
 2269SOL     H2 9521   4.662   1.760   3.053  0.0444  0.4164  0.1253
 2269SOL    EPW 9522   4.707   1.767   2.977  0.3499 -0.1944  0.2444
 2270SOL      O 9523   3.700   2.700   1.026 -0.0436 -0.6141 -0.4317
 2270SOL     H1 9524   3.747   2.758   0.967 -0.1727 -0.9136 -0.8348
 2270SOL     H2 9525   3.710   2.740   1.112  0.3410 -0.2966 -0.6212
 2270SOL    EPW 9526   3.706   2.710   1.029 -0.0163 -0.6122 -0.4950
 2271SOL      O 9527   2.239   0.756   0.882  0.6081  0.1422  0.0586
 2271SOL     H1 9528   2.253   0.763   0.977  5.0048 -2.7849 -0.1091
 2271SOL     H2 9529   2.232   0.662   0.865 -0.9503  0.6140 -2.5397
 2271SOL    EPW 9530   2.240   0.747   0.890  0.9109 -0.1198 -0.2364
 2272SOL      O 9531   1.389   4.189   2.121 -0.1701  0.1429  0.7938
 2272SOL     H1 9532   1.379   4.160   2.030 -4.4436  1.8603  0.5019
 2272SOL     H2 9533   1.429   4.276   2.115 -0.2451  0.1619  0.5734
 2272SOL    EPW 9534   1.392   4.195   2.111 -0.6340  0.3281  0.7391
 2273SOL      O 9535   5.522   5.183   2.978  0.5660  0.1979 -0.1753
 2273SOL     H1 9536   5.525   5.096   3.017  1.6503  0.0219 -0.6118
 2273SOL     H2 9537   5.429   5.198   2.959  0.0463  0.1432  2.1011
 2273SOL    EPW 9538   5.512   5.176   2.980  0.6262  0.1733  0.0210
 2274SOL      O 9539   3.639   5.764   0.485 -0.0859  0.1293  0.1572
 2274SOL     H1 9540   3.686   5.769   0.401  0.2163  0.7386  0.3553
 2274SOL     H2 9541   3.585   5.843   0.486 -0.0337  0.1613  0.5732
 2274SOL    EPW 9542   3.638   5.773   0.476 -0.0481  0.1977  0.2227
 2275SOL      O 9543   4.820   2.221   3.590 -0.3612 -0.2746 -0.2178
 2275SOL     H1 9544   4.732   2.256   3.572  0.0495  0.6037 -0.5879
 2275SOL     H2 9545   4.857   2.282   3.654 -0.0080 -0.6319 -0.0754
 2275SOL    EPW 9546   4.814   2.231   3.595 -0.2797 -0.2190 -0.2421
 2276SOL      O 9547   5.468   0.834   1.947 -0.2950 -0.3697 -0.4843
 2276SOL     H1 9548   5.460   0.911   2.004  0.1030  1.2302 -2.4963
 2276SOL     H2 9549   5.562   0.825   1.933 -0.3082 -1.5425  0.1104
 2276SOL    EPW 9550   5.477   0.842   1.952 -0.2539 -0.3242 -0.6355
 2277SOL      O 9551   0.255   2.998   2.882 -0.3491 -0.2881 -0.2168
 2277SOL     H1 9552   0.290   2.964   2.800  0.4370 -1.3273  0.5242
 2277SOL     H2 9553   0.162   2.976   2.879 -1.5714  3.9285 -2.9396
 2277SOL    EPW 9554   0.249   2.992   2.873 -0.3956  0.0509 -0.4282
 2278SOL      O 9555   5.714   0.109   3.222  0.5331 -0.4803  0.5988
 2278SOL     H1 9556   5.742   0.040   3.281  1.6247  0.6084  1.4031
 2278SOL     H2 9557   5.794   0.139   3.179  0.0145 -0.0411 -0.0930
 2278SOL    EPW 9558   5.726   0.105   3.223  0.5942 -0.3173  0.6108
 2279SOL      O 9559   0.352   0.594   1.610 -0.1078  0.0986  0.1829
 2279SOL     H1 9560   0.284   0.660   1.620 -0.2224 -0.0399  0.3298
 2279SOL     H2 9561   0.430   0.632   1.651  0.5801  1.2505 -2.0561
 2279SOL    EPW 9562   0.353   0.605   1.616 -0.0467  0.2067 -0.0403
 2280SOL      O 9563   0.360   0.475   1.124  0.3677 -0.3153  0.1172
 2280SOL     H1 9564   0.429   0.427   1.169  1.4282  0.3475 -0.7403
 2280SOL     H2 9565   0.405   0.548   1.082 -1.1125  1.1094  0.8972
 2280SOL    EPW 9566   0.372   0.478   1.124  0.3229 -0.0926  0.1090
 2281SOL      O 9567   5.183   3.549   1.267 -0.4313 -0.5852  0.0145
 2281SOL     H1 9568   5.157   3.597   1.346  0.3370 -0.0547 -0.0398
 2281SOL     H2 9569   5.150   3.460   1.281 -1.5663 -0.1401  0.2822
 2281SOL    EPW 9570   5.177   3.545   1.277 -0.4705 -0.4812  0.0373
 2282SOL      O 9571   4.463   1.319   2.809  0.0842 -0.2754 -0.0080
 2282SOL     H1 9572   4.383   1.280   2.773  0.2458 -0.2509 -0.3983
 2282SOL     H2 9573   4.505   1.248   2.857 -1.6361  0.4197  2.7645
 2282SOL    EPW 9574   4.459   1.307   2.811 -0.0821 -0.1986  0.2461
 2283SOL      O 9575   3.227   0.094   2.597 -0.0012  0.1866 -0.6694
 2283SOL     H1 9576   3.312   0.133   2.576  0.5538 -0.2768  0.6032
 2283SOL     H2 9577   3.232   0.076   2.691 -0.5535 -2.1096 -1.0208
 2283SOL    EPW 9578   3.237   0.096   2.604 -0.0009 -0.1078 -0.5712
 2284SOL      O 9579   0.388   0.168   3.467  0.4881  0.4678  0.0223
 2284SOL     H1 9580   0.405   0.197   3.377  0.2653 -0.1817 -0.2386
 2284SOL     H2 9581   0.293   0.163   3.473  0.5012  0.5801  0.3193
 2284SOL    EPW 9582   0.380   0.170   3.458  0.4657  0.4105  0.0261
 2285SOL      O 9583   4.641   5.721   3.761 -0.2606  0.8547  0.2010
 2285SOL     H1 9584   4.566   5.723   3.702 -0.0341 -0.0947 -0.1432
 2285SOL     H2 9585   4.603   5.721   3.849 -0.9378 -3.3616  0.1190
 2285SOL    EPW 9586   4.629   5.721   3.764 -0.3087  0.3036  0.1556
 2286SOL      O 9587   3.107   5.674   3.817  0.2748  0.4151  0.6475
 2286SOL     H1 9588   3.050   5.749   3.802 -1.0357 -0.3321  1.6601
 2286SOL     H2 9589   3.057   5.618   3.877  0.9412 -1.5530 -0.5436
 2286SOL    EPW 9590   3.095   5.676   3.821  0.2061  0.1255  0.6285
 2287SOL      O 9591   2.932   0.344   1.321 -0.1409  0.2140 -0.1795
 2287SOL     H1 9592   2.942   0.340   1.416 -0.5228  0.7999 -0.1116
 2287SOL     H2 9593   2.846   0.385   1.307  0.0769  0.4801 -0.7805
 2287SOL    EPW 9594   2.924   0.348   1.330 -0.1584  0.3049 -0.2364
 2288SOL      O 9595   0.585   3.728   1.155 -0.1878  0.6757  0.3914
 2288SOL     H1 9596   0.618   3.755   1.069 -1.7808 -0.0679 -0.4949
 2288SOL     H2 9597   0.647   3.767   1.217  2.2951 -0.5854 -1.1279
 2288SOL    EPW 9598   0.596   3.735   1.152 -0.0929  0.4618  0.1348
 2289SOL      O 9599   2.693   4.455   3.108  0.2666  0.2340 -0.3310
 2289SOL     H1 9600   2.617   4.399   3.087 -0.0550  1.2056 -1.8869
 2289SOL     H2 9601   2.698   4.517   3.035  2.3715  0.4157 -0.0804
 2289SOL    EPW 9602   2.685   4.455   3.098  0.4568  0.3571 -0.4703
 2290SOL      O 9603   4.384   4.581   4.096 -0.2275  0.2907  0.2355
 2290SOL     H1 9604   4.336   4.562   4.177 -0.0775 -0.9424  0.0654
 2290SOL     H2 9605   4.317   4.580   4.027 -0.6256  2.9292  0.4745
 2290SOL    EPW 9606   4.371   4.579   4.097 -0.2540  0.4407  0.2429
 2291SOL      O 9607   2.138   4.245   0.882  0.1782  0.0012 -0.0791
 2291SOL     H1 9608   2.172   4.163   0.919 -0.3523 -0.2167 -0.0700
 2291SOL     H2 9609   2.056   4.260   0.928 -0.0486  0.1943 -0.5412
 2291SOL    EPW 9610   2.133   4.238   0.891  0.0974 -0.0014 -0.1275
 2292SOL      O 9611   5.232   0.195   2.972  0.0405  0.5029  0.1765
 2292SOL     H1 9612   5.231   0.277   3.023 -1.5821  1.4162 -1.1938
 2292SOL     H2 9613   5.141   0.185   2.944  0.6854 -0.4959 -1.6818
 2292SOL    EPW 9614   5.222   0.203   2.974 -0.0638  0.4938 -0.1679
 2293SOL      O 9615   1.541   5.206   0.724  0.0859 -0.8045 -0.0861
 2293SOL     H1 9616   1.632   5.228   0.701 -0.0096 -0.4186 -0.1002
 2293SOL     H2 9617   1.490   5.234   0.648  0.0535 -1.8521 -0.4578
 2293SOL    EPW 9618   1.545   5.212   0.713  0.0723 -0.8751 -0.1273
 2294SOL      O 9619   3.578   0.542   0.276 -0.1091 -0.1479  0.0819
 2294SOL     H1 9620   3.622   0.622   0.307 -2.5819  1.7127 -0.8487
 2294SOL     H2 9621   3.629   0.516   0.199 -0.6728  2.1484 -1.1727
 2294SOL    EPW 9622   3.588   0.548   0.271 -0.4330  0.2956 -0.1512
 2295SOL      O 9623   2.461   1.620   1.916 -0.0536  0.2910 -0.1243
 2295SOL     H1 9624   2.545   1.641   1.957 -0.4658  0.6183  0.5764
 2295SOL     H2 9625   2.484   1.575   1.835  0.7997 -0.4594  0.5050
 2295SOL    EPW 9626   2.472   1.617   1.912 -0.0065  0.2458  0.0176
 2296SOL      O 9627   2.008   2.980   3.158  0.2816 -0.2690 -0.0692
 2296SOL     H1 9628   1.944   2.939   3.217  0.1738 -0.2687 -0.1865
 2296SOL     H2 9629   1.969   3.064   3.136  1.2142  0.6100  1.4409
 2296SOL    EPW 9630   1.997   2.985   3.162  0.3696 -0.1752  0.0794
 2297SOL      O 9631   5.817   4.878   1.967 -0.0552 -0.0864 -0.1565
 2297SOL     H1 9632   5.860   4.946   1.916  0.7919 -1.2616 -1.0504
 2297SOL     H2 9633   5.816   4.801   1.910 -3.4556 -0.1178 -0.2495
 2297SOL    EPW 9634   5.821   4.877   1.956 -0.3276 -0.2151 -0.2618
 2298SOL      O 9635   1.458   5.713   2.727  0.4302  0.2410  0.2729
 2298SOL     H1 9636   1.485   5.779   2.791  0.5709 -0.6884  1.1898
 2298SOL     H2 9637   1.475   5.754   2.642  3.0207  0.4227  0.7861
 2298SOL    EPW 9638   1.463   5.724   2.725  0.7216  0.1612  0.4255
 2299SOL      O 9639   2.315   2.972   4.039 -0.2582 -0.2360  0.4283
 2299SOL     H1 9640   2.246   2.910   4.062  0.3623 -0.9102  0.5155
 2299SOL     H2 9641   2.279   3.057   4.061  0.2389 -0.7781  3.8168
 2299SOL    EPW 9642   2.304   2.974   4.044 -0.1390 -0.3658  0.7991
 2300SOL      O 9643   3.884   2.517   1.539 -0.0024 -0.4031 -0.5947
 2300SOL     H1 9644   3.896   2.599   1.588  1.2247 -1.2267  0.5371
 2300SOL     H2 9645   3.957   2.462   1.565 -0.4693 -1.6642 -1.8017
 2300SOL    EPW 9646   3.893   2.520   1.547  0.0787 -0.6255 -0.6028
 2301SOL      O 9647   0.599   1.127   3.984 -0.0242 -0.0758  0.3063
 2301SOL     H1 9648   0.683   1.117   4.029  0.4050  0.4630 -0.3618
 2301SOL     H2 9649   0.622   1.155   3.896 -0.8929 -0.3690 -0.0220
 2301SOL    EPW 9650   0.610   1.129   3.980 -0.0711 -0.0496  0.2000
 2302SOL      O 9651   1.896   3.266   0.811 -0.2274 -0.2964  0.6192
 2302SOL     H1 9652   1.824   3.321   0.843 -0.2430  0.3647 -0.5284
 2302SOL     H2 9653   1.975   3.315   0.833 -0.1598 -0.5800  1.0270
 2302SOL    EPW 9654   1.897   3.277   0.817 -0.2218 -0.2561  0.5403
 2303SOL      O 9655   2.400   4.316   4.126 -0.1674 -0.2679  0.0920
 2303SOL     H1 9656   2.367   4.406   4.124 -1.0053 -0.5472  0.8498
 2303SOL     H2 9657   2.473   4.319   4.188 -0.6335 -0.2497  0.6441
 2303SOL    EPW 9658   2.405   4.326   4.132 -0.3065 -0.2957  0.2317
 2304SOL      O 9659   2.534   1.113   0.196 -0.9498  0.4717 -0.1951
 2304SOL     H1 9660   2.452   1.081   0.234 -1.5038  1.0876 -0.8457
 2304SOL     H2 9661   2.509   1.192   0.148 -0.1024  0.2518 -1.0321
 2304SOL    EPW 9662   2.523   1.118   0.195 -0.9185  0.5139 -0.3538
 2305SOL      O 9663   2.547   0.734   3.306 -0.0365  0.4552 -0.4875
 2305SOL     H1 9664   2.465   0.688   3.287 -0.5585  1.4078 -0.6086
 2305SOL     H2 9665   2.558   0.727   3.401  1.3208 -2.2438 -0.7612
 2305SOL    EPW 9666   2.540   0.729   3.314  0.0526  0.2689 -0.5296
 2306SOL      O 9667   5.032   3.421   3.968  0.0169  0.4029  0.0939
 2306SOL     H1 9668   5.108   3.363   3.960  0.0759  0.4120  0.5491
 2306SOL     H2 9669   5.061   3.491   4.026 -0.1803  0.6800 -0.1368
 2306SOL    EPW 9670   5.043   3.422   3.973  0.0021  0.4334  0.1179
 2307SOL      O 9671   4.893   5.785   0.170 -0.5975  0.7492 -0.3377
 2307SOL     H1 9672   4.892   5.863   0.226 -2.2048  2.1340 -2.1787
 2307SOL     H2 9673   4.879   5.713   0.230 -2.0586  2.1539  1.0992
 2307SOL    EPW 9674   4.892   5.786   0.182 -0.9248  1.0468 -0.3808
 2308SOL      O 9675   3.583   2.308   0.493 -0.3122  0.4176 -0.3135
 2308SOL     H1 9676   3.545   2.309   0.405 -0.6876  1.6040 -0.1610
 2308SOL     H2 9677   3.512   2.277   0.549 -0.0848 -0.3019 -0.4090
 2308SOL    EPW 9678   3.572   2.305   0.490 -0.3280  0.4674 -0.3074
 2309SOL      O 9679   1.349   4.873   3.134  0.0417  0.4085  0.1643
 2309SOL     H1 9680   1.378   4.926   3.060  0.5200 -0.6190 -0.4071
 2309SOL     H2 9681   1.387   4.916   3.211  0.8050  0.6312 -0.3302
 2309SOL    EPW 9682   1.356   4.883   3.134  0.1741  0.3227  0.0506
 2310SOL      O 9683   5.238   3.594   0.215 -0.5166 -0.4391 -0.4092
 2310SOL     H1 9684   5.332   3.603   0.200 -0.1132 -1.1187  1.4304
 2310SOL     H2 9685   5.228   3.505   0.250 -1.6386  0.1183  0.7546
 2310SOL    EPW 9686   5.247   3.585   0.217 -0.5932 -0.4521 -0.0888
 2311SOL      O 9687   2.628   2.677   4.119  0.4219  0.1902 -0.3671
 2311SOL     H1 9688   2.589   2.713   4.039 -1.5174  1.9851  1.2493
 2311SOL     H2 9689   2.668   2.752   4.162 -1.2272 -0.0572  1.7502
 2311SOL    EPW 9690   2.628   2.689   4.115  0.0391  0.3553  0.0312
 2312SOL      O 9691   1.044   4.741   2.807 -0.1978  0.4758 -0.2200
 2312SOL     H1 9692   1.120   4.797   2.792  0.4124 -0.0229  0.9111
 2312SOL     H2 9693   1.051   4.715   2.899 -1.8400  0.5666 -0.0399
 2312SOL    EPW 9694   1.053   4.744   2.815 -0.3079  0.4323 -0.0801
 2313SOL      O 9695   0.410   1.682   0.916 -0.3988 -0.9868 -0.2100
 2313SOL     H1 9696   0.320   1.710   0.934  0.0637  0.7078 -0.2809
 2313SOL     H2 9697   0.456   1.696   0.998 -0.1304 -1.5683 -0.2576
 2313SOL    EPW 9698   0.405   1.687   0.926 -0.3208 -0.8681 -0.2226
 2314SOL      O 9699   1.132   1.451   2.861  0.4233 -0.3121  0.4768
 2314SOL     H1 9700   1.093   1.480   2.943 -0.9499  0.7452 -0.5125
 2314SOL     H2 9701   1.074   1.380   2.831 -0.7375  1.1401 -0.9049
 2314SOL    EPW 9702   1.122   1.446   2.866  0.1530 -0.0444  0.2239
 2315SOL      O 9703   5.418   4.074   3.944  0.1730 -0.2069  0.3179
 2315SOL     H1 9704   5.334   4.084   3.898  0.7006  4.5537 -0.1761
 2315SOL     H2 9705   5.406   3.997   3.999 -3.2573 -1.7205 -2.1765
 2315SOL    EPW 9706   5.407   4.067   3.945 -0.1367  0.1395 -0.0009
 2316SOL      O 9707   2.047   2.784   2.980 -0.3717  0.5326 -0.1629
 2316SOL     H1 9708   2.009   2.703   3.015 -0.8427  1.1736  0.8374
 2316SOL     H2 9709   2.036   2.848   3.050 -0.5538  1.6339 -1.1708
 2316SOL    EPW 9710   2.042   2.782   2.991 -0.4413  0.7185 -0.1637
 2317SOL      O 9711   2.223   2.032   3.441 -0.4728  0.2066  0.2104
 2317SOL     H1 9712   2.296   1.978   3.470 -0.3057 -0.6234 -1.5778
 2317SOL     H2 9713   2.239   2.118   3.480  0.7534 -0.3113  0.8853
 2317SOL    EPW 9714   2.232   2.035   3.448 -0.3242  0.0628  0.0917
 2318SOL      O 9715   2.859   1.399   1.338 -0.1986 -0.4520 -0.1551
 2318SOL     H1 9716   2.911   1.323   1.311 -0.6799 -0.5974 -0.6828
 2318SOL     H2 9717   2.830   1.378   1.426  2.7852  0.7414  1.2681
 2318SOL    EPW 9718   2.862   1.389   1.344  0.0684 -0.3402 -0.0596
 2319SOL      O 9719   1.464   5.572   3.494 -0.1217 -0.2728  0.3612
 2319SOL     H1 9720   1.547   5.561   3.448 -0.2144 -1.9756  0.5318
 2319SOL     H2 9721   1.483   5.544   3.583 -1.1783 -2.1396  0.0610
 2319SOL    EPW 9722   1.475   5.568   3.498 -0.2443 -0.6536  0.3474
 2320SOL      O 9723   2.143   5.174   2.362  0.1814  0.1120 -0.0178
 2320SOL     H1 9724   2.113   5.265   2.357  0.7498  0.2404 -1.6972
 2320SOL     H2 9725   2.202   5.164   2.287  1.2112 -1.2593  0.9250
 2320SOL    EPW 9726   2.146   5.183   2.353  0.3519 -0.0206 -0.0963
 2321SOL      O 9727   3.057   3.897   1.880 -0.0075  0.1005 -0.1448
 2321SOL     H1 9728   2.987   3.899   1.814 -0.7999 -2.2911  0.4989
 2321SOL     H2 9729   3.136   3.877   1.830 -0.4770 -1.0024 -0.4795
 2321SOL    EPW 9730   3.058   3.895   1.867 -0.1421 -0.2723 -0.1118
 2322SOL      O 9731   3.876   3.691   0.672 -0.4092  0.0326  0.7006
 2322SOL     H1 9732   3.879   3.618   0.610  0.3801 -0.6573  1.5135
 2322SOL     H2 9733   3.941   3.668   0.739 -0.4193  1.3035  1.1766
 2322SOL    EPW 9734   3.883   3.680   0.673 -0.3261  0.0946  0.8381
 2323SOL      O 9735   4.463   4.234   3.664 -0.1076 -0.0003 -0.1383
 2323SOL     H1 9736   4.546   4.234   3.618 -0.0958 -1.0772 -0.1489
 2323SOL     H2 9737   4.429   4.323   3.653  1.3480  0.6614  0.4634
 2323SOL    EPW 9738   4.468   4.243   3.658  0.0489 -0.0446 -0.0752
 2324SOL      O 9739   4.908   0.807   3.212 -0.7061 -0.7061  0.3305
 2324SOL     H1 9740   4.932   0.896   3.189  1.5472 -1.4196 -0.3629
 2324SOL     H2 9741   4.867   0.771   3.133 -2.5553 -0.0358  0.9329
 2324SOL    EPW 9742   4.906   0.812   3.201 -0.6630 -0.7107  0.3208
 2325SOL      O 9743   0.669   3.663   0.549  0.7182 -0.0822 -0.2604
 2325SOL     H1 9744   0.738   3.624   0.496  0.2617  0.7112 -1.4791
 2325SOL     H2 9745   0.661   3.604   0.625  0.8623 -1.6896 -1.4332
 2325SOL    EPW 9746   0.676   3.652   0.552  0.6849 -0.1690 -0.5155
 2326SOL      O 9747   4.866   3.834   0.837  0.4628  0.2215  0.2018
 2326SOL     H1 9748   4.952   3.855   0.798  1.4807  0.1180  2.2496
 2326SOL     H2 9749   4.866   3.739   0.844 -1.0031 -0.0383 -2.1953
 2326SOL    EPW 9750   4.875   3.826   0.833  0.4150  0.1827  0.1646
 2327SOL      O 9751   3.054   4.181   1.947  0.8436 -0.2441 -0.2293
 2327SOL     H1 9752   3.032   4.098   1.906  1.1014 -1.1446  1.3683
 2327SOL     H2 9753   3.117   4.222   1.887  0.3234 -0.9468 -1.2812
 2327SOL    EPW 9754   3.058   4.177   1.936  0.8156 -0.4151 -0.1711
 2328SOL      O 9755   2.657   5.873   1.668  0.0538  0.1033 -0.5851
 2328SOL     H1 9756   2.633   5.833   1.752  1.5092 -0.3875 -0.3871
 2328SOL     H2 9757   2.670   5.800   1.609 -1.8847  0.4700 -1.5503
 2328SOL    EPW 9758   2.655   5.861   1.671  0.0023  0.0900 -0.6669
 2329SOL      O 9759   2.066   0.539   2.882  0.3254 -0.2571  0.1544
 2329SOL     H1 9760   2.154   0.567   2.858  0.8070  0.4200  2.4010
 2329SOL     H2 9761   2.014   0.619   2.883  0.3408 -0.2381  1.2501
 2329SOL    EPW 9762   2.070   0.550   2.880  0.3784 -0.1828  0.5109
 2330SOL      O 9763   3.289   3.587   4.065 -0.1746  0.0850 -0.2421
 2330SOL     H1 9764   3.331   3.659   4.113 -1.7912  1.0902 -0.2512
 2330SOL     H2 9765   3.328   3.508   4.102  1.5856  0.9341 -0.1606
 2330SOL    EPW 9766   3.297   3.586   4.074 -0.1593  0.2828 -0.2344
 2331SOL      O 9767   2.615   2.833   2.021 -0.2518 -0.9151  0.2108
 2331SOL     H1 9768   2.578   2.814   1.935  1.2796 -1.4353 -0.3666
 2331SOL     H2 9769   2.710   2.827   2.008  0.0006 -1.4584  2.0400
 2331SOL    EPW 9770   2.621   2.831   2.010 -0.0615 -1.0285  0.3443
 2332SOL      O 9771   0.486   1.723   1.169 -0.3334 -0.5333  0.0238
 2332SOL     H1 9772   0.554   1.788   1.186  0.4619 -1.1792 -0.5737
 2332SOL     H2 9773   0.531   1.639   1.177 -1.4976 -1.0527  1.4734
 2332SOL    EPW 9774   0.498   1.721   1.172 -0.3728 -0.6576  0.1147
 2333SOL      O 9775   4.169   1.881   3.141  0.4282 -0.0971 -0.6500
 2333SOL     H1 9776   4.252   1.912   3.105  1.1341 -0.4623  0.6280
 2333SOL     H2 9777   4.165   1.789   3.115  0.5166 -0.1333 -0.5339
 2333SOL    EPW 9778   4.177   1.875   3.134  0.5129 -0.1399 -0.5013
 2334SOL      O 9779   4.597   1.080   0.186  0.2032  0.4436 -0.1517
 2334SOL     H1 9780   4.627   1.119   0.104 -1.0243 -0.0033 -0.8379
 2334SOL     H2 9781   4.531   1.141   0.219 -1.6157 -0.8681 -1.1540
 2334SOL    EPW 9782   4.593   1.091   0.181 -0.1218  0.2560 -0.3318
 2335SOL      O 9783   3.478   2.399   4.106  0.4858  0.3211  0.4690
 2335SOL     H1 9784   3.510   2.360   4.187  0.0858  0.4902  0.7146
 2335SOL     H2 9785   3.556   2.413   4.053  0.6498 -0.6886  0.4304
 2335SOL    EPW 9786   3.490   2.396   4.109  0.4606  0.2314  0.4911
 2336SOL      O 9787   2.356   4.188   2.813 -0.3780  0.0360 -0.1051
 2336SOL     H1 9788   2.394   4.220   2.895 -0.5968  1.4128 -0.5158
 2336SOL     H2 9789   2.430   4.146   2.768 -0.4761 -1.6470  1.1944
 2336SOL    EPW 9790   2.368   4.187   2.817 -0.4118  0.0033 -0.0103
 2337SOL      O 9791   4.838   5.323   2.979  0.4978  0.5289  0.4077
 2337SOL     H1 9792   4.876   5.259   2.919  1.1859  0.6926  0.6715
 2337SOL     H2 9793   4.862   5.408   2.942  1.4230  0.6298  1.2280
 2337SOL    EPW 9794   4.844   5.325   2.969  0.6699  0.5572  0.5234
 2338SOL      O 9795   0.904   4.629   1.414  0.3112 -0.0119  0.2658
 2338SOL     H1 9796   0.834   4.570   1.388  1.4501 -0.7820 -1.2272
 2338SOL     H2 9797   0.946   4.654   1.332  1.2515  1.1187  1.0549
 2338SOL    EPW 9798   0.901   4.625   1.403  0.5330  0.0265  0.1907
 2339SOL      O 9799   3.601   1.143   1.068  0.2449  0.2678 -0.2764
 2339SOL     H1 9800   3.649   1.225   1.081  1.2774 -0.2213 -0.9282
 2339SOL     H2 9801   3.651   1.078   1.116 -0.7699  0.0652  0.5368
 2339SOL    EPW 9802   3.611   1.145   1.074  0.2468  0.1940 -0.2592
 2340SOL      O 9803   2.687   1.081   1.376 -0.2758 -0.0446  0.1466
 2340SOL     H1 9804   2.603   1.041   1.356 -0.2983  0.7217 -1.3555
 2340SOL     H2 9805   2.666   1.160   1.425 -0.3156 -0.7811  1.3720
 2340SOL    EPW 9806   2.676   1.085   1.379 -0.2825 -0.0414  0.1171
 2341SOL      O 9807   0.444   2.492   2.279  0.4419 -0.3425 -0.7383
 2341SOL     H1 9808   0.399   2.446   2.349 -0.8203 -0.5548 -1.6611
 2341SOL     H2 9809   0.485   2.423   2.227  1.6157 -0.1683 -0.0703
 2341SOL    EPW 9810   0.444   2.480   2.281  0.4325 -0.3465 -0.7655
 2342SOL      O 9811   2.458   0.949   0.760 -0.0510  0.1588 -0.5457
 2342SOL     H1 9812   2.374   0.996   0.756 -0.5549 -0.6248  0.3050
 2342SOL     H2 9813   2.435   0.863   0.794  0.6766 -1.1711 -3.1623
 2342SOL    EPW 9814   2.446   0.945   0.763 -0.0271 -0.0667 -0.7341
 2343SOL      O 9815   4.602   2.539   0.396  0.3823 -0.6576  0.2569
 2343SOL     H1 9816   4.514   2.505   0.378  0.6021 -0.9554 -0.2970
 2343SOL     H2 9817   4.654   2.461   0.416  0.5051 -0.4749  0.6636
 2343SOL    EPW 9818   4.598   2.527   0.396  0.4189 -0.6699  0.2412
 2344SOL      O 9819   0.528   2.144   0.979  0.5042  0.3727 -0.4052
 2344SOL     H1 9820   0.445   2.179   1.011  0.8993  1.6350 -0.6928
 2344SOL     H2 9821   0.507   2.109   0.893  0.1738  0.2923 -0.2924
 2344SOL    EPW 9822   0.517   2.144   0.973  0.5111  0.4988 -0.4238
 2345SOL      O 9823   2.147   0.594   2.559 -0.8662  0.5462 -0.3332
 2345SOL     H1 9824   2.172   0.567   2.470  0.4846 -1.2365  0.5261
 2345SOL     H2 9825   2.138   0.689   2.553  1.8202  0.8063 -1.8159
 2345SOL    EPW 9826   2.149   0.601   2.548 -0.4355  0.3838 -0.3997
 2346SOL      O 9827   4.281   2.297   3.140 -0.5203 -0.0098 -0.3566
 2346SOL     H1 9828   4.273   2.341   3.055  0.9810  0.6563 -0.1854
 2346SOL     H2 9829   4.270   2.367   3.204 -1.7206 -0.5229  0.0291
 2346SOL    EPW 9830   4.279   2.309   3.138 -0.4882  0.0065 -0.2972
 2347SOL      O 9831   0.189   4.161   3.998 -0.2153 -0.3078 -0.1441
 2347SOL     H1 9832   0.207   4.130   3.909  2.8538  0.4502  0.1116
 2347SOL     H2 9833   0.145   4.245   3.985 -0.9058 -0.7721 -0.9177
 2347SOL    EPW 9834   0.186   4.167   3.987  0.0384 -0.2765 -0.1994
 2348SOL      O 9835   3.167   5.306   0.144 -0.7094 -0.3649 -0.4600
 2348SOL     H1 9836   3.219   5.228   0.165 -0.8618 -0.2328  0.4455
 2348SOL     H2 9837   3.179   5.364   0.219 -1.6307 -0.0584 -0.5349
 2348SOL    EPW 9838   3.174   5.304   0.154 -0.8239 -0.3181 -0.3714
 2349SOL      O 9839   1.882   0.126   3.249  0.3296  0.4697  0.7088
 2349SOL     H1 9840   1.860   0.217   3.269 -2.0206  0.0920  0.1784
 2349SOL     H2 9841   1.852   0.113   3.159  0.9723 -0.7171  0.6458
 2349SOL    EPW 9842   1.876   0.134   3.242  0.1475  0.3028  0.6455
 2350SOL      O 9843   0.133   5.383   2.374 -1.2387 -0.7750 -0.0416
 2350SOL     H1 9844   0.124   5.330   2.453 -1.2525 -0.3691  0.2282
 2350SOL     H2 9845   0.171   5.323   2.309 -1.5928 -1.2171  0.1533
 2350SOL    EPW 9846   0.136   5.371   2.375 -1.2780 -0.7789  0.0080
 2351SOL      O 9847   5.562   3.625   3.559 -0.9487  0.5664  0.4618
 2351SOL     H1 9848   5.485   3.568   3.570 -0.9036  0.2732 -0.6076
 2351SOL     H2 9849   5.581   3.656   3.647 -2.1942  0.5060  0.7752
 2351SOL    EPW 9850   5.555   3.622   3.570 -1.0768  0.5287  0.3811
 2352SOL      O 9851   4.239   0.915   1.236 -0.2178  0.0285 -0.0186
 2352SOL     H1 9852   4.170   0.952   1.291  0.2826  0.6062  0.2230
 2352SOL     H2 9853   4.307   0.888   1.297 -0.9762 -2.2382 -0.0892
 2352SOL    EPW 9854   4.239   0.916   1.248 -0.2454 -0.1517 -0.0003
 2353SOL      O 9855   4.734   3.388   0.755 -0.4777 -0.1735  0.3074
 2353SOL     H1 9856   4.794   3.459   0.732  0.8366 -1.4219 -0.2493
 2353SOL     H2 9857   4.666   3.431   0.808  0.9422  1.2704  1.0700
 2353SOL    EPW 9858   4.733   3.400   0.758 -0.1860 -0.1526  0.3293
 2354SOL      O 9859   0.976   1.900   2.498  0.4619  0.3854  0.4068
 2354SOL     H1 9860   0.942   1.838   2.434 -1.0389  0.3970  1.1448
 2354SOL     H2 9861   1.071   1.889   2.494  0.3198 -0.6936 -0.7111
 2354SOL    EPW 9862   0.983   1.892   2.491  0.2866  0.2715  0.3662
 2355SOL      O 9863   5.030   5.359   2.662 -0.1210 -0.1490  0.3722
 2355SOL     H1 9864   5.030   5.385   2.570 -1.5499 -0.1022  0.3697
 2355SOL     H2 9865   5.040   5.441   2.711 -0.6345 -0.0361  0.2855
 2355SOL    EPW 9866   5.031   5.371   2.658 -0.3282 -0.1320  0.3627
 2356SOL      O 9867   3.222   4.530   2.094 -0.2697 -0.0598 -0.4246
 2356SOL     H1 9868   3.317   4.527   2.104 -0.2344  1.5012 -0.0163
 2356SOL     H2 9869   3.189   4.469   2.160  0.4121  0.6992  0.6591
 2356SOL    EPW 9870   3.228   4.523   2.102 -0.1932  0.1877 -0.2654
 2357SOL      O 9871   0.428   4.035   0.894  0.3086  0.3449  0.3066
 2357SOL     H1 9872   0.412   3.979   0.818  2.0468  1.5746 -1.0662
 2357SOL     H2 9873   0.346   4.035   0.943  0.1799 -3.2565  0.3394
 2357SOL    EPW 9874   0.418   4.029   0.891  0.4803  0.0919  0.1636
 2358SOL      O 9875   4.211   1.829   1.147 -0.3763 -0.2693 -0.2116
 2358SOL     H1 9876   4.121   1.860   1.136 -1.0654 -0.8368  2.8363
 2358SOL     H2 9877   4.265   1.908   1.140 -1.4287  0.5674  0.8116
 2358SOL    EPW 9878   4.207   1.841   1.145 -0.5621 -0.2406  0.2227
 2359SOL      O 9879   5.392   3.017   2.304 -0.2496  0.0228 -0.2031
 2359SOL     H1 9880   5.320   2.970   2.346  0.1831 -2.5962 -2.1176
 2359SOL     H2 9881   5.350   3.067   2.234 -0.3861  0.0428 -0.1078
 2359SOL    EPW 9882   5.380   3.018   2.301 -0.2180 -0.2544 -0.3972
 2360SOL      O 9883   1.723   1.436   4.073 -0.7488  0.5353 -0.3061
 2360SOL     H1 9884   1.810   1.461   4.106 -0.4165  1.5666 -1.8576
 2360SOL     H2 9885   1.664   1.453   4.146  0.2483  0.4880  0.5430
 2360SOL    EPW 9886   1.726   1.440   4.085 -0.6070  0.6402 -0.3810
 2361SOL      O 9887   0.330   1.192   2.122 -0.4897 -0.2226 -0.6768
 2361SOL     H1 9888   0.327   1.134   2.046 -0.8666  0.3903 -1.1327
 2361SOL     H2 9889   0.421   1.218   2.130 -0.0982 -1.6999  0.1699
 2361SOL    EPW 9890   0.339   1.188   2.115 -0.4881 -0.3148 -0.6351
 2362SOL      O 9891   5.703   2.450   4.130  0.4433  0.0557 -0.4623
 2362SOL     H1 9892   5.755   2.385   4.177 -0.6309 -0.6313 -0.1791
 2362SOL     H2 9893   5.665   2.505   4.199 -0.7473 -0.6547 -0.5229
 2362SOL    EPW 9894   5.704   2.449   4.143  0.2017 -0.0934 -0.4386
 2363SOL      O 9895   1.822   1.565   0.385 -0.0081  0.2214 -0.1129
 2363SOL     H1 9896   1.819   1.625   0.459  2.5933  1.0027 -0.5572
 2363SOL     H2 9897   1.890   1.502   0.407 -0.4000 -0.5818 -1.1025
 2363SOL    EPW 9898   1.829   1.565   0.395  0.2276  0.2190 -0.2659
 2364SOL      O 9899   2.799   5.022   2.991  0.3671 -0.0936  0.0614
 2364SOL     H1 9900   2.856   5.099   2.980  0.8160 -0.3441  0.5643
 2364SOL     H2 9901   2.850   4.963   3.048 -0.6989 -0.0030  1.1527
 2364SOL    EPW 9902   2.811   5.024   2.996  0.3013 -0.1106  0.2314
 2365SOL      O 9903   4.632   0.167   3.398  0.0520  0.1126  0.5694
 2365SOL     H1 9904   4.568   0.121   3.343 -0.7842 -2.3550  3.3750
 2365SOL     H2 9905   4.614   0.260   3.382 -2.0232 -0.4931 -1.1529
 2365SOL    EPW 9906   4.623   0.172   3.390 -0.2586 -0.2152  0.6850
 2366SOL      O 9907   3.767   2.866   3.454 -0.3578  0.5043  0.3249
 2366SOL     H1 9908   3.854   2.850   3.417 -0.7640  0.5684 -0.6940
 2366SOL     H2 9909   3.729   2.933   3.398 -2.4251 -2.0177 -1.5522
 2366SOL    EPW 9910   3.772   2.871   3.444 -0.6216  0.2421  0.0160
 2367SOL      O 9911   0.888   1.384   0.051 -0.5500 -0.4042 -0.4201
 2367SOL     H1 9912   0.846   1.299   0.059  1.0267 -1.1398  0.4802
 2367SOL     H2 9913   0.865   1.415  -0.037 -2.2050 -1.1473 -0.2652
 2367SOL    EPW 9914   0.881   1.379   0.042 -0.5583 -0.5619 -0.3075
 2368SOL      O 9915   2.347   0.413   1.430  0.2363 -1.2583 -0.5520
 2368SOL     H1 9916   2.294   0.434   1.353 -1.3835 -2.4772  0.1552
 2368SOL     H2 9917   2.317   0.326   1.457 -0.7844 -0.0727  2.6576
 2368SOL    EPW 9918   2.338   0.406   1.425 -0.0454 -1.2618 -0.1342
 2369SOL      O 9919   5.719   0.365   3.354  0.1134  0.8008  0.3242
 2369SOL     H1 9920   5.722   0.270   3.343  2.7193  0.7985  0.3928
 2369SOL     H2 9921   5.669   0.378   3.435 -0.7557 -0.4409  0.0195
 2369SOL    EPW 9922   5.714   0.356   3.362  0.2987  0.6681  0.2990
 2370SOL      O 9923   2.295   1.585   1.084 -0.0523  0.2841  0.5233
 2370SOL     H1 9924   2.350   1.658   1.056  0.3417  0.8269  2.5009
 2370SOL     H2 9925   2.207   1.622   1.091 -0.8799 -0.6701 -2.9789
 2370SOL    EPW 9926   2.292   1.597   1.082 -0.0986  0.2402  0.3607
 2371SOL      O 9927   5.362   0.886   3.214 -0.0648  0.0820  0.4818
 2371SOL     H1 9928   5.297   0.819   3.192  0.3174 -0.1477  0.0416
 2371SOL     H2 9929   5.416   0.893   3.135  0.3472  0.3866  0.7927
 2371SOL    EPW 9930   5.361   0.879   3.203  0.0199  0.0900  0.4680
 2372SOL      O 9931   0.264   4.091   2.932 -0.4776  0.3684  0.5121
 2372SOL     H1 9932   0.201   4.144   2.883  0.1556  1.0238  0.3911
 2372SOL     H2 9933   0.211   4.048   3.000 -1.1975  0.2023 -0.1437
 2372SOL    EPW 9934   0.252   4.092   2.934 -0.4868  0.4206  0.4292
 2373SOL      O 9935   1.973   1.952   1.659  0.2860  0.3385 -0.9418
 2373SOL     H1 9936   1.933   1.883   1.607  0.8807 -0.7291 -0.0429
 2373SOL     H2 9937   2.003   2.017   1.595 -0.2271 -0.2617 -1.8086
 2373SOL    EPW 9938   1.972   1.952   1.647  0.2947  0.1606 -0.9383
 2374SOL      O 9939   3.485   4.726   3.004  0.1778  0.5611  0.1747
 2374SOL     H1 9940   3.561   4.719   3.062 -0.3184 -0.2408  0.7582
 2374SOL     H2 9941   3.519   4.761   2.923  1.6759 -2.0126 -0.4272
 2374SOL    EPW 9942   3.496   4.729   3.002  0.2847  0.2010  0.1727
 2375SOL      O 9943   3.249   0.080   2.878  0.3431  0.0201 -0.0797
 2375SOL     H1 9944   3.293   0.002   2.910  2.0352  1.4967  1.4012
 2375SOL     H2 9945   3.314   0.150   2.885 -1.3806  1.7796 -0.4191
 2375SOL    EPW 9946   3.260   0.079   2.882  0.3397  0.3654  0.0421
 2376SOL      O 9947   5.100   5.318   1.304  0.3762 -0.1169  0.0941
 2376SOL     H1 9948   5.085   5.322   1.209  1.9557 -2.1086 -0.2953
 2376SOL     H2 9949   5.072   5.229   1.328  0.4449  0.2140  1.4204
 2376SOL    EPW 9950   5.095   5.309   1.296  0.5520 -0.2941  0.1940
 2377SOL      O 9951   4.620   2.031   2.813  0.0569  0.0885  0.0490
 2377SOL     H1 9952   4.698   2.060   2.765 -0.3602 -0.5051 -1.0212
 2377SOL     H2 9953   4.601   1.944   2.778  1.3971 -1.6912  3.2947
 2377SOL    EPW 9954   4.626   2.024   2.804  0.1554 -0.1647  0.2811
 2378SOL      O 9955   4.753   0.204   1.645  0.2697  0.0005 -0.4129
 2378SOL     H1 9956   4.809   0.282   1.645  0.4156 -0.0207  1.8481
 2378SOL     H2 9957   4.689   0.220   1.577 -0.8001  2.9785  1.0959
 2378SOL    EPW 9958   4.752   0.214   1.638  0.1711  0.3159 -0.0107
 2379SOL      O 9959   3.381   1.088   3.402 -0.5940  0.0642  0.0533
 2379SOL     H1 9960   3.398   1.002   3.441 -0.6400  0.5030  1.0730
 2379SOL     H2 9961   3.286   1.094   3.398 -0.5936 -0.4643 -1.2722
 2379SOL    EPW 9962   3.373   1.079   3.406 -0.5988  0.0547  0.0207
 2380SOL      O 9963   0.511   4.663   3.979  0.3019 -0.0407  0.0764
 2380SOL     H1 9964   0.601   4.689   4.001  0.1702  0.6160 -0.1352
 2380SOL     H2 9965   0.456   4.723   4.030 -0.0374 -1.1500  1.0537
 2380SOL    EPW 9966   0.515   4.672   3.987  0.2516 -0.0890  0.1581
 2381SOL      O 9967   4.216   1.835   1.967  0.2274  0.1956  0.4858
 2381SOL     H1 9968   4.123   1.852   1.982  0.4309  0.7556  1.1385
 2381SOL     H2 9969   4.217   1.750   1.923 -0.6615  0.7537 -0.6732
 2381SOL    EPW 9970   4.206   1.828   1.964  0.1543  0.3148  0.4318
 2382SOL      O 9971   3.469   4.199   0.453 -0.1340  0.2851  0.1221
 2382SOL     H1 9972   3.415   4.273   0.479 -1.2087 -0.6977  0.8435
 2382SOL     H2 9973   3.498   4.220   0.364 -1.3839  1.0442 -0.1403
 2382SOL    EPW 9974   3.466   4.209   0.446 -0.3820  0.2612  0.1710
 2383SOL      O 9975   4.548   1.885   2.452  0.0078  0.1573 -0.4187
 2383SOL     H1 9976   4.471   1.938   2.474 -0.9488 -0.5340 -1.9690
 2383SOL     H2 9977   4.595   1.876   2.535 -1.1030  1.3396  0.3801
 2383SOL    EPW 9978   4.545   1.890   2.463 -0.2127  0.2097 -0.4989
 2384SOL      O 9979   5.846   1.200   4.054 -0.6983 -0.5557 -0.1868
 2384SOL     H1 9980   5.928   1.246   4.038 -1.5815  0.7441 -1.1144
 2384SOL     H2 9981   5.840   1.193   4.150  1.2348 -2.1268 -0.1076
 2384SOL    EPW 9982   5.854   1.204   4.063 -0.5863 -0.5846 -0.2773
 2385SOL      O 9983   0.761   2.697   2.891 -0.3163  0.2223  0.0314
 2385SOL     H1 9984   0.851   2.720   2.867 -0.8643  1.3952 -0.9897
 2385SOL     H2 9985   0.771   2.635   2.963  1.3377 -0.7958 -0.9940
 2385SOL    EPW 9986   0.772   2.693   2.896 -0.1983  0.2388 -0.1869
 2386SOL      O 9987   4.240   4.984   2.482  0.4515  0.2273 -0.0313
 2386SOL     H1 9988   4.315   4.965   2.538 -1.0655 -1.2251  1.6925
 2386SOL     H2 9989   4.221   4.900   2.439  0.5357  0.8921 -1.4037
 2386SOL    EPW 9990   4.246   4.973   2.484  0.2987  0.1432  0.0062
 2387SOL      O 9991   1.741   4.568   2.216 -0.3917  0.4646 -0.2161
 2387SOL     H1 9992   1.751   4.634   2.147  2.0663  0.7829  0.3777
 2387SOL     H2 9993   1.809   4.589   2.279 -0.0867 -2.1697  0.4074
 2387SOL    EPW 9994   1.749   4.578   2.215 -0.0970  0.2175 -0.0862
 2388SOL      O 9995   3.697   1.669   2.245 -0.0196 -0.6836 -0.2926
 2388SOL     H1 9996   3.606   1.687   2.221 -0.3498 -0.9136  0.7153
 2388SOL     H2 9997   3.726   1.749   2.290  1.2095  0.5225 -2.9801
 2388SOL    EPW 9998   3.690   1.680   2.248  0.0763 -0.5794 -0.4718
 2389SOL      O 9999   4.940   0.632   3.826 -0.3867  0.2255  0.5201
 2389SOL     H110000   4.957   0.657   3.917  0.8253  0.1352  0.3290
 2389SOL     H210001   4.922   0.715   3.782 -0.1769  0.3541  0.6741
 2389SOL    EPW10002   4.940   0.644   3.831 -0.2350  0.2296  0.5161
 2390SOL      O10003   3.119   0.506   1.794 -0.2819  0.3240 -0.2182
 2390SOL     H110004   3.168   0.523   1.713  0.6244 -1.0914  0.0007
 2390SOL     H210005   3.184   0.512   1.863 -0.5045 -1.0508  0.1330
 2390SOL    EPW10006   3.131   0.509   1.793 -0.2090  0.0263 -0.1574
 2391SOL      O10007   3.972   3.092   2.540  0.1084  0.4684  0.0123
 2391SOL     H110008   4.017   3.140   2.470 -1.3975  1.3892 -0.3818
 2391SOL     H210009   3.995   3.139   2.620 -0.2813  1.0385 -0.2053
 2391SOL    EPW10010   3.979   3.102   2.541 -0.0938  0.6274 -0.0529
 2392SOL      O10011   5.528   5.168   1.573 -0.2717  0.9566  0.1537
 2392SOL     H110012   5.515   5.219   1.653  0.7740 -1.0923  1.7188
 2392SOL     H210013   5.595   5.216   1.525  0.4529  1.2610  1.4170
 2392SOL    EPW10014   5.534   5.179   1.577 -0.0829  0.7705  0.4554
 2393SOL      O10015   2.453   4.940   4.150  0.6671 -0.0630  0.8653
 2393SOL     H110016   2.396   5.016   4.141  1.1944  0.4960  1.9695
 2393SOL     H210017   2.409   4.884   4.214 -0.1378 -1.1221 -0.5631
 2393SOL    EPW10018   2.442   4.942   4.156  0.6374 -0.1163  0.8307
 2394SOL      O10019   5.875   4.028   0.353 -0.5957  0.0817  0.6080
 2394SOL     H110020   5.921   4.035   0.437  1.1590 -0.6567 -0.2611
 2394SOL     H210021   5.905   4.104   0.303  2.2552 -2.0114 -1.1249
 2394SOL    EPW10022   5.883   4.037   0.357 -0.1043 -0.2204  0.3304
 2395SOL      O10023   0.766   1.785   4.068 -0.0261 -0.3350 -0.1954
 2395SOL     H110024   0.719   1.768   4.150 -0.5088  1.0045 -0.1839
 2395SOL     H210025   0.764   1.880   4.058  0.8034 -0.4202 -1.3146
 2395SOL    EPW10026   0.761   1.793   4.075  0.0109 -0.2012 -0.3135
 2396SOL      O10027   0.354   0.881   3.864 -0.4505  0.4859  0.0501
 2396SOL     H110028   0.410   0.937   3.917  0.4581  0.1608 -0.5440
 2396SOL     H210029   0.406   0.862   3.786 -1.0402 -0.5593 -0.1081
 2396SOL    EPW10030   0.365   0.885   3.861 -0.4165  0.3397 -0.0301
 2397SOL      O10031   4.068   5.843   0.589 -0.2615 -0.1758  0.0494
 2397SOL     H110032   4.032   5.764   0.629 -0.0388 -0.0061  0.5953
 2397SOL     H210033   4.068   5.907   0.660  2.1659 -0.4945  0.4368
 2397SOL    EPW10034   4.064   5.841   0.601  0.0212 -0.1917  0.1490
 2398SOL      O10035   3.099   1.909   2.188 -0.3568  0.2570 -0.0801
 2398SOL     H110036   3.067   1.999   2.188  1.9024  1.1372  0.4947
 2398SOL     H210037   3.174   1.910   2.129  0.0909 -1.1057  0.4243
 2398SOL    EPW10038   3.103   1.918   2.182 -0.0681  0.2055  0.0350
 2399SOL      O10039   2.408   0.391   3.906 -0.8536 -0.2318  0.2164
 2399SOL     H110040   2.339   0.445   3.946  0.1272 -0.2435  1.9801
 2399SOL     H210041   2.383   0.301   3.926 -0.5231 -0.2552  0.5200
 2399SOL    EPW10042   2.398   0.387   3.912 -0.7137 -0.2356  0.4369
 2400SOL      O10043   2.270   0.354   2.629 -0.2308 -0.1274  0.0534
 2400SOL     H110044   2.205   0.285   2.617 -2.3245  1.3405  1.9410
 2400SOL     H210045   2.224   0.434   2.601  0.4817  1.0374  2.0102
 2400SOL    EPW10046   2.258   0.355   2.625 -0.3782  0.1534  0.4635
 2401SOL      O10047   1.910   4.860   0.056  0.1577  0.0324  0.3791
 2401SOL     H110048   1.940   4.781   0.012 -0.0877 -0.6480  1.3977
 2401SOL     H210049   1.887   4.920  -0.015  0.8625 -0.6044 -0.4053
 2401SOL    EPW10050   1.911   4.858   0.044  0.2067 -0.1081  0.4041
 2402SOL      O10051   5.011   3.304   1.314 -0.1303 -0.8344 -0.0828
 2402SOL     H110052   4.940   3.360   1.345 -0.2683 -0.8717 -0.3249
 2402SOL     H210053   4.969   3.218   1.302 -0.0025 -0.9005 -0.0512
 2402SOL    EPW10054   4.999   3.301   1.316 -0.1314 -0.8454 -0.1052
 2403SOL      O10055   0.340   4.810   3.263 -0.1966  0.7052  0.1154
 2403SOL     H110056   0.375   4.729   3.300 -0.6115  0.1605 -0.6736
 2403SOL     H210057   0.282   4.844   3.332  1.0255  1.0726  1.0064
 2403SOL    EPW10058   0.338   4.805   3.274 -0.1105  0.6863  0.1263
 2404SOL      O10059   0.958   0.266   2.199 -0.1066 -0.5641 -0.2714
 2404SOL     H110060   0.982   0.247   2.289 -1.5180  0.4042  0.3379
 2404SOL     H210061   1.039   0.252   2.149  1.6999  2.2160  1.6058
 2404SOL    EPW10062   0.969   0.262   2.203 -0.0645 -0.1642 -0.0061
 2405SOL      O10063   5.067   2.075   2.125 -0.3687  0.0256  0.2482
 2405SOL     H110064   5.098   2.114   2.044  0.6840 -0.4115  0.4197
 2405SOL     H210065   5.001   2.136   2.158  0.4657  1.1124 -0.0278
 2405SOL    EPW10066   5.063   2.085   2.120 -0.1673  0.0949  0.2371
 2406SOL      O10067   5.326   5.040   1.366 -0.1780  0.1772  0.1125
 2406SOL     H110068   5.245   5.049   1.315 -0.3562 -0.2627  0.3104
 2406SOL     H210069   5.396   5.054   1.303 -0.3645 -1.5332 -0.5219
 2406SOL    EPW10070   5.324   5.043   1.354 -0.2169 -0.0521  0.0660
 2407SOL      O10071   2.276   5.865   0.594 -0.2781  0.5846 -0.0985
 2407SOL     H110072   2.293   5.831   0.682 -1.4647 -1.1504 -0.4816
 2407SOL     H210073   2.344   5.824   0.539 -0.0352  1.0193 -0.1228
 2407SOL    EPW10074   2.285   5.857   0.597 -0.3788  0.4459 -0.1420
 2408SOL      O10075   2.323   4.529   3.042  0.3100  0.3047 -0.5240
 2408SOL     H110076   2.294   4.578   3.118  0.0373 -0.4659 -0.1178
 2408SOL     H210077   2.252   4.541   2.978 -0.2578 -0.4023 -0.0473
 2408SOL    EPW10078   2.312   4.535   3.043  0.2203  0.1470 -0.4298
 2409SOL      O10079   0.463   1.312   4.134 -0.0481  0.0860  0.0105
 2409SOL     H110080   0.520   1.249   4.091  0.1514 -1.5802  2.5085
 2409SOL     H210081   0.381   1.308   4.085  0.3027 -1.3575 -0.5062
 2409SOL    EPW10082   0.461   1.305   4.124  0.0106 -0.2457  0.2218
 2410SOL      O10083   4.004   3.399   0.006  0.2415 -0.4780 -0.1067
 2410SOL     H110084   4.090   3.382   0.046 -0.0991  0.2550  0.9804
 2410SOL     H210085   3.987   3.492   0.023 -0.4828 -0.4511 -0.8893
 2410SOL    EPW10086   4.011   3.407   0.012  0.1279 -0.3969 -0.0742
 2411SOL      O10087   1.320   5.277   3.716  0.5667  0.0247 -0.2081
 2411SOL     H110088   1.367   5.194   3.711 -0.3269 -0.4535 -1.2125
 2411SOL     H210089   1.264   5.278   3.638 -1.1734  0.4986  0.9655
 2411SOL    EPW10090   1.319   5.268   3.707  0.2858  0.0242 -0.1900
 2412SOL      O10091   0.402   1.828   3.024 -0.5363 -0.4185  0.1307
 2412SOL     H110092   0.423   1.735   3.025 -1.9724 -0.7724  0.8998
 2412SOL     H210093   0.485   1.872   3.043 -0.0431 -1.5915  0.7704
 2412SOL    EPW10094   0.413   1.823   3.026 -0.6369 -0.5814  0.2810
 2413SOL      O10095   1.324   0.327   0.224  0.5886 -0.3631  0.0617
 2413SOL     H110096   1.256   0.372   0.274  0.3471  1.1656 -1.5109
 2413SOL     H210097   1.365   0.396   0.172  2.3803 -1.4959 -0.1131
 2413SOL    EPW10098   1.321   0.339   0.223  0.7540 -0.3209 -0.1247
 2414SOL      O10099   4.146   0.186   0.760 -0.2986  0.2698  0.1603
 2414SOL     H110100   4.099   0.217   0.838  0.2756  0.8994  0.2679
 2414SOL     H210101   4.177   0.265   0.718 -2.4587  0.0866 -1.9545
 2414SOL    EPW10102   4.144   0.198   0.764 -0.4678  0.3174 -0.0538
 2415SOL      O10103   1.336   0.411   3.233  0.2685  0.1002 -0.4106
 2415SOL     H110104   1.331   0.424   3.139  3.1250  0.3062 -0.6327
 2415SOL     H210105   1.395   0.336   3.243  1.7501  1.4057  1.1975
 2415SOL    EPW10106   1.342   0.404   3.224  0.7313  0.2614 -0.2627
 2416SOL      O10107   3.286   3.071   3.738  0.4265  0.3523  0.0535
 2416SOL     H110108   3.336   3.149   3.764 -0.3692  1.1475 -0.7307
 2416SOL     H210109   3.195   3.097   3.748  0.1437 -0.6692  0.2714
 2416SOL    EPW10110   3.282   3.082   3.742  0.3115  0.3282 -0.0069
 2417SOL      O10111   1.901   0.949   1.470  0.4473 -0.6082 -0.0871
 2417SOL     H110112   1.811   0.930   1.443  0.5073 -1.2391  0.1457
 2417SOL     H210113   1.945   0.974   1.389  0.0964 -0.4196 -0.2223
 2417SOL    EPW10114   1.896   0.950   1.458  0.4162 -0.6554 -0.0767
 2418SOL      O10115   1.025   2.853   2.926 -0.4203 -0.0850  0.3497
 2418SOL     H110116   1.046   2.930   2.978 -2.5252 -0.9737  2.7494
 2418SOL     H210117   1.068   2.867   2.842 -0.0967  3.3001  0.9672
 2418SOL    EPW10118   1.032   2.862   2.922 -0.6103  0.1813  0.6716
 2419SOL      O10119   0.052   1.823   4.044  1.0748  0.7603 -0.7265
 2419SOL     H110120  -0.005   1.790   4.113  2.2821  2.3436  1.1303
 2419SOL     H210121   0.008   1.800   3.963 -1.3058  0.3865  0.6006
 2419SOL    EPW10122   0.042   1.817   4.043  0.9496  0.8893 -0.3868
 2420SOL      O10123   4.629   0.852   2.826 -0.3434  0.0308 -0.0832
 2420SOL     H110124   4.602   0.883   2.739 -0.0677  0.1133 -0.1396
 2420SOL     H210125   4.724   0.849   2.822 -0.3775 -1.7894 -0.4176
 2420SOL    EPW10126   4.636   0.855   2.816 -0.3176 -0.1546 -0.1249
 2421SOL      O10127   2.449   3.361   0.682  0.4764  0.0226  0.2077
 2421SOL     H110128   2.405   3.446   0.680  0.9340  0.3579  2.2681
 2421SOL     H210129   2.535   3.379   0.643 -0.3291 -0.1362 -1.7666
 2421SOL    EPW10130   2.454   3.372   0.677  0.4393  0.0415  0.2169
 2422SOL      O10131   3.099   4.163   1.322 -0.5669 -0.2563  0.4398
 2422SOL     H110132   3.141   4.097   1.377  0.4873 -0.2674 -0.3554
 2422SOL     H210133   3.117   4.135   1.232 -2.3198 -0.2836  0.0480
 2422SOL    EPW10134   3.105   4.153   1.318 -0.6415 -0.2604  0.3131
 2423SOL      O10135   5.843   1.226   0.997 -0.1858  0.4227  0.4816
 2423SOL     H110136   5.865   1.275   0.918  0.6972 -0.0055  0.4500
 2423SOL     H210137   5.808   1.143   0.965 -0.1879  0.3982  0.5470
 2423SOL    EPW10138   5.841   1.222   0.986 -0.0918  0.3744  0.4852
 2424SOL      O10139   3.692   0.977   1.265  0.1992 -0.0422 -0.3317
 2424SOL     H110140   3.687   1.056   1.318 -0.0240  0.2386 -0.7610
 2424SOL     H210141   3.709   0.907   1.327 -0.9010  0.1579  0.2261
 2424SOL    EPW10142   3.693   0.978   1.277  0.0580  0.0091 -0.3180
 2425SOL      O10143   0.924   2.122   0.532 -0.1946  0.5443 -0.1055
 2425SOL     H110144   0.877   2.084   0.606  1.1334  0.9703  0.9934
 2425SOL     H210145   0.887   2.078   0.455 -1.9156  0.4195  0.7504
 2425SOL    EPW10146   0.915   2.113   0.532 -0.2365  0.5764  0.1030
 2426SOL      O10147   1.636   4.249   1.125 -0.4125  0.1012  0.2480
 2426SOL     H110148   1.669   4.202   1.202 -0.2000  0.0933  0.1543
 2426SOL     H210149   1.542   4.234   1.126 -0.2806 -0.7806 -0.0811
 2426SOL    EPW10150   1.630   4.242   1.133 -0.3757  0.0063  0.2029
 2427SOL      O10151   5.876   2.377   3.278  0.1493 -0.4453  0.6582
 2427SOL     H110152   5.847   2.289   3.254 -0.7346  0.0772 -0.3017
 2427SOL     H210153   5.922   2.366   3.361 -0.1314 -1.7776  0.6535
 2427SOL    EPW10154   5.878   2.367   3.284  0.0251 -0.5317  0.5553
 2428SOL      O10155   2.637   1.685   0.415  0.9627  0.2315 -0.1886
 2428SOL     H110156   2.601   1.764   0.375  2.2248  1.5420  1.1772
 2428SOL     H210157   2.714   1.715   0.464  1.5565 -1.8632  0.2720
 2428SOL    EPW10158   2.642   1.696   0.416  1.1607  0.1478  0.0062
 2429SOL      O10159   1.353   0.560   1.752  0.3482 -0.1291  0.1508
 2429SOL     H110160   1.262   0.534   1.738  0.3275 -0.3407  0.6570
 2429SOL     H210161   1.391   0.561   1.664  0.1207 -1.0243  0.0336
 2429SOL    EPW10162   1.347   0.557   1.741  0.3217 -0.2472  0.1923
 2430SOL      O10163   0.706   5.776   1.871 -0.0986 -0.3241  0.1734
 2430SOL     H110164   0.725   5.724   1.793  0.8469  0.7357 -0.3407
 2430SOL     H210165   0.748   5.728   1.942  1.2224 -0.0376 -0.3699
 2430SOL    EPW10166   0.713   5.765   1.870  0.1432 -0.1805  0.0606
 2431SOL      O10167   5.205   4.906   1.585  0.0673 -0.6066  0.0011
 2431SOL     H110168   5.121   4.940   1.616 -0.3733  1.7146 -3.2608
 2431SOL     H210169   5.183   4.820   1.548 -0.9751  0.0438 -0.9615
 2431SOL    EPW10170   5.194   4.900   1.584 -0.0909 -0.2896 -0.4496
 2432SOL      O10171   4.699   4.093   1.556  0.1218 -0.2465 -0.2753
 2432SOL     H110172   4.721   4.161   1.620  1.3965 -1.6213  0.8177
 2432SOL     H210173   4.611   4.064   1.582 -0.7356  1.3980 -1.1781
 2432SOL    EPW10174   4.692   4.097   1.566  0.1663 -0.2178 -0.2550
 2433SOL      O10175   5.647   0.129   0.356  0.5050  0.1595  0.1946
 2433SOL     H110176   5.660   0.081   0.274  1.3953  1.3485 -0.3928
 2433SOL     H210177   5.558   0.164   0.348  0.4115 -0.1247 -0.0543
 2433SOL    EPW10178   5.639   0.128   0.346  0.5900  0.2560  0.1054
 2434SOL      O10179   2.435   2.732   0.028  0.4381 -0.1526  0.2251
 2434SOL     H110180   2.345   2.765   0.026  0.4797 -0.0546 -0.1881
 2434SOL     H210181   2.442   2.679  -0.052  0.5011 -0.8246  0.6664
 2434SOL    EPW10182   2.426   2.730   0.019  0.4493 -0.2138  0.2281
 2435SOL      O10183   1.668   3.050   2.248  0.6250 -0.1176 -0.2736
 2435SOL     H110184   1.688   2.960   2.274  2.6529  0.4048  0.1637
 2435SOL     H210185   1.603   3.041   2.180 -0.0919 -1.8601  0.5697
 2435SOL    EPW10186   1.664   3.039   2.244  0.7649 -0.2478 -0.1370
 2436SOL      O10187   1.276   3.746   0.255 -0.0506  0.4461  0.5581
 2436SOL     H110188   1.213   3.695   0.205  0.6294  1.7379 -1.7255
 2436SOL     H210189   1.356   3.745   0.202  0.8781  1.4877  1.8536
 2436SOL    EPW10190   1.278   3.740   0.244  0.1210  0.6950  0.4527
 2437SOL      O10191   5.512   4.898   1.533 -0.0316 -0.8769 -0.3842
 2437SOL     H110192   5.532   4.857   1.449  0.9720 -0.1486 -0.5184
 2437SOL     H210193   5.597   4.912   1.573 -0.5233 -1.9196  1.1236
 2437SOL    EPW10194   5.523   4.895   1.528  0.0230 -0.9105 -0.2376
 2438SOL      O10195   0.702   0.584   0.706  0.3052  0.2899  0.0054
 2438SOL     H110196   0.645   0.522   0.751  0.7648 -1.9711 -2.2734
 2438SOL     H210197   0.780   0.589   0.762 -0.5792  0.5079  1.2650
 2438SOL    EPW10198   0.705   0.578   0.717  0.2599  0.0720 -0.1033
 2439SOL      O10199   5.620   0.585   1.426 -0.1991  0.3519  0.2842
 2439SOL     H110200   5.539   0.570   1.476 -0.7746 -0.9027 -0.9351
 2439SOL     H210201   5.635   0.501   1.381  0.9745  1.0384 -0.6432
 2439SOL    EPW10202   5.613   0.574   1.427 -0.1353  0.2913  0.0552
 2440SOL      O10203   0.238   4.691   2.317 -0.1635  0.2368  0.1281
 2440SOL     H110204   0.252   4.610   2.268  1.1311  0.3943  0.1973
 2440SOL     H210205   0.169   4.737   2.268  1.7003  0.8161 -2.1271
 2440SOL    EPW10206   0.232   4.688   2.306  0.1734  0.3154 -0.1051
 2441SOL      O10207   0.984   5.345   0.031  0.1488  0.3996  0.0922
 2441SOL     H110208   0.925   5.397   0.085  0.3616  2.5403 -1.5656
 2441SOL     H210209   1.071   5.365   0.065  0.1662  0.4642  0.0124
 2441SOL    EPW10210   0.987   5.353   0.040  0.1733  0.6349 -0.0932
 2442SOL      O10211   1.465   1.452   2.579  0.7743 -0.0552 -0.1528
 2442SOL     H110212   1.452   1.364   2.543  1.8479 -0.3939  0.2712
 2442SOL     H210213   1.518   1.497   2.513  1.7696 -0.3152  0.4454
 2442SOL    EPW10214   1.469   1.447   2.568  0.9950 -0.1191 -0.0438
 2443SOL      O10215   4.414   5.459   0.133  0.3116 -0.1793  0.7376
 2443SOL     H110216   4.496   5.495   0.167 -0.1304  1.0704  0.5183
 2443SOL     H210217   4.386   5.396   0.200  1.4264 -0.6148  0.8234
 2443SOL    EPW10218   4.420   5.456   0.144  0.3833 -0.0925  0.7233
 2444SOL      O10219   5.733   4.634   3.802  0.2006 -0.6883 -0.6692
 2444SOL     H110220   5.743   4.567   3.735  1.1146 -1.5807  0.3263
 2444SOL     H210221   5.780   4.710   3.767  0.3540 -1.0255 -1.2047
 2444SOL    EPW10222   5.739   4.635   3.791  0.3145 -0.8195 -0.6201
 2445SOL      O10223   1.722   1.875   4.065  0.2963  0.2493 -0.0929
 2445SOL     H110224   1.761   1.837   3.986  1.5513  2.6532 -0.7523
 2445SOL     H210225   1.628   1.880   4.046  0.5106  0.2750 -1.2205
 2445SOL    EPW10226   1.716   1.872   4.055  0.4530  0.5085 -0.2835
 2446SOL      O10227   4.263   3.756   3.456  0.5433  0.0322  0.2029
 2446SOL     H110228   4.350   3.781   3.427  0.7556 -0.7681  0.1231
 2446SOL     H210229   4.259   3.661   3.443 -0.2624  0.0243  0.4024
 2446SOL    EPW10230   4.272   3.748   3.451  0.4800 -0.0540  0.2157
 2447SOL      O10231   1.515   4.685   1.410 -0.0970  0.2479  0.5978
 2447SOL     H110232   1.425   4.651   1.404  0.2706 -0.6865  0.1509
 2447SOL     H210233   1.570   4.606   1.410  0.7038  0.7811  1.5093
 2447SOL    EPW10234   1.511   4.673   1.410  0.0277  0.2051  0.6474
 2448SOL      O10235   2.351   0.872   2.918 -0.1404 -0.2024  0.2171
 2448SOL     H110236   2.390   0.930   2.853 -0.9544  1.7966  1.4093
 2448SOL     H210237   2.355   0.785   2.878  1.1523  0.6431 -1.6472
 2448SOL    EPW10238   2.355   0.869   2.907 -0.0893  0.1010  0.1454
 2449SOL      O10239   0.040   1.024   1.888  0.0519  0.4134  0.3565
 2449SOL     H110240   0.104   1.010   1.819 -0.4429  0.6766 -0.1603
 2449SOL     H210241  -0.023   0.953   1.878 -1.0466  1.5020 -0.6536
 2449SOL    EPW10242   0.040   1.015   1.880 -0.1181  0.5576  0.1936
 2450SOL      O10243   4.109   2.096   1.750 -0.1920 -0.2701  0.0480
 2450SOL     H110244   4.203   2.099   1.767  0.1410  0.5262 -1.7044
 2450SOL     H210245   4.091   2.005   1.728  0.3825 -0.2200 -0.6564
 2450SOL    EPW10246   4.117   2.087   1.750 -0.0952 -0.1798 -0.2141
 2451SOL      O10247   2.276   0.649   3.281 -0.0896 -0.7212 -0.3298
 2451SOL     H110248   2.202   0.649   3.220  0.5753  2.3686 -1.3412
 2451SOL     H210249   2.238   0.624   3.365 -2.0742 -0.3065 -1.0455
 2451SOL    EPW10250   2.264   0.646   3.284 -0.2304 -0.3474 -0.5141
 2452SOL      O10251   2.643   4.067   3.651  0.1710 -0.0029 -0.1772
 2452SOL     H110252   2.686   4.144   3.689 -0.3353 -0.1835  0.7942
 2452SOL     H210253   2.549   4.086   3.659  0.0472 -0.4121 -0.6017
 2452SOL    EPW10254   2.637   4.077   3.656  0.1038 -0.0659 -0.1188
 2453SOL      O10255   2.942   5.800   2.701  0.5408  0.4949  0.0169
 2453SOL     H110256   2.989   5.777   2.621 -0.2890 -1.6464  0.0733
 2453SOL     H210257   2.984   5.748   2.769 -0.1210  0.6657  0.5718
 2453SOL    EPW10258   2.951   5.792   2.700  0.3817  0.2847  0.0821
 2454SOL      O10259   3.271   3.947   2.878  0.3947 -0.0160 -0.0477
 2454SOL     H110260   3.210   3.932   2.805 -1.2667 -1.0404  1.4909
 2454SOL     H210261   3.275   3.863   2.923  1.2311  0.6667  1.1801
 2454SOL    EPW10262   3.265   3.937   2.875  0.3067 -0.0524  0.2474
 2455SOL      O10263   1.250   2.411   3.069 -0.7289 -0.1148  0.1183
 2455SOL     H110264   1.326   2.353   3.079  0.0194  1.1231  2.3313
 2455SOL     H210265   1.187   2.378   3.133 -1.7949 -0.6516 -1.1644
 2455SOL    EPW10266   1.252   2.401   3.077 -0.7628 -0.0400  0.2175
 2456SOL      O10267   2.503   3.725   2.255 -0.3631  0.6071  0.1381
 2456SOL     H110268   2.441   3.797   2.260 -0.8632  0.1830  0.1483
 2456SOL     H210269   2.460   3.660   2.199 -0.3781 -0.1366  0.9969
 2456SOL    EPW10270   2.492   3.726   2.249 -0.4181  0.4825  0.2308
 2457SOL      O10271   0.284   5.520   0.785  0.5760 -0.2211  0.4956
 2457SOL     H110272   0.235   5.489   0.709  1.2558  1.1943 -0.5920
 2457SOL     H210273   0.375   5.523   0.755  0.7828  0.9200  1.1535
 2457SOL    EPW10274   0.288   5.517   0.774  0.6706  0.0516  0.4498
 2458SOL      O10275   2.948   1.481   0.633  0.1318 -0.0240  0.1134
 2458SOL     H110276   2.938   1.436   0.549  0.0062  0.9215 -0.3954
 2458SOL     H210277   2.977   1.413   0.694  1.5879 -0.4564 -1.0167
 2458SOL    EPW10278   2.950   1.469   0.631  0.2737  0.0307 -0.0614
 2459SOL      O10279   4.916   1.900   0.644 -0.5557  0.4617  0.4499
 2459SOL     H110280   4.820   1.897   0.635 -0.6405  2.2443  0.4504
 2459SOL     H210281   4.932   1.970   0.707  0.8464  2.3404 -1.8493
 2459SOL    EPW10282   4.907   1.907   0.650 -0.4152  0.8523  0.2047
 2460SOL      O10283   5.569   2.677   1.466 -0.1488 -0.3950  0.4340
 2460SOL     H110284   5.544   2.601   1.413  2.8831 -0.6315 -0.8668
 2460SOL     H210285   5.593   2.640   1.551 -1.6466 -0.4498  0.8620
 2460SOL    EPW10286   5.569   2.665   1.469  0.0148 -0.4261  0.3409
 2461SOL      O10287   4.348   4.191   4.095 -0.0002  0.2987  0.0454
 2461SOL     H110288   4.333   4.144   4.012 -0.5640 -4.2760  2.4301
 2461SOL     H210289   4.260   4.210   4.127  0.1805  0.5845  0.3758
 2461SOL    EPW10290   4.337   4.188   4.089 -0.0411 -0.1588  0.3350
 2462SOL      O10291   0.161   0.089   2.373 -0.0803 -0.4129 -0.1057
 2462SOL     H110292   0.119   0.019   2.423 -1.3584 -0.3068 -0.9894
 2462SOL     H210293   0.096   0.114   2.307  0.8709  0.6874 -0.6632
 2462SOL    EPW10294   0.150   0.084   2.371 -0.1152 -0.2842 -0.2594
 2463SOL      O10295   4.107   2.913   1.295 -0.1092 -0.6453 -0.3631
 2463SOL     H110296   4.148   2.837   1.337 -1.4248 -1.1974 -0.0450
 2463SOL     H210297   4.099   2.978   1.364 -0.7937 -0.9600 -0.1369
 2463SOL    EPW10298   4.111   2.912   1.307 -0.3225 -0.7378 -0.3050
 2464SOL      O10299   5.004   5.526   0.260  0.0690  0.1586 -0.5953
 2464SOL     H110300   5.054   5.488   0.332 -1.8205 -0.1758  0.6214
 2464SOL     H210301   5.062   5.520   0.184  1.7927 -0.2968  0.6893
 2464SOL    EPW10302   5.015   5.522   0.260  0.0513  0.0744 -0.3285
 2465SOL      O10303   2.115   4.373   1.203 -0.2165 -0.0616 -0.0905
 2465SOL     H110304   2.081   4.439   1.264  2.0801  1.1438 -0.0041
 2465SOL     H210305   2.191   4.336   1.249 -1.6348 -3.1398  0.0385
 2465SOL    EPW10306   2.120   4.376   1.215 -0.1228 -0.2614 -0.0675
 2466SOL      O10307   4.242   5.306   0.712  0.0317 -0.3773  0.6004
 2466SOL     H110308   4.153   5.310   0.675 -0.3611 -2.3604  1.1763
 2466SOL     H210309   4.230   5.265   0.797  1.4670 -0.2595  0.8826
 2466SOL    EPW10310   4.231   5.302   0.717  0.1429 -0.5763  0.6920
 2467SOL      O10311   2.434   1.949   0.575 -0.3813 -0.1638 -0.2458
 2467SOL     H110312   2.466   1.952   0.485  0.0540 -0.4149 -0.1026
 2467SOL     H210313   2.366   1.882   0.574  1.4525 -2.1650  0.1634
 2467SOL    EPW10314   2.430   1.942   0.565 -0.1393 -0.4041 -0.1868
 2468SOL      O10315   1.049   4.040   1.689 -0.0466  0.1638  0.2712
 2468SOL     H110316   1.085   3.957   1.658 -1.2029 -0.4562  0.5041
 2468SOL     H210317   1.118   4.077   1.744  1.2752  0.3529 -1.4260
 2468SOL    EPW10318   1.060   4.035   1.692 -0.0289  0.1179  0.1150
 2469SOL      O10319   3.490   3.014   0.143  0.3731  0.7889 -0.0527
 2469SOL     H110320   3.495   3.104   0.113  0.4849  0.9380  0.3987
 2469SOL     H210321   3.577   2.996   0.180  0.2880  0.5635  0.0403
 2469SOL    EPW10322   3.500   3.022   0.144  0.3759  0.7808  0.0053
 2470SOL      O10323   0.773   5.118   2.195  0.2749 -0.3950 -0.1020
 2470SOL     H110324   0.694   5.155   2.235 -0.1233 -0.4283 -0.8392
 2470SOL     H210325   0.777   5.029   2.230 -0.7409 -0.8334 -1.0383
 2470SOL    EPW10326   0.765   5.112   2.203  0.1241 -0.4453 -0.2805
 2471SOL      O10327   3.667   2.365   2.071  0.0983  0.1621 -0.0375
 2471SOL     H110328   3.750   2.318   2.067  0.5001  0.9378 -2.7731
 2471SOL     H210329   3.685   2.440   2.128  1.2934  0.2972 -0.5605
 2471SOL    EPW10330   3.678   2.368   2.076  0.2687  0.2593 -0.3851
 2472SOL      O10331   5.290   0.412   3.096 -0.3091  0.2934  0.2372
 2472SOL     H110332   5.272   0.491   3.044  0.4960 -1.2432 -2.5797
 2472SOL     H210333   5.378   0.426   3.131 -0.6108  1.0757  0.7275
 2472SOL    EPW10334   5.297   0.422   3.094 -0.2554  0.2130 -0.0110
 2473SOL      O10335   5.139   5.662   1.542  0.3810  0.3497 -0.0517
 2473SOL     H110336   5.070   5.605   1.577  1.3918 -1.3825 -0.7466
 2473SOL     H210337   5.093   5.723   1.485 -0.5885 -0.7651 -0.4923
 2473SOL    EPW10338   5.127   5.662   1.540  0.3854  0.0460 -0.1728
 2474SOL      O10339   3.569   4.947   3.645  0.3504 -0.2431  0.3183
 2474SOL     H110340   3.552   5.025   3.698 -0.3579 -0.5478  0.5485
 2474SOL     H210341   3.561   4.874   3.707  1.5307 -0.4741  0.2182
 2474SOL    EPW10342   3.566   4.947   3.657  0.4007 -0.3002  0.3322
 2475SOL      O10343   2.491   1.768   0.988  0.5050  1.1680  0.5265
 2475SOL     H110344   2.503   1.767   0.893 -0.2138  0.6210  0.4311
 2475SOL     H210345   2.453   1.855   1.005 -0.8209  0.6984  0.1018
 2475SOL    EPW10346   2.488   1.777   0.979  0.2869  1.0595  0.4710
 2476SOL      O10347   5.702   5.292   1.417  0.6499  0.3945  0.2850
 2476SOL     H110348   5.652   5.356   1.366 -0.2470 -0.2886  0.2784
 2476SOL     H210349   5.760   5.250   1.352 -0.6047 -0.5888 -0.2405
 2476SOL    EPW10350   5.703   5.294   1.404  0.4204  0.2167  0.2282
 2477SOL      O10351   2.338   4.811   2.314  0.4821 -0.0758  0.2184
 2477SOL     H110352   2.383   4.851   2.389  0.5808  0.1743  0.0303
 2477SOL     H210353   2.394   4.833   2.239  0.4525 -0.4368  0.0897
 2477SOL    EPW10354   2.349   4.818   2.314  0.4895 -0.0876  0.1846
 2478SOL      O10355   1.079   0.258   2.460  0.2957  0.0619 -0.0774
 2478SOL     H110356   1.057   0.192   2.525 -2.1244 -0.2074 -1.0743
 2478SOL     H210357   1.168   0.235   2.431  0.2662 -1.5430  1.0081
 2478SOL    EPW10358   1.086   0.249   2.464  0.0344 -0.1380 -0.0680
 2479SOL      O10359   4.824   2.637   0.560 -0.0775  0.0029 -0.1589
 2479SOL     H110360   4.765   2.567   0.586  0.2297  0.0819  0.7735
 2479SOL     H210361   4.766   2.712   0.543 -0.1731  0.6708  2.6493
 2479SOL    EPW10362   4.811   2.638   0.561 -0.0549  0.0826  0.2402
 2480SOL      O10363   1.089   4.005   3.165 -0.0259  0.2967  0.9072
 2480SOL     H110364   1.045   4.084   3.134 -0.1538 -0.5095 -1.1301
 2480SOL     H210365   1.029   3.934   3.145  0.0185 -0.3507  2.8567
 2480SOL    EPW10366   1.078   4.006   3.160 -0.0348  0.1416  0.8978
 2481SOL      O10367   0.988   1.687   1.810 -0.1651  0.0464 -0.2416
 2481SOL     H110368   1.033   1.706   1.728  0.0895  1.6449  0.2263
 2481SOL     H210369   0.900   1.662   1.784  0.5464 -1.7422 -1.0957
 2481SOL    EPW10370   0.984   1.686   1.799 -0.0621  0.0261 -0.2828
 2482SOL      O10371   4.117   2.274   3.717  0.2351  0.3432  0.3186
 2482SOL     H110372   4.128   2.355   3.768  0.6753  0.8122 -0.5036
 2482SOL     H210373   4.195   2.222   3.737  0.3892  0.5108  0.1609
 2482SOL    EPW10374   4.127   2.277   3.725  0.2985  0.4111  0.2141
 2483SOL      O10375   4.783   3.423   1.747 -0.5770  0.1529 -0.2528
 2483SOL     H110376   4.755   3.509   1.718 -2.7693 -0.0050  1.2072
 2483SOL     H210377   4.762   3.420   1.840 -0.0396 -1.7540 -0.1439
 2483SOL    EPW10378   4.778   3.432   1.754 -0.7535 -0.0674 -0.0854
 2484SOL      O10379   2.906   3.599   0.570  0.2920  0.1123 -0.6225
 2484SOL     H110380   2.894   3.694   0.580 -0.3254  0.1765 -1.7877
 2484SOL     H210381   2.864   3.579   0.486 -0.7496 -1.4027  0.2166
 2484SOL    EPW10382   2.900   3.607   0.562  0.1151 -0.0425 -0.6573
 2485SOL      O10383   0.872   3.602   1.411  0.0544  0.1607 -0.1930
 2485SOL     H110384   0.800   3.539   1.412  0.6966 -0.5946 -0.7649
 2485SOL     H210385   0.831   3.684   1.383 -0.8206  0.0614  0.7089
 2485SOL    EPW10386   0.860   3.604   1.408  0.0295  0.0695 -0.1578
 2486SOL      O10387   5.678   0.167   3.932  0.0406  0.6136 -0.0825
 2486SOL     H110388   5.584   0.185   3.922  0.0917  1.3122  0.5907
 2486SOL     H210389   5.708   0.232   3.996  0.9781  0.3687 -0.2606
 2486SOL    EPW10390   5.671   0.176   3.938  0.1461  0.6620 -0.0297
 2487SOL      O10391   2.229   0.541   4.073 -0.3270 -0.0064 -0.6117
 2487SOL     H110392   2.142   0.582   4.077  0.4810  1.7433  0.4060
 2487SOL     H210393   2.236   0.492   4.155 -0.0112  0.6504 -0.2358
 2487SOL    EPW10394   2.220   0.540   4.082 -0.2071  0.2503 -0.4631
 2488SOL      O10395   1.801   4.898   1.753 -0.2320 -0.1496  0.3999
 2488SOL     H110396   1.857   4.962   1.709  0.8567 -0.7147  0.9067
 2488SOL     H210397   1.731   4.880   1.690  1.7408 -1.5919 -1.5676
 2488SOL    EPW10398   1.800   4.903   1.742  0.0946 -0.3637  0.2441
 2489SOL      O10399   3.091   4.450   3.208  0.3113 -0.2158  0.1801
 2489SOL     H110400   3.024   4.391   3.242 -1.0065  1.2137  0.1982
 2489SOL     H210401   3.169   4.396   3.200 -0.2790 -1.4689  2.0932
 2489SOL    EPW10402   3.092   4.438   3.211  0.1078 -0.1970  0.3861
 2490SOL      O10403   4.195   1.205   3.833  0.2170 -0.6346 -0.2962
 2490SOL     H110404   4.120   1.173   3.781 -0.1339  0.6064 -0.5890
 2490SOL     H210405   4.212   1.293   3.799  1.2829 -0.5726  0.3446
 2490SOL    EPW10406   4.189   1.211   3.824  0.2933 -0.4956 -0.2591
 2491SOL      O10407   1.025   4.195   1.457 -0.6994 -0.2646  0.1277
 2491SOL     H110408   1.040   4.132   1.387 -0.8569 -0.6322  0.4158
 2491SOL     H210409   1.044   4.146   1.537  1.1713  0.6262  0.2912
 2491SOL    EPW10410   1.029   4.183   1.458 -0.5166 -0.2088  0.1759
 2492SOL      O10411   0.746   4.744   4.069  0.0711  0.4489  0.0234
 2492SOL     H110412   0.770   4.671   4.126  1.6810  1.3187  0.5099
 2492SOL     H210413   0.754   4.822   4.123  1.1279  1.2489 -1.2191
 2492SOL    EPW10414   0.750   4.744   4.081  0.3555  0.6270 -0.0573
 2493SOL      O10415   2.440   3.139   3.722  0.6990  0.1619  0.3193
 2493SOL     H110416   2.507   3.205   3.704  0.1369  0.3733 -1.0605
 2493SOL     H210417   2.478   3.086   3.792  3.3244 -1.0959 -1.8740
 2493SOL    EPW10418   2.451   3.140   3.728  0.9191  0.0502 -0.0619
 2494SOL      O10419   1.477   5.369   1.227  1.1044 -0.3552  0.2368
 2494SOL     H110420   1.488   5.460   1.201 -0.2566 -0.2409 -0.0415
 2494SOL     H210421   1.465   5.321   1.145 -2.2974 -0.1226  0.4235
 2494SOL    EPW10422   1.477   5.373   1.216  0.5963 -0.3182  0.2270
 2495SOL      O10423   5.508   5.328   1.790  0.2028 -0.0772  0.3480
 2495SOL     H110424   5.518   5.413   1.748  0.8834  0.2096  1.0735
 2495SOL     H210425   5.422   5.331   1.831  1.2476  1.3019  2.6289
 2495SOL    EPW10426   5.500   5.337   1.790  0.3869  0.1005  0.6687
 2496SOL      O10427   2.961   5.399   0.513 -0.2971 -0.1205 -0.0627
 2496SOL     H110428   3.043   5.427   0.472 -0.5772  0.9936  0.1171
 2496SOL     H210429   2.906   5.373   0.439  0.0323 -0.3829 -0.2204
 2496SOL    EPW10430   2.964   5.399   0.501 -0.2918 -0.0297 -0.0603
 2497SOL      O10431   4.542   2.393   2.552  0.3524 -0.0682 -0.3974
 2497SOL     H110432   4.616   2.333   2.558  0.6462  0.2341 -0.8731
 2497SOL     H210433   4.564   2.451   2.479 -1.1538 -1.0759 -1.7419
 2497SOL    EPW10434   4.552   2.393   2.544  0.2231 -0.1434 -0.5916
 2498SOL      O10435   0.077   2.727   2.344  0.2368  0.2242 -0.6286
 2498SOL     H110436  -0.007   2.729   2.298 -0.9552  0.5213  1.4618
 2498SOL     H210437   0.142   2.730   2.274 -1.4757  1.4734 -2.2766
 2498SOL    EPW10438   0.075   2.728   2.331 -0.0731  0.3891 -0.5814
 2499SOL      O10439   1.009   5.498   3.201 -0.0075 -0.2620 -0.5842
 2499SOL     H110440   1.011   5.586   3.163 -0.2015 -0.2749 -0.6284
 2499SOL     H210441   1.093   5.488   3.245  0.5768 -0.5511 -1.7193
 2499SOL    EPW10442   1.018   5.506   3.201  0.0341 -0.2942 -0.7100
 2500SOL      O10443   3.394   1.186   0.252  0.7084  0.6314 -0.1918
 2500SOL     H110444   3.468   1.223   0.204 -0.0044  0.1322 -1.7518
 2500SOL     H210445   3.330   1.166   0.184 -0.0288 -0.8514  0.8945
 2500SOL    EPW10446   3.395   1.187   0.239  0.5537  0.4199 -0.2424
 2501SOL      O10447   0.151   3.724   3.242 -0.4874  0.5098 -0.0412
 2501SOL     H110448   0.077   3.678   3.283  1.0268 -0.2877  1.9589
 2501SOL     H210449   0.219   3.725   3.309  1.1551  1.7108 -1.6197
 2501SOL    EPW10450   0.150   3.719   3.253 -0.1506  0.5528  0.0038
 2502SOL      O10451   2.082   5.094   1.772  0.3428  0.6873 -0.0045
 2502SOL     H110452   2.114   5.144   1.847  0.1783  0.8647 -0.0510
 2502SOL     H210453   2.066   5.006   1.807  2.1396  0.2163 -0.2851
 2502SOL    EPW10454   2.084   5.090   1.784  0.5169  0.6560 -0.0394
 2503SOL      O10455   0.688   0.430   3.780 -0.0068  0.2628 -0.7260
 2503SOL     H110456   0.654   0.508   3.824 -0.1913 -0.5764  0.6773
 2503SOL     H210457   0.775   0.417   3.818 -0.9747 -1.6736  1.0664
 2503SOL    EPW10458   0.694   0.437   3.789 -0.1297 -0.0333 -0.3851
 2504SOL      O10459   3.553   5.512   2.501  0.0731  0.3228 -0.5082
 2504SOL     H110460   3.533   5.443   2.439 -1.8581 -0.1790  0.5989
 2504SOL     H210461   3.614   5.472   2.564 -0.2501 -0.0578 -0.4387
 2504SOL    EPW10462   3.558   5.501   2.501 -0.1674  0.2287 -0.3827
 2505SOL      O10463   0.063   2.582   0.188  0.1477  0.0478 -0.4529
 2505SOL     H110464   0.036   2.635   0.262 -1.1333 -4.9302  3.1384
 2505SOL     H210465   0.158   2.571   0.199  0.1251  0.1420 -0.1609
 2505SOL    EPW10466   0.070   2.586   0.197  0.0086 -0.4732 -0.0386
 2506SOL      O10467   0.336   1.808   1.803  0.2742  0.0723 -0.2271
 2506SOL     H110468   0.341   1.893   1.847  0.4704 -0.2523  0.3876
 2506SOL     H210469   0.404   1.811   1.736  0.6534  0.1939  0.1617
 2506SOL    EPW10470   0.344   1.817   1.800  0.3356  0.0507 -0.1201
 2507SOL      O10471   3.833   1.518   0.854  0.2754  0.0047  0.1998
 2507SOL     H110472   3.818   1.449   0.790 -0.0745  0.0041  0.2778
 2507SOL     H210473   3.819   1.476   0.939  2.2223 -0.3882  0.3843
 2507SOL    EPW10474   3.830   1.506   0.856  0.4457 -0.0372  0.2278
 2508SOL      O10475   2.378   1.578   2.947 -0.6862  0.4406  0.4719
 2508SOL     H110476   2.353   1.628   2.869  0.5708  1.1035  0.4695
 2508SOL     H210477   2.311   1.510   2.954 -0.2498 -0.3092 -1.8071
 2508SOL    EPW10478   2.368   1.576   2.940 -0.5055  0.4313  0.2285
 2509SOL      O10479   2.075   4.727   3.615  0.6222 -0.4983  0.4029
 2509SOL     H110480   2.029   4.804   3.649  0.2047 -0.8843  0.7403
 2509SOL     H210481   2.036   4.711   3.529  0.6195 -0.4051  0.3873
 2509SOL    EPW10482   2.066   4.734   3.610  0.5774 -0.5295  0.4372
 2510SOL      O10483   2.429   3.318   2.295 -0.1354  0.2893  0.2370
 2510SOL     H110484   2.439   3.231   2.257 -1.5462  0.2315 -0.0576
 2510SOL     H210485   2.390   3.370   2.225  0.4093  1.0886  0.5110
 2510SOL    EPW10486   2.426   3.315   2.283 -0.2278  0.3684  0.2348
 2511SOL      O10487   0.193   4.151   1.656 -0.2298  0.1551  0.0442
 2511SOL     H110488   0.166   4.206   1.583  2.6310  0.7799 -0.6520
 2511SOL     H210489   0.203   4.063   1.618  1.2922  0.4870 -0.3846
 2511SOL    EPW10490   0.191   4.147   1.644  0.2377  0.2572 -0.0758
 2512SOL      O10491   2.254   2.990   0.324  0.7989 -0.1869  0.2252
 2512SOL     H110492   2.220   2.904   0.301 -0.0872 -0.4775  2.3369
 2512SOL     H210493   2.192   3.023   0.390  1.2804  1.9422 -0.3010
 2512SOL    EPW10494   2.243   2.985   0.329  0.7558  0.0093  0.3943
 2513SOL      O10495   1.696   4.972   3.466 -0.2124 -0.4191 -0.0095
 2513SOL     H110496   1.745   4.920   3.402  0.3529 -1.2868  1.0982
 2513SOL     H210497   1.764   5.008   3.523 -0.6057  1.4094 -0.6275
 2513SOL    EPW10498   1.708   4.970   3.465 -0.1941 -0.3166  0.0427
 2514SOL      O10499   1.217   5.094   4.046  0.1870  0.0540  0.3912
 2514SOL     H110500   1.137   5.080   4.096  0.6233  0.4036  1.2030
 2514SOL     H210501   1.211   5.185   4.016 -0.2734 -0.2849 -0.5649
 2514SOL    EPW10502   1.208   5.102   4.048  0.1844  0.0552  0.3758
 2515SOL      O10503   5.384   5.004   1.779 -0.1480  0.6489  0.0900
 2515SOL     H110504   5.453   5.002   1.845 -1.6683  3.2380  1.9637
 2515SOL     H210505   5.305   4.977   1.826 -1.2181  2.1862 -0.7515
 2515SOL    EPW10506   5.383   5.001   1.791 -0.4243  1.0891  0.2001
 2516SOL      O10507   2.755   5.863   2.474  0.2860  0.1516  0.2337
 2516SOL     H110508   2.680   5.910   2.511  0.0780 -1.5882  2.1918
 2516SOL     H210509   2.760   5.782   2.525  3.2411 -0.0007 -0.1465
 2516SOL    EPW10510   2.747   5.859   2.483  0.5790 -0.0502  0.4020
 2517SOL      O10511   2.752   4.781   3.423 -0.2235  0.5336  0.0605
 2517SOL     H110512   2.755   4.776   3.518  0.4293 -1.4513 -0.0169
 2517SOL     H210513   2.829   4.834   3.399  1.1066 -1.0748  0.5791
 2517SOL    EPW10514   2.761   4.787   3.430 -0.0120  0.1503  0.1075
 2518SOL      O10515   5.250   0.204   2.163  0.0626 -0.8141 -0.1287
 2518SOL     H110516   5.288   0.173   2.245 -1.8206  1.9836  1.9668
 2518SOL     H210517   5.177   0.144   2.146  0.3557 -1.3050  0.3161
 2518SOL    EPW10518   5.246   0.194   2.170 -0.1070 -0.5680  0.1423
 2519SOL      O10519   1.952   3.577   1.828  0.2316 -0.5289 -0.0800
 2519SOL     H110520   1.902   3.497   1.842  0.3150 -0.6363 -0.3944
 2519SOL     H210521   1.933   3.603   1.738 -0.9607  0.6283  0.4807
 2519SOL    EPW10522   1.945   3.571   1.820  0.1133 -0.4169 -0.0537
 2520SOL      O10523   0.359   2.906   1.116 -0.2285  1.0319 -0.4148
 2520SOL     H110524   0.279   2.937   1.074 -1.7309 -1.0699  0.6846
 2520SOL     H210525   0.328   2.855   1.191  2.2003  0.9150  0.6044
 2520SOL    EPW10526   0.347   2.904   1.120 -0.1297  0.7952 -0.1888
 2521SOL      O10527   0.698   2.063   1.650  0.0492  0.3003 -0.1718
 2521SOL     H110528   0.734   2.046   1.737  1.5707 -3.2503 -1.2985
 2521SOL     H210529   0.628   1.998   1.641 -1.5563  2.0463 -0.8922
 2521SOL    EPW10530   0.694   2.054   1.659  0.0402  0.1078 -0.3688
 2522SOL      O10531   4.862   1.223   2.176  0.4096  0.2914 -0.1943
 2522SOL     H110532   4.883   1.309   2.211  0.4743  0.0627  0.3440
 2522SOL     H210533   4.785   1.238   2.121  0.4805  0.7065 -0.1861
 2522SOL    EPW10534   4.856   1.234   2.174  0.4241  0.3113 -0.1360
 2523SOL      O10535   2.096   5.831   3.205 -0.0653 -0.5057 -0.2446
 2523SOL     H110536   2.065   5.803   3.119  1.5537  0.4576 -1.1773
 2523SOL     H210537   2.051   5.915   3.220  0.3716 -0.2147 -0.5711
 2523SOL    EPW10538   2.088   5.837   3.197  0.1540 -0.3719 -0.3789
 2524SOL      O10539   4.843   2.934   1.592 -0.0134 -0.2415  0.1403
 2524SOL     H110540   4.810   3.009   1.641 -0.1789 -0.9110  1.1061
 2524SOL     H210541   4.841   2.961   1.501 -1.5278  0.3814  0.3250
 2524SOL    EPW10542   4.839   2.945   1.588 -0.1926 -0.2465  0.2630
 2525SOL      O10543   3.994   1.862   0.859 -0.0003 -0.4765 -0.4049
 2525SOL     H110544   3.951   1.879   0.943 -1.4432  1.4926 -1.4895
 2525SOL     H210545   4.073   1.916   0.861 -0.6516  0.5058 -0.7756
 2525SOL    EPW10546   3.998   1.869   0.868 -0.2237 -0.1616 -0.5601
 2526SOL      O10547   1.478   5.295   2.851 -0.1168  1.1428 -0.4862
 2526SOL     H110548   1.442   5.342   2.927  1.3237 -1.6042  2.0911
 2526SOL     H210549   1.572   5.295   2.866  0.0117 -1.5681 -0.8893
 2526SOL    EPW10550   1.484   5.300   2.861  0.0506  0.5606 -0.2543
 2527SOL      O10551   1.767   2.139   1.685 -0.5223 -0.4995 -0.0200
 2527SOL     H110552   1.699   2.075   1.708  0.4097 -0.3081  4.1588
 2527SOL     H210553   1.847   2.087   1.681 -0.1979 -0.0301  0.2916
 2527SOL    EPW10554   1.768   2.126   1.687 -0.3883 -0.4290  0.4590
 2528SOL      O10555   3.856   0.698   2.911  0.3292  0.0790  0.3236
 2528SOL     H110556   3.917   0.738   2.973  1.0208  0.3486 -0.5038
 2528SOL     H210557   3.857   0.758   2.836 -0.0812 -0.5155 -0.1615
 2528SOL    EPW10558   3.863   0.709   2.910  0.3592  0.0443  0.1836
 2529SOL      O10559   2.242   2.899   2.168  0.1743  0.5112 -0.4418
 2529SOL     H110560   2.327   2.935   2.191  0.1040  0.7810 -0.5871
 2529SOL     H210561   2.185   2.921   2.242  1.3133 -4.0862  2.2034
 2529SOL    EPW10562   2.245   2.905   2.178  0.2883  0.0495 -0.1751
 2530SOL      O10563   3.610   1.256   1.418 -0.4232 -0.1882  0.9052
 2530SOL     H110564   3.634   1.296   1.334 -0.2835 -1.6284  0.2319
 2530SOL     H210565   3.576   1.329   1.470 -0.1027  0.8148 -0.2383
 2530SOL    EPW10566   3.609   1.268   1.415 -0.3741 -0.2349  0.7114
 2531SOL      O10567   5.110   5.471   0.016 -0.2632 -0.1574 -0.2652
 2531SOL     H110568   5.203   5.448   0.005 -0.0779 -1.0143  2.2633
 2531SOL     H210569   5.064   5.388   0.003 -0.3636 -0.3437  1.0753
 2531SOL    EPW10570   5.115   5.460   0.014 -0.2542 -0.2687  0.1476
 2532SOL      O10571   1.909   1.603   2.426  0.1504 -0.1150  0.7696
 2532SOL     H110572   1.896   1.639   2.514  1.7311 -1.1020  1.4468
 2532SOL     H210573   1.952   1.519   2.440 -0.0035 -0.5219 -0.9424
 2532SOL    EPW10574   1.912   1.598   2.437  0.3026 -0.2637  0.6592
 2533SOL      O10575   5.561   5.385   3.165  0.4245 -0.4018 -0.2350
 2533SOL     H110576   5.638   5.428   3.128  0.2555 -1.7582 -2.3238
 2533SOL     H210577   5.542   5.314   3.104 -2.0311 -0.5790  0.6484
 2533SOL    EPW10578   5.567   5.382   3.155  0.1445 -0.5654 -0.3636
 2534SOL      O10579   3.251   4.270   0.974 -0.2716  0.0417  0.6022
 2534SOL     H110580   3.295   4.348   1.007  1.7678 -0.6296 -0.3776
 2534SOL     H210581   3.277   4.265   0.883  0.3256 -2.2298  0.8495
 2534SOL    EPW10582   3.258   4.278   0.968  0.0097 -0.2722  0.5240
 2535SOL      O10583   2.756   2.141   2.981 -0.2542  0.3587 -0.6822
 2535SOL     H110584   2.814   2.066   2.966 -0.0173  0.6090 -1.0610
 2535SOL     H210585   2.714   2.155   2.896 -0.9698  0.0989 -0.3732
 2535SOL    EPW10586   2.758   2.135   2.970 -0.3053  0.3577 -0.6896
 2536SOL      O10587   4.847   1.900   0.223 -0.4793 -0.2978  0.0688
 2536SOL     H110588   4.769   1.931   0.177 -1.0593  0.3343  1.4443
 2536SOL     H210589   4.893   1.979   0.250  0.6966 -0.6595 -0.7525
 2536SOL    EPW10590   4.843   1.912   0.221 -0.4157 -0.2690  0.1279
 2537SOL      O10591   1.298   3.069   2.990 -0.0099 -0.3785  0.0045
 2537SOL     H110592   1.272   3.070   2.898  2.4609 -2.1147 -0.8070
 2537SOL     H210593   1.363   3.139   2.998  2.9689 -2.8237 -0.7690
 2537SOL    EPW10594   1.302   3.076   2.981  0.5715 -0.8245 -0.1645
 2538SOL      O10595   0.001   3.332   1.496  0.1857  0.7836 -0.3999
 2538SOL     H110596  -0.018   3.258   1.553 -0.8981  0.8516 -0.6580
 2538SOL     H210597   0.077   3.304   1.444  0.3083  0.1937  0.0884
 2538SOL    EPW10598   0.007   3.322   1.496  0.0832  0.7280 -0.3754
 2539SOL      O10599   1.888   3.593   1.578 -0.0887 -0.4933 -0.4312
 2539SOL     H110600   1.904   3.512   1.529  1.3972  1.0875 -2.7558
 2539SOL     H210601   1.804   3.625   1.544  1.4417  1.1685 -3.0545
 2539SOL    EPW10602   1.881   3.588   1.569  0.2331 -0.1474 -0.9590
 2540SOL      O10603   5.254   5.459   4.002  0.2675 -0.3892 -0.4497
 2540SOL     H110604   5.239   5.414   4.085 -0.9978 -0.2965 -0.6092
 2540SOL     H210605   5.337   5.423   3.970  0.9384 -0.1946  0.9863
 2540SOL    EPW10606   5.261   5.450   4.008  0.2041 -0.3586 -0.3135
 2541SOL      O10607   1.508   5.829   2.981 -0.5257 -1.0960  0.7405
 2541SOL     H110608   1.546   5.916   2.991 -1.0165 -0.8363  0.3773
 2541SOL     H210609   1.430   5.830   3.036  0.1268 -1.7217  1.7107
 2541SOL    EPW10610   1.504   5.838   2.988 -0.5084 -1.1351  0.8053
 2542SOL      O10611   0.904   0.686   1.355 -0.3310 -0.7367  0.2808
 2542SOL     H110612   0.993   0.670   1.385  0.0301  0.9226  0.1734
 2542SOL     H210613   0.897   0.782   1.349 -1.8610 -0.8614 -0.4745
 2542SOL    EPW10614   0.913   0.695   1.357 -0.4557 -0.5729  0.1888
 2543SOL      O10615   3.747   0.933   0.439 -0.8117 -0.3491 -0.6998
 2543SOL     H110616   3.724   0.893   0.522  0.5753 -0.8237 -0.5131
 2543SOL     H210617   3.839   0.911   0.426 -1.1485 -0.8303 -2.6732
 2543SOL    EPW10618   3.755   0.927   0.446 -0.6997 -0.4511 -0.8904
 2544SOL      O10619   3.502   5.209   0.099 -0.2260 -0.1393 -0.4994
 2544SOL     H110620   3.412   5.182   0.116 -0.6609  1.4304 -0.0713
 2544SOL     H210621   3.552   5.128   0.094 -1.4150 -0.9828  0.7070
 2544SOL    EPW10622   3.498   5.198   0.100 -0.3992 -0.0619 -0.3250
 2545SOL      O10623   2.917   4.967   2.747  0.2300  0.1512  0.3726
 2545SOL     H110624   2.991   5.023   2.766  0.8115 -0.9781  1.6465
 2545SOL     H210625   2.870   4.961   2.830 -0.2700 -0.5712  0.0460
 2545SOL    EPW10626   2.920   4.972   2.758  0.2387 -0.0463  0.4736
 2546SOL      O10627   2.573   3.590   4.106  0.2949  0.3227  0.7557
 2546SOL     H110628   2.569   3.671   4.055  0.3407  1.0955  1.9415
 2546SOL     H210629   2.596   3.522   4.042  1.1931  1.3878 -0.0901
 2546SOL    EPW10630   2.575   3.591   4.093  0.3956  0.5187  0.7919
 2547SOL      O10631   1.260   3.623   3.965  0.5473 -0.4013  0.7314
 2547SOL     H110632   1.312   3.619   3.885 -0.6027 -1.8549  0.0080
 2547SOL     H210633   1.286   3.705   4.007  2.0290 -0.1932 -0.5309
 2547SOL    EPW10634   1.268   3.632   3.961  0.5827 -0.5342  0.5196
 2548SOL      O10635   5.776   2.829   3.248  0.6284  0.4229 -0.0769
 2548SOL     H110636   5.776   2.867   3.336 -0.2518  0.7707 -0.2141
 2548SOL     H210637   5.766   2.735   3.263 -2.6881  0.7115  0.1723
 2548SOL    EPW10638   5.775   2.823   3.259  0.1807  0.4908 -0.0650
 2549SOL      O10639   5.188   4.053   3.826 -0.0668  0.0550  0.1779
 2549SOL     H110640   5.145   4.012   3.901  0.2478 -0.7409 -0.0663
 2549SOL     H210641   5.200   3.982   3.763  1.0400  0.3896 -0.0134
 2549SOL    EPW10642   5.185   4.041   3.827  0.0848  0.0058  0.1314
 2550SOL      O10643   1.676   5.599   3.323  0.1286  0.5770 -0.5732
 2550SOL     H110644   1.722   5.521   3.294  1.3408  0.8121  0.6245
 2550SOL     H210645   1.615   5.619   3.252 -0.6847 -1.8022 -0.6267
 2550SOL    EPW10646   1.674   5.593   3.312  0.1711  0.3483 -0.4511
 2551SOL      O10647   3.202   1.615   2.514  0.0578 -0.2436  0.4189
 2551SOL     H110648   3.115   1.635   2.480  0.6333 -1.5886 -2.0323
 2551SOL     H210649   3.199   1.523   2.537  0.9910 -0.4682 -0.2941
 2551SOL    EPW10650   3.193   1.608   2.513  0.2188 -0.4110  0.0814
 2552SOL      O10651   3.364   2.186   1.189 -0.3774 -0.1534  0.0107
 2552SOL     H110652   3.397   2.276   1.192  0.0313 -0.1863 -1.8711
 2552SOL     H210653   3.442   2.131   1.189 -0.5658 -0.4266 -0.4266
 2552SOL    EPW10654   3.376   2.190   1.189 -0.3539 -0.1860 -0.2367
 2553SOL      O10655   4.353   0.919   1.614  0.1155 -0.8004 -0.1167
 2553SOL     H110656   4.415   0.969   1.668 -1.3207 -0.5893  1.4389
 2553SOL     H210657   4.396   0.912   1.529  0.9191  2.1044 -0.0903
 2553SOL    EPW10658   4.364   0.924   1.611  0.0480 -0.4680  0.0520
 2554SOL      O10659   4.053   2.594   3.656 -0.5450  0.5355 -0.1454
 2554SOL     H110660   4.141   2.633   3.662  0.1714 -1.1394  0.8510
 2554SOL     H210661   4.009   2.623   3.735 -1.6486  2.9544 -1.5220
 2554SOL    EPW10662   4.058   2.602   3.665 -0.5863  0.6148 -0.1860
 2555SOL      O10663   2.000   1.353   1.185  0.2454 -0.4457  0.1741
 2555SOL     H110664   2.026   1.383   1.272  1.4881 -1.9647  0.3627
 2555SOL     H210665   1.955   1.429   1.146  0.1236  0.4278  1.9245
 2555SOL    EPW10666   1.998   1.365   1.190  0.3650 -0.5146  0.3810
 2556SOL      O10667   5.016   3.074   0.357 -0.0430 -0.2072 -0.1328
 2556SOL     H110668   4.925   3.080   0.327  0.6703  0.4324 -2.4506
 2556SOL     H210669   5.033   3.159   0.399 -0.1875  0.1879 -0.8460
 2556SOL    EPW10670   5.008   3.084   0.358  0.0177 -0.0968 -0.4562
 2557SOL      O10671   1.698   0.649   3.958 -0.1701 -0.0457  0.3236
 2557SOL     H110672   1.765   0.594   4.000  0.9372 -0.5085 -1.8995
 2557SOL     H210673   1.748   0.714   3.909 -1.3189 -0.4882 -1.5180
 2557SOL    EPW10674   1.711   0.650   3.957 -0.1745 -0.1423 -0.1100
 2558SOL      O10675   3.979   1.402   2.050  0.3392  0.0434 -0.4836
 2558SOL     H110676   4.035   1.389   1.973  0.8327  1.0077 -0.3001
 2558SOL     H210677   3.996   1.492   2.077  0.6540 -0.4750  1.1438
 2558SOL    EPW10678   3.987   1.410   2.045  0.4254  0.0910 -0.2904
 2559SOL      O10679   1.896   2.192   3.375 -0.5642  0.0457  0.5947
 2559SOL     H110680   1.912   2.098   3.370 -0.5262  0.1264 -1.3429
 2559SOL     H210681   1.944   2.229   3.301 -2.4864  1.3085 -0.0919
 2559SOL    EPW10682   1.903   2.186   3.367 -0.7652  0.1890  0.3147
 2560SOL      O10683   1.327   4.009   3.751 -0.4118  0.3917  0.5516
 2560SOL     H110684   1.342   4.053   3.835  0.0287 -1.9337  1.7596
 2560SOL     H210685   1.232   4.004   3.743 -0.4568  0.4161  1.0338
 2560SOL    EPW10686   1.319   4.013   3.759 -0.3696  0.1462  0.7319
 2561SOL      O10687   5.725   5.391   2.287  0.7996 -0.5698  0.1636
 2561SOL     H110688   5.706   5.426   2.200 -1.9642 -2.0474  0.0482
 2561SOL     H210689   5.795   5.447   2.321 -0.4955  2.3563 -1.5899
 2561SOL    EPW10690   5.730   5.401   2.282  0.3666 -0.4153 -0.0357
 2562SOL      O10691   2.337   2.361   0.549  0.6021  0.0482  0.4740
 2562SOL     H110692   2.317   2.454   0.560  2.5406  0.4000  1.4322
 2562SOL     H210693   2.400   2.359   0.476 -0.6945 -0.7221 -0.6677
 2562SOL    EPW10694   2.342   2.371   0.542  0.6706  0.0036  0.4544
 2563SOL      O10695   0.958   2.580   2.197  0.2302  0.2050  0.1087
 2563SOL     H110696   0.953   2.577   2.101  2.0403  2.3604 -0.1107
 2563SOL     H210697   0.867   2.593   2.224  0.0038  2.9571 -1.5609
 2563SOL    EPW10698   0.947   2.581   2.189  0.3991  0.7285 -0.0928
 2564SOL      O10699   1.885   5.342   1.549  0.0389  0.3592  0.0287
 2564SOL     H110700   1.848   5.359   1.636  1.8515  1.0484  0.7003
 2564SOL     H210701   1.903   5.429   1.514  0.2640  0.0535 -0.6256
 2564SOL    EPW10702   1.883   5.353   1.555  0.2562  0.4001  0.0306
 2565SOL      O10703   1.672   5.595   3.023 -0.0813 -0.2801 -0.0732
 2565SOL     H110704   1.761   5.629   3.034 -0.6079  0.7450  1.1343
 2565SOL     H210705   1.617   5.672   3.012 -1.2067 -0.7021  2.0356
 2565SOL    EPW10706   1.676   5.607   3.023 -0.2575 -0.2157  0.2806
 2566SOL      O10707   3.731   5.429   2.675 -0.6938  0.1304 -0.1611
 2566SOL     H110708   3.719   5.342   2.714 -1.2515  0.5707  0.6764
 2566SOL     H210709   3.733   5.489   2.750  0.4568  0.7675 -0.6750
 2566SOL    EPW10710   3.730   5.426   2.687 -0.6305  0.2453 -0.1266
 2567SOL      O10711   4.980   4.571   3.965  0.3590  0.2731  0.0379
 2567SOL     H110712   5.035   4.542   4.038 -0.2382 -1.3293 -0.1088
 2567SOL     H210713   4.894   4.587   4.005  0.0341 -0.5989 -0.2900
 2567SOL    EPW10714   4.977   4.570   3.977  0.2606  0.0092 -0.0127
 2568SOL      O10715   1.285   1.373   1.871 -0.0782  0.0500  0.2566
 2568SOL     H110716   1.377   1.347   1.883 -0.0295 -0.5722 -1.3195
 2568SOL     H210717   1.284   1.466   1.895  1.0747  0.1969 -0.2164
 2568SOL    EPW10718   1.295   1.380   1.875  0.0500 -0.0007  0.0380
 2569SOL      O10719   4.980   5.132   2.810 -0.4470  0.0126  0.3174
 2569SOL     H110720   5.003   5.209   2.757 -1.1895  0.9816  1.3449
 2569SOL     H210721   4.898   5.101   2.772  0.2389 -0.7796 -0.5847
 2569SOL    EPW10722   4.974   5.137   2.800 -0.4530  0.0315  0.3308
 2570SOL      O10723   4.832   5.815   1.659  0.4103 -0.4450  0.1308
 2570SOL     H110724   4.892   5.822   1.734  0.4216  0.3982  0.0574
 2570SOL     H210725   4.794   5.903   1.651  0.6210 -0.4408 -1.0298
 2570SOL    EPW10726   4.835   5.825   1.666  0.4340 -0.3546 -0.0008
 2571SOL      O10727   1.791   1.358   1.836 -0.1703  0.1106 -0.4022
 2571SOL     H110728   1.804   1.453   1.830 -1.4510  0.3209  0.0076
 2571SOL     H210729   1.877   1.324   1.861  0.3714  1.1315 -0.8098
 2571SOL    EPW10730   1.802   1.365   1.838 -0.2491  0.2419 -0.4020
 2572SOL      O10731   3.495   5.748   2.108  0.1415  0.0508  0.3668
 2572SOL     H110732   3.464   5.835   2.131  0.6685  0.3840 -0.1384
 2572SOL     H210733   3.475   5.740   2.015 -1.3608 -1.0086  0.7483
 2572SOL    EPW10734   3.490   5.756   2.100  0.0375 -0.0267  0.3536
 2573SOL      O10735   4.928   4.098   0.624 -0.0700  0.6500 -0.4419
 2573SOL     H110736   5.000   4.043   0.655  0.9852  2.2016 -0.0086
 2573SOL     H210737   4.853   4.038   0.617  0.9155 -0.7402  0.3583
 2573SOL    EPW10738   4.928   4.086   0.626  0.1477  0.6672 -0.3103
 2574SOL      O10739   5.707   1.038   2.964 -0.0137 -0.5508  0.1241
 2574SOL     H110740   5.750   1.026   2.879  1.4203  0.5332  0.6476
 2574SOL     H210741   5.656   1.118   2.954 -0.2670 -0.7091  0.1339
 2574SOL    EPW10742   5.706   1.045   2.954  0.1122 -0.4520  0.1810
 2575SOL      O10743   0.474   3.412   1.956  0.0808 -0.4291  0.6112
 2575SOL     H110744   0.502   3.323   1.976 -0.8414 -0.9250 -0.2230
 2575SOL     H210745   0.411   3.434   2.024 -0.4736 -0.8156  0.2293
 2575SOL    EPW10746   0.470   3.405   1.965 -0.0767 -0.5232  0.4815
 2576SOL      O10747   4.074   4.202   1.876 -0.5312 -0.4304 -0.1338
 2576SOL     H110748   4.148   4.230   1.823  0.3284  0.3195  1.3944
 2576SOL     H210749   4.107   4.129   1.927 -0.0483  1.2888  2.2027
 2576SOL    EPW10750   4.085   4.198   1.875 -0.3880 -0.1670  0.2785
 2577SOL      O10751   5.053   2.565   2.080  0.0184 -0.7139 -0.0935
 2577SOL     H110752   4.991   2.510   2.032 -0.2336  0.0919 -0.7192
 2577SOL     H210753   5.006   2.590   2.160 -0.5777  0.1105 -0.6901
 2577SOL    EPW10754   5.041   2.562   2.084 -0.0721 -0.5400 -0.2239
 2578SOL      O10755   0.549   1.382   3.833  0.2274  0.5277 -0.1915
 2578SOL     H110756   0.584   1.470   3.831 -2.9123  1.9165 -1.0292
 2578SOL     H210757   0.574   1.344   3.749  0.8310  0.9386 -0.2018
 2578SOL    EPW10758   0.555   1.387   3.824 -0.0431  0.7197 -0.2819
 2579SOL      O10759   3.717   1.183   3.939 -0.6473 -0.5078 -0.2202
 2579SOL     H110760   3.788   1.130   3.975 -0.7574  0.5350  1.6464
 2579SOL     H210761   3.755   1.226   3.863  0.0429 -1.6423 -0.5528
 2579SOL    EPW10762   3.728   1.182   3.935 -0.5854 -0.5176 -0.0565
 2580SOL      O10763   1.231   4.530   1.272  0.2771  0.3827 -0.0237
 2580SOL     H110764   1.168   4.602   1.262  0.2701  0.2155 -1.4996
 2580SOL     H210765   1.203   4.485   1.351 -0.5748  1.1739  0.1498
 2580SOL    EPW10766   1.221   4.533   1.279  0.1854  0.4493 -0.1626
 2581SOL      O10767   3.820   5.868   3.527 -0.0288  0.0210  0.5573
 2581SOL     H110768   3.769   5.791   3.551 -1.3884  0.9815  0.8993
 2581SOL     H210769   3.816   5.924   3.605 -0.8270  1.3057 -0.3475
 2581SOL    EPW10770   3.814   5.866   3.538 -0.2590  0.2605  0.4972
 2582SOL      O10771   1.184   2.501   0.655 -0.4681 -0.1704 -0.4937
 2582SOL     H110772   1.158   2.560   0.726 -0.4227 -0.2885 -0.3794
 2582SOL     H210773   1.104   2.488   0.604 -0.5264 -0.1725 -0.4015
 2582SOL    EPW10774   1.173   2.506   0.657 -0.4695 -0.1832 -0.4716
 2583SOL      O10775   5.670   2.157   2.349  0.2399 -0.5315 -0.5498
 2583SOL     H110776   5.618   2.196   2.279 -0.7012 -0.8351 -0.0432
 2583SOL     H210777   5.721   2.230   2.385  0.7538 -0.3808 -1.5561
 2583SOL    EPW10778   5.670   2.169   2.345  0.1943 -0.5478 -0.6031
 2584SOL      O10779   1.865   2.993   1.277 -0.4361  0.2561  0.1747
 2584SOL     H110780   1.868   3.083   1.308 -0.3528  0.6494 -0.9395
 2584SOL     H210781   1.864   3.000   1.182 -0.6039 -0.9172  0.0730
 2584SOL    EPW10782   1.866   3.003   1.270 -0.4451  0.1729  0.0450
 2585SOL      O10783   4.029   2.766   3.356  0.2532  0.2564 -0.0152
 2585SOL     H110784   3.999   2.689   3.404  2.8639  0.1991  1.7619
 2585SOL     H210785   4.063   2.732   3.274  0.3085 -0.3331  0.2507
 2585SOL    EPW10786   4.029   2.754   3.353  0.5376  0.1874  0.2027
 2586SOL      O10787   3.864   4.051   1.599 -0.2501  0.3945 -0.6041
 2586SOL     H110788   3.934   4.116   1.588 -0.9128  0.9392 -1.6999
 2586SOL     H210789   3.904   3.969   1.570  0.2059  0.5291 -0.3834
 2586SOL    EPW10790   3.876   4.049   1.595 -0.2721  0.4669 -0.6975
 2587SOL      O10791   2.218   5.407   3.575  0.1662  0.3851  0.6462
 2587SOL     H110792   2.184   5.486   3.533 -1.8934 -1.0640 -0.5831
 2587SOL     H210793   2.139   5.357   3.598  1.4057 -1.0930  1.8593
 2587SOL    EPW10794   2.206   5.410   3.573  0.0787  0.0729  0.6445
 2588SOL      O10795   5.280   0.573   1.632  0.1047  0.2240 -0.3772
 2588SOL     H110796   5.280   0.667   1.651 -2.7251  0.0366  1.0782
 2588SOL     H210797   5.277   0.532   1.719 -0.5272 -1.1468 -1.0247
 2588SOL    EPW10798   5.280   0.579   1.644 -0.2646  0.0578 -0.2910
 2589SOL      O10799   5.088   4.889   0.191 -0.2682 -0.3982  0.4661
 2589SOL     H110800   5.011   4.847   0.230 -0.4912 -1.8678 -1.4337
 2589SOL     H210801   5.099   4.846   0.106  2.0203  0.5252  0.2155
 2589SOL    EPW10802   5.081   4.880   0.186 -0.0478 -0.4565  0.2367
 2590SOL      O10803   5.508   1.644   0.255  0.1055  0.1635  0.0438
 2590SOL     H110804   5.551   1.729   0.257 -1.7019  1.1468 -0.4052
 2590SOL     H210805   5.415   1.665   0.249 -0.4702 -1.8538  1.1724
 2590SOL    EPW10806   5.503   1.655   0.255 -0.1487  0.0532  0.1163
 2591SOL      O10807   4.465   3.266   0.083  0.2191 -0.1250  0.2496
 2591SOL     H110808   4.511   3.231   0.159  1.6395 -1.0455 -0.9639
 2591SOL     H210809   4.394   3.204   0.068  0.8366 -0.7794 -0.0315
 2591SOL    EPW10810   4.462   3.255   0.089  0.4365 -0.2930  0.0902
 2592SOL      O10811   4.742   0.773   3.420 -0.1741  0.0911  0.3299
 2592SOL     H110812   4.672   0.807   3.364  0.6232  1.3119  0.0470
 2592SOL     H210813   4.823   0.794   3.373  0.4519  0.0962  1.3895
 2592SOL    EPW10814   4.743   0.779   3.409 -0.0223  0.2219  0.4128
 2593SOL      O10815   0.660   5.263   0.378  0.0622 -0.1587 -0.2661
 2593SOL     H110816   0.691   5.351   0.359 -1.3489  0.4437  0.0686
 2593SOL     H210817   0.658   5.220   0.293  1.3975 -0.1052 -0.3441
 2593SOL    EPW10818   0.663   5.268   0.367  0.0541 -0.0887 -0.2387
 2594SOL      O10819   1.282   4.418   0.405  0.1498 -0.0994  0.1090
 2594SOL     H110820   1.208   4.421   0.466 -0.1822 -2.1184 -0.1312
 2594SOL     H210821   1.241   4.423   0.318  0.2538 -1.2218 -0.0233
 2594SOL    EPW10822   1.269   4.419   0.402  0.1255 -0.4345  0.0692
 2595SOL      O10823   5.201   2.393   2.807 -0.2175 -0.2370 -0.1948
 2595SOL     H110824   5.206   2.405   2.902  0.2040  1.0177 -0.3518
 2595SOL     H210825   5.291   2.375   2.780 -0.4648 -1.4547 -0.2760
 2595SOL    EPW10826   5.211   2.393   2.814 -0.1989 -0.2330 -0.2202
 2596SOL      O10827   1.393   4.179   2.534  0.7826 -0.0590  0.0690
 2596SOL     H110828   1.329   4.166   2.603  0.4814  1.4146  0.1008
 2596SOL     H210829   1.362   4.256   2.486  1.0561 -0.9684 -1.6397
 2596SOL    EPW10830   1.383   4.186   2.536  0.7797  0.0012 -0.1099
 2597SOL      O10831   0.807   0.795   0.227 -0.3445 -0.4789 -0.6894
 2597SOL     H110832   0.739   0.735   0.197  1.6821 -2.0280 -2.5848
 2597SOL     H210833   0.866   0.803   0.152  2.8024 -1.1066  1.5056
 2597SOL    EPW10834   0.806   0.789   0.216  0.2074 -0.7111 -0.6574
 2598SOL      O10835   3.067   3.606   0.922  0.2842 -0.4625 -0.3420
 2598SOL     H110836   3.095   3.590   0.832 -0.1766  0.2874 -0.6293
 2598SOL     H210837   3.023   3.690   0.918  2.7071  0.9876  1.1217
 2598SOL    EPW10838   3.065   3.613   0.912  0.4935 -0.2278 -0.2165
 2599SOL      O10839   0.767   1.503   2.120  0.0801 -0.4626  0.5449
 2599SOL     H110840   0.727   1.590   2.118  0.1300 -0.4462 -0.3781
 2599SOL     H210841   0.845   1.511   2.065 -0.6566 -1.4267 -0.6865
 2599SOL    EPW10842   0.771   1.513   2.114  0.0069 -0.5637  0.3151
 2600SOL      O10843   1.069   4.001   3.696  0.1699 -0.0999 -0.0043
 2600SOL     H110844   1.016   4.052   3.757  2.3505  0.8562  1.1950
 2600SOL     H210845   1.094   4.064   3.628 -1.6567 -0.9903 -1.5961
 2600SOL    EPW10846   1.066   4.013   3.695  0.2077 -0.0929 -0.0462
 2601SOL      O10847   5.520   2.860   1.696 -0.2233 -0.3288 -0.4671
 2601SOL     H110848   5.475   2.778   1.712  0.1636 -0.7604 -1.4730
 2601SOL     H210849   5.450   2.924   1.683 -0.6939 -1.2685 -3.5012
 2601SOL    EPW10850   5.508   2.858   1.696 -0.2322 -0.4751 -0.8981
 2602SOL      O10851   3.888   3.071   3.145 -0.1211  0.0327 -0.3127
 2602SOL     H110852   3.908   3.119   3.226  0.2131 -1.1026  0.3057
 2602SOL     H210853   3.974   3.045   3.111 -0.2350  0.8671 -1.2808
 2602SOL    EPW10854   3.899   3.073   3.150 -0.0976  0.0006 -0.3500
 2603SOL      O10855   1.814   1.042   0.928 -0.2228  0.0093  0.3330
 2603SOL     H110856   1.792   1.009   0.840  0.6570  2.2788 -0.8118
 2603SOL     H210857   1.875   1.113   0.912  2.7647 -1.6911  3.0168
 2603SOL    EPW10858   1.818   1.046   0.917  0.1898  0.0700  0.4971
 2604SOL      O10859   5.053   4.560   0.131 -0.0167  0.3517  0.4901
 2604SOL     H110860   4.978   4.588   0.185  0.7266  0.9632  1.2329
 2604SOL     H210861   5.129   4.600   0.173  0.5244  1.5616 -1.5185
 2604SOL    EPW10862   5.053   4.567   0.141  0.1203  0.5460  0.3550
 2605SOL      O10863   3.446   0.775   2.416 -0.0634 -0.1813  0.4193
 2605SOL     H110864   3.380   0.748   2.480 -0.4689 -3.5418 -1.1890
 2605SOL     H210865   3.528   0.739   2.450  0.0405 -0.3791 -0.0382
 2605SOL    EPW10866   3.448   0.768   2.427 -0.0956 -0.5609  0.1989
 2606SOL      O10867   2.283   3.054   1.310  1.1688  0.2474  0.1755
 2606SOL     H110868   2.273   2.962   1.335 -0.3617  0.4219  0.3222
 2606SOL     H210869   2.220   3.101   1.366  1.8680  1.3831  0.0571
 2606SOL    EPW10870   2.275   3.049   1.319  1.0802  0.3871  0.1785
 2607SOL      O10871   0.777   1.513   3.402  0.4729 -0.7031 -0.0836
 2607SOL     H110872   0.823   1.456   3.340  0.7525  1.2036 -1.7494
 2607SOL     H210873   0.722   1.569   3.347  1.0173  1.3548  1.3129
 2607SOL    EPW10874   0.776   1.513   3.389  0.5608 -0.2802 -0.1124
 2608SOL      O10875   2.396   5.570   0.202 -1.0063 -0.6716  0.8644
 2608SOL     H110876   2.393   5.478   0.174 -0.8439 -0.4489  0.0708
 2608SOL     H210877   2.328   5.612   0.149 -0.2494 -0.1134  0.3105
 2608SOL    EPW10878   2.388   5.564   0.193 -0.9082 -0.5883  0.7207
 2609SOL      O10879   3.819   2.091   1.274 -0.0610  0.1941  0.1267
 2609SOL     H110880   3.856   2.179   1.274  1.1658 -0.2910 -0.1196
 2609SOL     H210881   3.819   2.064   1.366  0.2535  0.1780  0.1221
 2609SOL    EPW10882   3.823   2.097   1.284  0.1034  0.1406  0.1000
 2610SOL      O10883   4.383   4.480   2.827  0.3041 -0.0153  0.1277
 2610SOL     H110884   4.297   4.473   2.869  0.2521 -2.2250 -0.2227
 2610SOL     H210885   4.366   4.461   2.735  0.9962  0.8514 -0.1904
 2610SOL    EPW10886   4.372   4.477   2.822  0.3724 -0.1586  0.0564
 2611SOL      O10887   1.645   2.562   2.604  0.4935 -0.2980  0.1506
 2611SOL     H110888   1.692   2.640   2.633  2.2977 -1.2275 -0.1240
 2611SOL     H210889   1.629   2.576   2.511  0.1951  0.0209  0.2469
 2611SOL    EPW10890   1.648   2.572   2.597  0.6541 -0.3632  0.1316
 2612SOL      O10891   5.760   3.936   3.591  0.0607 -0.0244 -0.0803
 2612SOL     H110892   5.757   3.918   3.497 -2.1191  0.5844 -0.1713
 2612SOL     H210893   5.814   3.865   3.626  0.1084 -0.8266 -1.6576
 2612SOL    EPW10894   5.766   3.926   3.585 -0.1667 -0.0450 -0.2583
 2613SOL      O10895   0.675   2.355   2.917  0.3663 -0.2114  0.2712
 2613SOL     H110896   0.696   2.327   2.828 -3.8835 -3.7247  0.0139
 2613SOL     H210897   0.604   2.419   2.907 -0.0539 -0.5269  1.0602
 2613SOL    EPW10898   0.669   2.359   2.907 -0.1319 -0.6199  0.3279
 2614SOL      O10899   4.997   3.697   1.891 -0.0781 -0.1424  0.0276
 2614SOL     H110900   5.053   3.756   1.941  1.7679 -1.1033 -0.8047
 2614SOL     H210901   4.973   3.628   1.952  0.7947 -0.4362  0.0495
 2614SOL    EPW10902   5.001   3.696   1.902  0.2119 -0.2762 -0.0589
 2615SOL      O10903   1.530   4.167   0.123 -0.2646  0.3550 -0.2659
 2615SOL     H110904   1.437   4.165   0.143 -0.2792  0.1909 -0.3534
 2615SOL     H210905   1.544   4.094   0.063  0.1780 -0.5259  0.8646
 2615SOL    EPW10906   1.522   4.159   0.119 -0.2189  0.2435 -0.1546
 2616SOL      O10907   3.677   1.969   1.869  0.0552 -0.1314  0.1229
 2616SOL     H110908   3.602   1.910   1.859 -0.8901  1.2459 -1.3679
 2616SOL     H210909   3.657   2.020   1.948 -1.6714  1.6339 -1.3590
 2616SOL    EPW10910   3.667   1.968   1.876 -0.2299  0.2038 -0.1943
 2617SOL      O10911   3.318   5.008   3.994 -0.1092 -0.6605 -0.5091
 2617SOL     H110912   3.368   5.064   3.936 -0.8022  2.1926  1.3968
 2617SOL     H210913   3.282   5.068   4.060  1.7416 -3.6710  3.7422
 2617SOL    EPW10914   3.319   5.020   3.995  0.0143 -0.6773  0.1477
 2618SOL      O10915   3.464   2.243   1.633  0.2928  0.2701  0.1495
 2618SOL     H110916   3.537   2.224   1.691 -0.9374  2.0953  2.4543
 2618SOL     H210917   3.387   2.214   1.680 -0.5814 -1.4084 -2.1412
 2618SOL    EPW10918   3.464   2.238   1.644  0.0683  0.2858  0.1510
 2619SOL      O10919   0.401   0.415   2.546 -0.3843 -0.3176  0.2240
 2619SOL     H110920   0.392   0.420   2.642  0.8367 -1.5373  0.4404
 2619SOL     H210921   0.495   0.414   2.531 -0.4731  2.7967 -1.2291
 2619SOL    EPW10922   0.410   0.415   2.555 -0.2636 -0.1155  0.0920
 2620SOL      O10923   1.146   2.788   3.255  0.3927 -0.6469  0.0594
 2620SOL     H110924   1.210   2.753   3.193  0.2685 -1.3942  0.3462
 2620SOL     H210925   1.168   2.746   3.338  0.3846  0.1375  0.4687
 2620SOL    EPW10926   1.155   2.780   3.257  0.3786 -0.6430  0.1336
 2621SOL      O10927   4.775   2.777   0.066 -0.2977 -0.2490 -0.8493
 2621SOL     H110928   4.683   2.801   0.073  0.3621  2.3414  0.3301
 2621SOL     H210929   4.795   2.735   0.150 -0.2893 -0.3356 -0.8950
 2621SOL    EPW10930   4.767   2.775   0.076 -0.2264  0.0181 -0.7283
 2622SOL      O10931   5.414   0.935   2.925  0.2825 -0.0219  0.1491
 2622SOL     H110932   5.402   0.952   2.831 -1.0932 -0.7935  0.1678
 2622SOL     H210933   5.508   0.915   2.933  0.3594 -0.2874 -1.1253
 2622SOL    EPW10934   5.423   0.935   2.916  0.1440 -0.1325  0.0152
 2623SOL      O10935   3.905   1.150   1.642  0.4622 -0.1613 -0.1002
 2623SOL     H110936   3.991   1.112   1.662  0.2557 -0.3899  0.3675
 2623SOL     H210937   3.925   1.227   1.588  0.8508 -1.1358 -1.3869
 2623SOL    EPW10938   3.917   1.154   1.638  0.4816 -0.2897 -0.1876
 2624SOL      O10939   4.885   2.859   2.526  0.5884 -0.3492  0.4320
 2624SOL     H110940   4.891   2.766   2.548  0.7944 -0.9729 -1.9693
 2624SOL     H210941   4.810   2.864   2.466 -0.0058  1.2099  1.2530
 2624SOL    EPW10942   4.877   2.849   2.522  0.5470 -0.2494  0.2634
 2625SOL      O10943   0.069   5.763   2.011  0.2845  0.5145  0.0211
 2625SOL     H110944   0.010   5.744   1.938 -0.7609  1.0041  0.7348
 2625SOL     H210945   0.013   5.768   2.088  1.1324  1.8068  0.5899
 2625SOL    EPW10946   0.057   5.761   2.011  0.2634  0.7046  0.1579
 2626SOL      O10947   3.641   1.878   2.735 -0.4871 -0.5322  0.2498
 2626SOL     H110948   3.574   1.942   2.712  1.2557  0.9166 -1.0851
 2626SOL     H210949   3.647   1.883   2.830 -1.7429 -0.1973  0.3386
 2626SOL    EPW10950   3.634   1.885   2.743 -0.4351 -0.3419  0.1169
 2627SOL      O10951   2.962   4.390   1.058  0.3324  0.1153 -0.7511
 2627SOL     H110952   2.902   4.380   0.983 -0.7223  0.7747 -0.0263
 2627SOL     H210953   3.049   4.396   1.018 -0.2890  1.5002 -2.0210
 2627SOL    EPW10954   2.964   4.390   1.045  0.1536  0.3334 -0.8093
 2628SOL      O10955   4.403   5.144   2.309  0.0267  0.1969 -0.0656
 2628SOL     H110956   4.460   5.187   2.373 -0.6961  1.2218 -0.0925
 2628SOL     H210957   4.344   5.090   2.362 -0.2871  0.7047  0.1092
 2628SOL    EPW10958   4.403   5.142   2.322 -0.0839  0.3604 -0.0499
 2629SOL      O10959   0.259   0.246   0.568  0.0826 -0.5735 -0.1317
 2629SOL     H110960   0.314   0.174   0.600  0.8252 -0.6954 -1.6155
 2629SOL     H210961   0.287   0.322   0.618 -0.7117 -1.2941  1.4644
 2629SOL    EPW10962   0.268   0.246   0.577  0.0771 -0.6634 -0.1197
 2630SOL      O10963   3.349   1.924   2.756  0.7050 -0.3750 -0.1427
 2630SOL     H110964   3.346   1.894   2.665  0.2879  0.2113 -0.3240
 2630SOL     H210965   3.264   1.964   2.771  2.2918  3.8515 -0.9889
 2630SOL    EPW10966   3.340   1.925   2.748  0.8298  0.1384 -0.2523
 2631SOL      O10967   3.180   3.829   3.415 -0.7188 -0.1632 -0.2264
 2631SOL     H110968   3.168   3.751   3.469  0.5068  0.7131  1.4395
 2631SOL     H210969   3.168   3.902   3.476  3.7392  0.8813 -0.2221
 2631SOL    EPW10970   3.178   3.828   3.428 -0.1125  0.0417 -0.0482
 2632SOL      O10971   2.587   1.210   2.010  0.1328  0.4251  0.1476
 2632SOL     H110972   2.505   1.259   2.005  0.2093  0.4996 -0.5541
 2632SOL     H210973   2.567   1.126   1.969  0.4614  0.5300 -0.2332
 2632SOL    EPW10974   2.576   1.206   2.005  0.1760  0.4443  0.0321
 2633SOL      O10975   1.298   2.145   3.280  0.5440  0.2450 -0.6674
 2633SOL     H110976   1.379   2.170   3.236  1.6837 -1.7851  0.1302
 2633SOL     H210977   1.299   2.195   3.362  1.1385  0.0510 -0.5484
 2633SOL    EPW10978   1.307   2.153   3.284  0.7290  0.0078 -0.5696
 2634SOL      O10979   5.662   5.715   1.912 -0.0179 -0.5978 -0.4482
 2634SOL     H110980   5.640   5.761   1.831 -1.7571 -2.2823 -1.0157
 2634SOL     H210981   5.617   5.764   1.980  0.7430  0.3228 -0.5803
 2634SOL    EPW10982   5.655   5.725   1.910 -0.1222 -0.6793 -0.5228
 2635SOL      O10983   2.675   5.559   0.173 -0.2977  0.5901 -0.6432
 2635SOL     H110984   2.580   5.565   0.165 -0.4394  0.3693  0.6737
 2635SOL     H210985   2.704   5.649   0.185 -0.3747  0.6255 -0.7214
 2635SOL    EPW10986   2.668   5.569   0.174 -0.3210  0.5703 -0.5110
 2636SOL      O10987   0.509   2.382   0.745 -0.7834 -0.1288 -0.1580
 2636SOL     H110988   0.487   2.341   0.661  1.0258  0.0872 -0.7752
 2636SOL     H210989   0.599   2.355   0.762 -0.5166  1.2783  0.8469
 2636SOL    EPW10990   0.516   2.375   0.738 -0.5619  0.0444 -0.1166
 2637SOL      O10991   3.846   0.702   3.466  0.6024  0.0726  0.0556
 2637SOL     H110992   3.841   0.613   3.430  0.7437 -0.3204  0.9634
 2637SOL     H210993   3.940   0.721   3.470  0.5658  0.3374 -0.2992
 2637SOL    EPW10994   3.856   0.694   3.463  0.6136  0.0589  0.1146
 2638SOL      O10995   1.071   5.400   2.529 -0.2217 -0.4182  0.3277
 2638SOL     H110996   1.061   5.390   2.624 -0.1552 -0.2203  0.3556
 2638SOL     H210997   0.998   5.456   2.503 -0.7781 -1.2195  0.1249
 2638SOL    EPW10998   1.062   5.405   2.536 -0.2739 -0.4826  0.3090
 2639SOL      O10999   3.950   5.015   3.975  0.2760  0.0274  0.0092
 2639SOL     H111000   3.920   4.933   4.014  1.1525 -0.9951 -1.3368
 2639SOL     H211001   3.924   5.007   3.883 -0.3175  1.6329  0.0184
 2639SOL    EPW11002   3.944   5.005   3.969  0.3062  0.0896 -0.1334
 2640SOL      O11003   2.324   4.496   3.503 -0.8753  0.0059 -0.2574
 2640SOL     H111004   2.298   4.404   3.493  1.0006 -0.3715 -2.5388
 2640SOL     H211005   2.293   4.538   3.422 -0.5157  1.0672  0.1438
 2640SOL    EPW11006   2.318   4.490   3.493 -0.6368  0.0788 -0.4580
 2641SOL      O11007   4.481   1.582   2.900 -0.3623  1.0500 -0.2207
 2641SOL     H111008   4.527   1.579   2.983 -1.2850  1.3889  0.3154
 2641SOL     H211009   4.478   1.491   2.870 -0.6330  0.8360  0.4517
 2641SOL    EPW11010   4.486   1.572   2.905 -0.4896  1.0633 -0.0917
 2642SOL      O11011   2.445   3.460   3.137 -0.3253 -0.7033 -0.3438
 2642SOL     H111012   2.417   3.542   3.096 -0.4776 -0.7036 -0.2398
 2642SOL     H211013   2.367   3.427   3.181  0.0033 -0.3456  0.5342
 2642SOL    EPW11014   2.434   3.465   3.137 -0.3065 -0.6652 -0.2390
 2643SOL      O11015   4.515   3.759   1.454 -0.0983  0.4165  0.4062
 2643SOL     H111016   4.483   3.676   1.420 -0.3035  0.6159  0.1028
 2643SOL     H211017   4.501   3.821   1.382 -0.5217  0.8360  0.8383
 2643SOL    EPW11018   4.510   3.757   1.443 -0.1654  0.4825  0.4199
 2644SOL      O11019   2.356   2.621   3.391 -0.9198 -0.3918 -0.1621
 2644SOL     H111020   2.282   2.627   3.330 -0.5762  1.5800 -0.4403
 2644SOL     H211021   2.362   2.708   3.430 -0.4661 -1.3014  1.9496
 2644SOL    EPW11022   2.349   2.631   3.388 -0.8347 -0.2785  0.0335
 2645SOL      O11023   1.886   0.456   4.082  0.5981 -0.6817 -0.1790
 2645SOL     H111024   1.857   0.424   4.167  1.7884 -1.2472  0.0416
 2645SOL     H211025   1.868   0.384   4.021  0.0329 -0.3985 -0.3474
 2645SOL    EPW11026   1.881   0.445   4.084  0.6648 -0.7119 -0.1734
 2646SOL      O11027   4.828   3.642   3.329  0.3100  0.3908 -0.3078
 2646SOL     H111028   4.908   3.628   3.379  0.2916 -1.1773 -0.6541
 2646SOL     H211029   4.806   3.734   3.342  1.2627  0.4329  1.1193
 2646SOL    EPW11030   4.834   3.651   3.335  0.4097  0.2280 -0.1925
 2647SOL      O11031   2.661   4.912   1.670  0.5764  0.6146 -0.5150
 2647SOL     H111032   2.640   4.849   1.601  0.3988  1.4755 -1.2642
 2647SOL     H211033   2.600   4.890   1.741 -0.2757  0.6682 -1.2151
 2647SOL    EPW11034   2.652   4.903   1.670  0.4666  0.7122 -0.6696
 2648SOL      O11035   4.437   4.939   0.651  0.2573  0.1146  0.5800
 2648SOL     H111036   4.513   4.918   0.596 -0.2577  0.1068 -0.1471
 2648SOL     H211037   4.468   5.006   0.711 -0.0004  2.6650 -1.9091
 2648SOL    EPW11038   4.448   4.944   0.651  0.1749  0.3858  0.2369
 2649SOL      O11039   0.666   5.112   0.132  0.2829  0.2670 -0.4393
 2649SOL     H111040   0.718   5.109   0.052  1.1626 -0.3539  0.1356
 2649SOL     H211041   0.652   5.021   0.155 -0.8535  0.4279 -0.4332
 2649SOL    EPW11042   0.670   5.102   0.126  0.2555  0.2179 -0.3773
 2650SOL      O11043   0.316   1.087   1.219 -1.0206 -0.3305  0.0424
 2650SOL     H111044   0.319   1.019   1.152  2.5415 -1.3880  1.0989
 2650SOL     H211045   0.302   1.040   1.301  1.0910  0.1570  0.7379
 2650SOL    EPW11046   0.315   1.075   1.220 -0.4154 -0.3913  0.2293
 2651SOL      O11047   5.802   4.015   1.787  0.5383 -0.1205 -0.6350
 2651SOL     H111048   5.785   3.921   1.792  1.8259 -0.3378  0.1889
 2651SOL     H211049   5.788   4.037   1.695 -0.1724 -1.0325 -0.7582
 2651SOL    EPW11050   5.799   4.007   1.778  0.5998 -0.2410 -0.5602
 2652SOL      O11051   4.400   0.578   1.183  0.1252  0.5814  0.0376
 2652SOL     H111052   4.347   0.585   1.263 -1.3326  0.1944 -0.8493
 2652SOL     H211053   4.490   0.577   1.214 -0.4033  0.4656  1.6818
 2652SOL    EPW11054   4.404   0.578   1.195 -0.0867  0.5277  0.1184
 2653SOL      O11055   2.910   2.763   3.474 -0.0230  0.1534 -0.0276
 2653SOL     H111056   2.816   2.744   3.472 -0.7367  3.0528  0.3777
 2653SOL     H211057   2.921   2.831   3.407  1.7240  0.0928  0.1645
 2653SOL    EPW11058   2.901   2.769   3.466  0.0872  0.4562  0.0361
 2654SOL      O11059   1.469   3.688   3.824 -0.2743  0.3057 -0.6414
 2654SOL     H111060   1.483   3.780   3.803  2.3123 -0.3718 -2.5592
 2654SOL     H211061   1.521   3.641   3.758 -1.8158 -2.5505  0.0051
 2654SOL    EPW11062   1.476   3.693   3.814 -0.1628 -0.0713 -0.7770
 2655SOL      O11063   1.928   5.166   3.992 -0.4857  0.3492  0.6239
 2655SOL     H111064   1.985   5.202   4.060 -0.1044  0.0907  0.4516
 2655SOL     H211065   1.954   5.213   3.912 -1.3010  1.0293  0.7544
 2655SOL    EPW11066   1.937   5.174   3.990 -0.5320  0.3942  0.6194
 2656SOL      O11067   1.628   1.663   1.460  0.0024  0.1834 -0.3859
 2656SOL     H111068   1.592   1.626   1.379 -1.4977  0.5513  0.0980
 2656SOL     H211069   1.590   1.751   1.465  0.0123  0.1315  0.7729
 2656SOL    EPW11070   1.620   1.668   1.452 -0.1566  0.2171 -0.2107
 2657SOL      O11071   2.936   0.209   0.416 -0.0928 -0.4874  0.5853
 2657SOL     H111072   2.929   0.249   0.329  1.7026  0.3364  0.7806
 2657SOL     H211073   2.854   0.233   0.460  0.2635  1.7292  0.1684
 2657SOL    EPW11074   2.926   0.216   0.411  0.1367 -0.1631  0.5616
 2658SOL      O11075   1.093   2.306   0.860 -0.1508  0.2725 -0.4314
 2658SOL     H111076   1.124   2.354   0.783  1.9379  0.5575  0.5153
 2658SOL     H211077   1.143   2.225   0.858  0.7992  0.7822  1.2184
 2658SOL    EPW11078   1.102   2.303   0.851  0.1734  0.3572 -0.1544
 2659SOL      O11079   2.522   3.935   3.101 -0.0531  0.8135  0.1180
 2659SOL     H111080   2.582   3.931   3.176 -0.8821  1.5604  0.8561
 2659SOL     H211081   2.469   4.014   3.117 -1.1908  0.2122 -0.5194
 2659SOL    EPW11082   2.522   3.943   3.111 -0.2629  0.8291  0.1287
 2660SOL      O11083   2.325   1.018   1.656  0.0031 -0.0337  0.7021
 2660SOL     H111084   2.269   1.059   1.722 -0.0308  0.1380  0.5669
 2660SOL     H211085   2.407   0.999   1.702  0.2802  0.8340  0.5816
 2660SOL    EPW11086   2.328   1.020   1.668  0.0290  0.0772  0.6748
 2661SOL      O11087   0.109   0.782   3.991 -0.3316  0.1003  0.1867
 2661SOL     H111088   0.036   0.802   3.932 -0.2375 -0.5569 -0.1667
 2661SOL     H211089   0.186   0.820   3.948  0.0077 -1.7873 -0.9847
 2661SOL    EPW11090   0.109   0.788   3.980 -0.2854 -0.1711  0.0240
 2662SOL      O11091   2.672   0.240   2.688 -0.1950 -0.0397 -0.4461
 2662SOL     H111092   2.616   0.171   2.652  2.4303 -1.5829 -1.8979
 2662SOL     H211093   2.711   0.200   2.766 -0.8626  0.9199  0.4032
 2662SOL    EPW11094   2.671   0.228   2.692  0.0138 -0.1019 -0.5104
 2663SOL      O11095   3.496   5.671   0.196  0.0269  0.3380 -0.1404
 2663SOL     H111096   3.522   5.580   0.213  1.7871  0.7087 -0.5779
 2663SOL     H211097   3.445   5.666   0.115  1.1769 -0.1656 -0.8760
 2663SOL    EPW11098   3.494   5.660   0.189  0.3373  0.3238 -0.2655
 2664SOL      O11099   0.416   4.253   4.113 -0.1694 -0.2565 -0.0785
 2664SOL     H111100   0.335   4.221   4.074  0.2592 -0.6202 -0.6970
 2664SOL     H211101   0.485   4.201   4.071  0.4162  0.3609  0.0962
 2664SOL    EPW11102   0.415   4.244   4.104 -0.0612 -0.2294 -0.1259
 2665SOL      O11103   0.712   4.226   2.947  0.1130 -0.1393 -0.3321
 2665SOL     H111104   0.617   4.234   2.936 -0.2290 -2.0348  0.6472
 2665SOL     H211105   0.736   4.151   2.892  1.4764  1.6463 -2.3141
 2665SOL    EPW11106   0.705   4.219   2.940  0.2219 -0.1511 -0.4391
 2666SOL      O11107   2.879   5.714   1.370  0.1739  0.1804  0.0742
 2666SOL     H111108   2.930   5.680   1.443  1.6021  0.2660 -0.8536
 2666SOL     H211109   2.788   5.694   1.393  0.6797 -0.7665  1.3567
 2666SOL    EPW11110   2.875   5.708   1.380  0.3802  0.0885  0.1121
 2667SOL      O11111   0.984   1.707   1.170 -0.2464  0.0550  0.6839
 2667SOL     H111112   0.963   1.799   1.153 -0.2721  0.0406  0.6371
 2667SOL     H211113   0.925   1.681   1.241 -0.1254  0.1208  0.8088
 2667SOL    EPW11114   0.976   1.714   1.176 -0.2362  0.0605  0.6922
 2668SOL      O11115   1.494   0.466   0.621 -0.2700  0.2620 -0.4276
 2668SOL     H111116   1.415   0.462   0.567 -0.3839  1.2453 -0.3643
 2668SOL     H211117   1.565   0.437   0.563 -0.4991  0.6037 -0.8816
 2668SOL    EPW11118   1.493   0.463   0.609 -0.3066  0.4034 -0.4693
 2669SOL      O11119   1.802   1.277   0.287 -0.0829 -0.1017  0.0142
 2669SOL     H111120   1.875   1.309   0.339 -0.1271  0.6787 -0.3848
 2669SOL     H211121   1.793   1.185   0.311  1.1586 -0.2573 -0.0705
 2669SOL    EPW11122   1.809   1.270   0.295  0.0448 -0.0350 -0.0374
 2670SOL      O11123   2.120   3.700   3.716 -0.1316  0.2232  0.0353
 2670SOL     H111124   2.109   3.731   3.805 -2.3633  1.6605 -0.6596
 2670SOL     H211125   2.106   3.777   3.661 -1.2911 -1.0797 -1.6214
 2670SOL    EPW11126   2.117   3.712   3.719 -0.4933  0.2376 -0.2155
 2671SOL      O11127   0.365   2.612   0.026  0.2364 -0.2198 -0.1348
 2671SOL     H111128   0.357   2.581   0.117 -1.0005  0.5535  0.0444
 2671SOL     H211129   0.308   2.689   0.022  0.0892 -0.3821 -1.6349
 2671SOL    EPW11130   0.358   2.617   0.036  0.0888 -0.1546 -0.2757
 2672SOL      O11131   3.337   1.902   2.062  0.1359 -0.2713 -0.3002
 2672SOL     H111132   3.383   1.835   2.011 -0.7973 -1.7944  0.7597
 2672SOL     H211133   3.404   1.968   2.081  1.0232 -0.7430 -1.6027
 2672SOL    EPW11134   3.349   1.902   2.059  0.1310 -0.4841 -0.3260
 2673SOL      O11135   4.632   2.258   2.226 -0.0324  0.1202 -0.1139
 2673SOL     H111136   4.581   2.181   2.203  0.1042  0.4302 -1.5482
 2673SOL     H211137   4.628   2.314   2.148  0.0859  1.4515  0.7935
 2673SOL    EPW11138   4.626   2.256   2.215 -0.0052  0.2953 -0.1701
 2674SOL      O11139   0.748   3.954   2.512 -0.0694 -0.2287  0.4289
 2674SOL     H111140   0.688   3.881   2.502 -0.9312  0.3967  0.8554
 2674SOL     H211141   0.731   3.987   2.601 -0.2336  0.9326 -0.0088
 2674SOL    EPW11142   0.740   3.950   2.520 -0.1789 -0.0381  0.4277
 2675SOL      O11143   4.987   2.555   3.352 -0.2841  0.5431 -0.0514
 2675SOL     H111144   4.903   2.558   3.398 -0.2700 -0.3796  0.0418
 2675SOL     H211145   4.994   2.466   3.318 -0.2299  1.1484 -1.7451
 2675SOL    EPW11146   4.979   2.546   3.353 -0.2768  0.5092 -0.2221
 2676SOL      O11147   4.592   5.502   2.967  0.1405 -0.4612  0.2941
 2676SOL     H111148   4.638   5.431   2.923 -1.1227 -1.5293  0.6605
 2676SOL     H211149   4.504   5.500   2.931  0.1959  1.2703 -0.0635
 2676SOL    EPW11150   4.588   5.494   2.958  0.0117 -0.3904  0.2950
 2677SOL      O11151   0.346   4.947   2.365  0.3689  0.0492 -0.2267
 2677SOL     H111152   0.406   4.937   2.439 -1.2419 -0.7648  1.0216
 2677SOL     H211153   0.333   4.858   2.332  0.0402  0.2507 -0.6591
 2677SOL    EPW11154   0.351   4.937   2.369  0.1620 -0.0162 -0.1397
 2678SOL      O11155   1.011   5.234   2.290 -0.6026  0.3461 -0.2498
 2678SOL     H111156   0.986   5.275   2.373  0.7948  0.0729  0.3457
 2678SOL     H211157   0.929   5.200   2.254 -1.1928  0.1097  1.2338
 2678SOL    EPW11158   0.999   5.234   2.295 -0.5165  0.2917 -0.0280
 2679SOL      O11159   3.127   5.132   3.364  0.4454 -0.0463 -0.0387
 2679SOL     H111160   3.160   5.162   3.279  1.0284  1.6002  0.7257
 2679SOL     H211161   3.206   5.105   3.412  0.1761 -0.4254  0.1992
 2679SOL    EPW11162   3.139   5.132   3.360  0.4789  0.0889  0.0682
 2680SOL      O11163   1.300   1.615   0.487  0.0827 -0.4864 -0.0408
 2680SOL     H111164   1.394   1.632   0.493  0.0930 -0.6467  0.2269
 2680SOL     H211165   1.283   1.616   0.393  0.9357 -3.5933 -0.3434
 2680SOL    EPW11166   1.309   1.617   0.477  0.1748 -0.8349 -0.0446
 2681SOL      O11167   0.611   5.685   3.527  0.0704 -0.2874 -0.5765
 2681SOL     H111168   0.622   5.780   3.530 -1.7527 -0.0178 -0.7199
 2681SOL     H211169   0.697   5.651   3.506  0.3858  1.4797 -2.5570
 2681SOL    EPW11170   0.621   5.692   3.525 -0.0905 -0.0701 -0.8031
 2682SOL      O11171   0.461   0.461   0.220 -0.1579  0.0603  0.0772
 2682SOL     H111172   0.455   0.389   0.284  1.0447 -0.0792  0.0574
 2682SOL     H211173   0.431   0.422   0.138  0.2046 -0.3471  0.1301
 2682SOL    EPW11174   0.457   0.449   0.218  0.0090  0.0020  0.0807
 2683SOL      O11175   1.108   0.517   3.620  0.2995 -0.1403  0.0759
 2683SOL     H111176   1.053   0.447   3.584  2.0550 -0.4901 -2.1911
 2683SOL     H211177   1.197   0.485   3.607  1.0934  1.6171  0.9934
 2683SOL    EPW11178   1.112   0.506   3.615  0.5715  0.0099 -0.0681
 2684SOL      O11179   5.721   5.176   2.813  0.0987 -0.4631 -0.0349
 2684SOL     H111180   5.793   5.132   2.858  0.1705  1.6313  2.1420
 2684SOL     H211181   5.648   5.172   2.876 -0.7676  0.0344 -0.9752
 2684SOL    EPW11182   5.721   5.171   2.825  0.0139 -0.1866  0.0970
 2685SOL      O11183   1.166   3.584   2.771  0.0321  0.3392 -0.4555
 2685SOL     H111184   1.186   3.509   2.715 -0.1705  0.7524 -1.0972
 2685SOL     H211185   1.232   3.581   2.841  2.0128  1.3469 -2.1816
 2685SOL    EPW11186   1.175   3.576   2.773  0.2218  0.4908 -0.7081
 2686SOL      O11187   4.368   5.854   3.779  0.4232 -0.6791  0.1158
 2686SOL     H111188   4.438   5.911   3.809 -0.4129  0.4260  0.0294
 2686SOL     H211189   4.315   5.909   3.722 -0.6077 -1.4386  0.3118
 2686SOL    EPW11190   4.370   5.866   3.776  0.2240 -0.6423  0.1275
 2687SOL      O11191   2.085   3.935   3.574  0.6947 -0.5030 -0.4999
 2687SOL     H111192   2.018   4.000   3.555 -0.3282 -1.5398 -0.5275
 2687SOL     H211193   2.097   3.887   3.492  1.6402 -0.1873 -0.5598
 2687SOL    EPW11194   2.079   3.937   3.563  0.6864 -0.5799 -0.5093
 2688SOL      O11195   4.790   4.970   0.934  0.3923  0.0307 -0.3690
 2688SOL     H111196   4.794   4.963   1.029  0.1274 -2.0989 -0.4621
 2688SOL     H211197   4.856   5.035   0.912 -1.3051  2.5352  1.3976
 2688SOL    EPW11198   4.797   4.976   0.941  0.1830  0.0707 -0.1904
 2689SOL      O11199   4.149   1.823   3.608  0.2619 -0.1154  0.5996
 2689SOL     H111200   4.189   1.747   3.650 -0.2256 -1.0564 -0.6028
 2689SOL     H211201   4.100   1.787   3.534  1.0584  1.4917 -0.7740
 2689SOL    EPW11202   4.148   1.811   3.605  0.2949 -0.0443  0.3248
 2690SOL      O11203   0.549   0.350   1.283 -0.0605 -0.0819 -0.0487
 2690SOL     H111204   0.608   0.410   1.328 -0.6414  0.5573 -0.1339
 2690SOL     H211205   0.592   0.265   1.291  0.5768  0.2726  0.4111
 2690SOL    EPW11206   0.560   0.347   1.288 -0.0545  0.0241 -0.0087
 2691SOL      O11207   0.067   1.595   3.003 -0.3427 -0.1852 -0.1748
 2691SOL     H111208   0.130   1.627   2.939 -1.0812  3.2690  0.6499
 2691SOL     H211209   0.117   1.583   3.084 -0.2746 -0.0124 -0.1934
 2691SOL    EPW11210   0.079   1.597   3.005 -0.4142  0.2017 -0.0888
 2692SOL      O11211   1.742   5.662   1.191  0.2919 -0.2702 -0.3873
 2692SOL     H111212   1.665   5.704   1.229  0.1299  0.0595 -1.0563
 2692SOL     H211213   1.707   5.586   1.145  0.5821 -1.1300  0.7926
 2692SOL    EPW11214   1.730   5.659   1.190  0.3056 -0.3268 -0.3328
 2693SOL      O11215   4.151   5.343   3.212 -0.4932 -0.0594 -0.1556
 2693SOL     H111216   4.205   5.419   3.232 -0.2553 -0.4199  0.5775
 2693SOL     H211217   4.212   5.269   3.212 -0.7498 -0.2771 -0.7111
 2693SOL    EPW11218   4.163   5.343   3.214 -0.4952 -0.1211 -0.1367
 2694SOL      O11219   0.843   5.808   3.805 -0.8223  0.4497 -0.0879
 2694SOL     H111220   0.849   5.714   3.822 -1.4145  0.1981 -1.1686
 2694SOL     H211221   0.753   5.831   3.826 -0.6559  0.8012  0.2635
 2694SOL    EPW11222   0.834   5.801   3.809 -0.8677  0.4603 -0.1657
 2695SOL      O11223   1.557   3.904   3.643 -0.0636  0.0208  0.1377
 2695SOL     H111224   1.632   3.947   3.684 -1.2504  0.8548  1.5277
 2695SOL     H211225   1.482   3.955   3.671 -1.1834 -0.8334 -1.1672
 2695SOL    EPW11226   1.557   3.914   3.650 -0.3096  0.0186  0.1468
 2696SOL      O11227   3.170   4.226   2.634  0.4497 -0.2942 -0.2027
 2696SOL     H111228   3.103   4.276   2.588  0.7234 -1.2824 -1.7596
 2696SOL     H211229   3.168   4.139   2.593  2.5642 -0.3984 -0.2108
 2696SOL    EPW11230   3.163   4.222   2.625  0.7045 -0.4107 -0.3697
 2697SOL      O11231   3.424   4.299   2.494 -0.1890 -0.0488 -0.4478
 2697SOL     H111232   3.506   4.339   2.465 -0.5245  0.2728 -0.9908
 2697SOL     H211233   3.409   4.228   2.432  0.0787 -0.6130  0.1303
 2697SOL    EPW11234   3.431   4.296   2.484 -0.1962 -0.0747 -0.4441
 2698SOL      O11235   3.483   3.707   0.675 -0.2479 -0.0429  0.2017
 2698SOL     H111236   3.415   3.774   0.690 -0.5790  0.4879 -2.9270
 2698SOL     H211237   3.439   3.624   0.691 -0.5823  0.3743  1.6013
 2698SOL    EPW11238   3.471   3.706   0.678 -0.3189  0.0582  0.0173
 2699SOL      O11239   3.973   5.697   1.907  0.4023  0.2070 -0.0823
 2699SOL     H111240   3.893   5.728   1.950 -0.9401 -2.0208 -0.8092
 2699SOL     H211241   4.029   5.668   1.979 -0.8819 -1.3302  0.3652
 2699SOL    EPW11242   3.971   5.697   1.919  0.1221 -0.1946 -0.1121
 2700SOL      O11243   1.817   3.833   3.049 -0.3126  0.3458  0.2652
 2700SOL     H111244   1.755   3.876   3.108 -1.8418 -0.6231 -0.5684
 2700SOL     H211245   1.816   3.741   3.078 -0.5086  0.0142 -0.7705
 2700SOL    EPW11246   1.810   3.828   3.059 -0.4966  0.2071  0.0658
 2701SOL      O11247   2.103   0.323   3.282  0.3541  0.5834 -0.4614
 2701SOL     H111248   2.193   0.334   3.313  0.5118  1.8323 -1.2974
 2701SOL     H211249   2.112   0.303   3.189 -0.2210  0.0928 -0.4184
 2701SOL    EPW11250   2.113   0.322   3.275  0.3095  0.6643 -0.5460
 2702SOL      O11251   4.506   5.782   1.408  0.1798  0.0138 -0.2418
 2702SOL     H111252   4.569   5.720   1.446  0.2851 -1.2299 -2.3022
 2702SOL     H211253   4.421   5.753   1.443  0.5090  0.4225  0.9323
 2702SOL    EPW11254   4.503   5.772   1.416  0.2262 -0.0753 -0.3363
 2703SOL      O11255   1.843   5.796   1.591 -0.2964  0.6580  0.1596
 2703SOL     H111256   1.911   5.853   1.557 -1.0595  0.8968 -1.0232
 2703SOL     H211257   1.863   5.710   1.553  0.0529  0.4404  0.8199
 2703SOL    EPW11258   1.853   5.793   1.583 -0.3405  0.6602  0.1038
 2704SOL      O11259   3.898   2.155   2.081  0.1030 -0.1018  0.2786
 2704SOL     H111260   3.917   2.062   2.069 -1.9054 -0.8209  1.9980
 2704SOL     H211261   3.956   2.182   2.152  1.8000  0.4205 -1.2457
 2704SOL    EPW11262   3.906   2.148   2.087  0.0698 -0.1228  0.2994
 2705SOL      O11263   2.883   1.060   0.507  0.1400  0.5570  0.0630
 2705SOL     H111264   2.795   1.074   0.542  1.0504  1.1042  2.3519
 2705SOL     H211265   2.912   1.148   0.480  0.6813  0.7533  1.2089
 2705SOL    EPW11266   2.877   1.071   0.508  0.2948  0.6363  0.4294
 2706SOL      O11267   4.670   3.200   1.452  0.0115  0.4814 -0.5353
 2706SOL     H111268   4.690   3.171   1.541 -1.7119  1.8351  0.3400
 2706SOL     H211269   4.586   3.158   1.432  0.5955 -0.1633 -1.7245
 2706SOL    EPW11270   4.663   3.192   1.459 -0.1100  0.5571 -0.5687
 2707SOL      O11271   5.395   5.526   2.549 -0.5373  0.1552 -0.4232
 2707SOL     H111272   5.358   5.438   2.535 -0.0016  0.0394 -1.1722
 2707SOL     H211273   5.459   5.514   2.619 -0.6388 -0.0062 -0.3560
 2707SOL    EPW11274   5.398   5.515   2.555 -0.4910  0.1257 -0.4959
 2708SOL      O11275   3.166   4.640   3.398  0.5984 -0.2809  0.6245
 2708SOL     H111276   3.126   4.571   3.345 -0.4999 -1.4093  2.7903
 2708SOL     H211277   3.241   4.669   3.347 -1.8008  0.5851 -2.7720
 2708SOL    EPW11278   3.170   4.636   3.387  0.2253 -0.3089  0.4932
 2709SOL      O11279   3.435   4.138   2.738  0.2732 -0.1180  0.0201
 2709SOL     H111280   3.386   4.067   2.780  0.9217  0.2825  1.5156
 2709SOL     H211281   3.514   4.097   2.705 -1.8562 -1.2240 -4.3366
 2709SOL    EPW11282   3.438   4.126   2.739  0.1152 -0.1932 -0.2851
 2710SOL      O11283   2.063   0.995   3.108  0.1488  0.2850 -0.2800
 2710SOL     H111284   2.104   1.028   3.028  0.6210  0.7982  0.1695
 2710SOL     H211285   2.118   1.028   3.179  0.7464 -1.6012  0.1928
 2710SOL    EPW11286   2.073   1.002   3.107  0.2629  0.1386 -0.1816
 2711SOL      O11287   1.809   3.801   1.871  0.0833  0.3189 -0.1861
 2711SOL     H111288   1.859   3.720   1.862  0.8021  0.7355 -0.0064
 2711SOL     H211289   1.842   3.841   1.952 -0.1411  0.8743 -0.3639
 2711SOL    EPW11290   1.817   3.797   1.879  0.1360  0.4226 -0.1859
 2712SOL      O11291   0.373   4.455   3.845  0.1061 -0.1948 -0.1088
 2712SOL     H111292   0.439   4.505   3.894  0.8513 -0.8413 -0.4180
 2712SOL     H211293   0.296   4.512   3.843  0.7618  0.7217 -0.0194
 2712SOL    EPW11294   0.372   4.467   3.850  0.2555 -0.1660 -0.1322
 2713SOL      O11295   5.231   2.718   2.667 -0.6400  0.2445  0.1400
 2713SOL     H111296   5.219   2.774   2.590 -0.4644 -0.1030 -0.1397
 2713SOL     H211297   5.142   2.689   2.689 -0.6160 -0.2085 -0.3470
 2713SOL    EPW11298   5.220   2.721   2.661 -0.6187  0.1591  0.0582
 2714SOL      O11299   5.573   2.382   3.700 -0.1886 -0.1715  0.0646
 2714SOL     H111300   5.660   2.414   3.674  0.0106 -0.1700  0.7218
 2714SOL     H211301   5.556   2.424   3.784 -0.4135 -0.9267  0.4061
 2714SOL    EPW11302   5.580   2.390   3.706 -0.1913 -0.2519  0.1711
 2715SOL      O11303   5.714   4.064   1.505  0.2276 -0.0219 -0.1346
 2715SOL     H111304   5.645   4.005   1.475 -0.0417  0.1599  0.1250
 2715SOL     H211305   5.668   4.145   1.526  0.6037  0.3039 -0.5547
 2715SOL    EPW11306   5.702   4.066   1.504  0.2390  0.0322 -0.1517
 2716SOL      O11307   2.625   1.680   2.872 -0.7914  0.2189  0.5569
 2716SOL     H111308   2.536   1.645   2.875 -1.6403  2.2104  0.4780
 2716SOL     H211309   2.632   1.734   2.951  0.3105  0.1762  0.5057
 2716SOL    EPW11310   2.617   1.682   2.881 -0.7644  0.4268  0.5430
 2717SOL      O11311   5.423   3.266   1.987 -0.4829  0.6759 -0.4968
 2717SOL     H111312   5.424   3.236   1.896  2.4703 -1.8060  0.1785
 2717SOL     H211313   5.366   3.204   2.032 -1.6286  1.6705 -0.5182
 2717SOL    EPW11314   5.417   3.256   1.982 -0.2901  0.5172 -0.4270
 2718SOL      O11315   3.181   4.359   3.969  0.0481 -0.2213  0.7112
 2718SOL     H111316   3.095   4.399   3.978  0.1703  0.6030 -1.3737
 2718SOL     H211317   3.178   4.283   4.027 -1.5790  0.5637  1.7219
 2718SOL    EPW11318   3.172   4.355   3.976 -0.1124 -0.0496  0.5966
 2719SOL      O11319   0.220   0.673   0.283  0.3015 -1.0631  0.5066
 2719SOL     H111320   0.296   0.625   0.250  1.0010 -0.2968  0.9388
 2719SOL     H211321   0.203   0.740   0.217  0.0196 -1.2109  0.4279
 2719SOL    EPW11322   0.226   0.675   0.272  0.3460 -0.9971  0.5443
 2720SOL      O11323   5.341   3.486   0.604 -0.0264 -0.0132 -0.7452
 2720SOL     H111324   5.391   3.407   0.625 -2.0037 -2.0258 -3.0001
 2720SOL     H211325   5.401   3.538   0.551  0.6356 -0.9834 -0.9849
 2720SOL    EPW11326   5.353   3.483   0.601 -0.1667 -0.3314 -1.0113
 2721SOL      O11327   1.281   5.691   1.928 -0.5947 -0.2725 -0.5481
 2721SOL     H111328   1.213   5.664   1.866 -0.5104  0.6953 -1.0788
 2721SOL     H211329   1.280   5.787   1.924 -2.2833  0.0018  2.7794
 2721SOL    EPW11330   1.273   5.698   1.921 -0.7658 -0.1400 -0.2497
 2722SOL      O11331   1.155   1.011   2.551  0.0597 -0.5511 -0.0149
 2722SOL     H111332   1.077   0.994   2.499 -0.5736  1.0436  0.3509
 2722SOL     H211333   1.135   0.973   2.637 -1.4576  2.0126  0.8849
 2722SOL    EPW11334   1.145   1.005   2.555 -0.1697 -0.1075  0.1201
 2723SOL      O11335   0.810   3.984   3.846  0.1244 -0.1308  0.1857
 2723SOL     H111336   0.819   3.962   3.939  1.2111 -0.4344  0.0257
 2723SOL     H211337   0.804   3.900   3.802 -1.8100  0.0334  0.0878
 2723SOL    EPW11338   0.811   3.973   3.852  0.0340 -0.1457  0.1582
 2724SOL      O11339   3.535   4.407   2.741 -0.1419  0.1348  0.1712
 2724SOL     H111340   3.608   4.362   2.783  0.3703  0.9686  0.2119
 2724SOL     H211341   3.576   4.479   2.693 -0.6825 -0.9413 -2.0127
 2724SOL    EPW11342   3.547   4.410   2.741 -0.1449  0.1089 -0.0575
 2725SOL      O11343   0.803   2.486   1.437 -0.7071  0.2546 -0.8219
 2725SOL     H111344   0.891   2.502   1.401 -0.3739 -0.5918 -0.3924
 2725SOL     H211345   0.783   2.396   1.412 -0.3861 -0.4388  1.2661
 2725SOL    EPW11346   0.810   2.478   1.430 -0.6373  0.0903 -0.5533
 2726SOL      O11347   0.051   0.610   3.678 -0.1403  0.6425  0.1262
 2726SOL     H111348   0.031   0.685   3.735  0.4852 -0.1768  1.4851
 2726SOL     H211349  -0.002   0.539   3.713  0.8196 -0.0722  0.1651
 2726SOL    EPW11350   0.043   0.610   3.688  0.0288  0.4789  0.2753
 2727SOL      O11351   3.415   1.481   1.089 -0.5333  0.1238 -0.1700
 2727SOL     H111352   3.504   1.490   1.123 -1.1811  0.7815  1.4778
 2727SOL     H211353   3.415   1.532   1.008  0.7212 -0.3628 -0.4994
 2727SOL    EPW11354   3.425   1.488   1.084 -0.4686  0.1421 -0.0293
 2728SOL      O11355   2.166   3.852   2.969  0.2343  0.1453 -0.4615
 2728SOL     H111356   2.219   3.876   2.893  0.0419  0.2538 -0.5619
 2728SOL     H211357   2.105   3.785   2.937  0.2239  0.1144 -0.3782
 2728SOL    EPW11358   2.165   3.848   2.957  0.2127  0.1536 -0.4633
 2729SOL      O11359   0.326   0.645   2.438  0.5694  0.3344  0.7821
 2729SOL     H111360   0.406   0.668   2.389  0.7535  0.9271  1.3438
 2729SOL     H211361   0.346   0.560   2.478  0.0783 -0.6105 -0.8914
 2729SOL    EPW11362   0.337   0.638   2.437  0.5367  0.2968  0.6635
 2730SOL      O11363   0.222   3.253   0.886 -0.3986  0.1067 -0.1452
 2730SOL     H111364   0.153   3.277   0.949 -1.1571 -0.5905 -0.7021
 2730SOL     H211365   0.184   3.272   0.801 -0.0365 -0.6183 -0.4737
 2730SOL    EPW11366   0.210   3.258   0.884 -0.4409 -0.0450 -0.2397
 2731SOL      O11367   1.394   5.274   0.477 -0.4327  0.1516 -0.3799
 2731SOL     H111368   1.422   5.362   0.454 -0.5144  0.0856 -0.7390
 2731SOL     H211369   1.303   5.269   0.448 -0.5629  0.0945  0.0387
 2731SOL    EPW11370   1.387   5.283   0.471 -0.4553  0.1385 -0.3735
 2732SOL      O11371   0.328   1.523   2.546  0.3410 -0.0834  0.1678
 2732SOL     H111372   0.294   1.435   2.564  0.6926 -0.3717 -0.5416
 2732SOL     H211373   0.329   1.529   2.450  1.3885  0.2723  0.1931
 2732SOL    EPW11374   0.324   1.514   2.537  0.4903 -0.0762  0.0948
 2733SOL      O11375   4.384   4.205   0.245 -0.3686  0.4402 -0.0858
 2733SOL     H111376   4.319   4.199   0.315 -0.1430 -0.1208  0.0833
 2733SOL     H211377   4.339   4.250   0.174 -1.1778 -0.5984 -0.2448
 2733SOL    EPW11378   4.372   4.209   0.245 -0.4309  0.2696 -0.0847
 2734SOL      O11379   0.713   2.057   2.790 -0.6594  0.0885 -0.3115
 2734SOL     H111380   0.710   2.134   2.733  0.1201  0.0457 -0.4279
 2734SOL     H211381   0.793   2.012   2.764  0.4478  0.7644  1.7088
 2734SOL    EPW11382   0.721   2.060   2.781 -0.4581  0.1561 -0.1084
 2735SOL      O11383   2.858   5.077   2.070  0.1293 -0.1136  0.4183
 2735SOL     H111384   2.788   5.113   2.016  0.8127  1.6686  0.6466
 2735SOL     H211385   2.926   5.051   2.008  0.5881  1.2049  0.3369
 2735SOL    EPW11386   2.858   5.078   2.058  0.2511  0.2172  0.4340
 2736SOL      O11387   4.626   5.147   3.623  0.2295  0.3670 -0.1885
 2736SOL     H111388   4.632   5.079   3.691 -0.8887  0.2649 -0.1641
 2736SOL     H211389   4.716   5.167   3.601  0.5920 -0.7463  0.1969
 2736SOL    EPW11390   4.636   5.141   3.628  0.1489  0.2373 -0.1448
 2737SOL      O11391   0.986   2.373   1.107  0.2015 -0.3432 -0.4690
 2737SOL     H111392   1.032   2.357   1.025  0.9651 -4.4937  0.5519
 2737SOL     H211393   0.897   2.343   1.091  0.2776 -0.9064  0.1204
 2737SOL    EPW11394   0.981   2.368   1.097  0.2910 -0.8461 -0.2972
 2738SOL      O11395   1.522   3.317   0.982  0.1421  0.0493  0.4869
 2738SOL     H111396   1.519   3.268   0.899 -0.6522 -1.2686  1.2528
 2738SOL     H211397   1.536   3.250   1.049 -0.7445  0.8963  1.5617
 2738SOL    EPW11398   1.523   3.304   0.980 -0.0372 -0.0009  0.6833
 2739SOL      O11399   5.258   2.511   3.933  0.1107 -0.0180 -0.8117
 2739SOL     H111400   5.353   2.510   3.936  0.1671  2.3007 -0.4729
 2739SOL     H211401   5.236   2.558   3.852 -0.7354  0.1302 -0.5095
 2739SOL    EPW11402   5.266   2.516   3.925  0.0264  0.2451 -0.7434
 2740SOL      O11403   1.530   4.357   1.926  0.3054  0.0888  0.2810
 2740SOL     H111404   1.565   4.446   1.922 -2.4430  1.2724 -0.2038
 2740SOL     H211405   1.453   4.360   1.869  0.4234 -2.7790 -0.1556
 2740SOL    EPW11406   1.525   4.367   1.919  0.0248 -0.0909  0.1827
 2741SOL      O11407   2.968   0.211   2.609 -0.5208  0.1537 -0.2456
 2741SOL     H111408   3.060   0.188   2.598 -0.5244  0.3998 -0.8656
 2741SOL     H211409   2.921   0.128   2.600 -0.3792  0.0685 -0.1943
 2741SOL    EPW11410   2.973   0.200   2.607 -0.5061  0.1708 -0.3063
 2742SOL      O11411   2.147   3.355   3.013  0.7992 -0.5039 -0.1919
 2742SOL     H111412   2.172   3.444   2.990 -0.4943  0.1224  0.6641
 2742SOL     H211413   2.113   3.317   2.932  0.7589  0.0025 -0.4138
 2742SOL    EPW11414   2.146   3.361   3.002  0.6569 -0.3831 -0.1243
 2743SOL      O11415   4.387   0.090   0.856  0.5987 -0.1489 -0.7259
 2743SOL     H111416   4.305   0.111   0.810  0.2486  0.7914  0.2937
 2743SOL     H211417   4.363   0.089   0.948  1.8991  0.9966 -0.3370
 2743SOL    EPW11418   4.375   0.092   0.861  0.7001  0.0736 -0.5756
 2744SOL      O11419   4.791   2.292   2.542  0.3954 -0.1788 -0.1987
 2744SOL     H111420   4.868   2.302   2.598  0.5808 -0.4611 -0.3978
 2744SOL     H211421   4.828   2.266   2.457  0.1375  0.4347 -0.5041
 2744SOL    EPW11422   4.803   2.291   2.539  0.3877 -0.1434 -0.2525
 2745SOL      O11423   2.452   0.965   1.247  0.3070 -0.0522 -0.1492
 2745SOL     H111424   2.419   0.878   1.269 -0.4160  0.4747  0.9277
 2745SOL     H211425   2.396   1.025   1.297  1.9471  0.9474  0.5540
 2745SOL    EPW11426   2.442   0.962   1.255  0.4048  0.1107  0.0407
 2746SOL      O11427   3.742   0.434   0.092 -0.3358 -0.6837 -0.1839
 2746SOL     H111428   3.795   0.506   0.060  0.9545 -1.0787  0.9643
 2746SOL     H211429   3.711   0.389   0.013  0.1147  0.2082 -0.8775
 2746SOL    EPW11430   3.744   0.436   0.080 -0.1501 -0.6307 -0.1354
 2747SOL      O11431   3.468   2.752   0.037 -0.0223 -0.0041  0.0788
 2747SOL     H111432   3.556   2.714   0.041 -0.0630  0.0223  1.4582
 2747SOL     H211433   3.482   2.845   0.049 -0.0834  0.2533 -1.6194
 2747SOL    EPW11434   3.479   2.758   0.038 -0.0331  0.0262  0.0448
 2748SOL      O11435   0.032   2.994   0.011  0.2552  0.4332  0.0854
 2748SOL     H111436   0.019   2.984   0.105  0.5843  0.7763  0.1702
 2748SOL     H211437  -0.034   2.937  -0.028  1.4231 -1.3521  0.5395
 2748SOL    EPW11438   0.024   2.987   0.017  0.4149  0.2793  0.1429
 2749SOL      O11439   3.243   1.667   3.478 -0.0049  0.6677  0.3297
 2749SOL     H111440   3.288   1.713   3.548 -0.9621 -2.0022  2.8837
 2749SOL     H211441   3.312   1.615   3.436  0.0671 -0.2718  1.5477
 2749SOL    EPW11442   3.255   1.667   3.481 -0.0994  0.2827  0.7321
 2750SOL      O11443   3.908   0.532   0.572 -0.2536  0.9210 -0.8589
 2750SOL     H111444   3.884   0.481   0.494  0.1502  1.9992 -1.7271
 2750SOL     H211445   3.832   0.589   0.587 -0.7795 -0.0408  0.2161
 2750SOL    EPW11446   3.897   0.533   0.565 -0.2666  0.9334 -0.8369
 2751SOL      O11447   3.272   4.354   2.868 -0.1405 -0.2885  0.3969
 2751SOL     H111448   3.209   4.293   2.905 -0.1344 -0.3216  0.3523
 2751SOL     H211449   3.314   4.394   2.944 -1.6350  1.2292  0.4905
 2751SOL    EPW11450   3.270   4.352   2.880 -0.2993 -0.1301  0.4021
 2752SOL      O11451   3.883   3.276   3.304 -0.3296 -0.7269  0.7744
 2752SOL     H111452   3.901   3.295   3.396 -0.0908  1.1441  0.3756
 2752SOL     H211453   3.787   3.277   3.298 -0.3355 -0.0250  0.8653
 2752SOL    EPW11454   3.875   3.278   3.313 -0.3047 -0.4524  0.7416
 2753SOL      O11455   4.053   2.708   1.679 -0.3004 -0.0302  0.0483
 2753SOL     H111456   4.079   2.631   1.730 -1.1138  0.7576  1.7037
 2753SOL     H211457   4.118   2.712   1.608  0.5997 -1.4092  0.7503
 2753SOL    EPW11458   4.063   2.700   1.677 -0.2911 -0.0933  0.2998
 2754SOL      O11459   1.228   0.206   2.123 -0.0668 -0.0371  0.0757
 2754SOL     H111460   1.240   0.301   2.128 -3.3688  0.4814  0.7737
 2754SOL     H211461   1.253   0.183   2.034  1.5352  1.3230  0.1343
 2754SOL    EPW11462   1.232   0.214   2.114 -0.2481  0.1633  0.1564
 2755SOL      O11463   3.093   5.703   2.916  0.4744  0.0336  0.0450
 2755SOL     H111464   3.169   5.655   2.948  0.2447 -1.0960 -1.0065
 2755SOL     H211465   3.045   5.727   2.995 -0.1823 -2.7982  0.6079
 2755SOL    EPW11466   3.096   5.701   2.928  0.3798 -0.3890 -0.0071
 2756SOL      O11467   1.413   4.231   3.509 -0.2197 -0.0752  0.0148
 2756SOL     H111468   1.354   4.169   3.467 -0.7634 -0.4967  1.3608
 2756SOL     H211469   1.389   4.229   3.602  2.4178 -0.8844  0.7641
 2756SOL    EPW11470   1.404   4.224   3.514  0.0037 -0.2065  0.2383
 2757SOL      O11471   3.268   4.493   2.623 -0.5069 -0.5814  0.2149
 2757SOL     H111472   3.245   4.559   2.689 -4.2734 -1.5239  0.0404
 2757SOL     H211473   3.305   4.543   2.551 -1.3734  1.1083  0.8888
 2757SOL    EPW11474   3.270   4.505   2.623 -1.0011 -0.5017  0.2682
 2758SOL      O11475   5.264   2.337   0.388 -0.3452 -0.0469  0.2676
 2758SOL     H111476   5.264   2.407   0.323  1.3053  0.9496  1.2527
 2758SOL     H211477   5.177   2.342   0.429 -0.9402  0.1361 -0.9736
 2758SOL    EPW11478   5.255   2.345   0.386 -0.2326  0.0789  0.2402
 2759SOL      O11479   4.567   4.798   0.196  0.1743 -0.3647 -0.1637
 2759SOL     H111480   4.587   4.808   0.103  0.3850  3.9571  0.1814
 2759SOL     H211481   4.493   4.738   0.198 -0.9780  0.7810 -3.2767
 2759SOL    EPW11482   4.562   4.792   0.186  0.0738  0.2185 -0.4589
 2760SOL      O11483   5.319   4.532   1.909  0.6253  0.2921  0.0643
 2760SOL     H111484   5.316   4.575   1.995 -1.1338  1.1626 -0.3964
 2760SOL     H211485   5.301   4.440   1.928 -0.9289  0.6625  0.5496
 2760SOL    EPW11486   5.317   4.527   1.920  0.2718  0.4244  0.0669
 2761SOL      O11487   4.453   3.948   1.269  0.2335  0.5383 -0.0449
 2761SOL     H111488   4.518   3.896   1.222  0.4664  0.5782  0.2274
 2761SOL     H211489   4.374   3.894   1.270  1.0052 -0.6191  1.8315
 2761SOL    EPW11490   4.451   3.937   1.264  0.3407  0.4191  0.1843
 2762SOL      O11491   4.231   3.532   1.670  0.2351  0.1728 -0.1216
 2762SOL     H111492   4.149   3.485   1.686 -0.7713  2.8407  4.0850
 2762SOL     H211493   4.207   3.603   1.610 -0.6011  0.9512  1.0992
 2762SOL    EPW11494   4.220   3.534   1.665  0.0385  0.5404  0.4574
 2763SOL      O11495   4.876   5.493   0.696 -0.1617 -0.6640  0.5839
 2763SOL     H111496   4.891   5.584   0.670  2.2432 -1.1227  0.1261
 2763SOL     H211497   4.792   5.494   0.741 -0.8907  1.5194 -0.6960
 2763SOL    EPW11498   4.869   5.502   0.698  0.0171 -0.4800  0.3985
 2764SOL      O11499   2.891   0.456   2.728  0.1326 -0.2112  0.1511
 2764SOL     H111500   2.913   0.365   2.711  0.0287 -0.3068  0.5249
 2764SOL     H211501   2.859   0.489   2.644 -0.1147 -0.5999  0.0936
 2764SOL    EPW11502   2.890   0.450   2.717  0.0951 -0.2628  0.1848
 2765SOL      O11503   2.803   0.400   3.405 -0.1782 -0.2071  0.1941
 2765SOL     H111504   2.733   0.435   3.350  1.5374  1.9883 -0.7554
 2765SOL     H211505   2.779   0.424   3.494 -0.2517  1.3087 -0.2120
 2765SOL    EPW11506   2.793   0.406   3.409 -0.0031  0.1888  0.0495
 2766SOL      O11507   5.086   1.001   2.210 -0.2914 -0.0986 -0.4293
 2766SOL     H111508   4.992   1.016   2.210 -0.0949  1.2502 -0.7366
 2766SOL     H211509   5.124   1.086   2.232  0.8648 -0.5595 -0.5761
 2766SOL    EPW11510   5.080   1.012   2.212 -0.1471 -0.0039 -0.4777
 2767SOL      O11511   5.225   3.202   3.534  0.1560  0.2358  0.7605
 2767SOL     H111512   5.193   3.134   3.475  0.8699 -0.2800  0.9587
 2767SOL     H211513   5.180   3.184   3.617  0.3645 -0.0195  0.8209
 2767SOL    EPW11514   5.217   3.193   3.537  0.2544  0.1535  0.7880
 2768SOL      O11515   4.100   0.438   2.052 -0.0929  0.2216 -0.3496
 2768SOL     H111516   4.027   0.469   1.999 -0.4471  1.9900  1.0729
 2768SOL     H211517   4.166   0.507   2.044  0.7004 -0.4970 -0.1603
 2768SOL    EPW11518   4.099   0.448   2.045 -0.0461  0.3336 -0.1777
 2769SOL      O11519   3.824   5.492   0.915  0.0904 -0.5868  0.1823
 2769SOL     H111520   3.760   5.437   0.961 -1.1756  0.1132 -0.6886
 2769SOL     H211521   3.771   5.544   0.854  1.6111 -0.9883 -1.5857
 2769SOL    EPW11522   3.811   5.491   0.913  0.1176 -0.5550 -0.0992
 2770SOL      O11523   1.277   5.503   2.123  0.5468  0.2554  0.3812
 2770SOL     H111524   1.291   5.423   2.072 -0.4779  0.5990 -0.4822
 2770SOL     H211525   1.293   5.574   2.060 -0.0621  0.7055  0.7289
 2770SOL    EPW11526   1.280   5.502   2.111  0.3726  0.3400  0.3262
 2771SOL      O11527   5.620   5.501   2.709  0.9548 -0.0281  0.2241
 2771SOL     H111528   5.706   5.529   2.676  1.1381 -0.2033  0.5465
 2771SOL     H211529   5.616   5.538   2.797 -0.0069  1.4092 -0.3911
 2771SOL    EPW11530   5.629   5.508   2.715  0.8718  0.1066  0.1929
 2772SOL      O11531   1.094   3.397   0.742  0.1032 -0.4453 -0.4495
 2772SOL     H111532   1.162   3.418   0.806 -0.1752 -0.8801  0.0020
 2772SOL     H211533   1.134   3.414   0.657  0.8909 -1.0316 -0.2016
 2772SOL    EPW11534   1.105   3.401   0.740  0.1575 -0.5543 -0.3749
 2773SOL      O11535   0.063   1.257   1.669 -0.1572  0.1292  0.4505
 2773SOL     H111536  -0.007   1.241   1.605 -1.3731 -1.6475  2.0811
 2773SOL     H211537   0.024   1.316   1.733 -0.2856 -1.0213  1.4735
 2773SOL    EPW11538   0.051   1.261   1.669 -0.3006 -0.1831  0.7335
 2774SOL      O11539   1.499   3.140   0.521 -0.6273 -0.1108  0.4132
 2774SOL     H111540   1.592   3.135   0.501 -0.8201 -0.2246 -0.4750
 2774SOL     H211541   1.459   3.074   0.465 -1.2886  0.2036  0.5084
 2774SOL    EPW11542   1.505   3.133   0.513 -0.7184 -0.0894  0.3286
 2775SOL      O11543   4.034   4.794   3.563  0.1021  0.3597  0.2472
 2775SOL     H111544   4.011   4.808   3.471  0.7120  1.3229  0.2251
 2775SOL     H211545   3.975   4.724   3.592  0.6929 -0.7746 -1.1757
 2775SOL    EPW11546   4.025   4.788   3.557  0.2302  0.3415  0.0930
 2776SOL      O11547   2.648   1.966   3.756 -0.0105 -0.7862  0.0187
 2776SOL     H111548   2.715   1.934   3.696 -0.2236 -0.1067 -0.5945
 2776SOL     H211549   2.567   1.960   3.706  0.0447  1.5128 -0.4859
 2776SOL    EPW11550   2.647   1.962   3.744 -0.0273 -0.4685 -0.1005
 2777SOL      O11551   1.728   1.031   0.380 -0.6262 -0.4070 -0.0829
 2777SOL     H111552   1.720   0.954   0.324  0.6124 -0.9574  0.4710
 2777SOL     H211553   1.665   1.016   0.451  0.2214 -1.3298  0.4865
 2777SOL    EPW11554   1.720   1.021   0.382 -0.4037 -0.5641  0.0369
 2778SOL      O11555   4.162   0.899   2.458 -0.5544  0.5585 -0.1220
 2778SOL     H111556   4.237   0.901   2.399  0.1103  2.1314  0.7089
 2778SOL     H211557   4.097   0.954   2.414 -0.6128  0.5201 -0.0835
 2778SOL    EPW11558   4.163   0.905   2.447 -0.4897  0.7222 -0.0293
 2779SOL      O11559   0.879   0.043   4.114 -0.4762  0.0800 -0.6612
 2779SOL     H111560   0.878   0.138   4.122 -4.2198  0.1894 -0.6788
 2779SOL     H211561   0.898   0.027   4.021 -0.0286  0.7793 -0.7014
 2779SOL    EPW11562   0.881   0.051   4.105 -0.8278  0.1663 -0.6674
 2780SOL      O11563   1.713   1.186   3.295  0.0313  0.2718  0.0236
 2780SOL     H111564   1.753   1.217   3.214  0.5574  1.6643  0.7667
 2780SOL     H211565   1.762   1.108   3.318 -0.3494 -0.3386 -1.1555
 2780SOL    EPW11566   1.722   1.181   3.289  0.0468  0.3552 -0.0229
 2781SOL      O11567   2.482   2.448   4.064 -0.1157 -0.2713 -0.1720
 2781SOL     H111568   2.561   2.415   4.106 -0.6912 -0.5648  0.6927
 2781SOL     H211569   2.482   2.541   4.082 -0.0186 -0.2864 -0.0941
 2781SOL    EPW11570   2.491   2.454   4.070 -0.1667 -0.3042 -0.0715
 2782SOL      O11571   2.562   4.637   0.295  0.8224  0.2876  0.2711
 2782SOL     H111572   2.488   4.589   0.259 -0.4636  1.0651  1.7620
 2782SOL     H211573   2.639   4.589   0.264 -0.3079 -0.9001 -0.8127
 2782SOL    EPW11574   2.562   4.626   0.288  0.5646  0.2439  0.3146
 2783SOL      O11575   4.227   3.320   2.851  0.6886 -0.3055 -0.5395
 2783SOL     H111576   4.241   3.243   2.795  0.1302 -1.5376  0.9529
 2783SOL     H211577   4.310   3.332   2.897 -0.1355 -2.0408  1.5815
 2783SOL    EPW11578   4.237   3.313   2.850  0.5411 -0.6221 -0.1540
 2784SOL      O11579   2.851   5.844   0.382 -0.0576  0.5245  0.1775
 2784SOL     H111580   2.911   5.801   0.322  1.1672 -0.2385  1.8560
 2784SOL     H211581   2.894   5.926   0.405  0.5211 -0.1242  1.5573
 2784SOL    EPW11582   2.862   5.848   0.378  0.1348  0.3739  0.5037
 2785SOL      O11583   5.734   1.861   2.306  0.0472 -0.2364  0.4996
 2785SOL     H111584   5.814   1.887   2.260  0.1401 -1.5812 -0.1349
 2785SOL     H211585   5.695   1.944   2.334  1.1256  0.4933 -0.0836
 2785SOL    EPW11586   5.739   1.873   2.304  0.1721 -0.3020  0.3697
 2786SOL      O11587   1.680   2.782   3.645 -0.3571  0.4618 -0.2079
 2786SOL     H111588   1.644   2.861   3.603 -1.7090 -0.0510 -0.0448
 2786SOL     H211589   1.621   2.765   3.718  1.1306  0.4900  1.0579
 2786SOL    EPW11590   1.670   2.789   3.648 -0.3426  0.4101 -0.0554
 2787SOL      O11591   0.423   3.285   0.231  0.4996 -0.1290 -0.1423
 2787SOL     H111592   0.415   3.192   0.253  0.3778 -0.2429 -0.6652
 2787SOL     H211593   0.508   3.311   0.267  0.0125 -0.1400  1.0589
 2787SOL    EPW11594   0.432   3.278   0.237  0.4346 -0.1423 -0.0700
 2788SOL      O11595   0.150   4.385   1.523 -0.3731 -0.2116  0.1561
 2788SOL     H111596   0.075   4.419   1.475 -0.5965 -0.8190  0.0653
 2788SOL     H211597   0.134   4.409   1.614 -0.0854  0.7010 -0.0235
 2788SOL    EPW11598   0.141   4.391   1.527 -0.3663 -0.1790  0.1272
 2789SOL      O11599   1.199   1.055   0.574 -0.7184  0.4129  0.1989
 2789SOL     H111600   1.171   1.146   0.584 -0.6948  0.2591  2.0778
 2789SOL     H211601   1.118   1.006   0.562 -0.8129  0.5807  0.1545
 2789SOL    EPW11602   1.188   1.059   0.574 -0.7259  0.4144  0.3946
 2790SOL      O11603   1.051   3.798   1.181  0.5104  0.1124  0.2213
 2790SOL     H111604   1.017   3.760   1.100 -1.3273  0.7485  0.6463
 2790SOL     H211605   1.044   3.727   1.245 -0.1718  0.2728  0.3337
 2790SOL    EPW11606   1.047   3.786   1.179  0.2416  0.1974  0.2786
 2791SOL      O11607   2.432   0.941   3.172  0.0779 -0.3919  0.7947
 2791SOL     H111608   2.462   0.874   3.232  3.1674 -2.8487 -3.0040
 2791SOL     H211609   2.410   0.894   3.092 -0.2362  2.8551 -1.2290
 2791SOL    EPW11610   2.433   0.929   3.169  0.3739 -0.3076  0.1736
 2792SOL      O11611   0.874   0.490   2.327 -0.1177  0.1542 -1.0326
 2792SOL     H111612   0.919   0.432   2.266  0.0472  0.4463 -1.1911
 2792SOL     H211613   0.915   0.471   2.412  1.2148  1.3049 -1.3698
 2792SOL    EPW11614   0.883   0.482   2.329  0.0420  0.3081 -1.0855
 2793SOL      O11615   5.038   4.254   3.719 -0.0860  0.4628 -0.2015
 2793SOL     H111616   5.092   4.204   3.780 -1.4684 -0.2952  0.4544
 2793SOL     H211617   5.043   4.204   3.637 -2.5844 -1.7043  0.8169
 2793SOL    EPW11618   5.044   4.243   3.716 -0.5000  0.1507 -0.0229
 2794SOL      O11619   4.531   4.767   3.081  0.0013  0.7103  0.2370
 2794SOL     H111620   4.625   4.785   3.084 -0.2686  2.1122  1.7219
 2794SOL     H211621   4.495   4.833   3.022  0.0057 -0.2353 -0.8523
 2794SOL    EPW11622   4.537   4.776   3.075 -0.0270  0.7590  0.2792
 2795SOL      O11623   4.701   1.154   2.466  0.1976  0.1571  0.4297
 2795SOL     H111624   4.789   1.120   2.486  0.6273  0.7790 -0.3371
 2795SOL     H211625   4.694   1.234   2.518  0.6151  0.8138 -0.4982
 2795SOL    EPW11626   4.710   1.159   2.474  0.2880  0.2935  0.2489
 2796SOL      O11627   0.819   3.507   0.108 -0.0109 -0.2945  0.2643
 2796SOL     H111628   0.789   3.532   0.021 -1.7652  2.2332  1.4427
 2796SOL     H211629   0.844   3.415   0.100 -0.9698 -0.3957 -2.6738
 2796SOL    EPW11630   0.818   3.500   0.098 -0.3003 -0.0356  0.0766
 2797SOL      O11631   0.767   4.052   1.054 -0.2143 -0.0037  0.4039
 2797SOL     H111632   0.685   4.097   1.033 -0.5337 -0.3700  0.8665
 2797SOL     H211633   0.835   4.118   1.039 -0.4461 -0.1124 -1.3917
 2797SOL    EPW11634   0.766   4.064   1.050 -0.2731 -0.0544  0.2617
 2798SOL      O11635   1.137   5.347   3.901 -0.0988 -0.7566  0.0496
 2798SOL     H111636   1.199   5.324   3.831 -0.6118  0.8507 -1.0005
 2798SOL     H211637   1.189   5.395   3.965  0.0081 -0.5611 -0.1820
 2798SOL    EPW11638   1.149   5.350   3.900 -0.1421 -0.5643 -0.0871
 2799SOL      O11639   1.296   4.410   2.399  0.1361  0.6828  0.0424
 2799SOL     H111640   1.279   4.439   2.310 -2.3483 -1.3961 -0.2826
 2799SOL     H211641   1.291   4.489   2.452  1.8708  1.9969 -1.6265
 2799SOL    EPW11642   1.294   4.421   2.395  0.0561  0.6013 -0.1703
 2800SOL      O11643   3.126   2.077   3.048  0.0526  0.3514 -0.6968
 2800SOL     H111644   3.216   2.106   3.062  0.1030  0.9053 -2.0310
 2800SOL     H211645   3.075   2.127   3.112  0.8482 -1.2938  1.3576
 2800SOL    EPW11646   3.130   2.085   3.056  0.1428  0.2350 -0.6199
 2801SOL      O11647   3.550   3.276   0.111 -0.7125 -0.1589  0.2496
 2801SOL     H111648   3.645   3.269   0.099 -0.7285  0.9592 -0.6716
 2801SOL     H211649   3.540   3.304   0.203 -0.0450  1.2753 -0.0760
 2801SOL    EPW11650   3.559   3.279   0.120 -0.6430  0.1134  0.1166
 2802SOL      O11651   5.736   4.169   0.627  0.5457 -0.2356  0.2534
 2802SOL     H111652   5.828   4.190   0.612  0.4241  0.8529  0.8948
 2802SOL     H211653   5.689   4.252   0.611 -0.3033 -0.7323  0.0929
 2802SOL    EPW11654   5.741   4.180   0.624  0.4421 -0.1725  0.3047
 2803SOL      O11655   1.774   2.851   0.593  0.2940  0.0315  0.3033
 2803SOL     H111656   1.787   2.810   0.678 -4.4147 -0.1695  1.1985
 2803SOL     H211657   1.757   2.943   0.613  1.7066  0.5582 -0.7582
 2803SOL    EPW11658   1.773   2.856   0.604 -0.0576  0.0662  0.2855
 2804SOL      O11659   5.780   5.393   2.990 -0.1610 -0.0276  0.3254
 2804SOL     H111660   5.716   5.385   2.919  1.3579  0.7953 -1.2204
 2804SOL     H211661   5.813   5.304   3.002 -1.7137 -0.5083  1.3135
 2804SOL    EPW11662   5.776   5.382   2.983 -0.1646  0.0089  0.2659
 2805SOL      O11663   2.895   2.414   0.038  0.0310  0.0514 -0.3936
 2805SOL     H111664   2.834   2.364  -0.016  0.5575 -0.5737 -0.4257
 2805SOL     H211665   2.869   2.505   0.026 -1.5783 -0.2706  0.4558
 2805SOL    EPW11666   2.886   2.419   0.031 -0.0845 -0.0496 -0.3064
 2806SOL      O11667   5.208   2.409   1.767 -0.0835 -0.5869 -0.0538
 2806SOL     H111668   5.257   2.358   1.703  0.6083 -0.4950  0.3902
 2806SOL     H211669   5.127   2.432   1.723  0.9573  0.6572 -1.4026
 2806SOL    EPW11670   5.205   2.406   1.756  0.1014 -0.4444 -0.1503
 2807SOL      O11671   4.830   0.730   1.071  0.0537 -0.0757 -0.5389
 2807SOL     H111672   4.882   0.782   1.132  1.0420 -2.3385  0.6244
 2807SOL     H211673   4.895   0.683   1.018 -0.8015 -0.8514 -0.9226
 2807SOL    EPW11674   4.843   0.731   1.072  0.0679 -0.3998 -0.4558
 2808SOL      O11675   3.002   2.149   2.115 -0.0360  0.9627  0.2409
 2808SOL     H111676   2.961   2.190   2.191 -3.9047 -0.0072 -1.0737
 2808SOL     H211677   3.003   2.218   2.048 -0.4552  0.7101 -0.0286
 2808SOL    EPW11678   2.998   2.161   2.116 -0.4934  0.8323  0.0719
 2809SOL      O11679   3.817   1.299   0.662 -0.0824  0.1003  0.1048
 2809SOL     H111680   3.772   1.279   0.581 -0.6147 -0.2428  0.4789
 2809SOL     H211681   3.766   1.253   0.730  0.2933  0.4615  0.6382
 2809SOL    EPW11682   3.807   1.292   0.661 -0.0991  0.1022  0.2016
 2810SOL      O11683   5.412   0.655   0.212 -0.2747  0.4808 -0.1781
 2810SOL     H111684   5.411   0.654   0.116  2.2764  1.8663 -0.3359
 2810SOL     H211685   5.496   0.614   0.235 -1.5206 -1.2380  1.5863
 2810SOL    EPW11686   5.421   0.651   0.204 -0.1354  0.4453 -0.0067
 2811SOL      O11687   0.159   0.937   0.164  0.1952 -0.2390  0.4301
 2811SOL     H111688   0.176   1.004   0.229  0.1695 -1.4576  1.7433
 2811SOL     H211689   0.071   0.905   0.185  0.6022 -1.3732  0.4965
 2811SOL    EPW11690   0.151   0.940   0.173  0.2359 -0.4900  0.5773
 2812SOL      O11691   4.063   0.080   1.673 -0.6561 -0.5474 -0.3063
 2812SOL     H111692   4.089   0.069   1.765 -2.2922 -0.6853  0.1848
 2812SOL     H211693   3.967   0.075   1.676 -0.7381 -0.2505 -1.9940
 2812SOL    EPW11694   4.055   0.078   1.683 -0.8394 -0.5305 -0.4339
 2813SOL      O11695   2.726   0.234   1.008 -0.0035 -0.2193  0.5513
 2813SOL     H111696   2.675   0.208   1.085  0.4520 -0.8015  0.6663
 2813SOL     H211697   2.677   0.198   0.934  0.5331 -1.3004  0.6989
 2813SOL    EPW11698   2.715   0.227   1.009  0.1024 -0.3967  0.5793
 2814SOL      O11699   1.259   1.273   2.287  0.1137 -0.5830  0.7413
 2814SOL     H111700   1.245   1.288   2.380  0.1036  0.4636  0.5883
 2814SOL     H211701   1.259   1.361   2.249 -2.4045 -1.0712 -0.6082
 2814SOL    EPW11702   1.258   1.284   2.293 -0.1560 -0.5234  0.5810
 2815SOL      O11703   0.788   5.307   2.455 -0.6368  0.3557  0.3649
 2815SOL     H111704   0.728   5.354   2.397 -0.8429 -1.3535 -0.9207
 2815SOL     H211705   0.736   5.288   2.533 -1.9012 -1.1632 -0.7530
 2815SOL    EPW11706   0.776   5.310   2.457 -0.7937  0.0113  0.1085
 2816SOL      O11707   2.767   0.845   2.566  0.3042  0.4582  0.2011
 2816SOL     H111708   2.717   0.889   2.497  0.0181  1.2114  0.8846
 2816SOL     H211709   2.832   0.909   2.594 -0.7312  0.8321  1.8688
 2816SOL    EPW11710   2.769   0.856   2.561  0.1632  0.5785  0.4519
 2817SOL      O11711   0.621   2.816   3.765 -0.5824 -0.0835  0.1356
 2817SOL     H111712   0.550   2.849   3.820  0.0835 -1.0307  1.6061
 2817SOL     H211713   0.696   2.871   3.788 -0.3222 -0.4324  0.1293
 2817SOL    EPW11714   0.621   2.826   3.773 -0.4836 -0.2218  0.2918
 2818SOL      O11715   5.635   2.943   2.300 -0.0919 -0.2095 -0.6054
 2818SOL     H111716   5.673   3.012   2.354  0.4302  0.9252 -2.3295
 2818SOL     H211717   5.541   2.962   2.299 -0.0915 -0.1837 -0.1764
 2818SOL    EPW11718   5.629   2.953   2.306 -0.0361 -0.0857 -0.7436
 2819SOL      O11719   4.959   2.044   3.229  0.3344  0.7374 -0.2301
 2819SOL     H111720   4.998   2.120   3.273 -0.0028  0.5535  0.3959
 2819SOL     H211721   4.875   2.076   3.197 -0.3821  0.3172  1.1304
 2819SOL    EPW11722   4.954   2.056   3.230  0.2220  0.6729 -0.0182
 2820SOL      O11723   3.966   3.715   0.057  0.2678  0.3828  0.6664
 2820SOL     H111724   3.960   3.664   0.137  0.0518 -0.7737 -0.0716
 2820SOL     H211725   4.009   3.796   0.084  1.0906 -0.3928  1.7681
 2820SOL    EPW11726   3.970   3.718   0.068  0.3325  0.1767  0.7052
 2821SOL      O11727   0.193   1.260   2.672  0.4556 -0.1818  0.2914
 2821SOL     H111728   0.161   1.279   2.760 -0.8825 -1.9414  0.2396
 2821SOL     H211729   0.271   1.206   2.685  1.9546  1.8669  0.3727
 2821SOL    EPW11730   0.198   1.257   2.683  0.4728 -0.1509  0.2946
 2822SOL      O11731   5.558   1.163   1.521 -0.3852 -0.4629  0.1872
 2822SOL     H111732   5.624   1.183   1.454 -0.3319 -2.3158 -0.3634
 2822SOL     H211733   5.535   1.248   1.557  0.5318  0.4730 -1.2990
 2822SOL    EPW11734   5.563   1.174   1.517 -0.2817 -0.5607 -0.0301
 2823SOL      O11735   3.491   0.666   1.715  0.0840  0.2644  0.1493
 2823SOL     H111736   3.444   0.634   1.792  0.5814  1.4170  0.9585
 2823SOL     H211737   3.559   0.600   1.699  0.6737  0.5517  1.3708
 2823SOL    EPW11738   3.493   0.655   1.721  0.1999  0.4180  0.3659
 2824SOL      O11739   2.870   3.872   0.606  0.0811  0.1018 -0.6329
 2824SOL     H111740   2.833   3.906   0.687  3.4469  0.2271  1.0145
 2824SOL     H211741   2.887   3.950   0.553  1.2999  0.4031  0.1670
 2824SOL    EPW11742   2.867   3.884   0.609  0.5702  0.1473 -0.3718
 2825SOL      O11743   5.065   4.798   3.799 -0.5733 -0.1295 -0.6897
 2825SOL     H111744   5.101   4.756   3.720 -0.5545  0.7475 -1.1658
 2825SOL     H211745   5.033   4.725   3.852  1.0480 -0.8923 -0.6749
 2825SOL    EPW11746   5.066   4.786   3.796 -0.3983 -0.1173 -0.7389
 2826SOL      O11747   3.118   5.181   0.567 -0.4039 -0.4130  0.2749
 2826SOL     H111748   3.088   5.264   0.530  0.1167 -1.4359 -2.7343
 2826SOL     H211749   3.213   5.191   0.573 -0.3708 -0.6633  0.1771
 2826SOL    EPW11750   3.125   5.191   0.564 -0.3448 -0.5489 -0.0565
 2827SOL      O11751   3.030   0.784   3.264 -0.1824  0.6705  0.4911
 2827SOL     H111752   3.116   0.804   3.228  0.1869 -1.2412  0.2452
 2827SOL     H211753   2.970   0.792   3.190 -0.2128  1.7371  0.6068
 2827SOL    EPW11754   3.033   0.787   3.252 -0.1462  0.5804  0.4772
 2828SOL      O11755   4.446   2.282   0.696  0.2711 -0.1199 -0.2000
 2828SOL     H111756   4.494   2.221   0.753 -1.2729 -0.7786  0.4428
 2828SOL     H211757   4.383   2.227   0.650 -0.1806  0.7868 -0.6824
 2828SOL    EPW11758   4.445   2.270   0.697  0.0582 -0.0935 -0.1829
 2829SOL      O11759   4.247   0.437   3.230 -0.5299 -0.1334  0.1108
 2829SOL     H111760   4.276   0.437   3.139 -0.5389 -0.3946  0.1086
 2829SOL     H211761   4.250   0.529   3.256 -0.3029 -0.0855 -0.0821
 2829SOL    EPW11762   4.251   0.447   3.223 -0.5067 -0.1562  0.0900
 2830SOL      O11763   1.320   2.408   3.484  0.0158 -0.2629  0.3301
 2830SOL     H111764   1.230   2.403   3.451  0.3082 -0.0059 -0.5513
 2830SOL     H211765   1.325   2.341   3.551 -0.5163 -1.0729 -0.4186
 2830SOL    EPW11766   1.311   2.401   3.487 -0.0098 -0.3219  0.1562
 2831SOL      O11767   2.745   3.614   2.386  0.1035  0.6635 -0.1808
 2831SOL     H111768   2.768   3.686   2.445  0.0020  2.3770 -2.1247
 2831SOL     H211769   2.667   3.645   2.340 -0.4272 -1.0553 -0.5061
 2831SOL    EPW11770   2.739   3.625   2.387  0.0361  0.6629 -0.4229
 2832SOL      O11771   3.799   5.818   1.288 -0.8692  0.6440 -0.2858
 2832SOL     H111772   3.832   5.783   1.206 -1.6147 -0.4859 -0.1318
 2832SOL     H211773   3.863   5.790   1.354 -0.7342  0.7809 -0.3593
 2832SOL    EPW11774   3.809   5.811   1.287 -0.9343  0.5380 -0.2772
 2833SOL      O11775   5.465   2.385   3.131  0.4775 -0.7515  0.3180
 2833SOL     H111776   5.389   2.438   3.107  1.3439  0.6726  0.6099
 2833SOL     H211777   5.503   2.430   3.206  1.7850 -1.2655 -0.0110
 2833SOL    EPW11778   5.461   2.395   3.136  0.7094 -0.6544  0.3141
 2834SOL      O11779   1.008   5.870   3.599  0.0757  0.5004  0.0392
 2834SOL     H111780   1.082   5.809   3.600 -0.2048  0.1569  0.2533
 2834SOL     H211781   0.970   5.864   3.687 -0.6264  0.1385 -0.2762
 2834SOL    EPW11782   1.012   5.862   3.608 -0.0291  0.4252  0.0284
 2835SOL      O11783   1.069   0.849   0.849  0.0560  0.6683 -0.5270
 2835SOL     H111784   1.020   0.768   0.859 -0.9809  1.2740 -0.5153
 2835SOL     H211785   1.017   0.914   0.898  1.5714  1.0575  0.6243
 2835SOL    EPW11786   1.058   0.848   0.856  0.1071  0.7744 -0.4030
 2836SOL      O11787   1.845   4.989   0.838  0.0343 -0.5327 -0.3380
 2836SOL     H111788   1.855   4.909   0.889 -1.2669 -0.5685 -0.0922
 2836SOL     H211789   1.751   4.995   0.822  0.0237  1.2682  0.1891
 2836SOL    EPW11790   1.836   4.981   0.842 -0.1057 -0.3444 -0.2556
 2837SOL      O11791   1.161   2.750   2.357  0.4792  0.0556  0.2722
 2837SOL     H111792   1.100   2.722   2.288  3.2614 -1.6682 -1.6554
 2837SOL     H211793   1.206   2.826   2.319  0.6539  0.3332  1.0249
 2837SOL    EPW11794   1.159   2.755   2.345  0.7946 -0.0987  0.1469
 2838SOL      O11795   1.782   0.625   0.037 -0.5457  0.5114 -0.5686
 2838SOL     H111796   1.793   0.707  -0.012  2.6046  0.5568 -0.0243
 2838SOL     H211797   1.868   0.610   0.077 -1.3696 -2.4678  0.3294
 2838SOL    EPW11798   1.793   0.632   0.036 -0.2976  0.1984 -0.4147
 2839SOL      O11799   5.820   5.703   3.031  0.2697 -0.2682 -0.0123
 2839SOL     H111800   5.881   5.669   3.096  0.6654 -1.7062 -1.0934
 2839SOL     H211801   5.768   5.627   3.005  1.5744 -0.2929 -2.9373
 2839SOL    EPW11802   5.821   5.692   3.035  0.4511 -0.4242 -0.4396
 2840SOL      O11803   0.977   4.386   0.459 -0.2961  0.1598  0.3398
 2840SOL     H111804   0.903   4.436   0.425  0.4744  1.3748  0.3879
 2840SOL     H211805   0.942   4.338   0.533 -1.0306  0.7594  0.3919
 2840SOL    EPW11806   0.966   4.386   0.463 -0.2922  0.3534  0.3505
 2841SOL      O11807   1.508   4.823   1.165 -0.3518  0.4783  0.2872
 2841SOL     H111808   1.584   4.879   1.179  0.0625  0.3098 -1.1028
 2841SOL     H211809   1.512   4.757   1.234  1.1398  0.0740 -0.1721
 2841SOL    EPW11810   1.516   4.822   1.174 -0.1485  0.4172  0.0899
 2842SOL      O11811   3.249   5.494   3.060 -0.2014 -0.0735 -0.6041
 2842SOL     H111812   3.235   5.489   3.155 -0.7375 -1.8123 -0.7424
 2842SOL     H211813   3.340   5.467   3.049 -0.8318 -2.4236 -0.7161
 2842SOL    EPW11814   3.257   5.490   3.069 -0.3258 -0.5097 -0.6308
 2843SOL      O11815   1.648   4.324   2.277 -0.6110 -0.0051  0.3334
 2843SOL     H111816   1.659   4.415   2.249  0.1850 -0.4746 -0.9839
 2843SOL     H211817   1.640   4.274   2.195 -0.5526 -1.1821  1.0165
 2843SOL    EPW11818   1.648   4.328   2.265 -0.5198 -0.1807  0.2658
 2844SOL      O11819   2.868   4.114   1.157 -0.0939 -0.5120 -0.2253
 2844SOL     H111820   2.938   4.069   1.205 -0.7274 -1.2330  0.0584
 2844SOL     H211821   2.895   4.205   1.153  1.8313 -1.0962 -1.8858
 2844SOL    EPW11822   2.878   4.119   1.162  0.0439 -0.6513 -0.3722
 2845SOL      O11823   2.505   0.454   2.654  0.3224  0.6030  0.0271
 2845SOL     H111824   2.568   0.386   2.678  2.2916  1.8194 -1.2712
 2845SOL     H211825   2.426   0.407   2.629  1.4030 -1.1780 -0.2073
 2845SOL    EPW11826   2.504   0.442   2.654  0.6477  0.5428 -0.1364
 2846SOL      O11827   2.059   5.123   3.419  0.2871  0.7022 -0.5219
 2846SOL     H111828   2.104   5.188   3.365 -0.0614  0.3343 -1.2636
 2846SOL     H211829   2.005   5.073   3.358 -0.1063  0.2649  0.1623
 2846SOL    EPW11830   2.058   5.124   3.407  0.2080  0.6163 -0.5280
 2847SOL      O11831   2.940   4.508   3.985 -0.0584 -0.2463 -0.3363
 2847SOL     H111832   2.930   4.603   3.989 -1.4173 -0.4204  1.3236
 2847SOL     H211833   2.851   4.474   3.993  0.6116 -1.6894  1.8730
 2847SOL    EPW11834   2.930   4.515   3.986 -0.1319 -0.4188  0.0764
 2848SOL      O11835   1.533   1.965   1.131  0.2855 -0.4237 -0.0196
 2848SOL     H111836   1.521   1.996   1.220  0.0080  1.3411 -0.6241
 2848SOL     H211837   1.483   2.027   1.077  1.3494 -0.7844 -1.4945
 2848SOL    EPW11838   1.526   1.975   1.134  0.3694 -0.2739 -0.2414
 2849SOL      O11839   5.794   2.056   2.052  1.4328  0.1248  0.7521
 2849SOL     H111840   5.888   2.058   2.039  1.3559 -0.5907 -0.0454
 2849SOL     H211841   5.761   2.131   2.003  1.5089 -0.1667  0.2527
 2849SOL    EPW11842   5.800   2.064   2.046  1.4327  0.0174  0.6138
 2850SOL      O11843   3.486   5.745   1.819  0.7872 -0.2962 -1.0761
 2850SOL     H111844   3.558   5.741   1.756  1.7100 -0.0269 -0.0647
 2850SOL     H211845   3.420   5.686   1.783  2.0916 -1.6773 -1.3287
 2850SOL    EPW11846   3.487   5.738   1.809  1.0248 -0.4148 -0.9952
 2851SOL      O11847   3.242   0.333   0.293  0.0086 -0.0056  0.4172
 2851SOL     H111848   3.169   0.394   0.297 -0.4284 -0.3705 -1.3411
 2851SOL     H211849   3.317   0.386   0.265  0.2084  0.1637  1.2285
 2851SOL    EPW11850   3.242   0.345   0.290 -0.0167 -0.0265  0.3162
 2852SOL      O11851   1.050   2.311   3.287  0.0009  0.3385  0.7176
 2852SOL     H111852   1.014   2.255   3.218 -2.0252  0.7274  1.3898
 2852SOL     H211853   1.043   2.257   3.366  0.4967  0.6007  0.9421
 2852SOL    EPW11854   1.045   2.299   3.288 -0.1624  0.4080  0.8133
 2853SOL      O11855   4.564   5.102   0.849  0.3729  0.0163  0.3025
 2853SOL     H111856   4.619   5.033   0.886  0.4655  0.3563  0.8019
 2853SOL     H211857   4.624   5.155   0.797  0.1369 -0.8118 -0.8609
 2853SOL    EPW11858   4.576   5.100   0.847  0.3576 -0.0358  0.2317
 2854SOL      O11859   0.714   0.120   3.218 -0.2294 -1.0137  0.3791
 2854SOL     H111860   0.626   0.150   3.194 -0.4624 -2.2559 -0.3901
 2854SOL     H211861   0.709   0.106   3.312 -1.0286 -1.5833  0.2645
 2854SOL    EPW11862   0.704   0.122   3.225 -0.3395 -1.2070  0.2848
 2855SOL      O11863   4.466   1.595   0.282  0.2117  0.4469 -0.0849
 2855SOL     H111864   4.477   1.511   0.327  0.8051 -0.0714 -1.1659
 2855SOL     H211865   4.550   1.610   0.238 -0.5655  0.6064 -1.5569
 2855SOL    EPW11866   4.476   1.588   0.283  0.1921  0.4086 -0.3573
 2856SOL      O11867   2.603   4.699   0.570  0.2278 -0.6096  0.1219
 2856SOL     H111868   2.578   4.683   0.479 -1.4078 -1.2703  0.6507
 2856SOL     H211869   2.651   4.782   0.568 -1.3969  0.3381 -1.0925
 2856SOL    EPW11870   2.606   4.706   0.560 -0.1200 -0.5789  0.0488
 2857SOL      O11871   1.638   3.560   0.777  0.0166 -0.4449 -0.1384
 2857SOL     H111872   1.570   3.500   0.747 -0.5531 -0.4776  1.1897
 2857SOL     H211873   1.594   3.617   0.840  1.4584 -1.2128  1.6461
 2857SOL    EPW11874   1.626   3.560   0.780  0.1096 -0.5303  0.1936
 2858SOL      O11875   5.480   1.692   3.904  0.6134  0.1291  0.4347
 2858SOL     H111876   5.392   1.717   3.876  0.0121 -1.5575  0.7561
 2858SOL     H211877   5.493   1.739   3.987 -1.0878 -1.6958  1.8122
 2858SOL    EPW11878   5.472   1.700   3.910  0.3678 -0.2455  0.6159
 2859SOL      O11879   2.233   3.150   1.032  0.7031 -0.3768 -0.1984
 2859SOL     H111880   2.224   3.123   1.124 -0.2446  1.5508  0.3282
 2859SOL     H211881   2.195   3.077   0.982 -2.7007  0.2591  1.1901
 2859SOL    EPW11882   2.228   3.139   1.037  0.2389 -0.1034  0.0059
 2860SOL      O11883   1.462   1.387   0.856 -0.4483 -0.0543 -0.3953
 2860SOL     H111884   1.461   1.291   0.853  0.0215 -0.0586 -0.5767
 2860SOL     H211885   1.388   1.411   0.912 -0.5796 -0.5225 -0.3676
 2860SOL    EPW11886   1.454   1.379   0.861 -0.4122 -0.1047 -0.4117
 2861SOL      O11887   3.944   5.761   1.013 -0.5854  0.3519  0.1392
 2861SOL     H111888   3.896   5.679   1.024 -0.0839 -0.0391 -0.4658
 2861SOL     H211889   4.032   5.733   0.985 -0.6180  1.1168 -0.7662
 2861SOL    EPW11890   3.949   5.749   1.011 -0.5354  0.3918 -0.0219
 2862SOL      O11891   3.035   2.241   3.296 -0.3025 -0.3511 -0.2599
 2862SOL     H111892   2.980   2.270   3.223  1.1770  0.5484 -1.0578
 2862SOL     H211893   2.977   2.246   3.373 -1.3945  0.3338 -1.0940
 2862SOL    EPW11894   3.023   2.245   3.297 -0.2611 -0.1821 -0.4340
 2863SOL      O11895   1.612   0.798   2.245  0.0093  0.2686  0.8702
 2863SOL     H111896   1.574   0.759   2.166  2.0627 -1.0094  0.4301
 2863SOL     H211897   1.558   0.764   2.317 -0.2227 -0.8006  0.2209
 2863SOL    EPW11898   1.602   0.790   2.244  0.2036  0.0182  0.7540
 2864SOL      O11899   5.413   0.679   0.765  0.2140  0.8411  0.1133
 2864SOL     H111900   5.346   0.708   0.826 -0.7743 -0.6372 -0.2421
 2864SOL     H211901   5.400   0.734   0.688 -1.0573  0.1128 -0.2129
 2864SOL    EPW11902   5.405   0.688   0.763 -0.0271  0.6057  0.0406
 2865SOL      O11903   3.181   3.697   0.386 -0.0618 -0.2337  0.2387
 2865SOL     H111904   3.166   3.724   0.295  0.4406 -0.3498  0.1201
 2865SOL     H211905   3.273   3.672   0.389 -0.5151 -2.0487  0.2999
 2865SOL    EPW11906   3.189   3.697   0.376 -0.0566 -0.4397  0.2326
 2866SOL      O11907   0.958   1.231   2.816  0.1002 -0.0621  0.0901
 2866SOL     H111908   0.870   1.266   2.816  0.3925  0.9778 -2.8474
 2866SOL     H211909   0.948   1.142   2.781  0.2885  0.6632 -1.9824
 2866SOL    EPW11910   0.948   1.225   2.812  0.1515  0.1262 -0.4444
 2867SOL      O11911   2.162   5.226   1.983 -0.1205  0.3003 -0.8469
 2867SOL     H111912   2.097   5.268   2.039  0.2657  0.2361 -0.3484
 2867SOL     H211913   2.190   5.296   1.923  1.4406  1.1419  0.7860
 2867SOL    EPW11914   2.158   5.238   1.982  0.0872  0.3833 -0.6196
 2868SOL      O11915   1.601   0.888   0.963  0.0542  0.2414  0.4687
 2868SOL     H111916   1.622   0.854   0.876  1.3663  0.0731  0.8207
 2868SOL     H211917   1.682   0.931   0.992 -0.8366  1.6721  0.9797
 2868SOL    EPW11918   1.612   0.889   0.957  0.0992  0.3761  0.5608
 2869SOL      O11919   2.936   1.700   2.133  0.0809 -0.2858  0.6799
 2869SOL     H111920   2.993   1.777   2.128 -2.0822  1.3653 -3.4803
 2869SOL     H211921   2.993   1.627   2.107  0.9070  0.9710 -1.3002
 2869SOL    EPW11922   2.948   1.700   2.129 -0.0617  0.0244  0.0249
 2870SOL      O11923   2.673   3.066   0.976  0.1736 -0.3005  0.2503
 2870SOL     H111924   2.608   3.136   0.969 -0.5555 -1.0658 -0.9543
 2870SOL     H211925   2.689   3.058   1.070 -1.4453 -0.0517  0.5838
 2870SOL    EPW11926   2.668   3.072   0.985 -0.0769 -0.3556  0.1574
 2871SOL      O11927   0.620   0.072   1.288 -0.4605  0.4979  0.3070
 2871SOL     H111928   0.693   0.018   1.258 -0.3288  1.2474 -0.7463
 2871SOL     H211929   0.583   0.109   1.208 -0.0956  2.5530  1.0416
 2871SOL    EPW11930   0.624   0.070   1.276 -0.4075  0.7971  0.2730
 2872SOL      O11931   4.005   5.750   2.653 -0.5400 -0.1786  0.4879
 2872SOL     H111932   3.957   5.740   2.735 -1.2064 -1.8300 -0.0458
 2872SOL     H211933   4.097   5.746   2.678 -0.7398 -1.4247  1.1064
 2872SOL    EPW11934   4.010   5.748   2.664 -0.6324 -0.4877  0.4969
 2873SOL      O11935   5.264   2.070   0.678 -0.5763 -0.3443 -0.1473
 2873SOL     H111936   5.257   2.018   0.758 -2.5824  0.3186  0.1752
 2873SOL     H211937   5.308   2.151   0.706 -0.0630 -0.6568 -0.0302
 2873SOL    EPW11938   5.268   2.073   0.690 -0.7356 -0.3069 -0.1004
 2874SOL      O11939   4.957   4.741   1.663  0.0181  0.5361 -0.2758
 2874SOL     H111940   4.937   4.832   1.683  1.4009  0.4504  1.7039
 2874SOL     H211941   4.986   4.703   1.746 -2.2345 -2.2276 -0.5606
 2874SOL    EPW11942   4.958   4.747   1.674 -0.0747  0.2321 -0.0950
 2875SOL      O11943   0.155   1.738   0.941 -0.6912 -0.3461  0.5140
 2875SOL     H111944   0.080   1.711   0.888 -0.9509 -0.7451  1.0787
 2875SOL     H211945   0.135   1.706   1.029 -1.6506  2.7109  1.5633
 2875SOL    EPW11946   0.144   1.732   0.945 -0.8212 -0.0626  0.6862
 2876SOL      O11947   4.485   1.978   4.150 -0.6900  0.5698 -0.5753
 2876SOL     H111948   4.495   1.902   4.093 -2.1419  0.8444 -1.2638
 2876SOL     H211949   4.432   1.947   4.223 -1.7600  1.0170 -1.1345
 2876SOL    EPW11950   4.480   1.967   4.151 -0.9590  0.6468 -0.7084
 2877SOL      O11951   0.105   1.270   1.212 -0.5763 -0.1776  0.3281
 2877SOL     H111952   0.040   1.253   1.144  0.1232  0.6485 -0.5848
 2877SOL     H211953   0.175   1.208   1.193 -0.9029 -0.7759  1.0508
 2877SOL    EPW11954   0.105   1.262   1.202 -0.5365 -0.1533  0.3078
 2878SOL      O11955   4.194   4.210   0.049 -0.0746  0.4284 -0.1834
 2878SOL     H111956   4.184   4.115   0.057 -1.0253  0.6044  0.9751
 2878SOL     H211957   4.155   4.231  -0.035  1.1895 -0.3290 -0.9958
 2878SOL    EPW11958   4.189   4.202   0.041 -0.0412  0.3664 -0.1465
 2879SOL      O11959   0.775   1.239   0.652 -0.1706  0.1653 -0.4146
 2879SOL     H111960   0.726   1.273   0.727  1.5424 -0.9605  1.2810
 2879SOL     H211961   0.733   1.280   0.576 -2.3061  0.9283  1.0868
 2879SOL    EPW11962   0.765   1.247   0.652 -0.2157  0.1266 -0.0736
 2880SOL      O11963   1.290   0.123   1.365 -0.5428  0.5844 -0.2068
 2880SOL     H111964   1.220   0.059   1.377  2.4892 -3.4163 -1.4574
 2880SOL     H211965   1.285   0.147   1.272 -0.3739  0.4342 -0.2554
 2880SOL    EPW11966   1.282   0.119   1.356 -0.2013  0.1416 -0.3454
 2881SOL      O11967   4.458   5.402   3.669  0.1249  0.0082 -0.5238
 2881SOL     H111968   4.504   5.319   3.661  0.8357  0.2438  0.7660
 2881SOL     H211969   4.374   5.388   3.627  0.7109 -0.9757 -1.4040
 2881SOL    EPW11970   4.454   5.392   3.664  0.2632 -0.0716 -0.4801
 2882SOL      O11971   5.335   4.251   0.657 -0.0510 -0.1594  0.4373
 2882SOL     H111972   5.349   4.182   0.592  1.6491  0.5590 -0.0115
 2882SOL     H211973   5.373   4.217   0.737  0.3007  0.0192  0.3509
 2882SOL    EPW11974   5.340   4.240   0.658  0.1679 -0.0637  0.3802
 2883SOL      O11975   0.596   3.618   3.393  0.0579 -0.3414  0.2603
 2883SOL     H111976   0.606   3.523   3.401  4.3534 -0.1674 -0.8945
 2883SOL     H211977   0.641   3.640   3.312 -0.3216  2.7868  0.7878
 2883SOL    EPW11978   0.602   3.610   3.385  0.4756  0.0109  0.1933
 2884SOL      O11979   0.446   2.171   3.304  0.2307 -0.5030  0.5663
 2884SOL     H111980   0.431   2.195   3.395 -1.0144 -0.0987  0.2776
 2884SOL     H211981   0.375   2.109   3.283 -0.2965  0.4004 -0.4740
 2884SOL    EPW11982   0.437   2.167   3.311  0.0417 -0.3635  0.4246
 2885SOL      O11983   2.911   1.121   2.098 -0.4754  0.3304 -0.0155
 2885SOL     H111984   2.886   1.212   2.114  0.5619  0.5502  0.3811
 2885SOL     H211985   2.996   1.126   2.056 -0.1754 -0.4765  0.4767
 2885SOL    EPW11986   2.917   1.131   2.095 -0.3328  0.2678  0.0793
 2886SOL      O11987   1.402   4.098   0.948 -0.3734  0.5345 -0.2421
 2886SOL     H111988   1.358   4.159   1.007  0.9928  2.0535 -0.6993
 2886SOL     H211989   1.404   4.015   0.995 -1.8431  0.9601  0.6257
 2886SOL    EPW11990   1.397   4.096   0.959 -0.3845  0.7419 -0.1983
 2887SOL      O11991   3.274   3.357   3.242 -0.6269  0.4963  0.0940
 2887SOL     H111992   3.305   3.409   3.168 -0.0306 -0.5734 -0.4323
 2887SOL     H211993   3.285   3.266   3.214  1.0448  0.0194  2.0302
 2887SOL    EPW11994   3.279   3.352   3.231 -0.3849  0.3313  0.2444
 2888SOL      O11995   2.441   0.242   2.410  0.5498  0.4190 -0.2774
 2888SOL     H111996   2.501   0.273   2.342 -0.8133  3.4962 -0.2633
 2888SOL     H211997   2.367   0.303   2.406 -1.5020 -1.7606  1.2806
 2888SOL    EPW11998   2.440   0.252   2.402  0.1855  0.5147 -0.1097
 2889SOL      O11999   1.519   2.987   1.648  0.3718  0.1121 -0.2717
 2889SOL     H112000   1.515   2.906   1.698  2.4203 -0.6826 -1.2735
 2889SOL     H212001   1.443   3.037   1.677 -0.0110 -1.4414  1.6019
 2889SOL    EPW12002   1.510   2.984   1.656  0.5495 -0.1384 -0.1787
 2890SOL      O12003   3.318   4.876   3.141 -0.6952  0.3741 -0.2119
 2890SOL     H112004   3.237   4.842   3.104 -0.9308 -0.3885  0.9648
 2890SOL     H212005   3.384   4.857   3.075 -1.1733 -0.5789 -0.4290
 2890SOL    EPW12006   3.316   4.871   3.130 -0.7713  0.1911 -0.1095
 2891SOL      O12007   2.310   0.792   1.468 -0.0074 -0.1534 -0.5006
 2891SOL     H112008   2.216   0.778   1.480 -0.1802  0.9692 -0.4197
 2891SOL     H212009   2.331   0.860   1.532  1.0297 -0.9462  0.0336
 2891SOL    EPW12010   2.302   0.798   1.476  0.0848 -0.1182 -0.4350
 2892SOL      O12011   0.954   1.074   0.350 -0.1088  0.2650 -0.1835
 2892SOL     H112012   0.921   1.024   0.424  0.3012  1.3960  0.7797
 2892SOL     H212013   1.044   1.046   0.340  0.2567  1.0956  0.6373
 2892SOL    EPW12014   0.960   1.066   0.356 -0.0260  0.4743  0.0068
 2893SOL      O12015   1.994   3.260   3.900 -0.0036  0.2610 -0.6289
 2893SOL     H112016   1.950   3.197   3.957 -1.6048  1.5152 -0.4069
 2893SOL     H212017   2.001   3.215   3.816 -0.9027 -0.2967 -0.4169
 2893SOL    EPW12018   1.990   3.249   3.897 -0.2704  0.3353 -0.5826
 2894SOL      O12019   0.548   4.833   0.208  0.0506  0.3702 -0.2437
 2894SOL     H112020   0.475   4.895   0.205 -0.4167 -0.2127 -2.0088
 2894SOL     H212021   0.576   4.833   0.299 -2.3520  0.3708  0.5519
 2894SOL    EPW12022   0.543   4.840   0.217 -0.2555  0.3081 -0.3471
 2895SOL      O12023   5.394   0.464   1.071 -0.1206  0.2088 -0.4559
 2895SOL     H112024   5.468   0.517   1.042 -0.3958  1.5302  1.1454
 2895SOL     H212025   5.405   0.381   1.024  1.5655  0.8722 -1.3339
 2895SOL    EPW12026   5.403   0.461   1.063  0.0299  0.4205 -0.3787
 2896SOL      O12027   5.137   2.155   1.876  0.1817 -0.2905 -0.4101
 2896SOL     H112028   5.161   2.235   1.830 -1.6146  0.3981 -0.2087
 2896SOL     H212029   5.209   2.094   1.857  0.7380  0.7966 -1.9782
 2896SOL    EPW12030   5.148   2.157   1.869  0.0494 -0.1011 -0.5559
 2897SOL      O12031   4.677   3.533   1.158  0.2611  0.1561  0.6766
 2897SOL     H112032   4.690   3.516   1.251 -0.5906  1.9834  1.1688
 2897SOL     H212033   4.643   3.622   1.154 -1.4889 -0.5192 -1.2444
 2897SOL    EPW12034   4.675   3.540   1.168 -0.0165  0.2790  0.5242
 2898SOL      O12035   4.796   5.451   0.095 -0.5351  0.2067 -0.0421
 2898SOL     H112036   4.875   5.451   0.149 -0.4544  0.6522 -0.1499
 2898SOL     H212037   4.741   5.382   0.131 -0.7553  0.9179  1.0203
 2898SOL    EPW12038   4.798   5.444   0.104 -0.5500  0.3301  0.0597
 2899SOL      O12039   5.495   5.425   0.444  0.4618 -0.3932 -0.1207
 2899SOL     H112040   5.543   5.475   0.379 -1.5343  0.2515 -1.1932
 2899SOL     H212041   5.438   5.489   0.486 -0.3677 -1.3212  0.2192
 2899SOL    EPW12042   5.494   5.437   0.442  0.1603 -0.4234 -0.1989
 2900SOL      O12043   1.874   1.561   1.070  0.1073 -0.2980  0.0886
 2900SOL     H112044   1.889   1.558   0.976  0.3906 -1.8646  0.1593
 2900SOL     H212045   1.785   1.530   1.082  0.4925 -1.3301  0.4054
 2900SOL    EPW12046   1.866   1.557   1.061  0.1786 -0.5752  0.1299
 2901SOL      O12047   4.237   2.981   0.436  0.2346  0.3168  0.2323
 2901SOL     H112048   4.214   3.028   0.516  1.9899  0.2965  0.7724
 2901SOL     H212049   4.153   2.972   0.389 -0.3837  2.8348  0.6904
 2901SOL    EPW12050   4.225   2.985   0.439  0.3559  0.5832  0.3388
 2902SOL      O12051   4.458   2.962   3.903 -0.0835 -0.0964 -0.3200
 2902SOL     H112052   4.448   2.953   3.997  0.5243  1.6892 -0.0326
 2902SOL     H212053   4.511   2.887   3.876  0.8238  0.0666  0.9696
 2902SOL    EPW12054   4.462   2.953   3.910  0.0782  0.1115 -0.1518
 2903SOL      O12055   3.138   2.693   0.895 -0.0254 -0.4638  0.4772
 2903SOL     H112056   3.195   2.719   0.968 -0.7359  0.1142  0.8396
 2903SOL     H212057   3.092   2.615   0.928  0.9174 -1.2555 -0.0119
 2903SOL    EPW12058   3.139   2.687   0.906 -0.0007 -0.4866  0.4636
 2904SOL      O12059   3.600   2.772   1.767  0.3461 -0.5269  0.3665
 2904SOL     H112060   3.665   2.804   1.705 -0.5807  0.4102 -0.1654
 2904SOL     H212061   3.560   2.696   1.724 -1.7950  1.3663 -1.2578
 2904SOL    EPW12062   3.602   2.767   1.756  0.0188 -0.2250  0.1365
 2905SOL      O12063   4.156   0.493   0.210  0.3704 -0.5143 -0.1223
 2905SOL     H112064   4.194   0.581   0.205  0.8331 -0.6446  0.7285
 2905SOL     H212065   4.172   0.455   0.124  3.0894 -0.9101  0.4685
 2905SOL    EPW12066   4.162   0.499   0.201  0.7098 -0.5705  0.0315
 2906SOL      O12067   1.434   5.011   2.929  0.1896 -0.2854  0.6211
 2906SOL     H112068   1.416   4.953   2.856 -1.2645  0.0476  0.7001
 2906SOL     H212069   1.453   5.096   2.888 -1.4857  0.1183  0.6419
 2906SOL    EPW12070   1.434   5.014   2.917 -0.1443 -0.2068  0.6317
 2907SOL      O12071   3.255   5.469   2.578  0.5965 -0.1995 -0.2111
 2907SOL     H112072   3.284   5.403   2.641 -1.1043 -0.2831  0.5455
 2907SOL     H212073   3.335   5.509   2.546  1.5450 -0.6814  1.4488
 2907SOL    EPW12074   3.266   5.466   2.581  0.5163 -0.2599  0.0467
 2908SOL      O12075   4.947   3.830   1.509  0.2329  0.1967  0.3101
 2908SOL     H112076   4.976   3.913   1.549  1.5285  0.2046 -0.5995
 2908SOL     H212077   5.026   3.775   1.508 -0.0714 -0.2491 -1.0715
 2908SOL    EPW12078   4.959   3.833   1.513  0.3386  0.1500  0.0657
 2909SOL      O12079   4.662   4.920   3.808 -0.0758 -0.6062 -0.4853
 2909SOL     H112080   4.714   4.876   3.740 -0.8983 -1.4240 -0.6114
 2909SOL     H212081   4.614   4.849   3.851 -0.5804  0.0550  0.0635
 2909SOL    EPW12082   4.662   4.908   3.805 -0.2174 -0.6229 -0.4402
 2910SOL      O12083   1.303   4.619   2.135  0.1869 -0.2159  0.0852
 2910SOL     H112084   1.390   4.598   2.100 -0.5806 -0.9434 -1.4851
 2910SOL     H212085   1.247   4.549   2.102 -1.0565  0.3956  0.8471
 2910SOL    EPW12086   1.306   4.609   2.128 -0.0276 -0.2283 -0.0010
 2911SOL      O12087   0.041   1.315   2.435 -0.2702 -0.0700 -0.0635
 2911SOL     H112088  -0.034   1.375   2.445 -0.2969  0.0546 -0.9409
 2911SOL     H212089   0.058   1.284   2.524 -1.2337  0.0613  0.1843
 2911SOL    EPW12090   0.034   1.318   2.446 -0.3758 -0.0427 -0.1306
 2912SOL      O12091   1.887   5.363   2.091 -0.2954 -0.2537  0.0361
 2912SOL     H112092   1.904   5.382   1.999  0.9607 -0.5357  0.1829
 2912SOL     H212093   1.811   5.306   2.091  0.9718 -2.0438 -1.0047
 2912SOL    EPW12094   1.881   5.359   2.081 -0.0262 -0.4748 -0.0592
 2913SOL      O12095   0.831   2.969   1.342 -0.1780  0.0659  0.6828
 2913SOL     H112096   0.887   2.979   1.265 -1.7998 -1.6746 -0.8260
 2913SOL     H212097   0.742   2.978   1.308 -0.9195  0.4469  2.5933
 2913SOL    EPW12098   0.827   2.971   1.330 -0.4301 -0.0791  0.7256
 2914SOL      O12099   2.547   3.198   1.242 -0.2863  0.6412  0.1914
 2914SOL     H112100   2.614   3.131   1.226 -0.6995  0.5588 -1.3659
 2914SOL     H212101   2.464   3.150   1.238 -0.4661  0.7145  2.2754
 2914SOL    EPW12102   2.545   3.186   1.240 -0.3495  0.6402  0.2476
 2915SOL      O12103   2.303   3.268   4.066 -0.2042  0.6642  0.2494
 2915SOL     H112104   2.290   3.353   4.024  1.0177  0.5022 -0.5190
 2915SOL     H212105   2.221   3.251   4.114 -1.3737  1.1934 -1.4762
 2915SOL    EPW12106   2.293   3.275   4.067 -0.1986  0.7034 -0.0166
 2916SOL      O12107   3.580   4.041   1.596  0.2843 -0.8754 -0.5249
 2916SOL     H112108   3.672   4.064   1.610  0.3298 -1.2384 -0.2230
 2916SOL     H212109   3.570   4.043   1.500  0.1110  1.0426 -0.4906
 2916SOL    EPW12110   3.589   4.043   1.587  0.2707 -0.7096 -0.4891
 2917SOL      O12111   5.143   0.932   2.986  0.2771  0.1186  0.3855
 2917SOL     H112112   5.112   0.980   2.910  1.1503  2.5744  1.4601
 2917SOL     H212113   5.237   0.950   2.989  0.6094 -1.5215  0.9924
 2917SOL    EPW12114   5.150   0.939   2.979  0.4057  0.2056  0.5649
 2918SOL      O12115   2.130   2.064   0.809 -0.1162  0.3236 -0.1770
 2918SOL     H112116   2.216   2.106   0.818  0.0785  0.5354 -2.4560
 2918SOL     H212117   2.142   2.000   0.738 -1.1665 -1.6102  1.2957
 2918SOL    EPW12118   2.141   2.062   0.802 -0.2075  0.1399 -0.2630
 2919SOL      O12119   5.012   2.287   4.000  0.5529 -0.7084 -0.6746
 2919SOL     H112120   5.006   2.247   4.087  0.1281  1.9617  0.6135
 2919SOL     H212121   5.095   2.334   4.001  0.2103 -0.0753 -1.4612
 2919SOL    EPW12122   5.020   2.288   4.009  0.4710 -0.3561 -0.6211
 2920SOL      O12123   4.463   0.056   3.187 -0.5761 -0.3525 -0.3999
 2920SOL     H112124   4.529  -0.009   3.161 -1.1717 -1.7389  1.3156
 2920SOL     H212125   4.448   0.108   3.109 -0.3077 -2.4948 -1.9578
 2920SOL    EPW12126   4.469   0.055   3.176 -0.6110 -0.7289 -0.3831
 2921SOL      O12127   3.419   0.999   1.602  1.0454  0.3915 -0.2186
 2921SOL     H112128   3.513   1.004   1.584  0.8639  0.4167 -1.2067
 2921SOL     H212129   3.380   0.968   1.520  0.2752 -0.4439  0.4356
 2921SOL    EPW12130   3.425   0.996   1.592  0.9439  0.3051 -0.2542
 2922SOL      O12131   3.421   2.348   3.667 -0.2329 -0.0775 -0.2637
 2922SOL     H112132   3.336   2.308   3.682  0.6381 -2.1885 -0.6230
 2922SOL     H212133   3.420   2.374   3.575 -0.8265  0.8095 -0.0139
 2922SOL    EPW12134   3.412   2.346   3.659 -0.2033 -0.2081 -0.2753
 2923SOL      O12135   1.512   1.108   3.465  0.3478 -0.0839  0.5913
 2923SOL     H112136   1.449   1.065   3.406  1.2465 -1.8902  0.8936
 2923SOL     H212137   1.585   1.132   3.408  0.7661 -0.8944  0.7773
 2923SOL    EPW12138   1.513   1.106   3.453  0.4883 -0.3631  0.6434
 2924SOL      O12139   2.704   3.951   0.253 -0.2713 -0.8096 -0.0216
 2924SOL     H112140   2.778   3.970   0.310 -1.0384  0.2053  0.6824
 2924SOL     H212141   2.628   3.952   0.311 -0.7875 -2.6392 -0.5738
 2924SOL    EPW12142   2.704   3.953   0.265 -0.4082 -0.8965 -0.0054
 2925SOL      O12143   2.870   4.078   0.446 -0.1831 -0.5449 -0.0092
 2925SOL     H112144   2.840   4.156   0.494 -0.4113 -1.5569  1.5632
 2925SOL     H212145   2.955   4.103   0.411 -1.1776  1.1347 -1.4278
 2925SOL    EPW12146   2.876   4.089   0.448 -0.3135 -0.4737  0.0072
 2926SOL      O12147   2.517   3.679   2.737 -0.1575  0.1554 -0.2274
 2926SOL     H112148   2.581   3.660   2.806 -0.2709  1.0988  0.1570
 2926SOL     H212149   2.570   3.698   2.660 -0.0266 -0.7812 -0.3782
 2926SOL    EPW12150   2.529   3.679   2.736 -0.1556  0.1561 -0.2025
 2927SOL      O12151   3.375   4.323   3.633  0.0355  0.0940  0.3742
 2927SOL     H112152   3.447   4.354   3.578 -1.5550  1.2430 -1.1833
 2927SOL     H212153   3.336   4.402   3.670 -1.5596 -0.2942 -0.3443
 2927SOL    EPW12154   3.378   4.334   3.631 -0.3044  0.1751  0.1314
 2928SOL      O12155   2.471   2.908   0.829 -0.2590  0.4291  0.0797
 2928SOL     H112156   2.529   2.967   0.877 -0.1369  1.3353 -1.1379
 2928SOL     H212157   2.515   2.823   0.832 -0.3963  0.3924  1.7835
 2928SOL    EPW12158   2.482   2.905   0.834 -0.2606  0.5218  0.1316
 2929SOL      O12159   5.457   3.856   0.759  0.4101 -0.4111 -0.3818
 2929SOL     H112160   5.525   3.861   0.693  0.1926 -1.2131 -0.6757
 2929SOL     H212161   5.464   3.939   0.807 -0.7852  1.2026 -2.7322
 2929SOL    EPW12162   5.465   3.866   0.757  0.2594 -0.3245 -0.6639
 2930SOL      O12163   2.565   0.474   4.151 -0.4320 -0.5239  0.6996
 2930SOL     H112164   2.579   0.411   4.222 -0.6694 -0.8925  0.4167
 2930SOL     H212165   2.520   0.425   4.083 -2.0442  0.3467  1.1036
 2930SOL    EPW12166   2.562   0.462   4.152 -0.6293 -0.4704  0.7125
 2931SOL      O12167   1.537   2.095   2.482 -0.0696 -0.0122  0.5818
 2931SOL     H112168   1.560   2.008   2.515 -0.4593 -0.8321 -1.1640
 2931SOL     H212169   1.585   2.102   2.399 -0.7547  1.0589  0.2602
 2931SOL    EPW12170   1.545   2.086   2.477 -0.1842  0.0146  0.3613
 2932SOL      O12171   4.921   2.978   2.770 -0.0837  0.2067  0.4006
 2932SOL     H112172   4.874   2.917   2.827  0.8359  0.3507  1.3430
 2932SOL     H212173   4.892   2.955   2.682  0.0639 -1.4635  0.7486
 2932SOL    EPW12174   4.913   2.969   2.767  0.0302  0.0439  0.5383
 2933SOL      O12175   3.173   4.904   0.748 -0.5463 -0.4161 -0.1308
 2933SOL     H112176   3.207   4.888   0.836 -1.5747 -0.5971  0.2458
 2933SOL     H212177   3.149   4.997   0.748 -0.5864 -0.4257 -0.2033
 2933SOL    EPW12178   3.174   4.913   0.757 -0.6603 -0.4365 -0.0983
 2934SOL      O12179   0.040   0.188   0.143 -0.0589 -0.0900  0.0310
 2934SOL     H112180   0.049   0.283   0.145  0.0853 -0.1010 -0.0987
 2934SOL     H212181   0.060   0.161   0.233 -2.1826  0.1826  0.6425
 2934SOL    EPW12182   0.043   0.195   0.153 -0.2701 -0.0621  0.0824
 2935SOL      O12183   3.614   2.197   2.957 -0.1819  0.0404  1.1099
 2935SOL     H112184   3.631   2.108   2.987  0.4689 -0.2707 -0.1135
 2935SOL     H212185   3.647   2.253   3.027  2.4530 -0.6263  0.5032
 2935SOL    EPW12186   3.619   2.194   2.968  0.1686 -0.0639  0.9147
 2936SOL      O12187   1.881   2.354   1.827 -0.4222 -0.0380  0.5052
 2936SOL     H112188   1.968   2.377   1.795 -0.0635 -0.6111  1.0346
 2936SOL     H212189   1.848   2.291   1.762 -0.3045 -0.0682  0.4737
 2936SOL    EPW12190   1.887   2.350   1.816 -0.3714 -0.1023  0.5583
 2937SOL      O12191   1.616   3.631   1.520 -0.8066  0.1659  0.5285
 2937SOL     H112192   1.558   3.581   1.463  0.3127  0.8551 -1.3283
 2937SOL     H212193   1.576   3.718   1.525 -0.6007  0.2754  0.2963
 2937SOL    EPW12194   1.606   3.635   1.515 -0.6652  0.2511  0.3056
 2938SOL      O12195   0.366   0.795   2.667  0.0796 -0.2071 -0.0440
 2938SOL     H112196   0.457   0.767   2.655  0.6138  1.9691 -1.7372
 2938SOL     H212197   0.330   0.797   2.579 -0.9813  0.9185  0.3959
 2938SOL    EPW12198   0.372   0.792   2.657  0.0234  0.1451 -0.1777
 2939SOL      O12199   4.432   5.708   2.480 -0.3737  0.3324  0.2868
 2939SOL     H112200   4.432   5.616   2.504 -0.1855 -0.0662 -1.1631
 2939SOL     H212201   4.385   5.711   2.396 -0.8185  1.6242  0.5472
 2939SOL    EPW12202   4.427   5.699   2.474 -0.4011  0.4277  0.1599
 2940SOL      O12203   4.828   0.492   1.371  0.0672  0.1057 -0.6582
 2940SOL     H112204   4.904   0.546   1.392 -0.5706  0.6550  0.2678
 2940SOL     H212205   4.767   0.552   1.327 -1.4126  0.6711  1.9907
 2940SOL    EPW12206   4.830   0.504   1.368 -0.1587  0.2246 -0.2768
 2941SOL      O12207   4.299   4.694   3.521 -0.2408 -0.3921  0.1697
 2941SOL     H112208   4.223   4.751   3.521  0.3738  0.4580 -0.8601
 2941SOL     H212209   4.356   4.729   3.452  0.9173 -1.2267  0.6615
 2941SOL    EPW12210   4.297   4.703   3.513 -0.0517 -0.3905  0.1123
 2942SOL      O12211   2.346   4.271   1.313 -0.7173 -0.3841 -0.3642
 2942SOL     H112212   2.418   4.334   1.311 -1.0639  0.0222 -0.3228
 2942SOL     H212213   2.371   4.203   1.250  0.1061 -0.7085  0.2966
 2942SOL    EPW12214   2.356   4.271   1.306 -0.6665 -0.3754 -0.2893
 2943SOL      O12215   0.603   2.801   1.027 -0.1762 -0.2949 -0.0182
 2943SOL     H112216   0.521   2.845   1.047 -0.1175 -0.3420  0.3401
 2943SOL     H212217   0.603   2.791   0.932  0.1464  1.1470 -0.1902
 2943SOL    EPW12218   0.594   2.804   1.019 -0.1355 -0.1461  0.0017
 2944SOL      O12219   3.402   2.887   0.431  0.2362 -0.1682  0.1518
 2944SOL     H112220   3.412   2.926   0.344  2.3685 -0.2912  0.2869
 2944SOL     H212221   3.314   2.912   0.458 -0.0290  0.9108 -1.5384
 2944SOL    EPW12222   3.394   2.894   0.425  0.4354 -0.0663 -0.0141
 2945SOL      O12223   0.789   4.414   3.303 -0.2866 -0.3990 -0.2788
 2945SOL     H112224   0.705   4.443   3.267  0.1456  0.6762 -0.4316
 2945SOL     H212225   0.828   4.362   3.233 -0.1413  0.3927 -0.7929
 2945SOL    EPW12226   0.784   4.411   3.292 -0.2250 -0.1999 -0.3499
 2946SOL      O12227   0.115   5.459   0.573 -0.3831 -0.2309  0.4746
 2946SOL     H112228   0.065   5.379   0.557  0.8922 -1.3067  1.5995
 2946SOL     H212229   0.178   5.461   0.500 -1.3282  0.5591 -0.3539
 2946SOL    EPW12230   0.117   5.451   0.563 -0.3478 -0.2614  0.5062
 2947SOL      O12231   2.289   4.732   0.478  0.0652 -0.3796 -0.1519
 2947SOL     H112232   2.284   4.785   0.398  0.1884 -1.7142 -1.0829
 2947SOL     H212233   2.347   4.782   0.536 -0.7031  1.0244 -0.5537
 2947SOL    EPW12234   2.295   4.743   0.475 -0.0036 -0.3722 -0.2941
 2948SOL      O12235   2.677   5.304   0.576  0.0687  0.3720  0.2702
 2948SOL     H112236   2.746   5.239   0.587 -0.0473  0.4102  1.3333
 2948SOL     H212237   2.686   5.334   0.486  0.4701 -0.7236 -0.0632
 2948SOL    EPW12238   2.685   5.300   0.568  0.0991  0.2592  0.3480
 2949SOL      O12239   5.265   5.268   2.871 -0.0896 -0.5138  0.2158
 2949SOL     H112240   5.274   5.362   2.889  0.5905 -0.8789  1.9092
 2949SOL     H212241   5.187   5.242   2.920  0.4612 -1.0833  0.7915
 2949SOL    EPW12242   5.257   5.275   2.878  0.0417 -0.6135  0.4579
 2950SOL      O12243   1.702   0.771   0.284 -0.3714 -0.7577  0.5427
 2950SOL     H112244   1.767   0.723   0.335 -0.6088 -0.6169  0.9873
 2950SOL     H212245   1.706   0.732   0.197  0.7536 -0.3260  0.3810
 2950SOL    EPW12246   1.709   0.762   0.280 -0.2767 -0.6966  0.5729
 2951SOL      O12247   3.244   0.208   3.677 -0.3482  0.1260 -0.3148
 2951SOL     H112248   3.153   0.190   3.654 -0.0803  0.2682 -1.5109
 2951SOL     H212249   3.238   0.279   3.742 -1.0014  2.3322 -2.6322
 2951SOL    EPW12250   3.233   0.214   3.682 -0.3893  0.3765 -0.6896
 2952SOL      O12251   0.435   4.162   1.808  0.0695  0.5422  0.3176
 2952SOL     H112252   0.471   4.073   1.815 -0.5271  0.1899 -0.8361
 2952SOL     H212253   0.359   4.153   1.750 -0.8544  1.5692  1.3226
 2952SOL    EPW12254   0.431   4.152   1.802 -0.0927  0.6142  0.3017
 2953SOL      O12255   1.206   3.600   3.283 -0.0610  0.4624 -0.6122
 2953SOL     H112256   1.287   3.571   3.325  0.0621  2.5037  0.7198
 2953SOL     H212257   1.198   3.692   3.308 -2.5805  0.4397 -1.0511
 2953SOL    EPW12258   1.214   3.607   3.290 -0.3166  0.6777 -0.5169
 2954SOL      O12259   0.388   3.831   1.499 -0.4745  0.4700  0.1262
 2954SOL     H112260   0.318   3.823   1.563 -1.3258 -0.1850 -0.8468
 2954SOL     H212261   0.414   3.741   1.479  1.1232  0.7092  0.9476
 2954SOL    EPW12262   0.384   3.821   1.503 -0.3949  0.4257  0.1100
 2955SOL      O12263   4.305   0.418   2.956 -0.1923 -0.4290  0.1953
 2955SOL     H112264   4.257   0.363   2.894 -0.7742  0.9501 -0.6141
 2955SOL     H212265   4.392   0.377   2.961 -0.3894 -1.0224 -0.9124
 2955SOL    EPW12266   4.310   0.407   2.950 -0.2754 -0.3452 -0.0092
 2956SOL      O12267   2.535   4.875   2.577 -0.4472 -0.2286 -0.4455
 2956SOL     H112268   2.484   4.814   2.629  2.6891  0.1781  3.5949
 2956SOL     H212269   2.527   4.959   2.623  0.1445  0.9592 -2.3777
 2956SOL    EPW12270   2.529   4.878   2.587 -0.0495 -0.0585 -0.2206
 2957SOL      O12271   4.786   5.615   4.104 -0.0480  0.0586 -0.1397
 2957SOL     H112272   4.833   5.689   4.066  2.5981 -1.4826 -0.0275
 2957SOL     H212273   4.799   5.543   4.043 -2.7619 -0.3760 -0.3533
 2957SOL    EPW12274   4.792   5.615   4.093 -0.0552 -0.1522 -0.1505
 2958SOL      O12275   0.564   4.711   1.969 -0.0536 -0.3262  0.1610
 2958SOL     H112276   0.500   4.644   1.948  0.1608 -0.7541  0.8377
 2958SOL     H212277   0.645   4.680   1.931  0.0302 -0.4244  0.4143
 2958SOL    EPW12278   0.566   4.701   1.963 -0.0218 -0.3823  0.2602
 2959SOL      O12279   4.758   0.820   2.424  0.2592  0.5228  0.5200
 2959SOL     H112280   4.732   0.729   2.406 -0.1115  0.5783  0.7706
 2959SOL     H212281   4.776   0.857   2.338 -1.1738  0.6919  0.2754
 2959SOL    EPW12282   4.757   0.814   2.413  0.0668  0.5467  0.5206
 2960SOL      O12283   4.568   4.817   4.119  0.4376  0.2391  0.2318
 2960SOL     H112284   4.490   4.764   4.134  0.7090 -0.3336 -0.3350
 2960SOL     H212285   4.640   4.755   4.120  0.9942  0.8676  1.5501
 2960SOL    EPW12286   4.567   4.805   4.121  0.5259  0.2450  0.3120
 2961SOL      O12287   3.483   5.610   1.017  0.4325 -0.1455  0.3452
 2961SOL     H112288   3.535   5.530   1.021  0.7836  0.0986  0.6701
 2961SOL     H212289   3.543   5.676   0.982 -0.8494 -0.8483 -3.6970
 2961SOL    EPW12290   3.495   5.609   1.013  0.3332 -0.1944 -0.0514
 2962SOL      O12291   1.555   0.873   2.595 -0.0832 -0.1085 -0.2504
 2962SOL     H112292   1.523   0.926   2.668 -0.4558 -0.1256 -0.4050
 2962SOL     H212293   1.481   0.863   2.536  1.1235  3.1482 -2.6088
 2962SOL    EPW12294   1.544   0.877   2.597  0.0058  0.2371 -0.5185
 2963SOL      O12295   2.806   4.313   1.943 -0.4043  0.1952 -0.3920
 2963SOL     H112296   2.886   4.261   1.943 -1.3537 -1.3079 -0.4838
 2963SOL     H212297   2.739   4.255   1.908 -1.9943  0.7250  1.5841
 2963SOL    EPW12298   2.807   4.301   1.939 -0.6752  0.0914 -0.1910
 2964SOL      O12299   3.388   1.567   1.792  0.5611 -0.2488 -0.3391
 2964SOL     H112300   3.420   1.546   1.704  0.3715 -0.1289 -0.4351
 2964SOL     H212301   3.400   1.486   1.841  2.0387  0.0919 -0.0823
 2964SOL    EPW12302   3.393   1.556   1.788  0.6985 -0.1997 -0.3219
 2965SOL      O12303   4.810   5.006   0.026  0.0810 -0.5414 -0.1933
 2965SOL     H112304   4.857   4.949   0.088  1.9701  1.1714  0.0450
 2965SOL     H212305   4.759   4.945  -0.028 -1.1895 -2.1597  2.5805
 2965SOL    EPW12306   4.810   4.993   0.027  0.1470 -0.5313  0.1281
 2966SOL      O12307   2.330   4.171   3.235 -0.0074 -0.6388 -0.2845
 2966SOL     H112308   2.242   4.144   3.207 -0.7631 -0.3317  1.6620
 2966SOL     H212309   2.314   4.239   3.301  1.7578  1.2453 -1.6619
 2966SOL    EPW12310   2.319   4.175   3.239  0.1003 -0.4051 -0.2238
 2967SOL      O12311   4.101   2.220   1.297 -0.0285  0.3159  0.0443
 2967SOL     H112312   4.177   2.163   1.314  2.3803  2.5181 -2.3944
 2967SOL     H212313   4.076   2.201   1.207 -1.6723  0.4996  0.4300
 2967SOL    EPW12314   4.107   2.212   1.290  0.0531  0.5704 -0.1747
 2968SOL      O12315   5.410   0.088   0.717 -0.3930  0.3521  0.0302
 2968SOL     H112316   5.469   0.018   0.690 -2.5686 -1.8379  0.6025
 2968SOL     H212317   5.422   0.095   0.811 -0.2014  0.7498 -0.0207
 2968SOL    EPW12318   5.417   0.082   0.724 -0.6046  0.1609  0.0858
 2969SOL      O12319   4.564   0.899   3.270  0.4059  0.5431  0.3443
 2969SOL     H112320   4.490   0.948   3.307 -0.4289  0.4594 -1.1353
 2969SOL     H212321   4.623   0.966   3.236  0.0601  0.5761 -0.2046
 2969SOL    EPW12322   4.562   0.911   3.270  0.2800  0.5377  0.1279
 2970SOL      O12323   1.921   1.934   2.808 -0.0988  0.1447  0.0552
 2970SOL     H112324   2.001   1.970   2.846 -0.1236 -1.1949  1.5161
 2970SOL     H212325   1.875   2.010   2.772  0.8486  1.2413  1.0636
 2970SOL    EPW12326   1.924   1.946   2.808 -0.0004  0.1188  0.3186
 2971SOL      O12327   4.421   5.459   0.576  0.0119  0.0889  0.7203
 2971SOL     H112328   4.351   5.408   0.619 -0.9130 -0.8090 -1.6474
 2971SOL     H212329   4.384   5.547   0.567 -0.6162 -0.2433 -0.0329
 2971SOL    EPW12330   4.409   5.463   0.580 -0.1537 -0.0423  0.3873
 2972SOL      O12331   3.117   0.174   1.198 -0.2515 -0.1646  0.1291
 2972SOL     H112332   3.060   0.251   1.203  1.1650  0.9119  0.3842
 2972SOL     H212333   3.091   0.130   1.117  0.2751  1.7368 -1.1469
 2972SOL    EPW12334   3.108   0.178   1.190 -0.0442  0.1531  0.0202
 2973SOL      O12335   4.380   2.222   4.066 -0.4720 -0.5633 -0.1215
 2973SOL     H112336   4.357   2.270   4.145  2.4787  0.6779  0.1101
 2973SOL     H212337   4.420   2.141   4.097  1.2434  0.1929 -0.2490
 2973SOL    EPW12338   4.382   2.218   4.078  0.0258 -0.3502 -0.1104
 2974SOL      O12339   3.605   2.220   3.802  0.2912 -0.3924 -0.7147
 2974SOL     H112340   3.551   2.276   3.745  0.7288  0.1306 -0.6225
 2974SOL     H212341   3.693   2.226   3.764  0.5560 -0.1584 -0.0715
 2974SOL    EPW12342   3.609   2.227   3.792  0.3661 -0.3116 -0.6363
 2975SOL      O12343   1.559   1.668   2.800 -0.6543  0.0028 -0.6297
 2975SOL     H112344   1.531   1.629   2.717 -0.8121  2.1570 -1.6683
 2975SOL     H212345   1.541   1.600   2.865 -1.6045 -1.3444 -2.1922
 2975SOL    EPW12346   1.554   1.657   2.798 -0.7725  0.0889 -0.9072
 2976SOL      O12347   5.097   3.923   0.751  0.2863 -0.0541 -0.2822
 2976SOL     H112348   5.110   3.840   0.704  0.9216  0.0230 -0.2426
 2976SOL     H212349   5.181   3.968   0.745 -0.0358  0.5658 -0.2491
 2976SOL    EPW12350   5.107   3.919   0.745  0.3197  0.0203 -0.2745
 2977SOL      O12351   3.433   0.915   2.760 -0.1982  0.1272  0.3885
 2977SOL     H112352   3.514   0.897   2.806  1.7119  3.3013 -1.3989
 2977SOL     H212353   3.374   0.949   2.827 -0.4824 -2.8981  1.8492
 2977SOL    EPW12354   3.435   0.917   2.772 -0.0247  0.1430  0.3536
 2978SOL      O12355   5.108   0.178   1.068 -0.4354  0.4579 -0.1937
 2978SOL     H112356   5.082   0.113   1.003  0.2944 -0.8391  0.7464
 2978SOL     H212357   5.026   0.214   1.101 -0.8466  0.2645 -0.9880
 2978SOL    EPW12358   5.097   0.175   1.065 -0.4014  0.2989 -0.1781
 2979SOL      O12359   2.617   1.901   3.075  0.5885  0.0626 -0.6980
 2979SOL     H112360   2.584   1.983   3.039  1.3929  1.5232  1.6652
 2979SOL     H212361   2.621   1.916   3.169  1.2279 -2.5504 -0.2252
 2979SOL    EPW12362   2.614   1.912   3.081  0.7426 -0.0603 -0.3955
 2980SOL      O12363   1.950   2.936   2.774  0.4543  0.2644  0.5693
 2980SOL     H112364   1.995   2.886   2.842 -1.7021  0.3038  2.1413
 2980SOL     H212365   2.015   2.998   2.743  1.8074 -0.3982  1.9272
 2980SOL    EPW12366   1.961   2.937   2.778  0.3686  0.1979  0.8818
 2981SOL      O12367   3.215   0.660   2.880  0.4004  0.7641  0.2605
 2981SOL     H112368   3.217   0.722   2.954  0.7767 -0.5017  1.3515
 2981SOL     H212369   3.145   0.599   2.902  1.1526 -0.1937  0.0696
 2981SOL    EPW12370   3.208   0.660   2.890  0.5208  0.5269  0.3565
 2982SOL      O12371   3.205   5.620   0.988  0.0163 -0.6007 -0.5072
 2982SOL     H112372   3.300   5.612   0.998  0.2761  0.9885 -1.2713
 2982SOL     H212373   3.169   5.581   1.067  1.3420 -0.4279  0.2143
 2982SOL    EPW12374   3.211   5.615   0.997  0.1854 -0.4127 -0.5118
 2983SOL      O12375   3.182   1.596   3.095 -0.4271 -0.0406 -0.2112
 2983SOL     H112376   3.193   1.591   3.000 -0.7881 -1.5397 -0.2086
 2983SOL     H212377   3.211   1.684   3.118  0.9103 -0.0780 -1.5579
 2983SOL    EPW12378   3.187   1.605   3.087 -0.3230 -0.2045 -0.3546
 2984SOL      O12379   4.787   1.456   1.176 -0.6999 -0.2924 -0.1951
 2984SOL     H112380   4.805   1.362   1.164  2.6816  0.2786 -0.6526
 2984SOL     H212381   4.770   1.488   1.088  1.7733  0.0690 -0.6009
 2984SOL    EPW12382   4.787   1.449   1.166 -0.0753 -0.1929 -0.2872
 2985SOL      O12383   3.742   0.278   3.019  0.3377 -0.3622 -0.1280
 2985SOL     H112384   3.705   0.360   2.986  0.0959  0.2192  1.4900
 2985SOL     H212385   3.805   0.305   3.086 -1.2459 -1.4876  1.9222
 2985SOL    EPW12386   3.745   0.290   3.023  0.1430 -0.4202  0.2633
 2986SOL      O12387   5.353   2.299   1.566  0.0550 -0.1515 -0.0873
 2986SOL     H112388   5.343   2.331   1.477  3.4455 -0.8024 -0.8579
 2986SOL     H212389   5.302   2.218   1.569 -1.1828  0.5774 -0.9781
 2986SOL    EPW12390   5.346   2.294   1.557  0.2846 -0.1432 -0.2646
 2987SOL      O12391   4.961   5.811   3.991 -0.5154 -0.5018  0.0990
 2987SOL     H112392   5.017   5.768   3.926  0.3542 -0.5802  0.8741
 2987SOL     H212393   4.967   5.904   3.970 -0.2511 -0.5266  0.0589
 2987SOL    EPW12394   4.968   5.816   3.982 -0.3945 -0.5129  0.1774
 2988SOL      O12395   2.866   1.815   1.025  0.1228  0.2310  0.0600
 2988SOL     H112396   2.798   1.853   1.081 -2.2333 -2.2739 -0.9328
 2988SOL     H212397   2.876   1.878   0.953 -0.4804  1.0411  0.6735
 2988SOL    EPW12398   2.860   1.826   1.023 -0.1928  0.0502  0.0196
 2989SOL      O12399   3.994   3.850   3.108  0.1008  0.5786 -0.1257
 2989SOL     H112400   3.955   3.801   3.181 -0.2575  0.1544 -0.5964
 2989SOL     H212401   4.000   3.940   3.140 -0.1904  0.4232  0.3780
 2989SOL    EPW12402   3.990   3.854   3.119  0.0315  0.5167 -0.1222
 2990SOL      O12403   0.245   0.877   0.760  0.3073  0.4392 -0.2703
 2990SOL     H112404   0.222   0.956   0.711 -2.9446 -1.5006 -2.2739
 2990SOL     H212405   0.289   0.821   0.696  1.8856  0.2615  0.9111
 2990SOL    EPW12406   0.247   0.879   0.748  0.1288  0.2133 -0.3580
 2991SOL      O12407   4.932   1.352   3.274  0.0602 -0.4006  0.0182
 2991SOL     H112408   5.011   1.384   3.317 -0.8378  2.2803 -0.1252
 2991SOL     H212409   4.901   1.427   3.222 -1.7241 -1.8680 -1.1770
 2991SOL    EPW12410   4.937   1.364   3.273 -0.2259 -0.2712 -0.1246
 2992SOL      O12411   4.613   4.258   0.454  0.0369 -0.4465  0.4066
 2992SOL     H112412   4.594   4.274   0.546  0.0230  3.8744 -0.1639
 2992SOL     H212413   4.535   4.214   0.421 -0.8322 -0.2121  2.0312
 2992SOL    EPW12414   4.603   4.255   0.460 -0.0573  0.0395  0.5191
 2993SOL      O12415   5.045   5.046   1.363 -0.5237  0.2482  0.2302
 2993SOL     H112416   4.992   5.042   1.443 -1.9186  1.3269 -0.5894
 2993SOL     H212417   4.984   5.020   1.293  0.8654 -1.3900 -0.4272
 2993SOL    EPW12418   5.033   5.043   1.364 -0.5243  0.1885  0.0726
 2994SOL      O12419   0.791   4.640   1.827  0.0025  0.0171  0.2653
 2994SOL     H112420   0.812   4.554   1.790  0.5404  1.3419 -2.7953
 2994SOL     H212421   0.868   4.663   1.878  0.7725 -0.4529 -0.6445
 2994SOL    EPW12422   0.801   4.633   1.828  0.1420  0.1083 -0.1582
 2995SOL      O12423   4.768   5.150   0.629  0.0070  0.2420  0.1067
 2995SOL     H112424   4.844   5.161   0.687  0.6953  0.9094 -0.8847
 2995SOL     H212425   4.774   5.059   0.599 -1.3322 -0.6737  2.3616
 2995SOL    EPW12426   4.777   5.141   0.632 -0.0625  0.2155  0.2414
 2996SOL      O12427   4.236   0.249   2.726  0.3246 -0.5752  0.7193
 2996SOL     H112428   4.154   0.202   2.706  0.2287  0.4532 -1.6529
 2996SOL     H212429   4.292   0.183   2.768 -1.3241 -1.5759  1.4430
 2996SOL    EPW12430   4.233   0.237   2.728  0.1385 -0.5722  0.5435
 2997SOL      O12431   2.199   1.390   3.048 -0.1793 -0.1018 -0.1901
 2997SOL     H112432   2.139   1.395   2.974  0.9928 -1.2062 -1.2644
 2997SOL     H212433   2.227   1.299   3.051 -1.1740 -0.4361  2.4770
 2997SOL    EPW12434   2.196   1.381   3.041 -0.1604 -0.2553 -0.0202
 2998SOL      O12435   2.066   3.457   3.615 -0.2410 -0.1332  0.3611
 2998SOL     H112436   2.115   3.404   3.678 -1.8209 -1.4834  0.5120
 2998SOL     H212437   2.071   3.546   3.650  0.4559 -0.5544  1.4003
 2998SOL    EPW12438   2.072   3.461   3.626 -0.3352 -0.3222  0.4881
 2999SOL      O12439   4.890   1.352   1.767  0.3024 -0.0813  0.0572
 2999SOL     H112440   4.884   1.263   1.803 -0.0736  0.0377  0.2987
 2999SOL     H212441   4.818   1.357   1.704 -0.6231  0.5395  1.1350
 2999SOL    EPW12442   4.882   1.343   1.764  0.1635 -0.0024  0.1980
 3000SOL      O12443   1.999   1.535   3.569  0.3313 -0.0782 -0.0682
 3000SOL     H112444   2.073   1.578   3.525  1.9168 -1.9666  0.6190
 3000SOL     H212445   1.997   1.447   3.531 -0.4107 -0.6410  1.2287
 3000SOL    EPW12446   2.007   1.531   3.560  0.4212 -0.3397  0.1434
 3001SOL      O12447   3.835   2.277   3.635  0.0977  0.5044 -0.1807
 3001SOL     H112448   3.928   2.259   3.649  0.2088  1.3318  0.1709
 3001SOL     H212449   3.815   2.235   3.551  0.2543 -1.5721  0.7464
 3001SOL    EPW12450   3.843   2.270   3.627  0.1262  0.3711 -0.0443
 3002SOL      O12451   1.025   2.615   2.690 -0.6878 -0.2412  0.0678
 3002SOL     H112452   1.071   2.607   2.773 -2.0860 -1.0297  0.8045
 3002SOL     H212453   1.067   2.688   2.645  0.9712 -0.6693  0.8820
 3002SOL    EPW12454   1.034   2.622   2.694 -0.6600 -0.3710  0.2332
 3003SOL      O12455   2.208   5.308   3.322  0.0886 -0.1482  0.2273
 3003SOL     H112456   2.256   5.359   3.257 -0.8666  0.1674 -0.2386
 3003SOL     H212457   2.247   5.334   3.406  0.2671  0.6123 -0.0852
 3003SOL    EPW12458   2.217   5.316   3.324  0.0057 -0.0334  0.1442
 3004SOL      O12459   2.726   3.678   0.823  0.0367  0.3441  0.2312
 3004SOL     H112460   2.752   3.642   0.738  1.0451  0.2671  0.5574
 3004SOL     H212461   2.658   3.742   0.802  0.9078  0.9946 -0.7338
 3004SOL    EPW12462   2.722   3.681   0.812  0.2372  0.4053  0.1630
 3005SOL      O12463   5.714   1.867   3.390 -0.4027  0.0259  0.2788
 3005SOL     H112464   5.652   1.912   3.331  0.7403  1.7497  0.3027
 3005SOL     H212465   5.695   1.774   3.378 -2.5631  0.4630 -0.1725
 3005SOL    EPW12466   5.705   1.862   3.382 -0.5112  0.2564  0.2332
 3006SOL      O12467   1.127   3.391   3.673  0.1498  0.1273 -0.2472
 3006SOL     H112468   1.141   3.486   3.681  1.4420 -0.0691 -0.0394
 3006SOL     H212469   1.049   3.374   3.726 -0.6339  1.1944 -1.0102
 3006SOL    EPW12470   1.120   3.399   3.680  0.2041  0.2202 -0.3064
 3007SOL      O12471   4.559   1.499   3.714 -1.1036  0.2603 -0.0453
 3007SOL     H112472   4.649   1.492   3.683 -0.0704  0.8876  2.5297
 3007SOL     H212473   4.546   1.419   3.765 -1.9248  0.2945 -0.1960
 3007SOL    EPW12474   4.567   1.489   3.717 -1.0810  0.3309  0.2133
 3008SOL      O12475   5.590   5.031   0.338 -0.0145 -0.0742  0.3852
 3008SOL     H112476   5.495   5.024   0.349 -0.1357 -0.0427 -0.5423
 3008SOL     H212477   5.621   5.069   0.420 -0.8287  0.1029  0.6187
 3008SOL    EPW12478   5.583   5.034   0.348 -0.1142 -0.0520  0.3112
 3009SOL      O12479   5.508   2.114   3.695 -0.3547 -0.3115 -0.2102
 3009SOL     H112480   5.550   2.200   3.706 -0.4573 -0.3849  0.8253
 3009SOL     H212481   5.557   2.073   3.623 -0.1897  0.5370 -0.5988
 3009SOL    EPW12482   5.518   2.119   3.688 -0.3481 -0.2288 -0.1412
 3010SOL      O12483   2.126   5.748   2.397 -0.0243  0.3900  0.0753
 3010SOL     H112484   2.143   5.797   2.316  1.2957  0.3399  0.3006
 3010SOL     H212485   2.102   5.816   2.461  0.7288  0.6528  0.0991
 3010SOL    EPW12486   2.126   5.761   2.395  0.1968  0.4127  0.1019
 3011SOL      O12487   3.095   3.237   1.927  0.0712  0.3350  0.1043
 3011SOL     H112488   3.089   3.173   1.998  0.2363 -1.1665 -1.1944
 3011SOL     H212489   3.132   3.189   1.854  0.3520  1.9742 -0.8883
 3011SOL    EPW12490   3.098   3.225   1.927  0.1188  0.3497 -0.1401
 3012SOL      O12491   0.925   0.856   1.921  0.1407 -0.9478  0.2283
 3012SOL     H112492   0.957   0.799   1.851 -0.6296 -2.2227  0.8606
 3012SOL     H212493   0.849   0.901   1.883 -0.1440 -1.4723  0.1604
 3012SOL    EPW12494   0.920   0.854   1.910  0.0282 -1.1397  0.2885
 3013SOL      O12495   4.350   1.821   0.385 -0.1017  0.1069 -0.4646
 3013SOL     H112496   4.373   1.747   0.328  0.1329 -0.5741  0.4822
 3013SOL     H212497   4.407   1.892   0.356  1.1214 -0.6825 -0.1035
 3013SOL    EPW12498   4.359   1.821   0.376  0.0538 -0.0500 -0.3251
 3014SOL      O12499   0.773   1.050   2.574  0.8967 -0.4136 -0.1656
 3014SOL     H112500   0.809   1.139   2.579 -0.3162  0.1115 -0.2823
 3014SOL     H212501   0.700   1.058   2.513  0.4155 -1.3632  0.2694
 3014SOL    EPW12502   0.769   1.061   2.568  0.7160 -0.4589 -0.1316
 3015SOL      O12503   3.176   0.083   0.177 -0.0730 -0.3741  0.0575
 3015SOL     H112504   3.214   0.135   0.107 -1.5140  0.1551 -0.3821
 3015SOL     H212505   3.169   0.144   0.251 -1.2876 -0.0613 -0.2956
 3015SOL    EPW12506   3.179   0.095   0.178 -0.3563 -0.2843 -0.0271
 3016SOL      O12507   5.300   5.434   1.456 -0.0581 -0.3563 -0.0589
 3016SOL     H112508   5.248   5.499   1.502 -0.9058 -1.2593  0.2944
 3016SOL     H212509   5.252   5.418   1.375  2.9137  3.4422 -2.9389
 3016SOL    EPW12510   5.289   5.439   1.452  0.1685 -0.0474 -0.3284
 3017SOL      O12511   3.280   2.844   2.387  0.4694  0.1501 -0.8053
 3017SOL     H112512   3.263   2.809   2.475  0.2946  0.5470 -0.6805
 3017SOL     H212513   3.375   2.839   2.377  0.5356  0.5787 -0.3945
 3017SOL    EPW12514   3.289   2.840   2.395  0.4578  0.2382 -0.7481
 3018SOL      O12515   4.144   3.202   3.480  0.4884  0.4104  0.5041
 3018SOL     H112516   4.143   3.183   3.386 -1.8911 -0.0072  0.5503
 3018SOL     H212517   4.147   3.115   3.522 -0.3345  0.4960  0.7693
 3018SOL    EPW12518   4.144   3.190   3.475  0.1468  0.3750  0.5373
 3019SOL      O12519   5.319   4.417   3.644  0.0931 -0.3678 -1.0196
 3019SOL     H112520   5.371   4.367   3.581 -0.5495 -1.4188 -0.7305
 3019SOL     H212521   5.237   4.369   3.652  0.2145 -0.3359  0.7142
 3019SOL    EPW12522   5.316   4.407   3.638  0.0375 -0.4765 -0.8038
 3020SOL      O12523   1.737   4.590   2.916 -0.0052  0.9896 -0.5827
 3020SOL     H112524   1.650   4.578   2.876 -0.9325  0.9481  1.3044
 3020SOL     H212525   1.767   4.500   2.932 -0.1711  1.0071 -0.1513
 3020SOL    EPW12526   1.731   4.579   2.914 -0.1218  0.9871 -0.3353
 3021SOL      O12527   3.259   1.887   2.406  0.6167  0.1727 -0.3625
 3021SOL     H112528   3.250   1.807   2.457 -1.0565  2.1561  2.7181
 3021SOL     H212529   3.193   1.879   2.336  1.2359 -1.5244 -0.8066
 3021SOL    EPW12530   3.251   1.878   2.404  0.5043  0.2032 -0.0812
 3022SOL      O12531   1.040   1.482   1.997  0.0564  0.4288 -0.1437
 3022SOL     H112532   1.090   1.533   2.060 -1.1217  1.3770  0.0584
 3022SOL     H212533   1.048   1.531   1.915 -0.6948  0.6822 -0.0647
 3022SOL    EPW12534   1.046   1.492   1.995 -0.1494  0.5570 -0.1137
 3023SOL      O12535   0.681   3.169   3.346 -0.2507  0.0159  0.1724
 3023SOL     H112536   0.762   3.193   3.300 -0.0538 -0.6656  0.1495
 3023SOL     H212537   0.665   3.078   3.321  0.5717 -0.8174  2.4246
 3023SOL    EPW12538   0.688   3.162   3.339 -0.1420 -0.1457  0.4102
 3024SOL      O12539   5.724   3.326   0.838  0.7162 -0.3398  0.9282
 3024SOL     H112540   5.641   3.293   0.804  0.3564  0.0325  1.4191
 3024SOL     H212541   5.707   3.418   0.858  1.4052 -0.1211  0.5365
 3024SOL    EPW12542   5.713   3.332   0.837  0.7513 -0.2767  0.9388
 3025SOL      O12543   1.338   0.413   2.707  0.9797  0.0550  0.1763
 3025SOL     H112544   1.424   0.452   2.690  1.5168 -1.0065  0.4391
 3025SOL     H212545   1.355   0.319   2.714 -0.3118 -0.2431 -0.4816
 3025SOL    EPW12546   1.349   0.407   2.706  0.8992 -0.0900  0.1342
 3026SOL      O12547   1.272   0.988   0.267 -0.1334 -0.0042  0.2101
 3026SOL     H112548   1.346   1.043   0.295  0.8239  0.5502 -3.0051
 3026SOL     H212549   1.285   0.905   0.313  1.7651  0.5267  0.7208
 3026SOL    EPW12550   1.282   0.985   0.275  0.1713  0.1116 -0.0784
 3027SOL      O12551   4.892   2.578   2.500 -0.2924  0.3705 -0.0534
 3027SOL     H112552   4.818   2.587   2.560  0.6679 -0.1109  1.2579
 3027SOL     H212553   4.853   2.587   2.413 -1.7533  0.9717  0.6180
 3027SOL    EPW12554   4.880   2.580   2.497 -0.3458  0.3833  0.1581
 3028SOL      O12555   4.284   5.071   0.473  0.8594 -0.5640 -0.0573
 3028SOL     H112556   4.284   5.088   0.568  2.8081 -0.2676 -0.0657
 3028SOL     H212557   4.371   5.035   0.456  0.8598  0.2182 -1.8794
 3028SOL    EPW12558   4.293   5.069   0.482  1.0673 -0.4489 -0.2526
 3029SOL      O12559   1.276   1.653   1.923  0.2330  0.1355 -0.7636
 3029SOL     H112560   1.320   1.697   1.996 -1.3795  1.2415 -0.4195
 3029SOL     H212561   1.268   1.721   1.856 -0.0879 -0.3193 -1.1868
 3029SOL    EPW12562   1.280   1.665   1.924  0.0267  0.2049 -0.7721
 3030SOL      O12563   3.612   3.584   3.846 -0.0572  0.2223  0.1372
 3030SOL     H112564   3.556   3.661   3.854 -1.6867 -1.1253  2.9102
 3030SOL     H212565   3.584   3.543   3.764 -2.5426  0.0810  0.9821
 3030SOL    EPW12566   3.603   3.588   3.838 -0.4961  0.0635  0.5231
 3031SOL      O12567   2.869   1.300   3.383 -0.3736  0.0429  0.3132
 3031SOL     H112568   2.869   1.385   3.337 -1.3949  0.5587  1.2040
 3031SOL     H212569   2.826   1.319   3.466  0.2120 -1.1728  0.9072
 3031SOL    EPW12570   2.864   1.311   3.387 -0.4201 -0.0318  0.4716
 3032SOL      O12571   2.459   1.580   3.601  0.6740 -0.4642  0.0730
 3032SOL     H112572   2.433   1.515   3.666  1.7430  0.3162  1.3364
 3032SOL     H212573   2.535   1.541   3.558  1.5819  0.0888  1.1275
 3032SOL    EPW12574   2.465   1.569   3.603  0.8849 -0.3219  0.3202
 3033SOL      O12575   0.887   1.856   3.751 -0.0104  0.0507 -0.3072
 3033SOL     H112576   0.850   1.940   3.776  1.4679  0.2523  1.3810
 3033SOL     H212577   0.814   1.808   3.711 -1.0494  1.8330 -0.6493
 3033SOL    EPW12578   0.875   1.860   3.749  0.0365  0.2623 -0.1636
 3034SOL      O12579   0.238   1.029   1.707 -0.1925  0.1426 -0.0894
 3034SOL     H112580   0.269   1.005   1.620  0.2576  1.7866 -0.4097
 3034SOL     H212581   0.205   1.118   1.697  0.5530  0.6359  1.5789
 3034SOL    EPW12582   0.238   1.036   1.697 -0.0650  0.3706  0.0544
 3035SOL      O12583   4.747   2.604   2.804 -0.1301 -0.0035  0.1954
 3035SOL     H112584   4.734   2.528   2.861  0.7214 -0.2871  0.0227
 3035SOL     H212585   4.842   2.612   2.796 -0.1750  1.5735  0.8624
 3035SOL    EPW12586   4.756   2.597   2.809 -0.0440  0.1345  0.2482
 3036SOL      O12587   1.073   3.039   3.127  0.2552  0.6003 -0.1074
 3036SOL     H112588   1.152   3.072   3.084  1.1618 -1.2169  0.0459
 3036SOL     H212589   1.106   2.976   3.192 -1.2869  0.3485  0.4759
 3036SOL    EPW12590   1.085   3.035   3.130  0.1874  0.3796 -0.0288
 3037SOL      O12591   1.338   4.789   0.957 -0.2089 -0.1886  0.0752
 3037SOL     H112592   1.397   4.828   1.021 -1.5332  0.3651  0.9915
 3037SOL     H212593   1.375   4.703   0.939  1.9495  0.8493 -0.8645
 3037SOL    EPW12594   1.349   4.784   0.962 -0.1199 -0.0188  0.0727
 3038SOL      O12595   5.522   3.602   0.425  0.4116  1.0624  0.0545
 3038SOL     H112596   5.534   3.579   0.333  1.2268  1.0462  0.1522
 3038SOL     H212597   5.551   3.693   0.431 -1.2464  1.6243 -0.0163
 3038SOL    EPW12598   5.526   3.609   0.416  0.3217  1.1206  0.0574
 3039SOL      O12599   3.773   3.028   2.374  0.4677 -0.4672 -0.5924
 3039SOL     H112600   3.805   3.079   2.448  0.7674 -1.6276  0.1145
 3039SOL     H212601   3.717   2.961   2.413 -0.6892 -0.1083 -1.5844
 3039SOL    EPW12602   3.771   3.026   2.386  0.3762 -0.5527 -0.6228
 3040SOL      O12603   1.296   4.369   2.912 -0.3478  0.2099 -0.3767
 3040SOL     H112604   1.225   4.418   2.954 -1.4327 -0.6781 -1.1206
 3040SOL     H212605   1.327   4.310   2.980 -0.0640  0.8559  0.0663
 3040SOL    EPW12606   1.291   4.368   2.924 -0.4332  0.1841 -0.4088
 3041SOL      O12607   1.689   3.229   4.066 -0.5379  0.2256 -0.1681
 3041SOL     H112608   1.675   3.314   4.024 -1.4587  0.2287  0.1273
 3041SOL     H212609   1.655   3.240   4.155 -0.6287 -0.4426 -0.1157
 3041SOL    EPW12610   1.684   3.240   4.071 -0.6458  0.1547 -0.1310
 3042SOL      O12611   3.427   0.841   3.482 -0.1694 -0.2096 -0.5580
 3042SOL     H112612   3.496   0.783   3.513  1.0209 -0.5573 -3.5014
 3042SOL     H212613   3.347   0.790   3.492  0.5236 -1.3750 -0.6694
 3042SOL    EPW12614   3.426   0.829   3.486  0.0315 -0.3710 -0.8838
 3043SOL      O12615   3.229   4.478   1.652  0.1138  0.2463 -0.2149
 3043SOL     H112616   3.315   4.519   1.648 -0.0147  0.4057 -2.1375
 3043SOL     H212617   3.248   4.386   1.672  0.6741  0.4000 -0.0157
 3043SOL    EPW12618   3.240   4.472   1.654  0.1599  0.2797 -0.3987
 3044SOL      O12619   5.577   2.591   2.382  0.4077 -0.3570  0.0103
 3044SOL     H112620   5.501   2.535   2.393 -1.3031  1.7148 -0.6574
 3044SOL     H212621   5.558   2.668   2.436  1.2335  0.9283 -1.4454
 3044SOL    EPW12622   5.567   2.593   2.389  0.3133  0.0011 -0.2162
 3045SOL      O12623   5.145   0.485   4.070  0.4735  0.4014  0.0936
 3045SOL     H112624   5.226   0.474   4.119  1.0188  1.2460 -0.5843
 3045SOL     H212625   5.168   0.461   3.980  0.0224  0.8163 -0.1354
 3045SOL    EPW12626   5.156   0.481   4.066  0.4835  0.5357 -0.0032
 3046SOL      O12627   2.671   0.442   1.305  0.4583 -0.1216  0.3598
 3046SOL     H112628   2.579   0.465   1.313  0.7705  1.7107 -0.7714
 3046SOL     H212629   2.711   0.473   1.386  0.4121  0.9550 -0.0184
 3046SOL    EPW12630   2.666   0.448   1.315  0.4867  0.1887  0.1987
 3047SOL      O12631   5.693   4.269   1.180  0.5575 -0.2723 -0.3602
 3047SOL     H112632   5.714   4.176   1.185 -2.6432 -1.2682 -2.3935
 3047SOL     H212633   5.696   4.290   1.087  1.1069  1.6671  0.0356
 3047SOL    EPW12634   5.695   4.262   1.171  0.2747 -0.1717 -0.5349
 3048SOL      O12635   2.824   1.702   0.621  0.4290  0.2990  0.7636
 3048SOL     H112636   2.877   1.622   0.625 -1.1550 -0.7883  1.3214
 3048SOL     H212637   2.886   1.773   0.632  1.7043 -0.9280  1.9150
 3048SOL    EPW12638   2.836   1.701   0.623  0.3961  0.0521  0.9459
 3049SOL      O12639   4.243   3.418   0.151 -0.2898 -0.1947 -0.0663
 3049SOL     H112640   4.325   3.370   0.143 -1.2128 -1.7272 -1.0283
 3049SOL     H212641   4.220   3.411   0.244  0.7083  0.3483  0.2270
 3049SOL    EPW12642   4.249   3.412   0.160 -0.2818 -0.3002 -0.1377
 3050SOL      O12643   1.169   4.856   1.731 -0.1929  0.3072  0.1519
 3050SOL     H112644   1.130   4.936   1.697 -2.7693 -1.5359 -1.6963
 3050SOL     H212645   1.186   4.803   1.652  2.0879 -0.7293  1.2449
 3050SOL    EPW12646   1.167   4.859   1.719 -0.2245  0.0000  0.0713
 3051SOL      O12647   5.045   4.782   1.199  0.3653 -0.2922 -0.1096
 3051SOL     H112648   4.952   4.790   1.217  0.5670 -0.3472  0.9918
 3051SOL     H212649   5.049   4.760   1.106 -0.6647  0.9758 -0.4884
 3051SOL    EPW12650   5.036   4.781   1.191  0.2769 -0.1628 -0.0325
 3052SOL      O12651   4.044   2.468   0.553  0.4638 -0.2314 -0.2847
 3052SOL     H112652   4.020   2.377   0.571 -1.7936 -0.0019 -1.6681
 3052SOL     H212653   4.085   2.466   0.467 -1.7927  0.2494 -1.4553
 3052SOL    EPW12654   4.045   2.458   0.546 -0.0177 -0.1556 -0.5571
 3053SOL      O12655   1.692   4.472   1.371  0.6987  0.0216 -0.3164
 3053SOL     H112656   1.627   4.402   1.373 -2.2767  2.5914  2.0140
 3053SOL     H212657   1.772   4.431   1.405 -1.1240 -2.1000  1.7340
 3053SOL    EPW12658   1.694   4.460   1.375  0.1869  0.0694  0.1509
 3054SOL      O12659   4.961   5.646   3.529 -0.1818 -0.6001 -0.2445
 3054SOL     H112660   4.954   5.600   3.445  0.8172 -1.4585  0.1330
 3054SOL     H212661   4.911   5.727   3.515 -1.4720 -1.4932 -1.1181
 3054SOL    EPW12662   4.955   5.650   3.519 -0.2129 -0.7870 -0.2974
 3055SOL      O12663   4.456   2.068   3.542  0.2928 -0.3934  0.5645
 3055SOL     H112664   4.437   2.093   3.632 -0.1013  1.4766  0.0086
 3055SOL     H212665   4.371   2.041   3.506  0.0921  0.6106  0.2565
 3055SOL    EPW12666   4.445   2.068   3.548  0.2293 -0.0868  0.4723
 3056SOL      O12667   5.267   1.781   3.142  0.4539 -0.1885 -0.0291
 3056SOL     H112668   5.195   1.795   3.202 -0.1104 -0.5034 -0.6226
 3056SOL     H212669   5.282   1.866   3.102 -0.3808 -0.3784 -0.7706
 3056SOL    EPW12670   5.261   1.791   3.144  0.3046 -0.2423 -0.1715
 3057SOL      O12671   4.431   4.007   0.525 -0.3649 -0.7474  0.2698
 3057SOL     H112672   4.367   4.000   0.596 -0.6479  2.6054  0.4687
 3057SOL     H212673   4.512   4.036   0.568 -0.9843  3.0551 -0.7688
 3057SOL    EPW12674   4.433   4.009   0.537 -0.4612  0.0159  0.1802
 3058SOL      O12675   1.015   2.293   0.359  0.0098  0.4698  0.0621
 3058SOL     H112676   1.044   2.227   0.296  0.6582 -0.2841  1.1135
 3058SOL     H212677   0.977   2.243   0.430 -1.0731  1.3344  0.1075
 3058SOL    EPW12678   1.014   2.281   0.360 -0.0366  0.4816  0.1791
 3059SOL      O12679   5.185   4.502   4.120 -0.0295 -0.7590 -0.2808
 3059SOL     H112680   5.236   4.472   4.045  0.3114 -0.1750 -0.2864
 3059SOL     H212681   5.154   4.421   4.161 -0.7763 -1.0718 -1.4156
 3059SOL    EPW12682   5.188   4.490   4.117 -0.0728 -0.7301 -0.4024
 3060SOL      O12683   0.995   2.701   3.896 -0.4673 -0.1264 -0.2877
 3060SOL     H112684   0.930   2.645   3.854 -2.1400  1.3937  0.1611
 3060SOL     H212685   1.037   2.644   3.960 -1.6628 -1.0691 -0.2988
 3060SOL    EPW12686   0.992   2.689   3.899 -0.7733 -0.0648 -0.2410
 3061SOL      O12687   2.475   5.546   1.206  0.4015  0.2795 -0.2482
 3061SOL     H112688   2.532   5.570   1.133 -0.3191  0.5678 -0.7319
 3061SOL     H212689   2.416   5.480   1.168 -0.3434  0.8407 -0.0951
 3061SOL    EPW12690   2.475   5.541   1.194  0.2452  0.3701 -0.2834
 3062SOL      O12691   3.908   0.628   1.968  0.1182 -0.1529 -0.1274
 3062SOL     H112692   3.887   0.660   1.880 -1.0980 -1.5971 -0.3944
 3062SOL     H212693   3.828   0.585   1.998  0.7810 -0.3960  1.3720
 3062SOL    EPW12694   3.897   0.627   1.962  0.0592 -0.3329  0.0040
 3063SOL      O12695   0.716   1.368   2.829 -0.3579 -0.0651  0.5108
 3063SOL     H112696   0.717   1.447   2.883  2.9819 -0.1887  0.8132
 3063SOL     H212697   0.677   1.396   2.746 -1.4059  1.2485  1.4057
 3063SOL    EPW12698   0.712   1.379   2.826 -0.1135  0.0619  0.6385
 3064SOL      O12699   4.580   4.377   4.118  0.0913  0.3676  0.3401
 3064SOL     H112700   4.521   4.447   4.089  0.1514  0.5574  0.6777
 3064SOL     H212701   4.526   4.298   4.115 -0.3293  0.6187  1.1399
 3064SOL    EPW12702   4.568   4.376   4.115  0.0528  0.4147  0.4614
 3065SOL      O12703   1.536   1.920   1.676 -0.7780 -0.2670 -0.4026
 3065SOL     H112704   1.555   1.831   1.706  0.0493 -0.2210 -0.7806
 3065SOL     H212705   1.510   1.966   1.756  0.5549 -0.3786  0.1269
 3065SOL    EPW12706   1.535   1.915   1.688 -0.5476 -0.2740 -0.3864
 3066SOL      O12707   2.534   0.624   0.503 -0.0206  0.0949 -0.1061
 3066SOL     H112708   2.513   0.533   0.482  1.4521 -0.0080 -1.2993
 3066SOL     H212709   2.449   0.665   0.516 -0.7804 -1.1506 -0.8594
 3066SOL    EPW12710   2.522   0.618   0.502  0.0555 -0.0489 -0.3138
 3067SOL      O12711   3.757   1.665   2.612  0.8624 -0.4355  0.0321
 3067SOL     H112712   3.721   1.742   2.657 -0.0724 -1.3301  0.8745
 3067SOL     H212713   3.827   1.635   2.670  1.0553 -0.3725 -0.1679
 3067SOL    EPW12714   3.760   1.670   2.623  0.7832 -0.5242  0.1006
 3068SOL      O12715   4.967   1.113   1.347  0.1004 -0.0229 -0.2735
 3068SOL     H112716   4.920   1.090   1.267  0.3009  1.5092 -0.8693
 3068SOL     H212717   4.911   1.177   1.391 -0.2511 -1.2172  1.1135
 3068SOL    EPW12718   4.956   1.117   1.343  0.0843  0.0132 -0.1891
 3069SOL      O12719   2.134   2.416   1.751 -0.5205  0.0974 -0.2667
 3069SOL     H112720   2.184   2.495   1.772 -1.5557  0.3533  1.4871
 3069SOL     H212721   2.133   2.413   1.656  1.3588  0.9998 -0.3788
 3069SOL    EPW12722   2.140   2.424   1.743 -0.4305  0.2209 -0.0916
 3070SOL      O12723   0.516   3.077   2.762 -0.1738  0.7974  0.1949
 3070SOL     H112724   0.495   2.994   2.718  1.2620 -0.1179  1.1255
 3070SOL     H212725   0.490   3.063   2.853  1.0600  0.9274  0.5947
 3070SOL    EPW12726   0.511   3.067   2.767  0.1110  0.7136  0.3368
 3071SOL      O12727   4.823   5.404   3.940 -0.0406  0.0305 -0.0693
 3071SOL     H112728   4.731   5.402   3.913 -0.1225  1.5216  0.0530
 3071SOL     H212729   4.872   5.403   3.857 -0.2287  1.4060 -0.2175
 3071SOL    EPW12730   4.818   5.403   3.928 -0.0694  0.3363 -0.0720
 3072SOL      O12731   1.682   2.106   2.225  0.2876  0.3243 -0.0102
 3072SOL     H112732   1.775   2.093   2.209  0.2744 -0.0558  0.2079
 3072SOL     H212733   1.667   2.199   2.207  0.6302  0.3012 -0.4242
 3072SOL    EPW12734   1.690   2.114   2.222  0.3227  0.2813 -0.0311
 3073SOL      O12735   1.195   2.166   1.195  0.5184  0.1306  0.1500
 3073SOL     H112736   1.232   2.181   1.282 -0.2572 -0.9180  0.6716
 3073SOL     H212737   1.122   2.228   1.189 -1.1780 -1.6473  1.3655
 3073SOL    EPW12738   1.191   2.174   1.204  0.2547 -0.1709  0.3353
 3074SOL      O12739   0.757   2.407   4.017  0.1222  0.7760 -0.2023
 3074SOL     H112740   0.721   2.363   4.095 -0.0533  0.1259 -0.6394
 3074SOL     H212741   0.849   2.380   4.016 -0.2032 -0.3942 -0.9998
 3074SOL    EPW12742   0.763   2.399   4.026  0.0688  0.5818 -0.3340
 3075SOL      O12743   0.929   0.632   1.729 -0.0102  0.6469  0.4354
 3075SOL     H112744   0.979   0.557   1.696 -1.2001 -0.0129  0.0734
 3075SOL     H212745   0.892   0.602   1.812 -1.8331  0.2061 -0.4769
 3075SOL    EPW12746   0.930   0.621   1.735 -0.3316  0.5295  0.2995
 3076SOL      O12747   2.119   2.799   4.066 -0.0889  0.0064 -0.0191
 3076SOL     H112748   2.047   2.828   4.123  0.6688  1.2610  0.3246
 3076SOL     H212749   2.121   2.704   4.078 -1.8196 -0.0875 -0.2038
 3076SOL    EPW12750   2.112   2.792   4.074 -0.1927  0.1302 -0.0021
 3077SOL      O12751   2.645   1.038   1.075  0.1989  0.3890 -0.0458
 3077SOL     H112752   2.568   1.005   1.122 -0.1938  1.0332 -0.2273
 3077SOL     H212753   2.660   1.125   1.111 -0.3618  1.0716 -1.3829
 3077SOL    EPW12754   2.639   1.043   1.084  0.0972  0.5306 -0.2078
 3078SOL      O12755   5.034   2.709   3.109  0.8573 -0.0687 -0.1402
 3078SOL     H112756   5.019   2.650   3.183  0.0849 -1.7254 -1.5610
 3078SOL     H212757   5.093   2.776   3.144  2.7965 -2.3293  1.2308
 3078SOL    EPW12758   5.038   2.710   3.121  0.9818 -0.4866 -0.1455
 3079SOL      O12759   5.527   0.405   3.574  0.2387 -0.3673  0.5897
 3079SOL     H112760   5.503   0.497   3.589  1.2987  0.3922 -1.8903
 3079SOL     H212761   5.449   0.366   3.537  0.8832  0.5823 -1.9380
 3079SOL    EPW12762   5.516   0.411   3.572  0.4205 -0.1850  0.0555
 3080SOL      O12763   5.513   3.864   1.152 -0.2976  0.1199 -0.3116
 3080SOL     H112764   5.505   3.877   1.246 -2.2102  0.2896 -0.4565
 3080SOL     H212765   5.580   3.926   1.125 -1.0574  1.4431  0.6967
 3080SOL    EPW12766   5.519   3.872   1.159 -0.5827  0.2792 -0.2195
 3081SOL      O12767   4.292   1.343   2.456 -0.4437 -0.1638  0.3956
 3081SOL     H112768   4.232   1.325   2.383  0.1686  1.9199 -0.6914
 3081SOL     H212769   4.379   1.333   2.418 -0.1176  0.1513  1.0512
 3081SOL    EPW12770   4.295   1.340   2.444 -0.3436  0.0921  0.3495
 3082SOL      O12771   0.834   3.178   2.185  0.0272 -0.4147 -0.5685
 3082SOL     H112772   0.878   3.182   2.100  1.5340 -1.3792  0.1504
 3082SOL     H212773   0.773   3.105   2.177 -0.3961 -0.0283 -1.0432
 3082SOL    EPW12774   0.832   3.171   2.175  0.1428 -0.4764 -0.5424
 3083SOL      O12775   1.082   5.691   0.108 -0.0652  0.1431  0.2233
 3083SOL     H112776   1.045   5.751   0.044 -0.4196 -1.1518 -0.8395
 3083SOL     H212777   1.011   5.631   0.129  0.9224 -1.3767 -0.5952
 3083SOL    EPW12778   1.071   5.691   0.104  0.0023 -0.1572  0.0226
 3084SOL      O12779   3.129   4.984   0.365  0.0276 -0.0301 -0.2766
 3084SOL     H112780   3.068   4.912   0.377 -0.6753 -0.1044 -3.4577
 3084SOL     H212781   3.124   5.034   0.447 -0.9370 -2.4449  1.2272
 3084SOL    EPW12782   3.122   4.982   0.375 -0.1503 -0.2956 -0.4555
 3085SOL      O12783   2.786   4.754   1.308 -0.3078  0.1996  0.3897
 3085SOL     H112784   2.834   4.672   1.300  1.1665  1.1355 -0.7605
 3085SOL     H212785   2.712   4.733   1.366  0.5543 -1.6800  0.8711
 3085SOL    EPW12786   2.783   4.743   1.313 -0.0586  0.0990  0.3183
 3086SOL      O12787   0.894   1.756   2.283 -0.3395 -0.8995  0.5850
 3086SOL     H112788   0.940   1.795   2.208 -0.6157 -1.2130  0.2513
 3086SOL     H212789   0.802   1.752   2.255 -0.4913 -0.7405  1.0566
 3086SOL    EPW12790   0.889   1.760   2.272 -0.3852 -0.9160  0.5997
 3087SOL      O12791   1.782   0.059   2.960 -0.1046  0.1854 -0.3037
 3087SOL     H112792   1.808   0.137   2.911 -1.4083  0.2126 -0.9840
 3087SOL     H212793   1.771  -0.008   2.892  3.7934 -1.5124  0.4378
 3087SOL    EPW12794   1.784   0.060   2.947  0.1721  0.0072 -0.2972
 3088SOL      O12795   2.263   4.916   3.351 -0.2086  0.0439 -0.1208
 3088SOL     H112796   2.193   4.976   3.377  0.6642  0.8669  0.4095
 3088SOL     H212797   2.329   4.926   3.419 -0.6771 -2.7173  0.8701
 3088SOL    EPW12798   2.262   4.924   3.361 -0.1655 -0.1628  0.0415
 3089SOL      O12799   3.080   3.545   1.180 -0.4530  0.2936 -1.1861
 3089SOL     H112800   3.051   3.590   1.100 -3.5705  0.3270 -0.1771
 3089SOL     H212801   3.101   3.456   1.152 -0.9405  0.4639 -2.1254
 3089SOL    EPW12802   3.079   3.541   1.168 -0.8376  0.3154 -1.1786
 3090SOL      O12803   5.543   1.276   2.937 -0.6203 -0.1071 -0.4481
 3090SOL     H112804   5.453   1.300   2.958 -0.3180 -0.6744  1.7251
 3090SOL     H212805   5.593   1.297   3.016  1.2274  0.4293 -1.6934
 3090SOL    EPW12806   5.539   1.280   2.947 -0.3910 -0.1104 -0.3491
 3091SOL      O12807   2.264   3.646   0.229 -0.1666  0.0264  0.5094
 3091SOL     H112808   2.329   3.671   0.295  1.4043  0.8092 -1.2266
 3091SOL     H212809   2.281   3.554   0.213 -0.2820 -0.0633  0.8828
 3091SOL    EPW12810   2.273   3.639   0.234 -0.0113  0.1004  0.3641
 3092SOL      O12811   5.360   4.669   3.325 -0.1720  0.0738 -0.0870
 3092SOL     H112812   5.373   4.709   3.239 -1.4071 -0.3016 -0.4680
 3092SOL     H212813   5.347   4.576   3.307 -2.1941  0.2349  0.3105
 3092SOL    EPW12814   5.360   4.663   3.314 -0.5195  0.0510 -0.0853
 3093SOL      O12815   1.994   1.490   3.249 -0.2207  0.1263  0.0768
 3093SOL     H112816   2.029   1.575   3.276 -0.5140 -0.3382  2.0856
 3093SOL     H212817   2.057   1.458   3.184  0.8014  1.1365  0.5249
 3093SOL    EPW12818   2.004   1.496   3.245 -0.1430  0.1845  0.3389
 3094SOL      O12819   5.011   2.313   0.029  0.0517 -0.3409 -0.6617
 3094SOL     H112820   5.006   2.407   0.012 -0.9004 -0.4594 -1.1116
 3094SOL     H212821   5.095   2.287  -0.008  0.7600  0.4774  0.2880
 3094SOL    EPW12822   5.020   2.320   0.023  0.0257 -0.2662 -0.6084
 3095SOL      O12823   3.675   1.320   1.824  0.4844  0.0286 -0.9749
 3095SOL     H112824   3.718   1.279   1.898  1.0178  0.6814 -0.9153
 3095SOL     H212825   3.589   1.277   1.820  0.0257  0.6961  0.6674
 3095SOL    EPW12826   3.670   1.311   1.832  0.4923  0.1694 -0.7934
 3096SOL      O12827   5.055   5.656   1.141 -0.0613  0.2269  0.7597
 3096SOL     H112828   5.092   5.644   1.054  1.7182  0.7807  1.4000
 3096SOL     H212829   5.109   5.724   1.181 -2.7114  2.2357  1.2392
 3096SOL    EPW12830   5.064   5.662   1.136 -0.1542  0.5002  0.8792
 3097SOL      O12831   3.513   3.648   3.346 -0.1013  0.5517  0.2476
 3097SOL     H112832   3.456   3.612   3.413  0.8181  1.3820  1.5243
 3097SOL     H212833   3.465   3.722   3.310  0.0473  1.0896  1.1366
 3097SOL    EPW12834   3.502   3.652   3.349  0.0126  0.6977  0.4786
 3098SOL      O12835   3.994   2.716   2.043  0.3148  0.0200 -0.0982
 3098SOL     H112836   4.013   2.750   2.130  0.4815 -1.1557  0.3369
 3098SOL     H212837   4.014   2.789   1.984 -1.6643  1.4863  0.9657
 3098SOL    EPW12838   3.999   2.727   2.046  0.1214  0.0510  0.0617
 3099SOL      O12839   5.713   5.495   1.085  0.0669 -0.2709  0.8687
 3099SOL     H112840   5.801   5.472   1.114  0.0171 -0.4230  0.8982
 3099SOL     H212841   5.659   5.486   1.163  0.5216  2.7934  1.6992
 3099SOL    EPW12842   5.717   5.492   1.097  0.1101  0.0398  0.9604
 3100SOL      O12843   3.270   4.191   3.251  0.3290  0.1925 -0.2574
 3100SOL     H112844   3.365   4.197   3.258  0.1432  2.4723  1.9011
 3100SOL     H212845   3.242   4.163   3.338 -0.9950 -1.7131 -1.2132
 3100SOL    EPW12846   3.277   4.188   3.261  0.1680  0.2324 -0.1291
 3101SOL      O12847   0.518   0.613   1.924  0.4624 -0.5209 -0.4771
 3101SOL     H112848   0.551   0.529   1.956 -0.4062 -0.8981 -0.5471
 3101SOL     H212849   0.441   0.631   1.978  0.6964  0.2886 -0.3918
 3101SOL    EPW12850   0.513   0.606   1.933  0.3947 -0.4748 -0.4755
 3102SOL      O12851   2.072   2.439   0.262  0.7076 -0.0343  1.1058
 3102SOL     H112852   2.113   2.502   0.322  1.5065 -1.2649  1.8760
 3102SOL     H212853   2.133   2.431   0.189  0.2232  0.6643  0.6000
 3102SOL    EPW12854   2.083   2.445   0.261  0.7411 -0.0910  1.1340
 3103SOL      O12855   3.859   2.522   3.466 -0.4603 -0.3934  0.1364
 3103SOL     H112856   3.942   2.535   3.513  0.1025 -2.1915 -0.2986
 3103SOL     H212857   3.858   2.429   3.444 -1.2173  0.1518 -2.4456
 3103SOL    EPW12858   3.868   2.514   3.469 -0.4810 -0.5271 -0.1855
 3104SOL      O12859   5.057   2.421   1.335 -0.0077  0.3665 -0.2362
 3104SOL     H112860   5.134   2.434   1.280  1.0694 -0.5277  0.9822
 3104SOL     H212861   4.993   2.378   1.277  0.2624  1.3952 -1.3423
 3104SOL    EPW12862   5.058   2.418   1.323  0.1360  0.3808 -0.2242
 3105SOL      O12863   0.367   0.472   0.722  0.3943 -0.6932  0.6773
 3105SOL     H112864   0.313   0.507   0.793  0.7205 -0.9841  1.0725
 3105SOL     H212865   0.450   0.448   0.764  1.4885  1.2740 -0.1708
 3105SOL    EPW12866   0.370   0.473   0.734  0.5458 -0.5144  0.6290
 3106SOL      O12867   3.325   5.454   3.373  0.3556  0.3301 -0.5172
 3106SOL     H112868   3.405   5.406   3.352  0.9138  0.8570  0.3404
 3106SOL     H212869   3.350   5.546   3.369 -0.1894  0.5002 -0.1524
 3106SOL    EPW12870   3.336   5.459   3.370  0.3570  0.4045 -0.3868
 3107SOL      O12871   2.591   2.152   2.254 -0.0668 -0.7720  0.6492
 3107SOL     H112872   2.596   2.236   2.207  2.0099 -0.9687  0.4331
 3107SOL     H212873   2.504   2.118   2.233  0.8056 -1.0122 -3.3926
 3107SOL    EPW12874   2.582   2.158   2.247  0.2478 -0.8186  0.1950
 3108SOL      O12875   3.251   2.836   2.849 -0.4495 -0.0891  0.4438
 3108SOL     H112876   3.228   2.920   2.810 -1.9248  0.2371  1.9245
 3108SOL     H212877   3.317   2.857   2.915 -0.5718 -0.1321  0.5814
 3108SOL    EPW12878   3.256   2.847   2.852 -0.6199 -0.0589  0.6165
 3109SOL      O12879   1.903   1.175   0.594 -0.2731 -0.5421  0.2507
 3109SOL     H112880   1.896   1.090   0.550  1.1303  0.1970 -1.5436
 3109SOL     H212881   1.813   1.198   0.617 -0.7206 -2.3085  0.4129
 3109SOL    EPW12882   1.893   1.168   0.592 -0.1711 -0.6517  0.0766
 3110SOL      O12883   4.564   3.860   3.747  0.3212 -0.2308  0.6570
 3110SOL     H112884   4.509   3.801   3.799  1.6551 -2.0439  0.1088
 3110SOL     H212885   4.652   3.824   3.756  1.2344  1.8292  0.4508
 3110SOL    EPW12886   4.568   3.850   3.754  0.5609 -0.2045  0.5765
 3111SOL      O12887   0.767   3.942   3.331 -0.3656  0.0845 -0.0836
 3111SOL     H112888   0.806   4.018   3.375 -0.4663 -0.7193  1.4927
 3111SOL     H212889   0.812   3.867   3.369  0.4983 -0.6580 -2.4008
 3111SOL    EPW12890   0.776   3.942   3.340 -0.2842 -0.0804 -0.1627
 3112SOL      O12891   2.016   5.275   0.232  0.7073 -0.9024 -0.1754
 3112SOL     H112892   2.056   5.196   0.196 -0.3384 -1.6611  0.2801
 3112SOL     H212893   1.934   5.245   0.270  0.6953  0.2704  0.7723
 3112SOL    EPW12894   2.012   5.263   0.232  0.5945 -0.8582 -0.0257
 3113SOL      O12895   5.465   1.637   1.592 -0.0906 -0.1529 -0.2852
 3113SOL     H112896   5.496   1.707   1.650  2.0460 -0.7569 -0.5887
 3113SOL     H212897   5.381   1.668   1.558 -0.7336  0.8363  2.0168
 3113SOL    EPW12898   5.459   1.648   1.595  0.0687 -0.1118 -0.0720
 3114SOL      O12899   2.721   1.317   1.562  0.3456 -0.2726  0.3912
 3114SOL     H112900   2.741   1.259   1.636  0.8729 -0.1720  0.3307
 3114SOL     H212901   2.703   1.402   1.603 -1.8520 -0.7749  0.6064
 3114SOL    EPW12902   2.721   1.320   1.575  0.1674 -0.3154  0.4077
 3115SOL      O12903   2.169   0.123   1.970  0.1759 -0.3156 -0.1431
 3115SOL     H112904   2.252   0.115   2.016  1.1421  0.8106 -1.6188
 3115SOL     H212905   2.174   0.057   1.901  0.0655  0.1162 -0.5618
 3115SOL    EPW12906   2.178   0.115   1.968  0.2672 -0.1494 -0.3452
 3116SOL      O12907   4.122   1.422   1.330 -0.0983 -0.0815 -0.6203
 3116SOL     H112908   4.101   1.345   1.278 -1.6830 -0.9689  1.2333
 3116SOL     H212909   4.139   1.491   1.265 -0.7692 -1.4278 -2.2896
 3116SOL    EPW12910   4.122   1.421   1.318 -0.3390 -0.3198 -0.6006
 3117SOL      O12911   1.639   1.867   2.578 -0.7260  0.1326  0.3221
 3117SOL     H112912   1.729   1.876   2.546 -0.5299 -2.8869 -0.2126
 3117SOL     H212913   1.647   1.878   2.673  0.5056 -1.5538  0.4619
 3117SOL    EPW12914   1.650   1.869   2.584 -0.5737 -0.3694  0.2800
 3118SOL      O12915   4.501   4.428   1.638  0.2080  0.1690  0.2267
 3118SOL     H112916   4.469   4.519   1.642  0.2614  0.2225 -0.4225
 3118SOL     H212917   4.560   4.420   1.712  3.0529  1.7775 -1.6635
 3118SOL    EPW12918   4.504   4.437   1.646  0.5171  0.3463 -0.0442
 3119SOL      O12919   0.813   1.817   0.918  0.2835 -0.0360  0.1535
 3119SOL     H112920   0.800   1.731   0.879 -2.0312  0.9628 -1.4752
 3119SOL     H212921   0.769   1.811   1.003  2.6319 -1.2543  1.3845
 3119SOL    EPW12922   0.807   1.807   0.923  0.2871 -0.0594  0.1111
 3120SOL      O12923   3.336   1.450   0.542 -0.4556 -0.1541  0.0545
 3120SOL     H112924   3.407   1.465   0.480 -0.0227 -1.7127  0.1336
 3120SOL     H212925   3.373   1.473   0.627  0.7292 -2.8736  0.3887
 3120SOL    EPW12926   3.348   1.454   0.545 -0.2830 -0.6105  0.0986
 3121SOL      O12927   2.391   0.590   1.621 -0.3487 -0.1712 -0.1286
 3121SOL     H112928   2.363   0.522   1.560  0.3042 -0.2919 -0.3055
 3121SOL     H212929   2.376   0.672   1.575 -0.9223 -0.1999 -0.0036
 3121SOL    EPW12930   2.386   0.592   1.610 -0.3402 -0.1871 -0.1341
 3122SOL      O12931   5.840   4.851   3.691  0.2219 -0.7786 -0.7790
 3122SOL     H112932   5.915   4.863   3.749 -0.0603  0.5602 -0.6531
 3122SOL     H212933   5.796   4.936   3.691 -2.0083 -1.8686  0.1317
 3122SOL    EPW12934   5.844   4.862   3.697 -0.0461 -0.7521 -0.6684
 3123SOL      O12935   2.053   2.701   2.065 -0.2194 -0.0733  0.3798
 3123SOL     H112936   2.064   2.645   2.142 -4.1234  0.2542  1.4178
 3123SOL     H212937   2.106   2.778   2.083  1.7396 -1.4697  0.9802
 3123SOL    EPW12938   2.060   2.703   2.075 -0.4268 -0.1873  0.5546
 3124SOL      O12939   1.337   2.768   1.069 -0.0524 -0.3518 -0.1367
 3124SOL     H112940   1.405   2.784   1.004 -0.1378  0.4954 -0.0190
 3124SOL     H212941   1.385   2.755   1.151  0.0683 -1.6207 -0.3802
 3124SOL    EPW12942   1.349   2.768   1.071 -0.0486 -0.3968 -0.1501
 3125SOL      O12943   5.400   2.700   2.881 -0.4301  0.0425  0.5843
 3125SOL     H112944   5.334   2.700   2.812  0.5967  0.5123 -0.4281
 3125SOL     H212945   5.406   2.791   2.910 -1.7220 -0.3381  2.1844
 3125SOL    EPW12946   5.394   2.710   2.877 -0.4584  0.0520  0.6470
 3126SOL      O12947   5.577   4.792   3.453 -0.1649  0.3487 -0.3426
 3126SOL     H112948   5.520   4.722   3.424 -1.4543  1.3870 -0.4331
 3126SOL     H212949   5.522   4.846   3.510  0.5947  1.6216 -0.7608
 3126SOL    EPW12950   5.565   4.791   3.456 -0.2214  0.5952 -0.3969
 3127SOL      O12951   2.750   2.739   1.291 -0.4816 -0.3190 -0.5024
 3127SOL     H112952   2.756   2.691   1.209 -0.4391 -0.3522 -0.4799
 3127SOL     H212953   2.823   2.706   1.344 -0.9384 -0.8195 -0.1769
 3127SOL    EPW12954   2.758   2.731   1.288 -0.5258 -0.3760 -0.4653
 3128SOL      O12955   5.532   0.992   0.618 -0.6416 -0.5772  0.3841
 3128SOL     H112956   5.486   1.005   0.701 -0.6214 -2.3913  0.7253
 3128SOL     H212957   5.615   0.952   0.644  0.5736  1.3520 -0.3355
 3128SOL    EPW12958   5.536   0.989   0.630 -0.5098 -0.5649  0.3437
 3129SOL      O12959   2.786   4.732   2.624  0.5444 -0.0159 -0.2971
 3129SOL     H112960   2.727   4.803   2.595  1.0636  0.5453 -0.0014
 3129SOL     H212961   2.869   4.776   2.641  0.2497 -0.2559  2.1955
 3129SOL    EPW12962   2.788   4.745   2.623  0.5684  0.0184  0.0004
 3130SOL      O12963   1.271   2.051   2.370 -0.3440 -0.1045  0.2073
 3130SOL     H112964   1.365   2.054   2.388  0.3600 -1.7876 -2.5528
 3130SOL     H212965   1.234   2.123   2.421  2.2049 -0.2412  2.4603
 3130SOL    EPW12966   1.277   2.059   2.377  0.0030 -0.2987  0.1532
 3131SOL      O12967   2.980   1.756   3.365 -0.5606 -0.6783 -0.3961
 3131SOL     H112968   2.952   1.679   3.315 -1.8897 -0.7444  0.3847
 3131SOL     H212969   3.052   1.724   3.419 -1.2444 -1.4806  0.0923
 3131SOL    EPW12970   2.984   1.744   3.366 -0.7753 -0.7709 -0.2607
 3132SOL      O12971   1.543   2.253   1.357  0.3261 -0.0425  0.6536
 3132SOL     H112972   1.581   2.287   1.276  0.1345 -0.2311  0.4805
 3132SOL     H212973   1.586   2.169   1.371  0.3592 -0.0101  0.7465
 3132SOL    EPW12974   1.551   2.248   1.350  0.3092 -0.0592  0.6450
 3133SOL      O12975   2.610   5.583   3.865  0.1578  0.1855 -0.1282
 3133SOL     H112976   2.515   5.569   3.856 -0.2962  1.6552  1.7313
 3133SOL     H212977   2.636   5.526   3.938  0.4400  0.7702  0.2318
 3133SOL    EPW12978   2.602   5.575   3.872  0.1395  0.4046  0.1086
 3134SOL      O12979   2.324   0.792   3.935 -0.3844 -0.2552  1.0266
 3134SOL     H112980   2.410   0.829   3.954 -0.2157 -0.8289  1.4003
 3134SOL     H212981   2.316   0.717   3.994 -0.8941 -0.5649  0.5770
 3134SOL    EPW12982   2.332   0.788   3.943 -0.4208 -0.3494  1.0185
 3135SOL      O12983   0.995   1.625   0.405 -0.7733 -0.0733 -0.0641
 3135SOL     H112984   0.998   1.529   0.399  0.7261 -0.1256  1.0318
 3135SOL     H212985   0.910   1.643   0.446 -0.4671 -1.0422  1.0646
 3135SOL    EPW12986   0.986   1.616   0.409 -0.5807 -0.1823  0.1732
 3136SOL      O12987   4.321   2.289   2.398  0.6566  0.3801  0.1596
 3136SOL     H112988   4.244   2.337   2.428  0.3985 -1.4568  2.7541
 3136SOL     H212989   4.394   2.330   2.443  0.5940 -0.7461  1.3292
 3136SOL    EPW12990   4.320   2.298   2.406  0.6224  0.0640  0.5611
 3137SOL      O12991   1.548   1.389   2.193 -0.7557 -0.8173  0.2072
 3137SOL     H112992   1.609   1.361   2.261 -0.1346  1.6783  0.7531
 3137SOL     H212993   1.503   1.465   2.229  0.6603  1.5660 -2.6261
 3137SOL    EPW12994   1.549   1.394   2.204 -0.5384 -0.2969 -0.0368
 3138SOL      O12995   0.027   2.065   1.718  0.4555 -0.2764  0.1839
 3138SOL     H112996  -0.055   2.091   1.761  0.2106 -1.6993  0.6202
 3138SOL     H212997   0.086   2.139   1.732  0.0347 -0.2605  2.0456
 3138SOL    EPW12998   0.024   2.076   1.724  0.3845 -0.4265  0.4290
 3139SOL      O12999   2.144   0.403   2.024  0.5645  0.5474 -0.6090
 3139SOL     H113000   2.212   0.453   1.979  0.5415  0.4230 -0.7860
 3139SOL     H213001   2.131   0.326   1.968  0.7409  0.2462 -0.2361
 3139SOL    EPW13002   2.150   0.400   2.013  0.5808  0.5020 -0.5881
 3140SOL      O13003   0.767   3.300   1.351  0.4431  0.2762 -0.0882
 3140SOL     H113004   0.687   3.266   1.392  1.1906 -1.8192 -0.2514
 3140SOL     H213005   0.838   3.258   1.399  1.3772 -0.6068 -2.1483
 3140SOL    EPW13006   0.766   3.292   1.361  0.6225 -0.0415 -0.3253
 3141SOL      O13007   0.060   1.687   2.566  0.5870 -0.1999  1.1169
 3141SOL     H113008   0.124   1.656   2.631  1.6752  0.4112  0.3807
 3141SOL     H213009  -0.003   1.738   2.616  0.1622 -1.5221  1.9884
 3141SOL    EPW13010   0.060   1.689   2.578  0.6578 -0.2757  1.1314
 3142SOL      O13011   1.270   0.893   1.110 -0.5029 -0.0523  0.7567
 3142SOL     H113012   1.296   0.984   1.094 -0.8974 -0.0234  0.2248
 3142SOL     H213013   1.187   0.884   1.063  1.4947 -1.8534 -2.9113
 3142SOL    EPW13014   1.264   0.902   1.103 -0.3319 -0.2414  0.3086
 3143SOL      O13015   5.564   0.850   1.299 -0.7870 -0.8473  0.7834
 3143SOL     H113016   5.512   0.770   1.307 -1.1622 -0.8114 -0.9230
 3143SOL     H213017   5.542   0.885   1.212 -1.9555  2.0709  2.1213
 3143SOL    EPW13018   5.556   0.845   1.290 -0.9517 -0.5322  0.7441
 3144SOL      O13019   3.821   4.775   4.056  0.3228  0.0309 -0.2623
 3144SOL     H113020   3.842   4.719   4.131  1.4013  2.2456  1.1646
 3144SOL     H213021   3.726   4.790   4.064  0.5192  0.6988  1.0081
 3144SOL    EPW13022   3.813   4.770   4.064  0.4588  0.3384  0.0254
 3145SOL      O13023   0.680   0.059   2.290 -0.2238  0.3304  0.0192
 3145SOL     H113024   0.710   0.115   2.218  0.5608  0.2608  0.2897
 3145SOL     H213025   0.585   0.070   2.290 -0.2158  0.4987 -0.8907
 3145SOL    EPW13026   0.673   0.066   2.282 -0.1392  0.3410 -0.0490
 3146SOL      O13027   2.590   5.255   0.991  0.0388  0.3601  0.0129
 3146SOL     H113028   2.510   5.218   1.029  0.7949 -1.4404 -0.0458
 3146SOL     H213029   2.558   5.313   0.921 -1.2195 -0.3299 -0.0225
 3146SOL    EPW13030   2.578   5.257   0.987 -0.0148  0.0944  0.0029
 3147SOL      O13031   3.188   4.434   0.189 -0.0771 -1.2280  0.1219
 3147SOL     H113032   3.250   4.434   0.117  1.2396  0.0158  1.1978
 3147SOL     H213033   3.242   4.420   0.267 -0.5053  3.3500  1.5001
 3147SOL    EPW13034   3.200   4.432   0.190  0.0177 -0.6069  0.3837
 3148SOL      O13035   5.140   1.602   0.644  0.0272  0.0054  0.2983
 3148SOL     H113036   5.087   1.618   0.722  0.3615 -0.5789  0.6593
 3148SOL     H213037   5.081   1.619   0.571 -0.1828  0.9429  0.6651
 3148SOL    EPW13038   5.128   1.605   0.645  0.0404  0.0431  0.3760
 3149SOL      O13039   5.784   4.872   3.289 -0.4116  0.9137  0.4989
 3149SOL     H113040   5.765   4.811   3.217 -0.7309  0.6209  0.8251
 3149SOL     H213041   5.726   4.843   3.360 -1.5137  2.3936  0.2388
 3149SOL    EPW13042   5.775   4.862   3.289 -0.5632  1.0403  0.5059
 3150SOL      O13043   5.104   1.628   1.504 -0.1481  0.3117 -0.5776
 3150SOL     H113044   5.083   1.537   1.528  0.3975 -0.0498 -1.4123
 3150SOL     H213045   5.044   1.648   1.432 -0.3315  0.6521 -0.3329
 3150SOL    EPW13046   5.095   1.620   1.499 -0.1095  0.3094 -0.6405
 3151SOL      O13047   5.231   1.703   2.227  0.2140  0.3361 -0.4512
 3151SOL     H113048   5.286   1.644   2.279  0.1235 -0.1011 -0.8402
 3151SOL     H213049   5.180   1.752   2.292  1.0643  0.7473 -0.0908
 3151SOL    EPW13050   5.231   1.702   2.239  0.2951  0.3333 -0.4542
 3152SOL      O13051   2.990   3.948   2.187 -0.0185 -0.4130  0.0995
 3152SOL     H113052   2.894   3.944   2.191 -0.1339  0.1478 -1.4052
 3152SOL     H213053   3.010   3.949   2.093  1.5745 -2.3916  0.3560
 3152SOL    EPW13054   2.982   3.948   2.177  0.1391 -0.5642 -0.0337
 3153SOL      O13055   5.041   0.104   3.640  0.5823 -0.3682 -0.1995
 3153SOL     H113056   5.028   0.198   3.628  1.4518 -0.3444 -1.0703
 3153SOL     H213057   4.958   0.064   3.612 -0.9845  0.2681  3.0617
 3153SOL    EPW13058   5.031   0.110   3.636  0.5079 -0.2978  0.0555
 3154SOL      O13059   2.040   0.897   0.132  0.6005 -0.0348 -0.7597
 3154SOL     H113060   2.043   0.951   0.053 -0.4951  1.5276  0.2009
 3154SOL     H213061   2.099   0.941   0.194 -0.6561  0.3771  0.1934
 3154SOL    EPW13062   2.047   0.907   0.131  0.3496  0.1758 -0.5556
 3155SOL      O13063   1.219   1.321   3.951  0.0694 -0.5071 -0.3427
 3155SOL     H113064   1.283   1.380   3.911 -1.3819  1.7067  0.3907
 3155SOL     H213065   1.134   1.356   3.923 -0.9172 -0.7981  2.0246
 3155SOL    EPW13066   1.217   1.331   3.943 -0.1907 -0.3020 -0.0119
 3156SOL      O13067   5.441   1.587   3.091  0.1202  0.3217  0.7590
 3156SOL     H113068   5.392   1.668   3.082 -0.7956 -0.2856  0.1984
 3156SOL     H213069   5.528   1.608   3.055 -0.0219  1.1116  0.8513
 3156SOL    EPW13070   5.445   1.598   3.086  0.0073  0.3412  0.7090
 3157SOL      O13071   0.377   2.856   2.605 -0.1850 -0.0369 -0.1122
 3157SOL     H113072   0.389   2.764   2.628 -0.3441  0.1154  0.6211
 3157SOL     H213073   0.379   2.858   2.509 -2.3625 -1.1309 -0.2461
 3157SOL    EPW13074   0.378   2.847   2.597 -0.4342 -0.1374 -0.0483
 3158SOL      O13075   1.797   2.842   3.289 -0.3125  0.5203  0.5245
 3158SOL     H113076   1.748   2.881   3.363 -1.4421  0.3215 -0.0966
 3158SOL     H213077   1.735   2.781   3.250  0.9129 -0.7392  0.5083
 3158SOL    EPW13078   1.785   2.840   3.293 -0.3023  0.3648  0.4565
 3159SOL      O13079   5.815   0.019   0.541 -0.0937  0.0865  0.7911
 3159SOL     H113080   5.743   0.055   0.490 -0.6154 -0.6030  1.0297
 3159SOL     H213081   5.804  -0.076   0.536  2.8885 -0.2684 -2.2203
 3159SOL    EPW13082   5.806   0.013   0.535  0.1688 -0.0249  0.4953
 3160SOL      O13083   5.001   4.102   0.007 -0.3052  0.8060  0.3379
 3160SOL     H113084   4.922   4.053   0.028  0.0275  0.3153  0.4544
 3160SOL     H213085   5.069   4.035  -0.004 -0.1743  1.1185 -1.0058
 3160SOL    EPW13086   5.000   4.090   0.008 -0.2557  0.7870  0.2070
 3161SOL      O13087   5.828   1.722   0.716  0.5981 -0.0276 -0.4351
 3161SOL     H113088   5.818   1.631   0.745 -0.0858  0.2513  0.2594
 3161SOL     H213089   5.904   1.721   0.659  1.0277 -0.9174  0.1248
 3161SOL    EPW13090   5.835   1.712   0.713  0.5710 -0.0928 -0.3013
 3162SOL      O13091   4.442   2.730   0.181 -0.2916  0.1801  0.2142
 3162SOL     H113092   4.460   2.739   0.275 -2.8895  0.5111  0.7642
 3162SOL     H213093   4.430   2.820   0.150  1.3281  0.1290 -0.6644
 3162SOL    EPW13094   4.442   2.740   0.188 -0.3960  0.2100  0.1792
 3163SOL      O13095   4.209   2.018   3.402  0.4715  0.3416 -0.3928
 3163SOL     H113096   4.187   1.967   3.480 -0.1253 -0.7812 -1.2825
 3163SOL     H213097   4.150   1.986   3.334 -0.5320  2.8142 -0.7853
 3163SOL    EPW13098   4.201   2.009   3.403  0.3008  0.4856 -0.5296
 3164SOL      O13099   3.064   3.047   2.130  0.6697  1.2534  0.5545
 3164SOL     H113100   3.023   3.074   2.212 -0.3832  2.1037 -0.2148
 3164SOL     H213101   3.136   2.990   2.156  0.4877  1.6858  2.0669
 3164SOL    EPW13102   3.067   3.044   2.142  0.5380  1.3902  0.6338
 3165SOL      O13103   3.630   3.999   0.527 -0.2977 -0.5375 -0.2792
 3165SOL     H113104   3.574   3.945   0.582  0.4151  0.6163  1.6786
 3165SOL     H213105   3.578   4.078   0.509  0.7906  0.8200  2.0671
 3165SOL    EPW13106   3.619   4.002   0.531 -0.1056 -0.2696  0.1799
 3166SOL      O13107   4.819   1.348   0.245 -0.0669 -0.5212  0.5888
 3166SOL     H113108   4.906   1.331   0.211 -0.5011 -1.3395 -0.1446
 3166SOL     H213109   4.781   1.410   0.184 -0.1328 -0.4423  0.7083
 3166SOL    EPW13110   4.824   1.353   0.235 -0.1202 -0.6001  0.5233
 3167SOL      O13111   0.131   2.326   3.538 -0.1435  0.8683  0.1755
 3167SOL     H113112   0.151   2.232   3.540  0.6700  0.9830 -1.2993
 3167SOL     H213113   0.194   2.365   3.600 -1.1114  0.3681  1.5205
 3167SOL    EPW13114   0.140   2.320   3.545 -0.1600  0.8272  0.1616
 3168SOL      O13115   1.058   1.538   0.750  0.5510 -0.1969 -0.0236
 3168SOL     H113116   1.070   1.538   0.845 -0.8868  0.5498  0.1836
 3168SOL     H213117   1.084   1.625   0.722  0.2447 -0.1667 -0.2154
 3168SOL    EPW13118   1.062   1.547   0.758  0.3650 -0.1140 -0.0220
 3169SOL      O13119   2.396   0.579   1.061  0.9355  0.4201 -0.1966
 3169SOL     H113120   2.461   0.595   0.993  0.5474 -0.3926 -0.7789
 3169SOL     H213121   2.441   0.600   1.143  2.1623 -0.7490 -0.5301
 3169SOL    EPW13122   2.407   0.583   1.062  1.0250  0.2086 -0.2943
 3170SOL      O13123   4.304   2.483   1.363 -0.0796  0.0251  0.2400
 3170SOL     H113124   4.356   2.404   1.349 -1.2122 -0.5741 -0.7207
 3170SOL     H213125   4.306   2.529   1.279 -0.0668  0.6505  0.5715
 3170SOL    EPW13126   4.310   2.480   1.353 -0.1990  0.0279  0.1729
 3171SOL      O13127   3.166   0.626   3.998 -0.1453  0.3935  0.9600
 3171SOL     H113128   3.212   0.560   4.051  1.1611 -0.1828 -0.8238
 3171SOL     H213129   3.233   0.662   3.940 -1.7864 -0.1134 -1.3924
 3171SOL    EPW13130   3.178   0.623   3.998 -0.1810  0.2780  0.5188
 3172SOL      O13131   5.305   1.730   1.890  0.1862  0.1517 -0.3782
 3172SOL     H113132   5.312   1.639   1.918 -1.8052  0.3227  0.8838
 3172SOL     H213133   5.323   1.781   1.969 -2.3224  0.7200 -0.0869
 3172SOL    EPW13134   5.307   1.725   1.901 -0.2939  0.2306 -0.2125
 3173SOL      O13135   1.997   5.542   4.071 -0.8108  0.3342  0.1963
 3173SOL     H113136   1.954   5.605   4.129  0.9138  0.5232  1.3363
 3173SOL     H213137   2.046   5.597   4.009  0.0882  0.1452  0.7209
 3173SOL    EPW13138   1.998   5.555   4.070 -0.5309  0.3342  0.3739
 3174SOL      O13139   3.974   2.285   1.862 -0.0883 -0.1310 -0.1915
 3174SOL     H113140   4.025   2.218   1.818  0.2394 -0.2020  0.3008
 3174SOL     H213141   3.943   2.244   1.942 -2.3284 -0.6501 -1.2445
 3174SOL    EPW13142   3.976   2.274   1.866 -0.2923 -0.1940 -0.2513
 3175SOL      O13143   2.906   5.293   3.195  0.1327  0.1123 -0.4683
 3175SOL     H113144   2.830   5.348   3.173  0.0227 -0.4178 -1.4651
 3175SOL     H213145   2.961   5.350   3.248 -1.5413  0.1180  1.3692
 3175SOL    EPW13146   2.904   5.305   3.198 -0.0576  0.0564 -0.3786
 3176SOL      O13147   1.768   1.166   4.123 -0.0785  0.3217  0.0268
 3176SOL     H113148   1.719   1.110   4.063 -1.0861 -0.1128  1.2073
 3176SOL     H213149   1.754   1.255   4.090  0.8263 -0.0315 -1.3656
 3176SOL    EPW13150   1.761   1.170   4.113 -0.0895  0.2377  0.0042
 3177SOL      O13151   5.319   0.678   2.158  0.3545  0.0643  0.2300
 3177SOL     H113152   5.380   0.744   2.191  1.6675 -1.0960  0.2396
 3177SOL     H213153   5.333   0.677   2.064  1.7650 -1.4885  0.4099
 3177SOL    EPW13154   5.327   0.685   2.152  0.6450 -0.2251  0.2502
 3178SOL      O13155   2.943   1.266   0.799  0.4632 -0.9187  0.2558
 3178SOL     H113156   2.957   1.330   0.869 -0.8785  1.6789 -1.6587
 3178SOL     H213157   2.849   1.247   0.803 -0.1644  1.1636 -2.1989
 3178SOL    EPW13158   2.934   1.271   0.807  0.2531 -0.4195 -0.2103
 3179SOL      O13159   2.404   1.781   0.117  0.2685  0.6491  0.0057
 3179SOL     H113160   2.460   1.779   0.039 -0.3501  1.9811 -0.5062
 3179SOL     H213161   2.320   1.745   0.086  0.2872  0.3474  0.3006
 3179SOL    EPW13162   2.401   1.777   0.105  0.2045  0.7590 -0.0175
 3180SOL      O13163   3.633   4.185   4.027  0.0643 -0.8736 -0.2501
 3180SOL     H113164   3.714   4.140   3.999  0.8532  0.5230 -0.2931
 3180SOL     H213165   3.589   4.206   3.945  0.3353 -0.4425 -0.2896
 3180SOL    EPW13166   3.637   4.182   4.015  0.1773 -0.6786 -0.2589
 3181SOL      O13167   0.187   1.325   3.397  0.7256 -0.2479  0.0447
 3181SOL     H113168   0.196   1.420   3.390 -1.1362 -0.0159  0.3796
 3181SOL     H213169   0.273   1.296   3.428  1.3506  1.3078 -0.1066
 3181SOL    EPW13170   0.197   1.332   3.399  0.5937 -0.0572  0.0643
 3182SOL      O13171   3.104   4.812   2.527  0.0674 -0.3174 -0.2904
 3182SOL     H113172   3.181   4.869   2.532 -0.4142  0.3958 -0.8328
 3182SOL     H213173   3.093   4.794   2.433 -2.4279  2.4420 -0.6791
 3182SOL    EPW13174   3.111   4.816   2.517 -0.2501  0.0531 -0.3897
 3183SOL      O13175   5.820   0.922   2.727 -0.3615 -0.3252  0.3672
 3183SOL     H113176   5.753   0.856   2.748 -0.9222  0.2647  0.4700
 3183SOL     H213177   5.902   0.884   2.757 -0.6310 -1.1231  0.1182
 3183SOL    EPW13178   5.821   0.911   2.733 -0.4501 -0.3474  0.3516
 3184SOL      O13179   2.496   5.383   0.761 -0.0052  0.1989  0.2474
 3184SOL     H113180   2.547   5.344   0.690 -0.5040  0.4957 -0.2755
 3184SOL     H213181   2.497   5.477   0.743  0.7815  0.4095  1.2406
 3184SOL    EPW13182   2.502   5.389   0.751  0.0255  0.2530  0.2976
 3185SOL      O13183   4.067   0.861   2.009 -0.2903 -0.0443  0.0978
 3185SOL     H113184   4.001   0.796   1.983 -2.7012  1.9432  0.8225
 3185SOL     H213185   4.056   0.932   1.945  2.0456 -0.1124 -0.4763
 3185SOL    EPW13186   4.058   0.862   1.999 -0.2983  0.1605  0.1139
 3186SOL      O13187   2.286   5.020   3.104 -0.4436 -0.0725  1.2580
 3186SOL     H113188   2.367   5.071   3.108  0.9107 -1.9647 -0.0436
 3186SOL     H213189   2.280   4.978   3.189  0.6629 -0.8965  0.9518
 3186SOL    EPW13190   2.294   5.021   3.113 -0.1811 -0.3622  1.0865
 3187SOL      O13191   4.697   2.144   0.451 -0.1697  0.4297 -0.3548
 3187SOL     H113192   4.772   2.148   0.391 -1.0158  2.3430 -1.3875
 3187SOL     H213193   4.625   2.109   0.397 -0.0320 -1.5348  0.6641
 3187SOL    EPW13194   4.697   2.141   0.439 -0.2452  0.4242 -0.3563
 3188SOL      O13195   1.647   0.213   2.065 -0.0170  0.0651 -0.2922
 3188SOL     H113196   1.634   0.119   2.055  0.8773  0.1509 -3.1025
 3188SOL     H213197   1.566   0.252   2.031 -1.0112  0.3886  2.2109
 3188SOL    EPW13198   1.637   0.207   2.061 -0.0277  0.1087 -0.3250
 3189SOL      O13199   1.599   4.654   3.149 -0.1558 -0.3498 -0.4312
 3189SOL     H113200   1.506   4.631   3.147  0.0013 -0.9672 -1.3883
 3189SOL     H213201   1.635   4.616   3.069  0.8099  0.3706 -0.3651
 3189SOL    EPW13202   1.593   4.648   3.140 -0.0360 -0.3388 -0.5263
 3190SOL      O13203   3.103   3.672   3.842  1.0806  0.2434  0.1377
 3190SOL     H113204   3.150   3.645   3.921  0.6345 -0.7890  0.0672
 3190SOL     H213205   3.011   3.655   3.862  0.8954  0.6592 -0.3420
 3190SOL    EPW13206   3.098   3.668   3.853  1.0132  0.1776  0.0790
 3191SOL      O13207   3.414   0.259   2.470  1.0752 -0.2489 -0.0566
 3191SOL     H113208   3.416   0.181   2.413 -0.5546  0.5301 -1.2569
 3191SOL     H213209   3.366   0.324   2.419  1.6827  1.2966  1.2707
 3191SOL    EPW13210   3.409   0.257   2.458  0.9662 -0.0009 -0.0430
 3192SOL      O13211   0.086   1.314   2.158 -0.3794 -0.2656  0.4291
 3192SOL     H113212   0.069   1.319   2.252  1.2987 -1.6537  0.8788
 3192SOL     H213213   0.171   1.270   2.152  0.1286  0.8628 -1.7101
 3192SOL    EPW13214   0.094   1.310   2.168 -0.1462 -0.2933  0.2489
 3193SOL      O13215   5.049   1.793   0.074  0.1003 -0.6067  0.1215
 3193SOL     H113216   5.052   1.880   0.033  1.4652  0.0566  1.5028
 3193SOL     H213217   4.980   1.801   0.140 -0.8812 -1.1179 -0.8064
 3193SOL    EPW13218   5.041   1.803   0.077  0.1412 -0.5904  0.1699
 3194SOL      O13219   0.536   2.679   0.768  0.0459 -1.1562 -0.5389
 3194SOL     H113220   0.520   2.584   0.768 -0.1548 -1.1252 -1.0383
 3194SOL     H213221   0.457   2.716   0.728  0.0040 -0.7572 -0.0842
 3194SOL    EPW13222   0.526   2.672   0.764  0.0200 -1.1103 -0.5437
 3195SOL      O13223   5.322   4.070   0.432 -0.1350  0.4227 -0.2993
 3195SOL     H113224   5.315   3.975   0.440 -0.9160  0.4703 -0.2814
 3195SOL     H213225   5.247   4.094   0.378 -1.4298  1.2934  1.7763
 3195SOL    EPW13226   5.313   4.062   0.427 -0.3565  0.5207 -0.0760
 3196SOL      O13227   4.391   2.715   3.240 -0.1437 -0.7162 -0.5071
 3196SOL     H113228   4.315   2.661   3.262 -0.6204  0.2095  0.1672
 3196SOL     H213229   4.386   2.789   3.300  2.6936 -1.8446  1.3397
 3196SOL    EPW13230   4.382   2.717   3.248  0.1081 -0.7379 -0.2382
 3197SOL      O13231   0.552   4.233   1.044 -0.1399 -0.3817  0.5193
 3197SOL     H113232   0.538   4.221   1.138  1.5063 -2.6906  0.5815
 3197SOL     H213233   0.505   4.159   1.004 -0.1037  0.0821 -0.3927
 3197SOL    EPW13234   0.546   4.224   1.050  0.0396 -0.5785  0.4286
 3198SOL      O13235   4.927   4.481   3.710 -0.1763  0.4173 -0.3822
 3198SOL     H113236   4.961   4.392   3.706 -0.5722  0.2994 -1.5518
 3198SOL     H213237   4.939   4.508   3.801  0.3157 -0.6802 -0.1138
 3198SOL    EPW13238   4.932   4.475   3.719 -0.1660  0.2877 -0.4783
 3199SOL      O13239   3.563   2.652   2.575  0.3797 -0.0162 -0.2489
 3199SOL     H113240   3.561   2.618   2.664  0.1927  0.9838  0.1487
 3199SOL     H213241   3.479   2.626   2.538  0.9300 -1.4563 -0.5544
 3199SOL    EPW13242   3.554   2.646   2.580  0.4185 -0.0631 -0.2391
 3200SOL      O13243   1.876   1.268   0.007 -0.0698  0.1634 -0.3251
 3200SOL     H113244   1.809   1.324  -0.030  0.2330  0.2273 -0.7768
 3200SOL     H213245   1.857   1.268   0.101  0.3453  1.5771 -0.2188
 3200SOL    EPW13246   1.867   1.274   0.013  0.0068  0.3210 -0.3619
 3201SOL      O13247   4.166   3.129   0.651 -0.1211  0.5260 -1.2026
 3201SOL     H113248   4.088   3.155   0.700 -1.7403 -4.0810 -0.8995
 3201SOL     H213249   4.238   3.145   0.711 -1.3310  0.8755  0.2184
 3201SOL    EPW13250   4.165   3.134   0.662 -0.4229  0.0718 -1.0187
 3202SOL      O13251   0.400   5.782   2.003 -0.8429 -0.6078 -0.2334
 3202SOL     H113252   0.322   5.727   2.006 -0.6789 -0.8297  1.3617
 3202SOL     H213253   0.431   5.777   1.913 -4.0724  1.5374 -1.6309
 3202SOL    EPW13254   0.395   5.776   1.994 -1.1699 -0.4027 -0.2124
 3203SOL      O13255   4.272   0.842   2.728 -0.1864 -0.1550 -0.3317
 3203SOL     H113256   4.361   0.874   2.713 -0.8501  1.2490 -1.4766
 3203SOL     H213257   4.220   0.880   2.658 -2.0779  0.6473  1.4024
 3203SOL    EPW13258   4.276   0.849   2.719 -0.4590  0.0804 -0.2689
 3204SOL      O13259   1.868   2.633   3.764  0.5163 -0.6560  0.0774
 3204SOL     H113260   1.820   2.583   3.830  0.4354  0.9292  1.2824
 3204SOL     H213261   1.801   2.682   3.717  0.8056  0.8345  1.1358
 3204SOL    EPW13262   1.856   2.633   3.766  0.5386 -0.3279  0.3189
 3205SOL      O13263   5.500   1.870   1.001  0.2149 -0.1188  0.2733
 3205SOL     H113264   5.516   1.954   0.958  0.2932  0.4845  1.4345
 3205SOL     H213265   5.405   1.865   1.012  0.2971  0.4491  1.3842
 3205SOL    EPW13266   5.492   1.878   0.998  0.2320  0.0061  0.5157
 3206SOL      O13267   1.702   3.367   0.153 -0.4897 -0.0769 -0.0545
 3206SOL     H113268   1.733   3.279   0.133 -1.7413  0.1766 -3.7557
 3206SOL     H213269   1.764   3.426   0.109 -0.7189  0.8683  0.8237
 3206SOL    EPW13270   1.712   3.364   0.146 -0.6477  0.0510 -0.3557
 3207SOL      O13271   2.712   3.676   1.706 -0.5651 -0.4835  0.4999
 3207SOL     H113272   2.755   3.627   1.776  0.2210 -1.1916 -0.4457
 3207SOL     H213273   2.643   3.617   1.676  1.2650 -1.7055 -1.5849
 3207SOL    EPW13274   2.709   3.664   1.710 -0.2860 -0.6894  0.1766
 3208SOL      O13275   1.730   0.912   0.695  0.0603  0.5987 -0.0720
 3208SOL     H113276   1.731   0.820   0.669  1.5770  0.6592 -0.3288
 3208SOL     H213277   1.650   0.947   0.657 -0.2022 -0.4608 -0.5293
 3208SOL    EPW13278   1.722   0.906   0.688  0.1941  0.4921 -0.1482
 3209SOL      O13279   4.357   5.079   3.648 -0.0824 -0.4470  0.5882
 3209SOL     H113280   4.315   5.079   3.562 -1.7048 -0.1000  1.3338
 3209SOL     H213281   4.442   5.120   3.633 -1.5575  2.6131 -0.3194
 3209SOL    EPW13282   4.362   5.083   3.637 -0.4128 -0.0835  0.5709
 3210SOL      O13283   0.304   3.039   3.302 -0.2519  0.3443  0.5084
 3210SOL     H113284   0.230   3.097   3.284 -0.5790  0.0610  0.9473
 3210SOL     H213285   0.374   3.072   3.245 -0.4912  1.0588  0.6175
 3210SOL    EPW13286   0.304   3.049   3.294 -0.3123  0.3903  0.5669
 3211SOL      O13287   5.191   5.418   3.353  0.2292 -0.1125  0.0748
 3211SOL     H113288   5.261   5.475   3.322  1.3698 -0.5418  1.7252
 3211SOL     H213289   5.211   5.333   3.314  0.7047 -0.2622  0.6376
 3211SOL    EPW13290   5.201   5.415   3.345  0.4016 -0.1743  0.3109
 3212SOL      O13291   5.428   3.435   1.004 -0.0902 -0.0219  0.1152
 3212SOL     H113292   5.357   3.371   1.015  0.8420 -0.6924  3.5762
 3212SOL     H213293   5.392   3.501   0.945 -2.7283 -1.4720 -0.0731
 3212SOL    EPW13294   5.416   3.435   0.999 -0.2721 -0.2482  0.4644
 3213SOL      O13295   3.879   0.691   2.363  0.6244 -0.1954 -0.2725
 3213SOL     H113296   3.807   0.662   2.419  0.7403 -1.3934 -0.7365
 3213SOL     H213297   3.940   0.618   2.362  1.7929  0.7367 -0.0290
 3213SOL    EPW13298   3.878   0.680   2.369  0.7614 -0.2238 -0.2961
 3214SOL      O13299   1.339   0.461   2.414  0.6464 -0.3223  0.2342
 3214SOL     H113300   1.327   0.456   2.509  0.8415 -0.4673  0.2529
 3214SOL     H213301   1.421   0.413   2.398  0.2035 -0.9907 -0.0942
 3214SOL    EPW13302   1.347   0.455   2.423  0.6200 -0.4091  0.2012
 3215SOL      O13303   1.143   2.120   1.603 -0.1468 -0.2417  0.1108
 3215SOL     H113304   1.072   2.078   1.556 -0.1794  1.5025 -1.5302
 3215SOL     H213305   1.187   2.174   1.538  1.3891  0.3589  1.5497
 3215SOL    EPW13306   1.141   2.122   1.591  0.0136  0.0085  0.0892
 3216SOL      O13307   0.029   0.691   0.487 -0.3504  0.5133  0.1386
 3216SOL     H113308   0.081   0.626   0.535  0.5751  2.1062  1.3713
 3216SOL     H213309   0.088   0.721   0.418 -0.7385  0.1532 -0.3589
 3216SOL    EPW13310   0.041   0.687   0.485 -0.2931  0.6448  0.2171
 3217SOL      O13311   1.605   0.467   2.660 -0.0083 -0.2381 -0.7858
 3217SOL     H113312   1.674   0.409   2.629 -0.3582 -1.9914  1.4013
 3217SOL     H213313   1.651   0.544   2.693  0.8227 -0.8545 -0.4581
 3217SOL    EPW13314   1.617   0.469   2.660  0.0430 -0.4909 -0.5176
 3218SOL      O13315   0.128   3.857   0.165 -0.3040 -0.4675  0.0829
 3218SOL     H113316   0.054   3.796   0.168  0.1138 -1.0792 -1.0921
 3218SOL     H213317   0.110   3.921   0.233 -1.3774 -1.2170  0.5277
 3218SOL    EPW13318   0.118   3.857   0.173 -0.3739 -0.6127  0.0050
 3219SOL      O13319   1.341   3.127   3.467  0.6437  0.7172  0.1034
 3219SOL     H113320   1.368   3.035   3.458 -0.6261  0.3950 -1.0081
 3219SOL     H213321   1.376   3.155   3.551  1.3749 -0.6802  0.2986
 3219SOL    EPW13322   1.347   3.120   3.475  0.5862  0.5337  0.0057
 3220SOL      O13323   1.587   0.424   1.293  0.2038  0.3205  0.8321
 3220SOL     H113324   1.675   0.419   1.255 -0.7093 -1.5834 -1.2338
 3220SOL     H213325   1.530   0.444   1.218 -1.2952 -0.0035  1.8456
 3220SOL    EPW13326   1.590   0.426   1.281 -0.0535  0.0828  0.7198
 3221SOL      O13327   1.459   4.209   0.503  0.8189  0.3787 -0.2426
 3221SOL     H113328   1.430   4.299   0.488  0.4962  0.0873 -1.4886
 3221SOL     H213329   1.418   4.159   0.433  0.2465 -0.9122  0.9853
 3221SOL    EPW13330   1.452   4.214   0.494  0.7234  0.2099 -0.2445
 3222SOL      O13331   5.240   0.521   0.552 -0.1404 -0.1592 -0.3487
 3222SOL     H113332   5.198   0.600   0.585  1.5877  0.7161 -0.1897
 3222SOL     H213333   5.210   0.452   0.612  0.2055  0.7935  0.9781
 3222SOL    EPW13334   5.232   0.522   0.562  0.0808  0.0358 -0.1902
 3223SOL      O13335   0.074   2.840   2.036  0.0152 -0.3842  0.1035
 3223SOL     H113336   0.000   2.881   1.992 -0.4998 -2.5305 -1.2062
 3223SOL     H213337   0.132   2.912   2.059 -0.1676  0.9879 -3.1904
 3223SOL    EPW13338   0.072   2.852   2.034 -0.0593 -0.4668 -0.3876
 3224SOL      O13339   2.082   4.173   2.226  0.6130  0.0336  0.4787
 3224SOL     H113340   2.087   4.236   2.297  0.9662  0.1876  0.3176
 3224SOL     H213341   2.097   4.224   2.147  1.1534 -0.2911  0.3644
 3224SOL    EPW13342   2.084   4.185   2.225  0.7083  0.0154  0.4493
 3225SOL      O13343   5.250   2.858   3.169 -0.2581 -0.5787 -0.6058
 3225SOL     H113344   5.312   2.862   3.242 -1.1644 -1.3753  0.2181
 3225SOL     H213345   5.300   2.893   3.094  1.2968 -1.4980 -0.0442
 3225SOL    EPW13346   5.262   2.862   3.169 -0.1889 -0.7617 -0.4580
 3226SOL      O13347   1.253   3.371   2.633  0.0812 -0.6056 -0.2223
 3226SOL     H113348   1.280   3.298   2.688  0.4514 -0.9548 -0.8547
 3226SOL     H213349   1.328   3.387   2.576  0.4802  1.0811  0.7169
 3226SOL    EPW13350   1.264   3.365   2.632  0.1632 -0.4629 -0.1896
 3227SOL      O13351   2.894   3.176   3.477  0.1433  0.5054  0.3044
 3227SOL     H113352   2.840   3.104   3.512  1.7572 -0.9008  0.0360
 3227SOL     H213353   2.832   3.230   3.428 -1.0113 -1.1606 -0.1867
 3227SOL    EPW13354   2.881   3.174   3.476  0.1923  0.1777  0.2234
 3228SOL      O13355   2.928   2.737   2.310  0.3894 -0.2839  0.1347
 3228SOL     H113356   3.003   2.719   2.253 -0.2740  2.2097 -1.7396
 3228SOL     H213357   2.965   2.784   2.384  0.7410  0.7964 -0.7017
 3228SOL    EPW13358   2.940   2.740   2.312  0.3561  0.0973 -0.1544
 3229SOL      O13359   2.117   5.453   0.912 -0.0219  0.2268 -0.0209
 3229SOL     H113360   2.047   5.500   0.865 -1.5395 -1.1919  0.6991
 3229SOL     H213361   2.153   5.392   0.847 -0.1025  0.3095 -0.1434
 3229SOL    EPW13362   2.113   5.452   0.900 -0.1924  0.0843  0.0429
 3230SOL      O13363   4.376   1.748   1.482 -0.0560  0.3965  0.1397
 3230SOL     H113364   4.314   1.820   1.496  0.5823  1.2574 -1.2368
 3230SOL     H213365   4.422   1.771   1.402  0.3660 -1.4404 -0.1929
 3230SOL    EPW13366   4.375   1.758   1.475  0.0571  0.2924 -0.0426
 3231SOL      O13367   0.362   5.852   0.609 -0.4661  0.0865  0.9057
 3231SOL     H113368   0.448   5.811   0.619  0.0479  1.1383  0.9916
 3231SOL     H213369   0.314   5.827   0.688  0.8617  1.9925  2.4217
 3231SOL    EPW13370   0.366   5.845   0.618 -0.2696  0.4020  1.0766
 3232SOL      O13371   1.526   5.010   0.339 -0.2272 -0.1987  0.1110
 3232SOL     H113372   1.468   5.084   0.322  0.9185  0.8717  0.6349
 3232SOL     H213373   1.481   4.935   0.302 -1.7177  0.6575  0.1050
 3232SOL    EPW13374   1.515   5.010   0.333 -0.2640  0.0068  0.1662
 3233SOL      O13375   4.338   2.340   2.124 -0.8765  0.8537 -0.3896
 3233SOL     H113376   4.345   2.318   2.217 -1.5719  0.2136 -0.4813
 3233SOL     H213377   4.320   2.257   2.081  0.2744  0.9988 -1.2116
 3233SOL    EPW13378   4.337   2.329   2.130 -0.8279  0.8009 -0.4871
 3234SOL      O13379   3.089   1.989   3.750 -0.4538  0.6361  0.0846
 3234SOL     H113380   3.010   1.959   3.705 -0.1434  0.4431 -0.3446
 3234SOL     H213381   3.132   2.046   3.687  0.1401  0.1187  0.0132
 3234SOL    EPW13382   3.085   1.992   3.739 -0.3573  0.5603  0.0312
 3235SOL      O13383   1.725   1.950   3.029  0.4085  0.5470  0.0230
 3235SOL     H113384   1.738   2.045   3.029  1.9858  0.3586  0.9725
 3235SOL     H213385   1.775   1.919   2.954 -0.0872  0.4344 -0.2711
 3235SOL    EPW13386   1.731   1.957   3.021  0.5239  0.5149  0.0929
 3236SOL      O13387   1.889   4.312   1.030 -0.0075 -0.1351 -0.2349
 3236SOL     H113388   1.940   4.332   1.109  0.2186 -0.5476 -0.2742
 3236SOL     H213389   1.819   4.255   1.061 -0.7919  0.8899 -0.0816
 3236SOL    EPW13390   1.887   4.308   1.042 -0.0671 -0.0698 -0.2227
 3237SOL      O13391   0.213   3.741   2.249  0.5902  0.3363  0.1255
 3237SOL     H113392   0.264   3.778   2.177  1.1751  0.5552  0.6340
 3237SOL     H213393   0.123   3.743   2.219  0.6701  1.6487 -0.0899
 3237SOL    EPW13394   0.209   3.745   2.238  0.6611  0.4996  0.1568
 3238SOL      O13395   0.448   2.300   0.463 -0.5948  1.1533 -0.2125
 3238SOL     H113396   0.465   2.241   0.389  0.1239  0.4259  0.5117
 3238SOL     H213397   0.519   2.364   0.459 -0.2116  0.7624  0.1821
 3238SOL    EPW13398   0.457   2.301   0.454 -0.4773  1.0340 -0.0932
 3239SOL      O13399   5.348   2.095   4.100  0.1294 -0.2860 -0.1035
 3239SOL     H113400   5.282   2.070   4.037  1.9536 -1.8870 -1.4977
 3239SOL     H213401   5.337   2.034   4.173 -2.0854  1.6689  1.3357
 3239SOL    EPW13402   5.340   2.086   4.101  0.0877 -0.2482 -0.0987
 3240SOL      O13403   0.467   3.288   1.340 -0.5089 -0.5192 -0.0941
 3240SOL     H113404   0.407   3.347   1.295  0.8099 -1.0090 -2.6718
 3240SOL     H213405   0.535   3.346   1.376  0.6251 -0.3437 -2.3597
 3240SOL    EPW13406   0.468   3.301   1.339 -0.2472 -0.5528 -0.6107
 3241SOL      O13407   3.815   3.789   1.462 -0.1137  0.0428  0.5584
 3241SOL     H113408   3.735   3.778   1.513 -0.6513 -2.2496 -0.5970
 3241SOL     H213409   3.802   3.870   1.413 -3.3560 -1.8526 -2.1152
 3241SOL    EPW13410   3.805   3.796   1.462 -0.5169 -0.4039  0.1500
 3242SOL      O13411   2.264   4.051   0.659 -0.1176 -0.2830 -0.7119
 3242SOL     H113412   2.225   4.067   0.745  1.1051  0.8704 -0.3242
 3242SOL     H213413   2.195   4.070   0.596 -0.5992  0.3047 -0.0161
 3242SOL    EPW13414   2.253   4.055   0.662 -0.0385 -0.0973 -0.5963
 3243SOL      O13415   5.839   1.874   2.743 -0.0629 -0.5472  0.4129
 3243SOL     H113416   5.857   1.957   2.700 -0.4299 -1.2162 -1.1106
 3243SOL     H213417   5.913   1.860   2.801  1.8249 -0.7841 -1.8885
 3243SOL    EPW13418   5.849   1.881   2.744  0.0993 -0.6438  0.0049
 3244SOL      O13419   3.479   0.479   2.675 -0.1238 -0.2578 -0.4374
 3244SOL     H113420   3.454   0.415   2.608 -0.4606 -0.9394  0.3208
 3244SOL     H213421   3.421   0.554   2.659  0.3675 -0.0749 -1.4160
 3244SOL    EPW13422   3.470   0.480   2.666 -0.1073 -0.3110 -0.4609
 3245SOL      O13423   3.363   1.087   2.996  0.1766  0.2753  0.6751
 3245SOL     H113424   3.409   1.117   3.075 -0.2305 -0.6975  1.3061
 3245SOL     H213425   3.408   1.130   2.924  1.3451  0.2346  1.3542
 3245SOL    EPW13426   3.373   1.095   2.997  0.2579  0.1672  0.8148
 3246SOL      O13427   5.856   0.993   1.462 -0.5577 -0.5187 -0.0242
 3246SOL     H113428   5.835   0.961   1.374  3.1279 -2.0301 -0.5563
 3246SOL     H213429   5.829   0.922   1.520  1.0050 -1.5659 -0.4911
 3246SOL    EPW13430   5.851   0.982   1.458  0.0022 -0.7917 -0.1308
 3247SOL      O13431   4.504   2.741   2.774 -0.5344 -0.2949 -0.1930
 3247SOL     H113432   4.584   2.688   2.774  2.4658  3.7396  0.1177
 3247SOL     H213433   4.488   2.759   2.867 -2.1541 -1.4215 -0.2274
 3247SOL    EPW13434   4.511   2.737   2.784 -0.3871  0.0153 -0.1635
 3248SOL      O13435   1.399   1.155   2.524 -0.1015  0.3904  0.2031
 3248SOL     H113436   1.308   1.126   2.515  0.1592 -0.2623 -0.3922
 3248SOL     H213437   1.445   1.112   2.452  0.8890 -0.1505  1.1276
 3248SOL    EPW13438   1.394   1.147   2.516  0.0320  0.2631  0.2382
 3249SOL      O13439   2.635   2.955   2.631  0.4923  0.5629 -0.3319
 3249SOL     H113440   2.702   3.001   2.682 -0.4099  1.2216  0.2967
 3249SOL     H213441   2.552   2.983   2.670 -0.2086  0.6122 -1.7718
 3249SOL    EPW13442   2.633   2.963   2.641  0.3213  0.6384 -0.4184
 3250SOL      O13443   3.633   3.175   1.062 -0.0126 -0.0814  0.4256
 3250SOL     H113444   3.669   3.138   1.143 -0.4118  0.9142  1.0931
 3250SOL     H213445   3.677   3.259   1.053 -1.0003  0.4504  0.3986
 3250SOL    EPW13446   3.641   3.180   1.070 -0.1606  0.0815  0.4939
 3251SOL      O13447   1.547   1.850   0.300 -0.1209  0.4727 -0.3086
 3251SOL     H113448   1.490   1.841   0.224  0.3065 -1.2162 -0.4713
 3251SOL     H213449   1.504   1.916   0.354 -1.8015 -0.1482 -0.8053
 3251SOL    EPW13450   1.536   1.856   0.298 -0.2546  0.2263 -0.3790
 3252SOL      O13451   2.855   1.353   0.411  0.2729  0.5242  0.2589
 3252SOL     H113452   2.862   1.367   0.317  0.8136 -0.4936  0.1276
 3252SOL     H213453   2.762   1.336   0.427  0.5245 -1.9820 -0.5345
 3252SOL    EPW13454   2.846   1.353   0.403  0.3574  0.1483  0.1603
 3253SOL      O13455   5.584   4.697   1.884 -0.2606 -0.2895 -0.0696
 3253SOL     H113456   5.573   4.655   1.969  0.1141 -1.6275 -0.6562
 3253SOL     H213457   5.549   4.633   1.822  1.5786 -0.3428 -1.1045
 3253SOL    EPW13458   5.579   4.686   1.887 -0.0244 -0.4380 -0.2426
 3254SOL      O13459   3.498   3.350   0.381  0.7787 -0.5848  0.1933
 3254SOL     H113460   3.416   3.302   0.370  0.8166 -0.4129 -1.0143
 3254SOL     H213461   3.470   3.437   0.412  0.5374 -0.6854  0.2627
 3254SOL    EPW13462   3.486   3.354   0.383  0.7570 -0.5772  0.0719
 3255SOL      O13463   2.926   3.597   1.886 -0.3326  0.5540 -0.1108
 3255SOL     H113464   3.020   3.603   1.871 -0.0659  1.3150  1.6011
 3255SOL     H213465   2.917   3.597   1.982 -1.9525 -1.8722 -0.1777
 3255SOL    EPW13466   2.935   3.597   1.895 -0.4770  0.3763  0.0647
 3256SOL      O13467   1.755   2.672   1.655  0.2342 -0.0120 -1.0558
 3256SOL     H113468   1.794   2.597   1.610 -1.1273 -0.8955 -0.8261
 3256SOL     H213469   1.770   2.655   1.748  1.3061  0.8185 -1.0563
 3256SOL    EPW13470   1.761   2.662   1.660  0.2033 -0.0177 -1.0313
 3257SOL      O13471   1.355   0.508   3.889  0.2596  0.3660  0.8499
 3257SOL     H113472   1.292   0.442   3.859  1.9546 -0.3976 -1.2454
 3257SOL     H213473   1.430   0.458   3.919 -0.1556  1.2535  3.7339
 3257SOL    EPW13474   1.356   0.496   3.889  0.3961  0.3792  0.9340
 3258SOL      O13475   5.201   3.557   1.747  0.6893  0.1554  0.0130
 3258SOL     H113476   5.166   3.468   1.742 -0.5608  0.6565 -0.6915
 3258SOL     H213477   5.137   3.605   1.799  1.2418  0.6996  0.2098
 3258SOL    EPW13478   5.190   3.553   1.752  0.6149  0.2669 -0.0411
 3259SOL      O13479   4.736   1.799   2.273 -0.0968  0.2703 -0.2118
 3259SOL     H113480   4.778   1.849   2.202 -0.2567  1.3689  0.4424
 3259SOL     H213481   4.660   1.851   2.296 -1.4674 -1.3491 -0.8986
 3259SOL    EPW13482   4.733   1.810   2.268 -0.2601  0.2148 -0.2153
 3260SOL      O13483   0.940   1.805   3.161  0.2028  0.2834  0.0068
 3260SOL     H113484   0.913   1.845   3.244 -1.0222  2.6972 -1.4317
 3260SOL     H213485   1.004   1.867   3.125  0.3005 -0.4380 -1.0901
 3260SOL    EPW13486   0.944   1.816   3.166  0.0825  0.4639 -0.2637
 3261SOL      O13487   5.830   2.120   1.448 -0.4016  0.3859  0.4729
 3261SOL     H113488   5.867   2.087   1.530 -2.1237 -0.6913  0.8606
 3261SOL     H213489   5.852   2.052   1.383 -3.0222 -1.1509  1.0533
 3261SOL    EPW13490   5.836   2.109   1.450 -0.8649  0.1071  0.5761
 3262SOL      O13491   0.282   5.376   1.010 -0.1393 -0.0895 -0.1133
 3262SOL     H113492   0.366   5.392   1.053  0.0507 -2.6278  0.6256
 3262SOL     H213493   0.283   5.433   0.933  2.1647  0.1210  0.0010
 3262SOL    EPW13494   0.291   5.384   1.006  0.1268 -0.3378 -0.0223
 3263SOL      O13495   0.733   4.756   1.573  0.3243 -0.1001  0.3147
 3263SOL     H113496   0.752   4.728   1.663 -0.3282 -0.7524  0.2616
 3263SOL     H213497   0.781   4.694   1.518  1.6945  1.0230  0.2038
 3263SOL    EPW13498   0.740   4.746   1.577  0.4009 -0.0498  0.2972
 3264SOL      O13499   5.326   5.302   0.239 -0.0249 -0.1910  0.2852
 3264SOL     H113500   5.351   5.344   0.321 -0.1996  0.8404 -0.1874
 3264SOL     H213501   5.409   5.289   0.193 -0.0012 -0.0673  0.2923
 3264SOL    EPW13502   5.338   5.305   0.243 -0.0410 -0.0678  0.2355
 3265SOL      O13503   4.565   1.642   3.452 -0.0605  0.3148 -0.3703
 3265SOL     H113504   4.575   1.611   3.542 -0.6330 -1.8935 -1.0089
 3265SOL     H213505   4.604   1.729   3.452 -0.5870  0.6194  2.1423
 3265SOL    EPW13506   4.570   1.648   3.461 -0.1777  0.1117 -0.1704
 3266SOL      O13507   1.839   0.153   0.090  0.0327 -0.4048  0.0450
 3266SOL     H113508   1.832   0.239   0.048 -0.0891  0.8939  2.5574
 3266SOL     H213509   1.934   0.137   0.093  0.0620 -0.3361 -0.3585
 3266SOL    EPW13510   1.849   0.161   0.086  0.0228 -0.2589  0.2699
 3267SOL      O13511   1.351   2.901   0.062 -0.2473 -0.0174  0.0219
 3267SOL     H113512   1.438   2.898   0.022 -0.4737  0.0046 -0.4696
 3267SOL     H213513   1.302   2.963   0.010 -0.4601  0.2296  0.5095
 3267SOL    EPW13514   1.355   2.907   0.052 -0.2941  0.0113  0.0215
 3268SOL      O13515   3.219   0.880   1.785  0.5466  0.5393  0.5181
 3268SOL     H113516   3.257   0.889   1.872 -0.4496 -0.7602  1.1379
 3268SOL     H213517   3.293   0.878   1.726  1.4125 -0.8978  1.5804
 3268SOL    EPW13518   3.231   0.881   1.788  0.5327  0.2474  0.6976
 3269SOL      O13519   3.417   0.913   1.317  0.0216  0.2612  0.2127
 3269SOL     H113520   3.507   0.938   1.295  0.4934 -0.8410  0.8183
 3269SOL     H213521   3.425   0.827   1.357 -1.2114  0.5500  1.1562
 3269SOL    EPW13522   3.428   0.907   1.319 -0.0596  0.1744  0.3780
 3270SOL      O13523   3.366   5.678   3.841 -0.2803 -0.1600  0.4390
 3270SOL     H113524   3.274   5.670   3.817  0.5923 -0.2461 -3.6719
 3270SOL     H213525   3.405   5.595   3.813  1.1816  0.1377  1.4675
 3270SOL    EPW13526   3.360   5.668   3.835 -0.0313 -0.1374  0.1102
 3271SOL      O13527   5.281   2.474   1.195 -0.3353 -0.0962  0.1353
 3271SOL     H113528   5.286   2.523   1.113 -1.3001  1.9826  1.2320
 3271SOL     H213529   5.288   2.382   1.168  2.1434  0.5722 -1.9751
 3271SOL    EPW13530   5.282   2.469   1.183 -0.1738  0.1969  0.0272
 3272SOL      O13531   1.308   4.267   3.216 -0.3834  0.2680 -0.6019
 3272SOL     H113532   1.292   4.298   3.305 -0.8142  0.8329 -0.8695
 3272SOL     H213533   1.263   4.182   3.212  3.4480 -2.1292  1.1463
 3272SOL    EPW13534   1.301   4.261   3.225 -0.0206  0.0726 -0.4439
 3273SOL      O13535   3.167   4.697   0.263  0.6741 -0.1397 -0.1548
 3273SOL     H113536   3.097   4.733   0.316  1.9408  0.5967  1.0732
 3273SOL     H213537   3.141   4.606   0.248 -0.1492 -0.0988  0.9462
 3273SOL    EPW13538   3.157   4.691   0.267  0.7214 -0.0568  0.0936
 3274SOL      O13539   4.559   0.155   2.215  0.3719  0.8410 -0.4070
 3274SOL     H113540   4.473   0.197   2.220  0.3789  0.7428  2.1672
 3274SOL     H213541   4.621   0.228   2.215  0.3314  0.8891 -1.3053
 3274SOL    EPW13542   4.556   0.167   2.216  0.3683  0.8357 -0.2282
 3275SOL      O13543   2.609   1.551   1.685 -0.1315 -0.3547 -0.2350
 3275SOL     H113544   2.580   1.594   1.605  0.7683 -0.0672 -0.4173
 3275SOL     H213545   2.672   1.612   1.724  0.0281 -0.8395  0.2793
 3275SOL    EPW13546   2.613   1.562   1.681 -0.0185 -0.3757 -0.1996
 3276SOL      O13547   1.629   1.458   1.110 -0.3369  0.5528 -0.0163
 3276SOL     H113548   1.592   1.398   1.045 -2.4502  0.6402  1.0265
 3276SOL     H213549   1.625   1.410   1.193 -1.7325  1.9339  0.7754
 3276SOL    EPW13550   1.625   1.446   1.112 -0.7112  0.7095  0.1794
 3277SOL      O13551   4.172   0.083   1.247  0.2524  0.1706  0.0997
 3277SOL     H113552   4.207  -0.002   1.274 -0.6237  0.6417  2.9962
 3277SOL     H213553   4.247   0.129   1.210  1.6554 -0.5131  1.9429
 3277SOL    EPW13554   4.184   0.079   1.246  0.3086  0.1479  0.6053
 3278SOL      O13555   0.803   5.006   1.700 -0.4249 -0.1300  0.1007
 3278SOL     H113556   0.765   5.029   1.785  2.1752 -1.8997  1.9249
 3278SOL     H213557   0.772   4.917   1.683 -0.3479 -0.0574 -0.4392
 3278SOL    EPW13558   0.796   4.999   1.707 -0.1393 -0.3111  0.2377
 3279SOL      O13559   0.020   5.608   3.848 -0.3029  0.4973 -0.6844
 3279SOL     H113560   0.040   5.651   3.765 -0.6232  0.3107 -0.8590
 3279SOL     H213561  -0.044   5.665   3.890 -0.5375  0.3254 -0.8033
 3279SOL    EPW13562   0.016   5.618   3.844 -0.3621  0.4590 -0.7157
 3280SOL      O13563   3.826   0.481   1.566  0.5579 -0.6565 -0.1477
 3280SOL     H113564   3.913   0.484   1.606  0.7918 -0.6961 -0.6454
 3280SOL     H213565   3.819   0.565   1.520  0.0489 -0.3531  0.4711
 3280SOL    EPW13566   3.835   0.491   1.565  0.5285 -0.6283 -0.1348
 3281SOL      O13567   2.974   1.385   2.796  0.1237  0.1118  0.1673
 3281SOL     H113568   3.020   1.319   2.848 -1.3305 -1.1391 -0.0497
 3281SOL     H213569   3.040   1.450   2.775  1.1558 -0.2448  2.1036
 3281SOL    EPW13570   2.986   1.384   2.800  0.0787 -0.0597  0.3507
 3282SOL      O13571   5.004   5.843   1.853 -0.2079 -0.1064  0.1217
 3282SOL     H113572   5.003   5.877   1.943  1.1747  2.1735 -0.6148
 3282SOL     H213573   5.036   5.753   1.861  0.5928  0.2948  1.8668
 3282SOL    EPW13574   5.008   5.837   1.863  0.0250  0.1796  0.2293
 3283SOL      O13575   1.259   3.015   1.938 -0.8673 -0.1854  0.6100
 3283SOL     H113576   1.207   2.942   1.972 -0.9016 -1.1356 -1.3127
 3283SOL     H213577   1.244   3.012   1.843  1.6211  0.3463  0.1265
 3283SOL    EPW13578   1.252   3.006   1.931 -0.6055 -0.2300  0.3533
 3284SOL      O13579   4.802   0.075   1.243 -0.5384  0.4329  0.4584
 3284SOL     H113580   4.858   0.018   1.296 -1.1661 -0.0229  0.6346
 3284SOL     H213581   4.719   0.029   1.237 -0.3644  0.2678 -1.2740
 3284SOL    EPW13582   4.799   0.064   1.248 -0.5868  0.3666  0.2924
 3285SOL      O13583   1.475   2.563   1.544  0.6749 -0.6158 -0.2532
 3285SOL     H113584   1.457   2.478   1.584 -1.2973  0.7506  2.0304
 3285SOL     H213585   1.557   2.591   1.583 -1.8725  1.3492  4.5723
 3285SOL    EPW13586   1.482   2.557   1.552  0.1928 -0.2604  0.5052
 3286SOL      O13587   5.787   3.119   1.642  0.9438 -0.0075 -0.0395
 3286SOL     H113588   5.831   3.083   1.720  0.0858  0.4120  0.6601
 3286SOL     H213589   5.769   3.043   1.587 -0.9809 -0.7550  1.4908
 3286SOL    EPW13590   5.790   3.107   1.645  0.6469 -0.0425  0.1984
 3287SOL      O13591   4.275   1.247   1.856  0.1798  0.1714  0.0891
 3287SOL     H113592   4.289   1.242   1.951 -1.2256 -2.3006  0.2684
 3287SOL     H213593   4.357   1.281   1.821  0.9958  0.4405  2.1269
 3287SOL    EPW13594   4.285   1.250   1.863  0.1169 -0.0636  0.3256
 3288SOL      O13595   1.289   1.758   3.127 -0.1903  0.2444 -0.5301
 3288SOL     H113596   1.221   1.824   3.114 -1.1544 -0.7473 -0.6924
 3288SOL     H213597   1.369   1.808   3.144 -1.1563  1.4442  0.7316
 3288SOL    EPW13598   1.290   1.770   3.128 -0.3962  0.2666 -0.4128
 3289SOL      O13599   2.005   0.329   1.482 -0.3277  0.0558  0.0013
 3289SOL     H113600   1.934   0.389   1.460  0.9293  0.7555 -2.4230
 3289SOL     H213601   2.054   0.373   1.552 -1.0525  0.5168  0.2274
 3289SOL    EPW13602   2.003   0.340   1.487 -0.2709  0.1796 -0.2332
 3290SOL      O13603   2.840   5.557   3.702 -0.7279  0.0935  0.3736
 3290SOL     H113604   2.776   5.547   3.772  1.9310 -0.0334  2.9962
 3290SOL     H213605   2.891   5.476   3.703  1.2002  1.2307  0.3327
 3290SOL    EPW13606   2.839   5.547   3.709 -0.2385  0.2013  0.6490
 3291SOL      O13607   3.509   2.549   0.652  0.0985  0.2422 -0.1122
 3291SOL     H113608   3.426   2.543   0.604 -0.5146  1.0403  0.8256
 3291SOL     H213609   3.563   2.480   0.614 -1.2694 -0.8306 -0.1943
 3291SOL    EPW13610   3.506   2.541   0.643 -0.1128  0.2129 -0.0209
 3292SOL      O13611   0.072   0.449   3.219  0.0638  0.5758  0.5757
 3292SOL     H113612   0.065   0.359   3.185  1.9520  0.0464  1.4699
 3292SOL     H213613  -0.018   0.474   3.237 -0.6178 -0.7076 -0.7512
 3292SOL    EPW13614   0.062   0.442   3.217  0.1925  0.3824  0.5295
 3293SOL      O13615   1.766   4.924   2.158 -0.3695  0.1299 -0.0669
 3293SOL     H113616   1.798   4.861   2.094  3.1076  1.6257 -0.0096
 3293SOL     H213617   1.836   4.931   2.223 -1.5261  2.4429  1.0830
 3293SOL    EPW13618   1.776   4.918   2.158 -0.1220  0.5362  0.0619
 3294SOL      O13619   5.282   2.945   0.260 -0.1918 -0.4526  0.3592
 3294SOL     H113620   5.207   2.988   0.302 -1.1114 -2.6635  1.1447
 3294SOL     H213621   5.336   2.916   0.333  0.4913 -0.4871 -0.1534
 3294SOL    EPW13622   5.280   2.946   0.273 -0.2170 -0.6921  0.3883
 3295SOL      O13623   4.890   5.785   0.542  0.7974  0.0568  0.0097
 3295SOL     H113624   4.874   5.868   0.586 -0.3287 -0.0817 -0.1075
 3295SOL     H213625   4.803   5.745   0.534  1.1564 -0.5509 -1.0754
 3295SOL    EPW13626   4.879   5.789   0.545  0.7155 -0.0228 -0.1185
 3296SOL      O13627   4.814   1.771   1.567 -0.4942  0.3813  0.0911
 3296SOL     H113628   4.743   1.711   1.591 -1.1667  0.8694 -0.6467
 3296SOL     H213629   4.877   1.761   1.638 -1.0907 -0.3913  0.5403
 3296SOL    EPW13630   4.813   1.763   1.578 -0.6296  0.3509  0.0603
 3297SOL      O13631   2.784   1.002   3.834 -0.0104 -0.1432 -0.5926
 3297SOL     H113632   2.880   0.998   3.835  0.0334  0.8287 -0.1722
 3297SOL     H213633   2.763   1.091   3.861 -1.0204 -0.0186 -1.7079
 3297SOL    EPW13634   2.792   1.011   3.837 -0.1135 -0.0262 -0.6667
 3298SOL      O13635   3.497   0.580   3.138  0.5236 -0.2323 -0.3221
 3298SOL     H113636   3.565   0.599   3.073  0.2812  1.0223 -0.2249
 3298SOL     H213637   3.444   0.511   3.099  0.2341  0.6773 -1.5630
 3298SOL    EPW13638   3.499   0.574   3.127  0.4669 -0.0014 -0.4441
 3299SOL      O13639   4.262   2.647   3.946  0.3201 -0.1015  0.1169
 3299SOL     H113640   4.235   2.559   3.974  0.4246 -0.1609  0.0306
 3299SOL     H213641   4.329   2.673   4.009  0.0995  0.0272  0.3036
 3299SOL    EPW13642   4.266   2.640   3.956  0.3077 -0.0941  0.1276
 3300SOL      O13643   0.824   5.073   0.718 -0.1018 -0.2724 -0.0546
 3300SOL     H113644   0.778   5.087   0.800 -0.2508 -1.8765  0.1773
 3300SOL     H213645   0.834   4.978   0.712  0.2102 -0.1726 -1.7283
 3300SOL    EPW13646   0.820   5.064   0.726 -0.0844 -0.4329 -0.2084
 3301SOL      O13647   4.454   3.940   3.247 -0.6613 -0.1390  0.2906
 3301SOL     H113648   4.444   4.023   3.201 -0.0261  0.8071  1.8244
 3301SOL     H213649   4.457   3.963   3.339 -2.1560 -2.0143  0.8824
 3301SOL    EPW13650   4.453   3.951   3.252 -0.7530 -0.2381  0.5174
 3302SOL      O13651   2.493   3.275   0.928  0.2227 -0.4079 -0.0448
 3302SOL     H113652   2.458   3.312   0.847 -0.0423  1.2645  0.7901
 3302SOL     H213653   2.416   3.241   0.974  0.2761 -0.6761 -0.1514
 3302SOL    EPW13654   2.481   3.275   0.924  0.2001 -0.2581  0.0329
 3303SOL      O13655   0.637   3.238   4.072 -0.0587  0.4808 -0.2135
 3303SOL     H113656   0.684   3.190   4.003 -1.1919 -0.3204 -0.4597
 3303SOL     H213657   0.616   3.171   4.137 -0.0715  1.0003  0.3205
 3303SOL    EPW13658   0.640   3.226   4.071 -0.1810  0.4507 -0.1828
 3304SOL      O13659   4.091   1.943   0.341  0.1500 -0.1788  0.2915
 3304SOL     H113660   4.150   1.868   0.339  0.4578  0.0348  0.9723
 3304SOL     H213661   4.004   1.906   0.322  0.2443 -0.7624  0.9521
 3304SOL    EPW13662   4.088   1.931   0.339  0.1929 -0.2183  0.4346
 3305SOL      O13663   3.390   0.651   2.179  0.4685 -0.1021  0.4765
 3305SOL     H113664   3.357   0.738   2.159 -4.3350 -1.3011  2.0010
 3305SOL     H213665   3.427   0.660   2.267  2.4671  0.7786 -0.3696
 3305SOL    EPW13666   3.391   0.661   2.187  0.1693 -0.1361  0.5488
 3306SOL      O13667   0.148   0.272   2.580  0.7494  0.1549 -0.0033
 3306SOL     H113668   0.139   0.202   2.516 -1.9542  1.2382 -0.9465
 3306SOL     H213669   0.218   0.327   2.545  0.1461  0.0656 -1.4210
 3306SOL    EPW13670   0.155   0.271   2.570  0.3967  0.2609 -0.2551
 3307SOL      O13671   0.370   3.688   0.173  0.2755 -0.0162 -0.3284
 3307SOL     H113672   0.311   3.748   0.127  1.8461  1.7719 -0.1049
 3307SOL     H213673   0.434   3.663   0.108  0.2138 -0.6681 -0.1446
 3307SOL    EPW13674   0.370   3.692   0.162  0.4364  0.1050 -0.2849
 3308SOL      O13675   3.153   2.518   1.293  0.1679 -0.0620  0.2265
 3308SOL     H113676   3.081   2.551   1.347  0.2514  1.0625 -0.3395
 3308SOL     H213677   3.211   2.474   1.355 -0.3365  0.1773  0.8771
 3308SOL    EPW13678   3.151   2.517   1.305  0.1230  0.0835  0.2355
 3309SOL      O13679   1.148   2.612   1.950  0.1202 -0.3241 -0.5862
 3309SOL     H113680   1.133   2.696   1.994 -1.7181 -0.5197 -0.7669
 3309SOL     H213681   1.174   2.637   1.861  1.9935  0.0443  0.0142
 3309SOL    EPW13682   1.150   2.624   1.945  0.1240 -0.3057 -0.5415
 3310SOL      O13683   3.993   5.593   0.710 -0.9930  0.3096 -0.8542
 3310SOL     H113684   3.931   5.565   0.776  2.6366 -3.0928  1.5727
 3310SOL     H213685   3.993   5.523   0.644  2.7244 -2.0759  1.2866
 3310SOL    EPW13686   3.987   5.583   0.710 -0.2092 -0.3078 -0.3669
 3311SOL      O13687   5.769   5.608   0.517  0.0043 -0.4395  0.3452
 3311SOL     H113688   5.832   5.545   0.550  1.4789 -0.3410 -2.0595
 3311SOL     H213689   5.775   5.601   0.422 -1.0561  2.0879  0.0086
 3311SOL    EPW13690   5.776   5.601   0.510  0.0485 -0.1594  0.0528
 3312SOL      O13691   2.370   4.901   0.276 -0.1182 -0.1512 -0.1580
 3312SOL     H113692   2.448   4.845   0.269 -0.4012 -0.7199  0.8996
 3312SOL     H213693   2.404   4.990   0.284  0.3336 -0.1083 -2.1790
 3312SOL    EPW13694   2.382   4.904   0.276 -0.1002 -0.2073 -0.2608
 3313SOL      O13695   1.473   0.310   1.901 -0.8330  0.3903  0.4047
 3313SOL     H113696   1.532   0.316   1.826 -1.4709 -1.8032 -0.3351
 3313SOL     H213697   1.415   0.385   1.892 -0.1670  0.8098 -0.6209
 3313SOL    EPW13698   1.473   0.319   1.892 -0.8300  0.2011  0.2164
 3314SOL      O13699   2.770   5.764   4.075 -0.0909 -0.1596 -0.3153
 3314SOL     H113700   2.708   5.824   4.033  0.0601  0.4064  0.2568
 3314SOL     H213701   2.739   5.758   4.165  0.8009  0.2972  0.0352
 3314SOL    EPW13702   2.760   5.770   4.080  0.0204 -0.0505 -0.2168
 3315SOL      O13703   0.900   3.747   3.714  0.2427  0.2594 -0.1631
 3315SOL     H113704   0.832   3.763   3.648  0.7295 -0.1182 -0.7656
 3315SOL     H213705   0.959   3.822   3.706  1.5874 -0.9249 -1.8020
 3315SOL    EPW13706   0.899   3.757   3.706  0.4381  0.0928 -0.4022
 3316SOL      O13707   3.538   0.239   2.171  0.2149 -0.0102 -0.3493
 3316SOL     H113708   3.605   0.235   2.102  1.7698  0.8532  1.0597
 3316SOL     H213709   3.582   0.281   2.244 -0.9005 -2.2638  1.7580
 3316SOL    EPW13710   3.550   0.243   2.171  0.2618 -0.1585  0.0258
 3317SOL      O13711   3.709   5.696   1.630  0.0083 -0.3398 -0.0835
 3317SOL     H113712   3.685   5.669   1.541  1.2951  2.0329 -1.2716
 3317SOL     H213713   3.780   5.638   1.655  0.2894 -0.4235 -1.0320
 3317SOL    EPW13714   3.714   5.687   1.623  0.1756 -0.0956 -0.3114
 3318SOL      O13715   0.823   2.060   3.942  0.0498  0.1017  0.1127
 3318SOL     H113716   0.743   2.103   3.913 -0.8616 -0.2529  1.9341
 3318SOL     H213717   0.891   2.128   3.935 -0.2535  0.2432 -1.9603
 3318SOL    EPW13718   0.822   2.072   3.938 -0.0798  0.0790  0.0859
 3319SOL      O13719   0.650   5.216   3.786  0.0975  0.2678 -0.1256
 3319SOL     H113720   0.662   5.217   3.691  0.2913 -3.2625 -0.2950
 3319SOL     H213721   0.738   5.202   3.822 -0.4529 -4.0452  0.0480
 3319SOL    EPW13722   0.661   5.214   3.780  0.0595 -0.5689 -0.1251
 3320SOL      O13723   4.850   0.687   2.984 -0.8133  0.7467  0.2320
 3320SOL     H113724   4.771   0.638   2.962 -0.0898 -0.3816  0.0571
 3320SOL     H213725   4.896   0.697   2.900 -0.8023  1.4705  0.3158
 3320SOL    EPW13726   4.847   0.683   2.973 -0.7349  0.7036  0.2223
 3321SOL      O13727   0.330   5.749   2.836 -0.0780 -0.2763  0.5507
 3321SOL     H113728   0.264   5.817   2.824  0.1170 -0.3143 -0.8976
 3321SOL     H213729   0.408   5.783   2.792  0.2965 -1.0334  0.6143
 3321SOL    EPW13730   0.331   5.759   2.830 -0.0172 -0.3611  0.4030
 3322SOL      O13731   3.263   0.841   3.103  0.0329  0.2954 -0.7098
 3322SOL     H113732   3.327   0.826   3.173 -2.6004  1.9575  2.3329
 3322SOL     H213733   3.301   0.913   3.051  1.8398 -0.6684 -0.8169
 3322SOL    EPW13734   3.274   0.847   3.105 -0.0552  0.3699 -0.3966
 3323SOL      O13735   4.161   3.732   2.184 -0.0922 -0.2518 -0.2564
 3323SOL     H113736   4.091   3.785   2.223  0.4396 -0.1432  0.5790
 3323SOL     H213737   4.229   3.796   2.162 -0.2763 -0.3500 -1.1151
 3323SOL    EPW13738   4.160   3.745   2.186 -0.0551 -0.2507 -0.2589
 3324SOL      O13739   5.651   4.433   0.343  0.1665 -0.0434 -0.0560
 3324SOL     H113740   5.605   4.512   0.316  0.0634 -0.7976 -2.2898
 3324SOL     H213741   5.611   4.363   0.291  3.2221 -0.8612 -1.5691
 3324SOL    EPW13742   5.642   4.434   0.335  0.4814 -0.2111 -0.4557
 3325SOL      O13743   1.169   3.678   1.915 -0.1844 -0.0382 -0.0289
 3325SOL     H113744   1.203   3.767   1.909  0.4047 -0.2412  0.2692
 3325SOL     H213745   1.212   3.641   1.992  0.6403 -1.0398 -0.9519
 3325SOL    EPW13746   1.177   3.684   1.922 -0.0336 -0.1667 -0.0955
 3326SOL      O13747   1.179   5.771   2.499 -0.1305 -0.3099 -0.0946
 3326SOL     H113748   1.211   5.836   2.436  1.9349 -2.8013 -1.8525
 3326SOL     H213749   1.093   5.745   2.465 -0.5993  0.8812  0.1572
 3326SOL    EPW13750   1.173   5.775   2.488  0.0398 -0.4486 -0.2553
 3327SOL      O13751   4.151   3.647   1.921  0.0247  0.5933  0.3628
 3327SOL     H113752   4.129   3.739   1.908 -3.5567 -0.2770 -0.8367
 3327SOL     H213753   4.152   3.610   1.833 -0.4070 -0.8231  0.9228
 3327SOL    EPW13754   4.149   3.653   1.910 -0.4034  0.3493  0.2946
 3328SOL      O13755   1.669   0.029   1.766 -0.0517  0.2049  0.4554
 3328SOL     H113756   1.605   0.068   1.706 -0.4166 -0.0046  0.7031
 3328SOL     H213757   1.733  -0.014   1.709  0.0955  0.7618  0.1961
 3328SOL    EPW13758   1.669   0.029   1.754 -0.0750  0.2419  0.4541
 3329SOL      O13759   0.589   4.092   3.924 -0.2632 -0.1542 -0.6654
 3329SOL     H113760   0.666   4.055   3.880  0.0050 -0.6073  0.1513
 3329SOL     H213761   0.537   4.015   3.949  0.8516 -0.1290  2.0669
 3329SOL    EPW13762   0.592   4.080   3.922 -0.1156 -0.1999 -0.2868
 3330SOL      O13763   5.541   1.845   1.746 -0.2446  0.2768  0.3735
 3330SOL     H113764   5.636   1.835   1.742 -0.4420 -1.6070 -1.4555
 3330SOL     H213765   5.514   1.798   1.824  0.4456  2.7533  2.2156
 3330SOL    EPW13766   5.548   1.839   1.754 -0.1920  0.3400  0.3749
 3331SOL      O13767   3.527   5.395   0.279  1.1328 -0.1314 -0.6275
 3331SOL     H113768   3.500   5.320   0.226  0.4345  0.0567 -0.5450
 3331SOL     H213769   3.512   5.368   0.369  2.0843 -0.3566 -0.5260
 3331SOL    EPW13770   3.523   5.384   0.283  1.1598 -0.1354 -0.6079
 3332SOL      O13771   0.392   4.506   1.887 -0.2058 -0.5711 -0.2189
 3332SOL     H113772   0.452   4.493   1.813 -0.7851  0.4260 -0.8857
 3332SOL     H213773   0.400   4.425   1.938  1.8676 -0.4037 -0.1655
 3332SOL    EPW13774   0.400   4.496   1.885 -0.0464 -0.4469 -0.2843
 3333SOL      O13775   0.957   0.750   0.015 -0.4738 -0.0162 -0.0725
 3333SOL     H113776   0.972   0.656   0.002  0.3426  0.2654 -1.4048
 3333SOL     H213777   0.982   0.790  -0.068  1.0534  1.5803  1.0705
 3333SOL    EPW13778   0.961   0.744   0.005 -0.2238  0.1842 -0.0927
 3334SOL      O13779   4.085   0.128   4.149  0.6662 -0.1884  0.2146
 3334SOL     H113780   4.069   0.198   4.086  0.6636  0.6820  1.1610
 3334SOL     H213781   4.095   0.173   4.233  3.9650 -0.9681  0.3979
 3334SOL    EPW13782   4.085   0.140   4.151  1.0178 -0.1787  0.3352
 3335SOL      O13783   1.798   1.168   3.701  0.4675  0.1873  0.4842
 3335SOL     H113784   1.805   1.081   3.662  2.1402  1.5512 -2.6783
 3335SOL     H213785   1.886   1.186   3.735  0.0849  0.5660  1.2975
 3335SOL    EPW13786   1.808   1.161   3.700  0.6051  0.3732  0.2336
 3336SOL      O13787   4.042   2.937   1.043  0.3050  0.0492  0.1239
 3336SOL     H113788   4.046   3.031   1.030  3.4675 -0.0659 -0.3366
 3336SOL     H213789   4.050   2.926   1.138 -3.4916  0.2300  0.6211
 3336SOL    EPW13790   4.043   2.946   1.052  0.2374  0.0562  0.1278
 3337SOL      O13791   3.451   1.304   2.456 -0.1305  0.3458  0.0634
 3337SOL     H113792   3.505   1.382   2.466 -1.6796  1.4122  0.5834
 3337SOL     H213793   3.461   1.278   2.365 -0.9135  2.2196 -0.6155
 3337SOL    EPW13794   3.458   1.309   2.448 -0.3793  0.6594  0.0464
 3338SOL      O13795   1.167   5.521   0.811 -0.2823  0.8238 -0.4507
 3338SOL     H113796   1.251   5.565   0.825 -1.7997  3.2974  1.9185
 3338SOL     H213797   1.104   5.592   0.800 -2.4222 -0.8419  0.2737
 3338SOL    EPW13798   1.170   5.533   0.811 -0.6724  0.9100 -0.1207
 3339SOL      O13799   2.230   4.251   3.471 -0.0081  0.1689  0.3517
 3339SOL     H113800   2.226   4.193   3.547  1.0787 -0.8258 -0.3130
 3339SOL     H213801   2.139   4.264   3.445 -0.2945 -0.8265  0.8260
 3339SOL    EPW13802   2.220   4.246   3.477  0.0773 -0.0434  0.3314
 3340SOL      O13803   2.456   4.848   1.869 -0.7464  0.4252  0.1191
 3340SOL     H113804   2.465   4.921   1.931  2.3469  0.0939  0.1792
 3340SOL     H213805   2.523   4.786   1.895 -1.0331 -0.8914 -2.0659
 3340SOL    EPW13806   2.464   4.849   1.878 -0.4470  0.2494 -0.1076
 3341SOL      O13807   3.132   5.705   2.499 -0.9498 -0.5726  0.2742
 3341SOL     H113808   3.188   5.781   2.516 -0.9666 -0.0215 -1.8518
 3341SOL     H213809   3.182   5.630   2.530  0.2573  0.0738 -0.0535
 3341SOL    EPW13810   3.143   5.705   2.504 -0.8228 -0.4449  0.0125
 3342SOL      O13811   2.562   4.442   1.316 -0.0846 -0.5568  0.0741
 3342SOL     H113812   2.637   4.499   1.333 -1.6660  2.2331 -1.3577
 3342SOL     H213813   2.564   4.427   1.221 -1.7930  0.4597 -0.1760
 3342SOL    EPW13814   2.570   4.447   1.308 -0.4355 -0.1508 -0.1053
 3343SOL      O13815   3.197   0.210   0.780 -0.1209 -0.3190 -0.1925
 3343SOL     H113816   3.186   0.266   0.703  1.1660 -2.5266 -2.0964
 3343SOL     H213817   3.109   0.176   0.798 -0.8425  1.8574  0.7365
 3343SOL    EPW13818   3.186   0.212   0.774 -0.0606 -0.3223 -0.2965
 3344SOL      O13819   4.557   0.077   3.950  0.0319  0.0447  0.3287
 3344SOL     H113820   4.570   0.048   4.041  0.9703 -1.1065 -0.1518
 3344SOL     H213821   4.646   0.097   3.919 -0.3199  0.7371 -0.2454
 3344SOL    EPW13822   4.568   0.076   3.957  0.0945 -0.0043  0.2162
 3345SOL      O13823   5.807   1.194   3.414  1.1711  0.3176 -0.6842
 3345SOL     H113824   5.760   1.197   3.331  1.3166  1.6307 -0.7507
 3345SOL     H213825   5.889   1.241   3.397  1.9663 -0.8730 -0.2429
 3345SOL    EPW13826   5.811   1.199   3.404  1.2715  0.3307 -0.6442
 3346SOL      O13827   5.492   4.562   0.969  0.6911  0.4744 -0.3078
 3346SOL     H113828   5.585   4.584   0.963  1.5116 -2.8655 -2.3087
 3346SOL     H213829   5.462   4.558   0.878 -1.4670  1.4075  0.2980
 3346SOL    EPW13830   5.498   4.564   0.959  0.5484  0.2177 -0.4567
 3347SOL      O13831   0.828   3.291   1.086  0.2149  0.4692  0.5254
 3347SOL     H113832   0.924   3.290   1.077  0.1303 -0.3029 -0.4524
 3347SOL     H213833   0.813   3.293   1.181  1.2118 -1.2431  0.7550
 3347SOL    EPW13834   0.837   3.291   1.095  0.3122  0.2042  0.4456
 3348SOL      O13835   2.685   0.688   0.711  0.1130 -0.0577 -0.4832
 3348SOL     H113836   2.660   0.603   0.748  3.0234 -1.2374 -0.9356
 3348SOL     H213837   2.643   0.690   0.625  1.6227 -2.0716 -1.3486
 3348SOL    EPW13838   2.678   0.679   0.706  0.5845 -0.3984 -0.6238
 3349SOL      O13839   4.999   0.207   3.965 -0.4697  0.4141  0.0989
 3349SOL     H113840   5.052   0.285   3.950  0.2419 -0.2309 -0.9082
 3349SOL     H213841   4.936   0.207   3.892 -1.3372  0.7347  0.8308
 3349SOL    EPW13842   4.998   0.215   3.955 -0.4863  0.3795  0.0695
 3350SOL      O13843   3.763   2.568   2.293 -0.0719 -0.1925 -0.0923
 3350SOL     H113844   3.696   2.637   2.294  1.0521  0.9524 -0.3261
 3350SOL     H213845   3.791   2.559   2.384  2.3518  2.3593 -0.4469
 3350SOL    EPW13846   3.759   2.575   2.302  0.3065  0.2018 -0.1551
 3351SOL      O13847   0.906   2.031   1.494 -0.2652  0.0076  0.5550
 3351SOL     H113848   0.860   2.028   1.578 -0.0040 -0.2628  0.6922
 3351SOL     H213849   0.857   2.094   1.441  0.2913  1.1072  1.3255
 3351SOL    EPW13850   0.896   2.037   1.497 -0.1780  0.0961  0.6518
 3352SOL      O13851   3.655   2.056   0.021  0.5029  0.3120  0.1588
 3352SOL     H113852   3.590   2.063  -0.049  0.0412 -0.8530  0.4486
 3352SOL     H213853   3.612   2.092   0.098  1.2135  2.1354 -0.2386
 3352SOL    EPW13854   3.644   2.061   0.022  0.5295  0.3823  0.1474
 3353SOL      O13855   3.039   0.323   1.580 -0.2002  0.3554 -0.2970
 3353SOL     H113856   3.117   0.365   1.545 -0.9533  0.3984 -2.0021
 3353SOL     H213857   2.996   0.391   1.633  0.8209  0.3623  0.5552
 3353SOL    EPW13858   3.043   0.335   1.582 -0.1716  0.3607 -0.3880
 3354SOL      O13859   1.192   3.834   2.675  0.2474 -0.0214  0.1300
 3354SOL     H113860   1.282   3.856   2.698  0.0750  0.1301  0.6946
 3354SOL     H213861   1.183   3.741   2.697  0.2828 -0.0510  0.0192
 3354SOL    EPW13862   1.200   3.826   2.680  0.2328 -0.0084  0.1784
 3355SOL      O13863   2.713   3.259   2.989  0.0771  0.1955  0.5094
 3355SOL     H113864   2.718   3.199   3.064  0.3809 -0.4207  0.0048
 3355SOL     H213865   2.625   3.248   2.954 -1.5161  3.2565  2.9989
 3355SOL    EPW13866   2.705   3.252   2.994 -0.0604  0.4563  0.7211
 3356SOL      O13867   2.245   5.029   0.845  0.0898 -0.2159  0.2465
 3356SOL     H113868   2.329   4.983   0.845 -0.3611 -1.0690 -0.3522
 3356SOL     H213869   2.179   4.959   0.846 -0.6206  0.3457 -1.8001
 3356SOL    EPW13870   2.247   5.016   0.845 -0.0341 -0.2470 -0.0357
 3357SOL      O13871   4.040   1.941   2.506  0.4365 -0.4844 -0.1544
 3357SOL     H113872   4.134   1.956   2.508  0.3593  0.2132 -1.1494
 3357SOL     H213873   4.006   1.993   2.579  0.7981 -0.6120  0.1079
 3357SOL    EPW13874   4.046   1.948   2.514  0.4668 -0.4236 -0.2325
 3358SOL      O13875   4.270   2.128   0.560  0.0755  0.1124 -0.3165
 3358SOL     H113876   4.327   2.056   0.533 -0.2646 -0.6612  0.9305
 3358SOL     H213877   4.182   2.100   0.536 -0.1945 -0.4502  1.2089
 3358SOL    EPW13878   4.267   2.118   0.555  0.0104 -0.0302 -0.0208
 3359SOL      O13879   2.837   2.331   4.082 -0.1145  0.4262  0.0513
 3359SOL     H113880   2.901   2.287   4.138  0.8047  0.6188 -0.8300
 3359SOL     H213881   2.797   2.261   4.031  0.0528  0.4150 -0.0623
 3359SOL    EPW13882   2.839   2.319   4.083  0.0014  0.4455 -0.0548
 3360SOL      O13883   3.574   2.844   3.172 -0.1366  0.5895 -0.2614
 3360SOL     H113884   3.614   2.921   3.213  1.4738 -0.3291 -0.0135
 3360SOL     H213885   3.579   2.862   3.078 -2.6969  2.1484 -0.1926
 3360SOL    EPW13886   3.579   2.854   3.167 -0.2379  0.6578 -0.2276
 3361SOL      O13887   3.953   3.534   2.063  0.1338 -0.2457  0.0914
 3361SOL     H113888   3.903   3.566   1.988 -0.5988  0.3592  0.8204
 3361SOL     H213889   3.888   3.520   2.131  1.1402  3.9248  2.2827
 3361SOL    EPW13890   3.941   3.536   2.062  0.1630  0.2637  0.4029
 3362SOL      O13891   0.337   5.118   2.668 -0.7091 -0.6617 -0.1568
 3362SOL     H113892   0.367   5.158   2.750 -0.8981  0.2147 -0.5025
 3362SOL     H213893   0.318   5.027   2.692  0.0582 -0.6436  0.5723
 3362SOL    EPW13894   0.338   5.113   2.680 -0.6474 -0.5663 -0.1159
 3363SOL      O13895   2.502   2.766   1.805  0.2948 -0.7208 -0.2915
 3363SOL     H113896   2.410   2.742   1.822  1.0406 -3.0266  0.9472
 3363SOL     H213897   2.546   2.683   1.790  2.7262  0.0001  2.0430
 3363SOL    EPW13898   2.497   2.755   1.805  0.6337 -0.8898  0.0897
 3364SOL      O13899   5.396   1.713   2.636  0.0154 -0.3733  0.2141
 3364SOL     H113900   5.389   1.807   2.653 -0.4447 -0.2831 -0.4424
 3364SOL     H213901   5.460   1.682   2.700  2.8296  0.9573 -1.7738
 3364SOL    EPW13902   5.402   1.719   2.645  0.2665 -0.2217 -0.0680
 3365SOL      O13903   4.719   4.073   3.831  0.0615  0.5986 -0.4155
 3365SOL     H113904   4.663   3.998   3.810  1.1222  0.4384 -3.0168
 3365SOL     H213905   4.661   4.134   3.877 -1.5210 -0.6723 -0.6351
 3365SOL    EPW13906   4.707   4.071   3.834  0.0059  0.4459 -0.7164
 3366SOL      O13907   4.607   2.740   3.585 -0.6269  0.0831 -0.5488
 3366SOL     H113908   4.605   2.821   3.535 -0.2114  2.2245  2.6364
 3366SOL     H213909   4.515   2.719   3.602 -0.7182  0.0907 -1.0163
 3366SOL    EPW13910   4.597   2.746   3.582 -0.5923  0.3124 -0.2589
 3367SOL      O13911   4.290   5.635   1.553  0.1089 -0.0700 -0.3854
 3367SOL     H113912   4.269   5.542   1.546  2.3420 -0.5900 -1.1725
 3367SOL     H213913   4.208   5.680   1.536 -0.5901 -1.8894 -2.2029
 3367SOL    EPW13914   4.279   5.630   1.550  0.2725 -0.3195 -0.6633
 3368SOL      O13915   4.282   2.823   2.640 -0.1387  0.5456 -0.3044
 3368SOL     H113916   4.260   2.759   2.573 -2.0736 -0.6175  1.3075
 3368SOL     H213917   4.363   2.790   2.680 -0.4843 -0.2812 -0.2660
 3368SOL    EPW13918   4.288   2.813   2.637 -0.3820  0.3333 -0.1284
 3369SOL      O13919   2.238   1.617   3.451 -0.6243 -0.0615  0.4839
 3369SOL     H113920   2.275   1.654   3.370  0.2686 -2.2619 -0.1995
 3369SOL     H213921   2.314   1.583   3.498 -1.1066  1.4510  2.4617
 3369SOL    EPW13922   2.250   1.617   3.447 -0.5805 -0.1349  0.6220
 3370SOL      O13923   3.515   5.090   0.511 -0.4655  0.3944 -0.3950
 3370SOL     H113924   3.585   5.026   0.521 -2.3467 -1.5469  1.9741
 3370SOL     H213925   3.529   5.152   0.583 -0.1682  1.0766 -1.0347
 3370SOL    EPW13926   3.524   5.090   0.520 -0.6345  0.2600 -0.2105
 3371SOL      O13927   2.203   2.186   1.864 -0.0947  0.2375  0.5447
 3371SOL     H113928   2.203   2.280   1.844  1.0354  0.4490  1.4506
 3371SOL     H213929   2.192   2.182   1.959  2.9741 -0.3900  0.9716
 3371SOL    EPW13930   2.202   2.196   1.872  0.3532  0.1931  0.6869
 3372SOL      O13931   2.322   5.174   4.076  0.1021  0.3434  0.0506
 3372SOL     H113932   2.388   5.244   4.082 -0.2180  0.7883 -1.3135
 3372SOL     H213933   2.298   5.172   3.984 -4.0304  2.2927  0.8519
 3372SOL    EPW13934   2.327   5.181   4.067 -0.3729  0.5988 -0.0094
 3373SOL      O13935   0.256   3.480   0.327  0.5118  0.1129 -0.3901
 3373SOL     H113936   0.293   3.551   0.275  0.5764  0.9884  0.7862
 3373SOL     H213937   0.320   3.409   0.320  0.8470  0.4622 -0.9442
 3373SOL    EPW13938   0.267   3.480   0.321  0.5545  0.2436 -0.3237
 3374SOL      O13939   1.093   3.571   0.156 -0.2615 -0.2101 -0.0642
 3374SOL     H113940   1.105   3.501   0.221 -1.2465 -0.4517 -0.1287
 3374SOL     H213941   0.999   3.572   0.139 -0.0073 -0.2011 -1.5521
 3374SOL    EPW13942   1.084   3.564   0.161 -0.3394 -0.2349 -0.2298
 3375SOL      O13943   1.879   0.452   2.672  0.1112 -0.1244  0.4431
 3375SOL     H113944   1.917   0.366   2.654 -0.2604  0.3073 -3.1816
 3375SOL     H213945   1.954   0.509   2.687  0.4954 -0.6102  0.3808
 3375SOL    EPW13946   1.891   0.449   2.672  0.1126 -0.1302  0.0497
 3376SOL      O13947   3.110   4.753   1.436  0.2021  0.2103  0.3850
 3376SOL     H113948   3.124   4.847   1.442 -0.0384  0.3658 -1.0141
 3376SOL     H213949   3.065   4.730   1.517  1.1342  1.1159  1.1834
 3376SOL    EPW13950   3.107   4.760   1.445  0.2759  0.3235  0.3210
 3377SOL      O13951   5.514   2.102   0.868 -0.1416  0.4028 -0.0605
 3377SOL     H113952   5.555   2.088   0.783 -1.0150  1.0235 -0.5946
 3377SOL     H213953   5.579   2.149   0.919  0.1820  0.5010 -0.5617
 3377SOL    EPW13954   5.525   2.105   0.865 -0.2003  0.4795 -0.1710
 3378SOL      O13955   4.664   2.389   2.957  0.0818 -0.1754  0.1950
 3378SOL     H113956   4.589   2.349   2.914 -0.8158 -1.1256  2.4524
 3378SOL     H213957   4.640   2.391   3.050  1.9271  1.6040  0.7160
 3378SOL    EPW13958   4.654   2.385   2.963  0.1829 -0.0869  0.4914
 3379SOL      O13959   0.428   0.236   3.756  0.4867 -0.3570 -0.5254
 3379SOL     H113960   0.477   0.208   3.678  0.6908 -3.5044  0.5949
 3379SOL     H213961   0.453   0.327   3.768  1.3899 -0.1129 -3.4123
 3379SOL    EPW13962   0.436   0.243   3.749  0.6048 -0.6667 -0.7138
 3380SOL      O13963   4.041   3.612   0.287  0.7285  0.3433  0.1902
 3380SOL     H113964   4.031   3.622   0.381 -1.0169  1.9441 -0.1053
 3380SOL     H213965   4.116   3.668   0.265  0.3217  1.0204  0.4911
 3380SOL    EPW13966   4.048   3.619   0.295  0.4989  0.5863  0.1908
 3381SOL      O13967   3.980   5.749   4.128 -0.1162  0.0662  0.3750
 3381SOL     H113968   4.024   5.834   4.133  0.2213 -0.0644 -0.2500
 3381SOL     H213969   3.894   5.769   4.090  0.1190  0.0786 -0.1573
 3381SOL    EPW13970   3.975   5.760   4.124 -0.0551  0.0536  0.2515
 3382SOL      O13971   3.350   5.245   3.578  0.1167  0.0453 -0.3391
 3382SOL     H113972   3.315   5.295   3.505 -0.5020 -1.1005 -0.8550
 3382SOL     H213973   3.273   5.217   3.627  0.1719 -2.8225 -1.6900
 3382SOL    EPW13974   3.338   5.248   3.576  0.0566 -0.3829 -0.5382
 3383SOL      O13975   2.315   0.040   3.571 -0.1289  0.0060  0.2075
 3383SOL     H113976   2.377   0.094   3.523 -0.2497  0.7822  0.9107
 3383SOL     H213977   2.363  -0.041   3.588  1.3883  1.2428  2.2881
 3383SOL    EPW13978   2.327   0.037   3.568  0.0201  0.2207  0.5044
 3384SOL      O13979   3.996   2.816   2.605 -0.1732 -0.4446  0.5073
 3384SOL     H113980   3.980   2.910   2.599 -0.9840 -0.5401  0.9663
 3384SOL     H213981   4.085   2.808   2.638  0.9068  0.1320 -1.9813
 3384SOL    EPW13982   4.003   2.825   2.608 -0.1445 -0.3933  0.2908
 3385SOL      O13983   5.745   0.843   2.281 -0.4739 -0.2615 -0.2599
 3385SOL     H113984   5.760   0.893   2.361 -2.4340  0.7345 -0.4690
 3385SOL     H213985   5.826   0.856   2.230 -0.0820  0.9167  0.6128
 3385SOL    EPW13986   5.755   0.850   2.284 -0.6412 -0.0296 -0.1891
 3386SOL      O13987   4.862   2.206   1.505 -0.5491 -0.3145 -0.8509
 3386SOL     H113988   4.905   2.159   1.577 -0.5497 -0.2404 -0.8008
 3386SOL     H213989   4.881   2.298   1.523 -0.8968 -0.2680 -0.7179
 3386SOL    EPW13990   4.869   2.211   1.515 -0.5862 -0.3016 -0.8313
 3387SOL      O13991   5.280   4.912   3.954  0.1225  0.8394  0.1135
 3387SOL     H113992   5.351   4.876   3.901 -0.6582 -0.5141 -0.0464
 3387SOL     H213993   5.203   4.910   3.897 -0.9659 -1.5516  1.5305
 3387SOL    EPW13994   5.279   4.908   3.942 -0.0769  0.4399  0.2476
 3388SOL      O13995   2.221   3.044   1.913  0.1945 -0.0587 -0.1799
 3388SOL     H113996   2.230   2.996   1.995  1.3648  1.7514  0.8348
 3388SOL     H213997   2.137   3.090   1.921  0.6085  0.6291  0.3209
 3388SOL    EPW13998   2.213   3.044   1.922  0.3635  0.2077 -0.0183
 3389SOL      O13999   1.668   1.038   3.906 -0.0652  0.2240  0.2656
 3389SOL     H114000   1.600   0.984   3.866 -0.7434 -0.0446  1.7098
 3389SOL     H214001   1.701   1.091   3.834 -0.3584 -1.1022 -0.8986
 3389SOL    EPW14002   1.664   1.038   3.894 -0.1688  0.0539  0.2955
 3390SOL      O14003   5.559   1.345   0.739  0.4663 -0.1593 -0.0542
 3390SOL     H114004   5.531   1.436   0.741  1.6000  0.2103 -0.3450
 3390SOL     H214005   5.647   1.346   0.777  1.2147 -0.8514 -1.6692
 3390SOL    EPW14006   5.565   1.355   0.743  0.6671 -0.1937 -0.2575
 3391SOL      O14007   0.951   3.755   3.098 -0.3391  0.2461  0.1987
 3391SOL     H114008   0.881   3.781   3.157 -1.2186  0.1944 -0.7843
 3391SOL     H214009   0.953   3.659   3.104 -1.1729  0.1591 -0.6417
 3391SOL    EPW14010   0.944   3.747   3.105 -0.5218  0.2313  0.0042
 3392SOL      O14011   0.091   2.668   1.473 -0.0737  0.5527  0.2968
 3392SOL     H114012   0.080   2.694   1.564  0.6120  1.6467  0.0881
 3392SOL     H214013   0.076   2.573   1.472 -0.4037  0.5847  1.4811
 3392SOL    EPW14014   0.088   2.661   1.483 -0.0357  0.6728  0.4009
 3393SOL      O14015   2.043   1.779   1.882 -0.5933 -0.0609  0.0914
 3393SOL     H114016   2.076   1.699   1.842 -0.2882 -0.8213  1.7722
 3393SOL     H214017   2.044   1.844   1.811  0.6532 -1.1187 -0.9055
 3393SOL    EPW14018   2.047   1.778   1.870 -0.4278 -0.2549  0.1643
 3394SOL      O14019   2.319   1.836   2.016  0.1021 -0.0456  0.0510
 3394SOL     H114020   2.227   1.821   1.993  0.4039 -0.3356 -1.0345
 3394SOL     H214021   2.365   1.761   1.979  0.5937 -0.7964  2.0557
 3394SOL    EPW14022   2.314   1.826   2.010  0.1867 -0.1566  0.1491
 3395SOL      O14023   5.052   5.362   1.026 -0.0138 -0.0837 -0.2009
 3395SOL     H114024   5.082   5.427   0.962  0.1532  1.0658  1.0161
 3395SOL     H214025   4.957   5.374   1.029  0.1095  0.7432  0.6823
 3395SOL    EPW14026   5.045   5.370   1.019  0.0172  0.1271  0.0232
 3396SOL      O14027   1.057   1.082   3.926  0.4388  0.0599 -0.1675
 3396SOL     H114028   0.993   1.100   3.857  0.1264  5.6401  1.1012
 3396SOL     H214029   1.112   1.160   3.929  4.2568 -2.4025  2.1181
 3396SOL    EPW14030   1.056   1.092   3.919  0.8128  0.3925  0.2116
 3397SOL      O14031   3.982   5.369   3.717  0.1626 -0.1283 -0.4526
 3397SOL     H114032   4.045   5.438   3.735  0.8125 -0.1162 -2.5266
 3397SOL     H214033   4.026   5.288   3.746  0.4697  0.0529 -0.4083
 3397SOL    EPW14034   3.993   5.367   3.722  0.2647 -0.1077 -0.6691
 3398SOL      O14035   2.370   4.367   2.126 -0.3862  0.9645 -0.1586
 3398SOL     H114036   2.320   4.437   2.084 -1.3277  0.4058  0.0054
 3398SOL     H214037   2.349   4.375   2.219 -0.9352  0.1328 -0.2010
 3398SOL    EPW14038   2.363   4.375   2.131 -0.5452  0.8162 -0.1456
 3399SOL      O14039   4.159   4.941   3.210 -0.4876  0.1401 -0.5151
 3399SOL     H114040   4.081   4.981   3.250  1.2700  3.4730  0.0096
 3399SOL     H214041   4.153   4.963   3.117  0.0405  0.9058 -0.3811
 3399SOL    EPW14042   4.150   4.948   3.205 -0.2438  0.5773 -0.4449
 3400SOL      O14043   3.849   5.618   3.174  0.2422  0.7928 -0.3715
 3400SOL     H114044   3.842   5.700   3.125 -1.1755  0.5019 -0.6843
 3400SOL     H214045   3.907   5.639   3.247  1.2190  1.6204 -1.3559
 3400SOL    EPW14046   3.854   5.629   3.177  0.1952  0.8500 -0.5099
 3401SOL      O14047   5.359   0.987   2.656  0.1426  0.5741  0.4080
 3401SOL     H114048   5.437   1.038   2.632  1.1736 -0.7838  0.7172
 3401SOL     H214049   5.352   0.922   2.586 -2.0095  1.9598 -0.7657
 3401SOL    EPW14050   5.367   0.986   2.646  0.0230  0.5770  0.3158
 3402SOL      O14051   0.281   2.871   0.049  0.2807 -0.5439  0.8355
 3402SOL     H114052   0.344   2.913  -0.010 -1.0461  1.2952  0.6485
 3402SOL     H214053   0.196   2.899   0.017 -0.5419 -0.7234  2.7330
 3402SOL    EPW14054   0.279   2.878   0.039  0.0514 -0.3669  1.0179
 3403SOL      O14055   4.162   3.352   2.020 -0.0473 -0.2120  0.3246
 3403SOL     H114056   4.109   3.274   2.033 -0.6567  0.3992  1.7961
 3403SOL     H214057   4.245   3.320   1.983 -0.0899 -1.6122  1.3806
 3403SOL    EPW14058   4.166   3.341   2.018 -0.1168 -0.2962  0.5942
 3404SOL      O14059   3.738   2.416   0.067  0.0690  0.3622  0.4628
 3404SOL     H114060   3.744   2.508   0.040 -0.0508 -0.0857 -1.1552
 3404SOL     H214061   3.722   2.420   0.162 -0.2889  2.0127  0.3568
 3404SOL    EPW14062   3.737   2.426   0.074  0.0181  0.4904  0.2789
 3405SOL      O14063   1.484   1.182   2.987  0.3428 -0.5020 -0.3125
 3405SOL     H114064   1.533   1.112   3.030 -1.8531 -2.1793 -0.3507
 3405SOL     H214065   1.448   1.141   2.908 -1.5806  0.4345  0.0179
 3405SOL    EPW14066   1.486   1.170   2.983 -0.0967 -0.5810 -0.2813
 3406SOL      O14067   5.858   0.510   2.735 -0.0027 -0.3244  0.1922
 3406SOL     H114068   5.901   0.557   2.664  2.5679 -0.2675  1.6672
 3406SOL     H214069   5.789   0.570   2.764  1.3084  1.3020  0.1160
 3406SOL    EPW14070   5.855   0.522   2.731  0.4114 -0.1449  0.3414
 3407SOL      O14071   0.760   4.756   1.060 -0.2337 -0.3885 -0.2707
 3407SOL     H114072   0.726   4.816   1.126  1.5930  0.2471  0.1515
 3407SOL     H214073   0.793   4.681   1.110  2.0773  0.5340 -0.2891
 3407SOL    EPW14074   0.760   4.754   1.072  0.2077 -0.2223 -0.2276
 3408SOL      O14075   0.747   5.431   1.873 -0.0756  0.3281 -0.2765
 3408SOL     H114076   0.682   5.462   1.935  1.9163  1.9440  1.1575
 3408SOL     H214077   0.831   5.452   1.914  1.3686  1.1907 -3.3687
 3408SOL    EPW14078   0.749   5.436   1.884  0.2910  0.5925 -0.4534
 3409SOL      O14079   1.640   0.264   3.653 -0.1541  0.2065 -0.3907
 3409SOL     H114080   1.680   0.191   3.700 -1.1777  0.0778  0.3216
 3409SOL     H214081   1.647   0.337   3.714  0.1952  0.5257 -0.8056
 3409SOL    EPW14082   1.645   0.264   3.665 -0.2260  0.2268 -0.3590
 3410SOL      O14083   2.536   2.802   1.476  0.2453  0.4217  0.9093
 3410SOL     H114084   2.556   2.775   1.565  0.5681  2.9995  1.6901
 3410SOL     H214085   2.608   2.765   1.423 -0.1371 -1.4231  1.5928
 3410SOL    EPW14086   2.546   2.795   1.480  0.2389  0.4999  1.0655
 3411SOL      O14087   2.381   4.630   1.296 -0.7396 -0.2161  0.0346
 3411SOL     H114088   2.332   4.605   1.218 -1.2125 -0.1427  0.3023
 3411SOL     H214089   2.445   4.560   1.307 -1.2866 -0.7110  0.1110
 3411SOL    EPW14090   2.383   4.620   1.289 -0.8484 -0.2611  0.0713
 3412SOL      O14091   5.373   5.806   1.494  0.6150  0.0065 -0.4488
 3412SOL     H114092   5.293   5.759   1.518  0.7340  0.0465  0.0338
 3412SOL     H214093   5.358   5.834   1.404 -0.7939  1.8536  0.3043
 3412SOL    EPW14094   5.363   5.804   1.487  0.4774  0.2078 -0.3170
 3413SOL      O14095   5.351   4.417   3.913 -0.8432 -0.3848 -0.4230
 3413SOL     H114096   5.362   4.426   3.818 -1.2397 -1.0264 -0.5354
 3413SOL     H214097   5.412   4.347   3.937  0.1541  0.6072 -0.0056
 3413SOL    EPW14098   5.359   4.410   3.905 -0.7791 -0.3474 -0.3905
 3414SOL      O14099   2.248   2.367   0.041  0.1981 -0.3773 -0.0263
 3414SOL     H114100   2.327   2.315   0.053  0.3348 -0.3620 -0.8089
 3414SOL     H214101   2.182   2.304   0.012 -0.3403 -0.5549  1.4894
 3414SOL    EPW14102   2.249   2.355   0.039  0.1552 -0.3946  0.0519
 3415SOL      O14103   1.879   4.731   0.923 -0.0700 -0.0619 -0.0694
 3415SOL     H114104   1.969   4.754   0.946 -0.0325  1.0108 -1.1563
 3415SOL     H214105   1.843   4.690   1.002  0.6301  1.7013  1.2239
 3415SOL    EPW14106   1.885   4.729   0.934  0.0087  0.2406 -0.0474
 3416SOL      O14107   4.204   0.415   1.118  0.2390  0.2552 -0.3952
 3416SOL     H114108   4.279   0.473   1.127  0.1448  0.6922 -2.0907
 3416SOL     H214109   4.171   0.431   1.029 -0.9562 -1.0038 -0.2236
 3416SOL    EPW14110   4.208   0.423   1.110  0.1015  0.1675 -0.5577
 3417SOL      O14111   5.727   1.253   2.727 -0.9697 -0.4149 -0.0238
 3417SOL     H114112   5.671   1.225   2.800 -0.0413 -0.7618  0.5875
 3417SOL     H214113   5.806   1.286   2.770 -0.5638 -0.2696 -0.8722
 3417SOL    EPW14114   5.730   1.253   2.740 -0.8274 -0.4364 -0.0491
 3418SOL      O14115   3.638   1.723   1.531  0.4817  0.0353 -0.5289
 3418SOL     H114116   3.684   1.798   1.570  1.7940 -0.2839 -1.4083
 3418SOL     H214117   3.552   1.758   1.506  0.8556  1.0935 -0.3834
 3418SOL    EPW14118   3.633   1.735   1.533  0.6616  0.1141 -0.6072
 3419SOL      O14119   4.447   5.244   3.169 -0.1426  0.0399  0.3196
 3419SOL     H114120   4.451   5.340   3.177  0.2694 -0.0171  0.7902
 3419SOL     H214121   4.538   5.216   3.175 -0.3052 -0.4193  0.6477
 3419SOL    EPW14122   4.457   5.251   3.170 -0.1160 -0.0152  0.4048
 3420SOL      O14123   4.270   1.179   2.688 -0.1622 -0.4140 -0.0826
 3420SOL     H114124   4.287   1.220   2.604  0.5164  1.0895  0.7518
 3420SOL     H214125   4.174   1.174   2.694 -0.3104  1.5615 -0.0188
 3420SOL    EPW14126   4.261   1.183   2.680 -0.1056 -0.0428  0.0132
 3421SOL      O14127   3.733   4.693   0.329  0.0886 -0.2549  0.3733
 3421SOL     H114128   3.647   4.681   0.289  0.1726 -0.1616  0.1610
 3421SOL     H214129   3.723   4.661   0.419  0.4114 -2.3002 -0.2796
 3421SOL    EPW14130   3.723   4.689   0.334  0.1320 -0.4632  0.2810
 3422SOL      O14131   5.726   5.551   3.449  0.3159 -0.1455 -0.3236
 3422SOL     H114132   5.660   5.567   3.517 -0.0934  0.9781 -0.9534
 3422SOL     H214133   5.727   5.456   3.439 -0.2169 -0.2714  0.6572
 3422SOL    EPW14134   5.719   5.542   3.455  0.2154 -0.0391 -0.2862
 3423SOL      O14135   2.933   1.181   3.132 -0.2167  0.1182  0.1813
 3423SOL     H114136   2.885   1.100   3.121  2.1488 -1.8657  2.7534
 3423SOL     H214137   2.885   1.229   3.200 -1.6058  0.9604 -1.3289
 3423SOL    EPW14138   2.923   1.178   3.138 -0.1125 -0.0035  0.2945
 3424SOL      O14139   2.149   1.527   1.793  0.0225  0.4908  0.0679
 3424SOL     H114140   2.115   1.439   1.782 -0.3253  0.6622 -0.2517
 3424SOL     H214141   2.196   1.545   1.712 -0.6398  0.9178 -0.2321
 3424SOL    EPW14142   2.150   1.520   1.783 -0.0852  0.5546  0.0018
 3425SOL      O14143   1.911   3.904   2.107  0.1314  0.0950 -0.1761
 3425SOL     H114144   1.967   3.981   2.118  0.4569 -0.1501 -0.1215
 3425SOL     H214145   1.955   3.834   2.156 -0.5825  0.0755  0.4639
 3425SOL    EPW14146   1.922   3.905   2.113  0.0899  0.0668 -0.1020
 3426SOL      O14147   5.041   0.376   3.598  0.4560  0.1221  0.0807
 3426SOL     H114148   4.970   0.439   3.583  0.9001  1.0499  1.6429
 3426SOL     H214149   5.084   0.368   3.513  1.4088  3.2806  0.1232
 3426SOL    EPW14150   5.038   0.382   3.587  0.6050  0.5580  0.2519
 3427SOL      O14151   4.637   5.493   0.821  0.2773  0.0231  0.2168
 3427SOL     H114152   4.582   5.483   0.743 -0.0537 -0.4319  0.5093
 3427SOL     H214153   4.628   5.586   0.844  0.1969  0.1093 -0.1537
 3427SOL    EPW14154   4.630   5.502   0.815  0.2334 -0.0163  0.2085
 3428SOL      O14155   2.205   0.072   2.881 -0.5422 -0.0352  0.4175
 3428SOL     H114156   2.137   0.067   2.815 -0.3948 -0.1281  0.2741
 3428SOL     H214157   2.287   0.067   2.833 -0.4184 -2.3378  0.7614
 3428SOL    EPW14158   2.207   0.071   2.869 -0.5132 -0.2907  0.4389
 3429SOL      O14159   0.172   0.840   2.857  0.0139 -0.4327  0.1770
 3429SOL     H114160   0.139   0.755   2.886 -2.0068  0.1122 -0.3175
 3429SOL     H214161   0.243   0.819   2.798 -0.7540 -1.8288 -0.3035
 3429SOL    EPW14162   0.176   0.828   2.854 -0.2835 -0.5235  0.0730
 3430SOL      O14163   2.111   3.623   2.486  0.4204  0.1617 -0.1190
 3430SOL     H114164   2.162   3.543   2.497  0.5859  0.2949  0.1033
 3430SOL     H214165   2.176   3.693   2.490  0.4180  0.2527 -1.4305
 3430SOL    EPW14166   2.123   3.622   2.488  0.4378  0.1856 -0.2352
 3431SOL      O14167   2.477   3.594   1.648 -0.1183 -0.3965 -0.1228
 3431SOL     H114168   2.418   3.652   1.696 -0.9594 -0.0899 -1.4717
 3431SOL     H214169   2.434   3.509   1.649 -1.1525  0.0579 -1.9905
 3431SOL    EPW14170   2.466   3.591   1.653 -0.3183 -0.3153 -0.4660
 3432SOL      O14171   3.769   2.921   1.606 -0.1863 -0.2337 -0.2038
 3432SOL     H114172   3.688   2.958   1.571  0.2601  0.2955 -0.6954
 3432SOL     H214173   3.794   2.853   1.544  0.3125  0.3333 -0.6379
 3432SOL    EPW14174   3.763   2.918   1.596 -0.0854 -0.1168 -0.3026
 3433SOL      O14175   1.489   1.189   1.206 -0.7157  0.5406 -0.3950
 3433SOL     H114176   1.455   1.188   1.296 -2.8399 -1.2116 -1.0979
 3433SOL     H214177   1.582   1.171   1.216 -1.1316 -1.0680  1.4409
 3433SOL    EPW14178   1.495   1.187   1.217 -0.9867  0.1821 -0.2741
 3434SOL      O14179   1.486   3.864   2.728  0.0580 -0.0928  0.7160
 3434SOL     H114180   1.530   3.784   2.701 -0.0341  0.4481 -1.2273
 3434SOL     H214181   1.514   3.930   2.663 -2.5891  0.5615  0.1093
 3434SOL    EPW14182   1.494   3.863   2.718 -0.2342  0.0347  0.4439
 3435SOL      O14183   4.766   1.766   1.312 -0.1628 -0.3161  0.3032
 3435SOL     H114184   4.778   1.790   1.404  1.0680  1.2760 -0.2144
 3435SOL     H214185   4.824   1.691   1.298 -0.3527 -0.5583  0.8231
 3435SOL    EPW14186   4.774   1.761   1.320 -0.0517 -0.1721  0.3035
 3436SOL      O14187   2.608   5.872   3.890 -0.6187 -0.4030 -0.0194
 3436SOL     H114188   2.662   5.917   3.824  1.1053  0.1995  1.7194
 3436SOL     H214189   2.615   5.779   3.867  2.8648 -0.5773  1.2169
 3436SOL    EPW14190   2.614   5.867   3.880 -0.0632 -0.3573  0.2979
 3437SOL      O14191   5.345   2.034   3.026 -0.7175  0.1200  0.1065
 3437SOL     H114192   5.386   2.118   3.007 -1.3322  1.2109  2.9722
 3437SOL     H214193   5.258   2.041   2.987 -0.6519  0.7141  0.0529
 3437SOL    EPW14194   5.340   2.044   3.020 -0.7761  0.2998  0.4065
 3438SOL      O14195   1.517   0.579   1.528  0.8023  0.5670  0.0087
 3438SOL     H114196   1.548   0.668   1.510 -1.2281  1.3615  0.1688
 3438SOL     H214197   1.518   0.536   1.442  1.3839  0.8915 -0.1499
 3438SOL    EPW14198   1.520   0.584   1.517  0.6477  0.6864  0.0088
 3439SOL      O14199   5.240   5.342   3.621 -0.1315  0.4279  0.1233
 3439SOL     H114200   5.255   5.248   3.618 -0.6651  0.2748  1.6977
 3439SOL     H214201   5.233   5.368   3.529  1.0539 -0.8827 -0.3709
 3439SOL    EPW14202   5.241   5.335   3.611 -0.0620  0.2718  0.2385
 3440SOL      O14203   0.214   4.024   3.754 -0.3840  0.1472  0.9617
 3440SOL     H114204   0.146   4.078   3.713  1.2395  1.4041 -0.2608
 3440SOL     H214205   0.174   3.938   3.764 -1.2990  0.0709 -2.2618
 3440SOL    EPW14206   0.202   4.021   3.751 -0.3084  0.2731  0.4875
 3441SOL      O14207   2.010   0.633   1.155 -0.3459 -0.2426  0.5642
 3441SOL     H114208   1.997   0.594   1.069  0.1457 -1.4106  0.9948
 3441SOL     H214209   1.969   0.719   1.149 -0.6878 -0.4737 -0.6981
 3441SOL    EPW14210   2.004   0.638   1.145 -0.3299 -0.3919  0.4755
 3442SOL      O14211   2.453   3.390   2.672 -0.5125  0.1440  0.0772
 3442SOL     H114212   2.460   3.484   2.690 -1.0681  0.3585 -0.7694
 3442SOL     H214213   2.522   3.373   2.608 -0.4146 -0.0224  0.2288
 3442SOL    EPW14214   2.461   3.398   2.667 -0.5613  0.1492  0.0031
 3443SOL      O14215   2.819   5.503   2.440  0.3638 -0.1402 -0.2233
 3443SOL     H114216   2.823   5.449   2.519 -0.9453  1.1016  0.7407
 3443SOL     H214217   2.730   5.491   2.407  0.9617 -0.8341 -1.6960
 3443SOL    EPW14218   2.810   5.496   2.445  0.2879 -0.0818 -0.2776
 3444SOL      O14219   4.724   2.095   1.146  0.6291  0.5066 -0.2068
 3444SOL     H114220   4.678   2.106   1.063  2.1804  1.5045 -0.9671
 3444SOL     H214221   4.775   2.015   1.135 -0.4718 -0.3215  0.4553
 3444SOL    EPW14222   4.725   2.088   1.136  0.6772  0.5247 -0.2172
 3445SOL      O14223   1.469   2.289   3.782 -0.5512 -0.3019 -0.1343
 3445SOL     H114224   1.540   2.262   3.841  1.0439 -1.3866 -2.4001
 3445SOL     H214225   1.434   2.369   3.821  1.6987  0.0661  1.2750
 3445SOL    EPW14226   1.473   2.294   3.792 -0.1410 -0.3784 -0.2257
 3446SOL      O14227   0.871   1.543   4.044  0.3722  0.3454  0.2626
 3446SOL     H114228   0.885   1.509   4.132 -0.5121 -0.3646  0.1365
 3446SOL     H214229   0.854   1.637   4.058 -0.8489  0.0350  0.9551
 3446SOL    EPW14230   0.871   1.550   4.055  0.1476  0.2366  0.3230
 3447SOL      O14231   0.295   2.324   1.266 -0.1019  0.1023  0.1281
 3447SOL     H114232   0.218   2.301   1.317 -0.6991  2.9872  0.7095
 3447SOL     H214233   0.261   2.355   1.182  0.2322  2.4657  0.7872
 3447SOL    EPW14234   0.283   2.325   1.263 -0.1299  0.6621  0.2605
 3448SOL      O14235   4.652   1.895   3.435  0.4318  0.3493 -0.7512
 3448SOL     H114236   4.596   1.944   3.495 -1.6210 -1.8869 -0.6736
 3448SOL     H214237   4.740   1.904   3.472 -0.3072  1.5558  0.8462
 3448SOL    EPW14238   4.655   1.901   3.446  0.1340  0.2394 -0.5725
 3449SOL      O14239   2.236   5.447   1.525 -0.6389  0.1196  0.4042
 3449SOL     H114240   2.278   5.371   1.484  1.1232  0.7879  0.9119
 3449SOL     H214241   2.146   5.445   1.490 -0.6591 -2.1813  0.4070
 3449SOL    EPW14242   2.231   5.439   1.517 -0.4531 -0.0545  0.4587
 3450SOL      O14243   4.379   3.237   1.368 -0.3735  0.0744 -0.3268
 3450SOL     H114244   4.302   3.181   1.383 -1.3086  0.9108 -1.7567
 3450SOL     H214245   4.402   3.222   1.277  0.3858  0.8000 -0.2617
 3450SOL    EPW14246   4.373   3.229   1.360 -0.3923  0.2410 -0.4724
 3451SOL      O14247   1.625   3.503   2.167  0.1512  0.0275  0.5929
 3451SOL     H114248   1.638   3.596   2.147 -1.9460 -0.0077 -1.3202
 3451SOL     H214249   1.658   3.493   2.257  2.0099  2.2064  0.2464
 3451SOL    EPW14250   1.630   3.512   2.175  0.1258  0.2562  0.3519
 3452SOL      O14251   4.149   3.481   2.297  0.6034 -0.1062 -0.1059
 3452SOL     H114252   4.118   3.391   2.309 -1.5760  0.5402 -0.4023
 3452SOL     H214253   4.126   3.526   2.378  0.0017  0.5842 -0.6362
 3452SOL    EPW14254   4.143   3.476   2.307  0.3067  0.0364 -0.1941
 3453SOL      O14255   4.619   5.300   0.420 -0.1888 -0.1069 -0.1282
 3453SOL     H114256   4.544   5.346   0.459 -2.2594 -3.8427  0.8310
 3453SOL     H214257   4.680   5.289   0.492 -0.6142 -0.5739  0.1682
 3453SOL    EPW14258   4.617   5.304   0.432 -0.4551 -0.5553  0.0057
 3454SOL      O14259   3.463   2.193   0.187  0.0855  0.4463 -0.2636
 3454SOL     H114260   3.402   2.200   0.261  1.0328 -1.4170  0.7538
 3454SOL     H214261   3.435   2.262   0.127 -1.9522  0.7518  0.9337
 3454SOL    EPW14262   3.453   2.201   0.188 -0.0308  0.2801 -0.0273
 3455SOL      O14263   2.392   0.081   2.106 -0.1056 -0.5005 -0.1367
 3455SOL     H114264   2.446   0.153   2.074 -1.5614  1.8962  2.4208
 3455SOL     H214265   2.419   0.069   2.197 -1.5031 -1.6022  0.1739
 3455SOL    EPW14266   2.401   0.087   2.112 -0.4100 -0.3624  0.1693
 3456SOL      O14267   0.641   3.773   3.609  0.1392  0.0654 -0.1369
 3456SOL     H114268   0.575   3.841   3.592  0.6250 -0.0383 -2.7176
 3456SOL     H214269   0.632   3.712   3.537  1.9382 -0.8677  0.3786
 3456SOL    EPW14270   0.633   3.774   3.600  0.3829 -0.0452 -0.3572
 3457SOL      O14271   2.585   1.242   2.846  0.4010 -0.2747 -0.6637
 3457SOL     H114272   2.627   1.157   2.832  0.4000 -0.2243 -0.9832
 3457SOL     H214273   2.656   1.299   2.876  0.2223 -0.6132  0.4219
 3457SOL    EPW14274   2.597   1.239   2.847  0.3819 -0.3054 -0.5820
 3458SOL      O14275   0.286   2.305   2.412 -0.0525  0.0690  0.1544
 3458SOL     H114276   0.262   2.274   2.325 -0.3559  1.8273 -0.4279
 3458SOL     H214277   0.214   2.364   2.437  1.7561  2.4881 -0.0173
 3458SOL    EPW14278   0.276   2.308   2.405  0.1080  0.5146  0.0739
 3459SOL      O14279   0.121   4.580   1.164 -0.0641  0.3477 -0.2775
 3459SOL     H114280   0.044   4.600   1.111  0.3433 -0.3764 -1.1778
 3459SOL     H214281   0.195   4.594   1.105  0.4687  0.4653  0.3997
 3459SOL    EPW14282   0.120   4.584   1.152  0.0362  0.2830 -0.3013
 3460SOL      O14283   3.658   4.745   1.033  0.3488  0.2687 -0.2481
 3460SOL     H114284   3.742   4.734   1.078 -0.7961 -0.7349  1.7367
 3460SOL     H214285   3.608   4.804   1.090 -1.0376 -0.7956 -0.3196
 3460SOL    EPW14286   3.662   4.750   1.044  0.0788  0.0481 -0.0440
 3461SOL      O14287   4.233   0.682   3.304  0.0311  0.2025  0.1232
 3461SOL     H114288   4.192   0.686   3.391  0.2276 -0.3534  0.2461
 3461SOL     H214289   4.168   0.720   3.245 -0.7414 -0.8259  0.2917
 3461SOL    EPW14290   4.222   0.687   3.307 -0.0303  0.0335  0.1543
 3462SOL      O14291   1.786   0.350   2.913  0.5012 -0.4289 -0.4417
 3462SOL     H114292   1.808   0.387   2.828  0.8142 -1.5285 -0.8522
 3462SOL     H214293   1.784   0.425   2.972 -0.4602  0.4491 -1.5510
 3462SOL    EPW14294   1.788   0.362   2.910  0.4321 -0.4526 -0.6038
 3463SOL      O14295   3.252   0.403   4.142  0.0825 -0.2500  0.0223
 3463SOL     H114296   3.305   0.369   4.214 -0.8715 -1.3546  0.2362
 3463SOL     H214297   3.232   0.325   4.089 -0.0656  0.3854 -0.8817
 3463SOL    EPW14298   3.256   0.391   4.144 -0.0351 -0.3001 -0.0513
 3464SOL      O14299   2.901   0.519   0.554  0.3357 -0.3578 -0.3061
 3464SOL     H114300   2.843   0.581   0.599 -2.5392 -1.1661 -2.6108
 3464SOL     H214301   2.873   0.433   0.585  0.1831 -0.7765 -1.5539
 3464SOL    EPW14302   2.892   0.516   0.562  0.0127 -0.4887 -0.6850
 3465SOL      O14303   1.794   3.567   3.103 -0.0769  0.3405 -0.8883
 3465SOL     H114304   1.802   3.578   3.198 -0.2747 -0.3707 -0.7839
 3465SOL     H214305   1.701   3.553   3.088 -0.1297  1.0340 -1.2621
 3465SOL    EPW14306   1.785   3.567   3.111 -0.1036  0.3386 -0.9170
 3466SOL      O14307   4.172   3.945   0.669  0.0887  0.3573  0.0348
 3466SOL     H114308   4.080   3.955   0.644  0.0891 -1.0813 -0.6253
 3466SOL     H214309   4.169   3.928   0.763 -0.5959 -2.4416 -0.3968
 3466SOL    EPW14310   4.162   3.945   0.676  0.0157 -0.0947 -0.0817
 3467SOL      O14311   2.905   2.422   2.332  0.3039 -0.1827 -0.1472
 3467SOL     H114312   2.913   2.518   2.339  1.4391 -0.2938  0.2085
 3467SOL     H214313   2.830   2.409   2.273  0.9260  0.9457 -1.2366
 3467SOL    EPW14314   2.898   2.431   2.327  0.4913 -0.0741 -0.2255
 3468SOL      O14315   0.110   4.416   2.690 -0.0357  0.1604 -0.4120
 3468SOL     H114316   0.182   4.450   2.744 -0.1911  0.2417 -0.2547
 3468SOL     H214317   0.031   4.436   2.740 -0.0696 -1.3741  0.2019
 3468SOL    EPW14318   0.109   4.422   2.701 -0.0559  0.0054 -0.3297
 3469SOL      O14319   0.861   3.298   0.466 -0.5424 -0.4491 -0.0436
 3469SOL     H114320   0.850   3.297   0.561 -0.3312  2.4796  0.0955
 3469SOL     H214321   0.940   3.350   0.451 -1.3765  0.3883 -1.8452
 3469SOL    EPW14322   0.868   3.304   0.474 -0.6088 -0.0473 -0.2210
 3470SOL      O14323   0.143   5.199   4.093  0.2846 -1.0869 -0.0537
 3470SOL     H114324   0.228   5.234   4.120 -0.1311  1.2310 -1.4565
 3470SOL     H214325   0.079   5.252   4.141 -0.3827  0.3117 -2.3365
 3470SOL    EPW14326   0.145   5.208   4.101  0.1691 -0.6905 -0.4469
 3471SOL      O14327   0.126   0.107   0.379  0.3655 -0.3752 -0.3401
 3471SOL     H114328   0.180   0.161   0.437 -0.1984 -0.6536  0.4662
 3471SOL     H214329   0.063   0.064   0.438  0.7761 -1.8889 -0.9436
 3471SOL    EPW14330   0.125   0.108   0.392  0.3491 -0.5664 -0.3184
 3472SOL      O14331   4.253   2.016   0.842 -0.6745 -0.0232  0.5099
 3472SOL     H114332   4.293   1.999   0.756 -1.7585 -0.3566  0.0578
 3472SOL     H214333   4.226   2.107   0.838 -3.5219 -0.8056 -0.7355
 3472SOL    EPW14334   4.255   2.024   0.832 -1.0939 -0.1422  0.3288
 3473SOL      O14335   3.353   1.781   0.101 -0.5129 -0.1354 -1.4501
 3473SOL     H114336   3.317   1.697   0.131  0.4571 -0.3061 -0.6837
 3473SOL     H214337   3.297   1.847   0.141 -0.8585 -0.4058 -1.4795
 3473SOL    EPW14338   3.343   1.779   0.109 -0.4463 -0.1825 -1.3715
 3474SOL      O14339   1.137   2.691   0.860  0.2805 -0.0850  0.2073
 3474SOL     H114340   1.205   2.696   0.927 -0.8010 -0.4861  1.3838
 3474SOL     H214341   1.059   2.664   0.908 -0.3874 -0.9913 -1.3330
 3474SOL    EPW14342   1.136   2.689   0.873  0.0938 -0.2245  0.1685
 3475SOL      O14343   1.509   4.707   0.654 -0.4896 -0.2315 -0.1054
 3475SOL     H114344   1.595   4.664   0.653 -0.2850  0.1674 -0.7362
 3475SOL     H214345   1.528   4.798   0.675 -0.9239 -0.4340  1.2405
 3475SOL    EPW14346   1.520   4.712   0.656 -0.5141 -0.2106 -0.0291
 3476SOL      O14347   1.972   5.741   1.051  0.5708  0.3103  0.3195
 3476SOL     H114348   1.887   5.713   1.086  0.6137 -2.0215 -1.2081
 3476SOL     H214349   2.036   5.694   1.104  0.9173  1.5551  1.0374
 3476SOL    EPW14350   1.970   5.733   1.061  0.6123  0.1943  0.2332
 3477SOL      O14351   4.105   1.428   3.617  0.2997 -0.0297  0.0231
 3477SOL     H114352   4.119   1.430   3.523 -2.1576  2.0917 -0.3876
 3477SOL     H214353   4.170   1.489   3.652  0.4859  0.0260 -0.4137
 3477SOL    EPW14354   4.114   1.434   3.611  0.0574  0.2026 -0.0673
 3478SOL      O14355   2.947   5.334   3.620  0.3523  0.4092 -0.1754
 3478SOL     H114356   3.015   5.282   3.661  0.1730  0.8508  0.7015
 3478SOL     H214357   2.950   5.309   3.528  0.4963 -0.8834  0.1675
 3478SOL    EPW14358   2.954   5.326   3.614  0.3486  0.3184 -0.0453
 3479SOL      O14359   1.535   0.857   1.858 -0.0608  0.4381  0.0179
 3479SOL     H114360   1.497   0.907   1.786 -2.1689  0.8720  1.3524
 3479SOL     H214361   1.542   0.920   1.930  0.8035 -0.2966  0.5964
 3479SOL    EPW14362   1.532   0.869   1.858 -0.1935  0.4060  0.2220
 3480SOL      O14363   1.893   0.937   3.338  0.0428  0.0389  0.4617
 3480SOL     H114364   1.939   0.907   3.260  0.0382  3.2817 -0.9698
 3480SOL     H214365   1.959   0.936   3.407  0.4989 -1.2982  0.0390
 3480SOL    EPW14366   1.905   0.934   3.337  0.0909  0.2422  0.2639
 3481SOL      O14367   4.145   2.915   3.540 -0.3116  1.0024  0.1524
 3481SOL     H114368   4.092   2.876   3.471  0.9447  1.8442 -1.3520
 3481SOL     H214369   4.089   2.913   3.617 -1.5488 -0.5081 -0.7280
 3481SOL    EPW14370   4.134   2.911   3.541 -0.3096  0.9310 -0.1020
 3482SOL      O14371   0.278   5.492   3.691  0.6433 -0.4773 -0.1799
 3482SOL     H114372   0.211   5.537   3.639 -1.0857 -0.4290  1.9090
 3482SOL     H214373   0.326   5.562   3.735  1.7465 -0.5360 -1.2388
 3482SOL    EPW14374   0.276   5.504   3.690  0.5765 -0.4784 -0.0700
 3483SOL      O14375   3.749   2.999   0.260 -0.1103  0.0355  0.1251
 3483SOL     H114376   3.843   2.980   0.250 -0.4542 -1.5955 -0.2673
 3483SOL     H214377   3.744   3.049   0.341  1.0183 -0.6066  0.6195
 3483SOL    EPW14378   3.759   3.003   0.268 -0.0266 -0.2070  0.1360
 3484SOL      O14379   1.515   5.455   3.742  0.0079 -0.4142  0.3208
 3484SOL     H114380   1.444   5.392   3.729 -0.8146  0.7367 -1.0314
 3484SOL     H214381   1.590   5.417   3.696 -0.8240  0.1188 -1.5648
 3484SOL    EPW14382   1.516   5.444   3.736 -0.1686 -0.2345 -0.0246
 3485SOL      O14383   2.054   1.721   1.207  0.4931 -0.3354  0.0889
 3485SOL     H114384   1.973   1.683   1.173  0.7582  0.5650 -1.6899
 3485SOL     H214385   2.033   1.814   1.220  0.9314 -0.3109  0.6433
 3485SOL    EPW14386   2.043   1.727   1.205  0.5681 -0.2368 -0.0417
 3486SOL      O14387   1.486   5.017   4.044  0.5361 -0.3867  0.3506
 3486SOL     H114388   1.396   5.049   4.041  0.2981 -0.9193 -3.6039
 3486SOL     H214389   1.539   5.095   4.057 -0.3971  0.3168  0.0141
 3486SOL    EPW14390   1.482   5.029   4.045  0.4112 -0.3684 -0.1072
 3487SOL      O14391   0.459   2.161   1.422  0.1816 -0.2527 -0.0114
 3487SOL     H114392   0.423   2.080   1.385 -0.1721  0.6532 -1.7884
 3487SOL     H214393   0.425   2.230   1.365  0.7497  1.1231  1.2526
 3487SOL    EPW14394   0.452   2.159   1.412  0.2045 -0.0093 -0.0661
 3488SOL      O14395   1.501   1.924   3.188 -0.4309 -0.7405  0.3560
 3488SOL     H114396   1.578   1.937   3.133 -0.7001 -3.1245 -0.7402
 3488SOL     H214397   1.468   2.012   3.205  1.9899  0.2895  0.0928
 3488SOL    EPW14398   1.505   1.935   3.184 -0.2014 -0.8849  0.2110
 3489SOL      O14399   3.506   2.724   2.221 -0.1402  0.7581 -0.4532
 3489SOL     H114400   3.478   2.653   2.164 -0.2336  1.6522 -1.5643
 3489SOL     H214401   3.572   2.771   2.170  0.3886  1.0915  0.5112
 3489SOL    EPW14402   3.510   2.721   2.209 -0.0937  0.8891 -0.4688
 3490SOL      O14403   1.734   4.186   0.500  0.0081  0.0082  0.2203
 3490SOL     H114404   1.770   4.267   0.537  0.8026 -1.0726  1.9966
 3490SOL     H214405   1.643   4.184   0.531  0.5295 -0.6494  1.8297
 3490SOL    EPW14406   1.728   4.195   0.508  0.1485 -0.1773  0.5815
 3491SOL      O14407   1.939   2.909   3.882 -0.5588  0.0565  0.3132
 3491SOL     H114408   1.899   2.843   3.826 -0.3281  1.1593 -1.2030
 3491SOL     H214409   2.013   2.864   3.923 -1.7961 -1.2814  1.1793
 3491SOL    EPW14410   1.943   2.897   3.881 -0.6662  0.0314  0.2439
 3492SOL      O14411   3.099   3.686   0.133 -0.1303  0.2063  0.1218
 3492SOL     H114412   3.014   3.685   0.177  0.3575 -2.3533  1.1991
 3492SOL     H214413   3.079   3.707   0.042 -2.0556 -1.1387  0.1755
 3492SOL    EPW14414   3.088   3.688   0.128 -0.2837 -0.2102  0.2425
 3493SOL      O14415   5.106   4.111   0.258  0.0134 -0.3444  0.5594
 3493SOL     H114416   5.037   4.159   0.304 -0.4965  0.2808 -0.8200
 3493SOL     H214417   5.069   4.093   0.172  2.2246  1.6258 -0.9112
 3493SOL    EPW14418   5.094   4.114   0.254  0.1949 -0.0675  0.2554
 3494SOL      O14419   4.922   2.669   1.383 -0.0703  1.0196 -0.5521
 3494SOL     H114420   4.964   2.583   1.374  1.4290  1.8686 -2.3737
 3494SOL     H214421   4.979   2.717   1.443 -1.9719  0.2107  2.1002
 3494SOL    EPW14422   4.933   2.665   1.388 -0.1132  1.0239 -0.4635
 3495SOL      O14423   1.353   0.420   3.527  0.0684 -0.3131  0.2974
 3495SOL     H114424   1.334   0.402   3.435 -1.0200 -3.1492  0.9575
 3495SOL     H214425   1.395   0.340   3.558  0.3654  0.5733  2.2975
 3495SOL    EPW14426   1.356   0.409   3.520 -0.0160 -0.5211  0.5812
 3496SOL      O14427   0.835   2.866   1.980 -0.0860 -0.1708 -0.6965
 3496SOL     H114428   0.777   2.942   1.987  1.7661  1.3943 -1.4407
 3496SOL     H214429   0.850   2.857   1.886  0.3255 -0.9952 -0.5570
 3496SOL    EPW14430   0.830   2.873   1.971  0.1555 -0.0917 -0.7610
 3497SOL      O14431   4.299   5.340   1.522  0.3041  0.0533  0.2105
 3497SOL     H114432   4.212   5.303   1.508  0.2208 -0.3463  1.6248
 3497SOL     H214433   4.358   5.266   1.516  0.2240 -0.2261  2.1836
 3497SOL    EPW14434   4.296   5.328   1.520  0.2867 -0.0191  0.5718
 3498SOL      O14435   0.030   4.521   0.317  0.4374 -0.1613 -0.4344
 3498SOL     H114436   0.060   4.520   0.408 -0.7808 -0.0366 -0.0166
 3498SOL     H214437  -0.057   4.482   0.319  0.0442  0.5943 -1.4110
 3498SOL    EPW14438   0.024   4.517   0.327  0.2655 -0.0674 -0.4940
 3499SOL      O14439   2.809   1.386   2.534 -0.1436 -0.5236 -0.2567
 3499SOL     H114440   2.864   1.389   2.456 -0.0171  1.6253 -0.1502
 3499SOL     H214441   2.863   1.343   2.601  0.1713 -1.3455 -1.0320
 3499SOL    EPW14442   2.820   1.382   2.533 -0.0965 -0.3820 -0.3280
 3500SOL      O14443   1.581   3.360   1.935 -0.3787 -0.3511 -0.1300
 3500SOL     H114444   1.582   3.415   2.013  2.6196  0.7786 -0.8458
 3500SOL     H214445   1.555   3.273   1.967 -0.7607  0.4249  1.8032
 3500SOL    EPW14446   1.578   3.356   1.947 -0.0996 -0.1478 -0.0001
 3501SOL      O14447   1.595   4.216   3.719  0.1749 -0.2256  0.2296
 3501SOL     H114448   1.544   4.279   3.770  1.7923  1.0928  0.3304
 3501SOL     H214449   1.556   4.218   3.632  1.6679  2.9684 -0.5480
 3501SOL    EPW14450   1.586   4.223   3.715  0.5067  0.2558  0.1574
 3502SOL      O14451   3.168   5.859   1.982  0.1497 -0.1075  0.1160
 3502SOL     H114452   3.199   5.879   2.070  2.3643  1.0989 -0.8499
 3502SOL     H214453   3.182   5.940   1.933  0.1598 -1.1381 -1.6478
 3502SOL    EPW14454   3.173   5.870   1.986  0.3870 -0.0887 -0.1752
 3503SOL      O14455   0.244   5.630   2.486  0.3857 -0.1086  0.3564
 3503SOL     H114456   0.226   5.548   2.441 -0.3980 -0.8087  1.8423
 3503SOL     H214457   0.339   5.631   2.497  0.4942 -0.3577 -0.4885
 3503SOL    EPW14458   0.252   5.621   2.483  0.3137 -0.2099  0.4248
 3504SOL      O14459   5.599   3.353   1.493  0.2236 -0.3009  0.1474
 3504SOL     H114460   5.569   3.310   1.573  0.0092  0.6254  0.5869
 3504SOL     H214461   5.693   3.367   1.507  0.1033  0.2573  0.4415
 3504SOL    EPW14462   5.606   3.350   1.503  0.1879 -0.1425  0.2257
 3505SOL      O14463   3.026   1.601   3.636  0.9113 -0.2453 -0.3637
 3505SOL     H114464   3.109   1.613   3.591  1.6373  1.2311  1.2260
 3505SOL     H214465   3.051   1.583   3.727 -0.4410  2.0565  0.5567
 3505SOL    EPW14466   3.037   1.600   3.641  0.8445  0.1577 -0.0959
 3506SOL      O14467   2.029   0.058   1.428 -0.1839  0.6260 -0.3487
 3506SOL     H114468   1.974   0.044   1.350  0.3847  0.5630 -0.7459
 3506SOL     H214469   2.015   0.150   1.450  0.7515  1.0410 -1.4020
 3506SOL    EPW14470   2.022   0.066   1.422 -0.0235  0.6635 -0.5034
 3507SOL      O14471   1.138   1.324   2.539  0.1092 -0.0966 -0.2592
 3507SOL     H114472   1.165   1.260   2.604 -0.8628 -1.5119 -1.1863
 3507SOL     H214473   1.145   1.409   2.583  0.5089 -0.9175  1.3058
 3507SOL    EPW14474   1.141   1.327   2.550  0.0481 -0.3352 -0.1911
 3508SOL      O14475   3.390   0.690   3.832  0.1464  0.0847 -0.3111
 3508SOL     H114476   3.448   0.766   3.836  0.0781  0.2064 -1.3527
 3508SOL     H214477   3.449   0.615   3.837  0.2223  0.2017  0.6249
 3508SOL    EPW14478   3.403   0.690   3.833  0.1472  0.1102 -0.3224
 3509SOL      O14479   5.573   2.062   3.956 -0.9210 -0.6016 -0.0150
 3509SOL     H114480   5.567   2.085   3.863 -2.6599  3.7808  0.9482
 3509SOL     H214481   5.485   2.078   3.990  0.2931  0.7076  2.8389
 3509SOL    EPW14482   5.563   2.066   3.950 -0.9770  0.0055  0.3922
 3510SOL      O14483   0.121   2.065   0.034 -0.1371  0.1265 -0.5433
 3510SOL     H114484   0.078   2.134   0.084  0.3841 -1.3373  2.1264
 3510SOL     H214485   0.178   2.021   0.097  1.8315 -0.8950 -2.8346
 3510SOL    EPW14486   0.123   2.068   0.046  0.1285 -0.1386 -0.5029
 3511SOL      O14487   0.677   3.143   3.781 -0.2343 -0.4422 -0.9670
 3511SOL     H114488   0.643   3.198   3.712  1.2399  2.0432  0.1555
 3511SOL     H214489   0.755   3.102   3.743 -0.3827 -0.4211 -1.2917
 3511SOL    EPW14490   0.682   3.144   3.770 -0.0929 -0.1748 -0.8819
 3512SOL      O14491   4.818   0.954   2.206 -0.0319  0.3227 -0.1839
 3512SOL     H114492   4.793   1.044   2.183 -1.0245  0.1755  0.2560
 3512SOL     H214493   4.782   0.901   2.136  0.9238  0.3030 -0.6645
 3512SOL    EPW14494   4.811   0.958   2.196 -0.0358  0.3049 -0.1883
 3513SOL      O14495   2.602   1.735   2.359 -0.0605 -0.3763  0.3506
 3513SOL     H114496   2.510   1.749   2.381 -0.0554 -1.5659  1.2433
 3513SOL     H214497   2.637   1.684   2.432  1.5202  0.7119  0.4068
 3513SOL    EPW14498   2.596   1.731   2.369  0.1087 -0.3871  0.4518
 3514SOL      O14499   5.518   1.399   1.088  0.5350 -0.5624 -0.1199
 3514SOL     H114500   5.533   1.423   1.179  0.4270  0.6596 -0.4156
 3514SOL     H214501   5.477   1.312   1.093  1.6125 -1.0415  0.9396
 3514SOL    EPW14502   5.515   1.392   1.098  0.6384 -0.4831 -0.0384
 3515SOL      O14503   0.876   5.685   1.618 -0.2272 -0.2353  0.1712
 3515SOL     H114504   0.783   5.685   1.594 -0.2961 -0.0742  0.4393
 3515SOL     H214505   0.904   5.775   1.603  0.2411 -0.5931 -1.2682
 3515SOL    EPW14506   0.869   5.694   1.614 -0.1846 -0.2563  0.0462
 3516SOL      O14507   4.519   1.826   3.189  0.2555 -0.0504  0.0402
 3516SOL     H114508   4.477   1.904   3.152  0.9939 -0.8397 -2.6764
 3516SOL     H214509   4.557   1.857   3.272 -0.4434  2.1757 -0.3921
 3516SOL    EPW14510   4.519   1.838   3.194  0.2597  0.1029 -0.2957
 3517SOL      O14511   5.398   4.107   0.911  0.2161 -0.4112 -0.2252
 3517SOL     H114512   5.411   4.171   0.981  0.1721 -0.9245  0.2611
 3517SOL     H214513   5.351   4.035   0.953 -1.6008  0.1164 -1.2340
 3517SOL    EPW14514   5.394   4.106   0.923  0.0176 -0.4096 -0.2809
 3518SOL      O14515   3.685   0.741   0.617 -0.0315  0.0993 -0.5213
 3518SOL     H114516   3.615   0.681   0.590  0.5654 -1.2981  0.8649
 3518SOL     H214517   3.667   0.757   0.710  0.4677  1.1824 -0.6028
 3518SOL    EPW14518   3.675   0.736   0.624  0.0854  0.0657 -0.3821
 3519SOL      O14519   4.361   3.540   2.078  0.1254  0.3885  0.0837
 3519SOL     H114520   4.396   3.624   2.049 -0.7307  0.4504 -0.8514
 3519SOL     H214521   4.437   3.491   2.109  0.5619  1.7159  1.2257
 3519SOL    EPW14522   4.373   3.544   2.078  0.0806  0.5367  0.1057
 3520SOL      O14523   3.637   0.279   3.395 -0.2091 -0.3658 -0.3645
 3520SOL     H114524   3.563   0.254   3.340 -0.3097  0.1018 -0.4411
 3520SOL     H214525   3.700   0.207   3.384 -0.5510 -0.6524 -0.4783
 3520SOL    EPW14526   3.636   0.268   3.388 -0.2563 -0.3465 -0.3848
 3521SOL      O14527   2.627   0.183   1.251 -0.7013  0.4064 -0.0952
 3521SOL     H114528   2.649   0.270   1.282  0.5139  0.4128 -0.8930
 3521SOL     H214529   2.694   0.126   1.289  0.5266  0.3431 -2.2076
 3521SOL    EPW14530   2.636   0.186   1.258 -0.4407  0.4003 -0.4056
 3522SOL      O14531   4.143   1.064   1.702 -0.0878 -0.1141  0.3822
 3522SOL     H114532   4.214   1.006   1.676 -0.1417 -0.5896  1.2600
 3522SOL     H214533   4.185   1.134   1.752 -0.1117  0.2145 -0.0493
 3522SOL    EPW14534   4.155   1.066   1.704 -0.0961 -0.1298  0.4298
 3523SOL      O14535   2.772   0.748   1.389  0.4809  0.6432  0.1779
 3523SOL     H114536   2.796   0.804   1.315  1.1149 -0.7320 -0.6976
 3523SOL     H214537   2.741   0.809   1.456  4.3944  2.4198  0.6367
 3523SOL    EPW14538   2.771   0.760   1.388  0.9660  0.6860  0.1335
 3524SOL      O14539   5.148   0.276   0.658  0.0008 -0.4188  0.2392
 3524SOL     H114540   5.145   0.278   0.754  0.7837 -0.3577  0.2652
 3524SOL     H214541   5.223   0.220   0.637 -0.7181 -1.1924 -0.3518
 3524SOL    EPW14542   5.155   0.270   0.666  0.0076 -0.4948  0.1790
 3525SOL      O14543   1.864   4.242   3.018  0.7625  0.1783  0.1287
 3525SOL     H114544   1.798   4.264   3.084  1.5993  0.5608  0.8761
 3525SOL     H214545   1.824   4.174   2.965 -0.7380  1.3548 -0.3051
 3525SOL    EPW14546   1.853   4.237   3.020  0.6917  0.3446  0.1621
 3526SOL      O14547   4.468   2.940   1.484 -0.1457  0.1072  0.0191
 3526SOL     H114548   4.461   2.990   1.565  2.7855  0.2001  0.3203
 3526SOL     H214549   4.522   2.864   1.507 -1.3015 -1.1842 -1.3157
 3526SOL    EPW14550   4.473   2.937   1.495  0.0437 -0.0206 -0.0911
 3527SOL      O14551   4.488   3.725   0.446 -0.1788  0.6862 -0.2054
 3527SOL     H114552   4.510   3.815   0.472  0.3740  0.1681  1.2599
 3527SOL     H214553   4.414   3.702   0.502 -2.0409  1.0720 -2.3883
 3527SOL    EPW14554   4.483   3.732   0.455 -0.3184  0.6721 -0.2820
 3528SOL      O14555   4.347   0.849   0.499 -1.0063 -0.2340 -0.2728
 3528SOL     H114556   4.276   0.817   0.555 -0.7779  0.9095  0.7020
 3528SOL     H214557   4.425   0.844   0.554 -0.3600 -1.1585 -1.2292
 3528SOL    EPW14558   4.348   0.845   0.511 -0.9130 -0.2106 -0.2708
 3529SOL      O14559   1.438   4.439   0.720  0.2806  0.6236 -0.1392
 3529SOL     H114560   1.344   4.425   0.706  0.2810  0.1536  0.2845
 3529SOL     H214561   1.456   4.525   0.682 -0.0232  0.0819 -1.5863
 3529SOL    EPW14562   1.430   4.446   0.714  0.2482  0.5157 -0.2484
 3530SOL      O14563   4.204   2.531   3.310 -0.9132  0.0449 -0.5589
 3530SOL     H114564   4.188   2.462   3.375 -2.2512 -0.0194 -0.9291
 3530SOL     H214565   4.127   2.528   3.253 -0.0090  0.4521 -1.8430
 3530SOL    EPW14566   4.194   2.523   3.311 -0.9594  0.0815 -0.7354
 3531SOL      O14567   2.479   0.001   2.870  0.0939 -0.4957  0.4693
 3531SOL     H114568   2.478   0.029   2.778 -2.0159 -2.3327 -0.1553
 3531SOL     H214569   2.535   0.065   2.914 -1.1035  2.1372 -1.5591
 3531SOL    EPW14570   2.485   0.010   2.865 -0.2589 -0.4108  0.1863
 3532SOL      O14571   2.434   4.948   0.597 -0.3940 -0.1857  0.2053
 3532SOL     H114572   2.382   5.023   0.567  3.9232  2.3752 -1.6551
 3532SOL     H214573   2.494   4.929   0.525  3.5909 -0.5195  3.2635
 3532SOL    EPW14574   2.434   4.954   0.587  0.4917  0.0518  0.3331
 3533SOL      O14575   4.824   5.727   2.665  0.3497 -0.2295  0.0175
 3533SOL     H114576   4.764   5.731   2.739  1.1974 -0.1551  0.7091
 3533SOL     H214577   4.777   5.675   2.600 -0.0582 -1.0411  0.9342
 3533SOL    EPW14578   4.812   5.722   2.666  0.3966 -0.3082  0.1890
 3534SOL      O14579   2.041   0.638   0.163 -0.1412 -0.2456  0.2896
 3534SOL     H114580   2.124   0.602   0.132 -0.5382 -0.3961 -0.6169
 3534SOL     H214581   2.044   0.730   0.137 -1.1958 -0.7447 -1.7919
 3534SOL    EPW14582   2.051   0.644   0.157 -0.2960 -0.3149 -0.0292
 3535SOL      O14583   0.940   5.708   2.017 -0.5948  0.2990 -0.0237
 3535SOL     H114584   1.009   5.679   1.958 -0.3717  0.1071  0.3325
 3535SOL     H214585   0.959   5.665   2.101 -1.0281  0.4013  0.1332
 3535SOL    EPW14586   0.949   5.700   2.020 -0.6172  0.2895  0.0310
 3536SOL      O14587   0.456   2.997   3.888 -0.6366 -0.5535 -0.2227
 3536SOL     H114588   0.401   3.062   3.931 -1.0006  0.0841 -1.6004
 3536SOL     H214589   0.529   3.048   3.852  0.1569 -1.2060  0.4076
 3536SOL    EPW14590   0.458   3.010   3.889 -0.5908 -0.5551 -0.3024
 3537SOL      O14591   3.624   0.655   1.140 -0.1515 -0.4684 -0.1837
 3537SOL     H114592   3.695   0.620   1.087  1.0918 -0.8392  1.6362
 3537SOL     H214593   3.570   0.579   1.161  0.6976 -0.7688  1.0165
 3537SOL    EPW14594   3.626   0.643   1.137  0.0717 -0.5400  0.1385
 3538SOL      O14595   3.473   0.679   1.441  0.7580  0.4963  0.8182
 3538SOL     H114596   3.416   0.607   1.414  1.6683  0.0727 -0.0418
 3538SOL     H214597   3.449   0.696   1.532 -1.8121  1.3710  0.0838
 3538SOL    EPW14598   3.464   0.673   1.447  0.5810  0.5444  0.6481
 3539SOL      O14599   2.142   4.664   0.700  0.1448 -0.1487 -0.4661
 3539SOL     H114600   2.196   4.683   0.624  2.7633 -1.7110  0.8582
 3539SOL     H214601   2.109   4.576   0.685 -0.8538  0.2312 -0.5797
 3539SOL    EPW14602   2.144   4.657   0.690  0.3176 -0.2749 -0.3369
 3540SOL      O14603   3.281   2.516   1.831 -0.3684  0.0623 -0.3791
 3540SOL     H114604   3.270   2.427   1.796  1.2693  0.9325 -3.4470
 3540SOL     H214605   3.322   2.565   1.760 -1.3855  3.3804  1.1273
 3540SOL    EPW14606   3.284   2.511   1.820 -0.3022  0.5091 -0.5457
 3541SOL      O14607   5.551   4.033   1.889 -0.3181 -0.4023  0.2088
 3541SOL     H114608   5.639   4.012   1.857  0.4060  1.4901  0.8160
 3541SOL     H214609   5.506   3.948   1.894  1.8696 -1.5980  1.0309
 3541SOL    EPW14610   5.556   4.022   1.886 -0.0075 -0.3280  0.3613
 3542SOL      O14611   2.451   1.290   2.608 -0.0764 -0.8138 -0.1656
 3542SOL     H114612   2.506   1.298   2.687 -0.2924 -1.2076  0.0297
 3542SOL     H214613   2.387   1.360   2.617  1.5331  0.8743 -1.3411
 3542SOL    EPW14614   2.450   1.298   2.618  0.0722 -0.6758 -0.2702
 3543SOL      O14615   0.949   3.814   2.816  0.0495 -0.1412 -0.3694
 3543SOL     H114616   0.952   3.815   2.912 -0.1483 -0.3178 -0.3624
 3543SOL     H214617   1.039   3.832   2.789  0.8192 -3.2164 -0.1478
 3543SOL    EPW14618   0.959   3.816   2.823  0.1105 -0.4881 -0.3450
 3544SOL      O14619   1.930   4.739   0.327  0.4995  0.0455 -0.8316
 3544SOL     H114620   1.879   4.769   0.252  1.0147  0.6342 -0.9566
 3544SOL     H214621   1.967   4.820   0.364  0.7071 -0.2957 -0.2875
 3544SOL    EPW14622   1.928   4.751   0.323  0.5766  0.0719 -0.7869
 3545SOL      O14623   2.940   4.334   0.286  0.1703  0.0214 -0.2429
 3545SOL     H114624   2.896   4.268   0.232  0.5464  1.4790 -2.5189
 3545SOL     H214625   3.029   4.338   0.250  0.5505  0.8204  0.7432
 3545SOL    EPW14626   2.945   4.327   0.276  0.2510  0.2621 -0.3805
 3546SOL      O14627   1.945   5.623   3.758 -0.4188  0.2888  0.3951
 3546SOL     H114628   1.877   5.683   3.728  0.6161  2.0570  1.4076
 3546SOL     H214629   2.017   5.680   3.785  1.6838 -1.5054 -1.0598
 3546SOL    EPW14630   1.945   5.635   3.758 -0.0841  0.2861  0.3479
 3547SOL      O14631   0.101   3.662   1.080 -0.1195 -0.1543  0.7053
 3547SOL     H114632   0.179   3.670   1.025 -0.1672  0.2675  0.6977
 3547SOL     H214633   0.125   3.706   1.162 -0.0484 -0.7777  1.0256
 3547SOL    EPW14634   0.112   3.668   1.083 -0.1170 -0.1758  0.7387
 3548SOL      O14635   2.217   2.596   0.411  0.2784 -0.0584 -0.4186
 3548SOL     H114636   2.290   2.590   0.349  0.9867 -0.8254  0.4564
 3548SOL     H214637   2.169   2.674   0.383  1.7811  0.8348 -0.6661
 3548SOL    EPW14638   2.220   2.604   0.402  0.5143 -0.0449 -0.3516
 3549SOL      O14639   4.663   0.619   1.877  0.5916  0.5905  0.1218
 3549SOL     H114640   4.757   0.609   1.894  0.5022 -0.4258  0.0841
 3549SOL     H214641   4.623   0.544   1.921 -0.1619  0.7640 -0.2517
 3549SOL    EPW14642   4.668   0.610   1.884  0.5017  0.5006  0.0779
 3550SOL      O14643   3.204   3.079   4.140  0.0576 -0.3353  0.0686
 3550SOL     H114644   3.190   3.011   4.075 -1.0839 -0.3116  0.2749
 3550SOL     H214645   3.125   3.078   4.194 -0.5349  1.9338 -0.6445
 3550SOL    EPW14646   3.194   3.072   4.139 -0.1274 -0.0907  0.0145
 3551SOL      O14647   4.255   1.047   0.997 -0.0523 -0.3153 -0.5175
 3551SOL     H114648   4.266   0.999   1.079  0.8879 -0.2281 -0.5885
 3551SOL     H214649   4.162   1.069   0.995  0.1958  1.0627  1.2812
 3551SOL    EPW14650   4.246   1.044   1.006  0.0745 -0.1590 -0.3332
 3552SOL      O14651   3.622   2.749   0.517 -0.0218 -0.8054  0.1553
 3552SOL     H114652   3.567   2.687   0.565 -1.8290 -0.3857 -1.2347
 3552SOL     H214653   3.560   2.799   0.463  1.6101  0.6738 -0.4455
 3552SOL    EPW14654   3.610   2.748   0.516 -0.0405 -0.6028 -0.0571
 3553SOL      O14655   5.334   1.032   1.529 -0.6529 -0.4377 -0.0774
 3553SOL     H114656   5.327   0.995   1.441  2.7460  0.2025 -0.7631
 3553SOL     H214657   5.420   1.073   1.531 -1.1879  0.8489  3.1220
 3553SOL    EPW14658   5.342   1.033   1.520 -0.3474 -0.2321  0.1908
 3554SOL      O14659   5.620   2.499   2.898 -0.0866 -0.5557 -0.1092
 3554SOL     H114660   5.604   2.438   2.971  0.7246 -0.6747 -0.0149
 3554SOL     H214661   5.548   2.561   2.902 -2.9758 -3.4325 -2.3056
 3554SOL    EPW14662   5.611   2.499   2.907 -0.3082 -0.8753 -0.3334
 3555SOL      O14663   0.188   4.655   3.756  0.4567  0.6159 -0.3194
 3555SOL     H114664   0.159   4.703   3.833  1.1558  0.7119 -0.1139
 3555SOL     H214665   0.274   4.692   3.735  0.0463  0.9877 -1.4785
 3555SOL    EPW14666   0.194   4.664   3.762  0.4875  0.6658 -0.4211
 3556SOL      O14667   4.309   3.460   3.792  0.1731 -0.0517 -0.3322
 3556SOL     H114668   4.397   3.437   3.764 -0.1896 -0.8789 -0.8226
 3556SOL     H214669   4.291   3.403   3.866  0.6648  1.2831  0.8655
 3556SOL    EPW14670   4.316   3.452   3.797  0.1869  0.0025 -0.2567
 3557SOL      O14671   2.873   2.607   4.037 -0.6374 -0.1498  0.2716
 3557SOL     H114672   2.877   2.511   4.036  0.1136 -0.1290 -0.9618
 3557SOL     H214673   2.780   2.627   4.048 -0.9383 -1.0310 -0.5446
 3557SOL    EPW14674   2.864   2.598   4.038 -0.5894 -0.2416  0.0529
 3558SOL      O14675   1.077   3.063   3.973  0.6132 -0.1268 -0.0723
 3558SOL     H114676   1.007   3.047   3.911 -0.1693  1.8320  0.2236
 3558SOL     H214677   1.045   3.026   4.055 -0.2480  1.0000  0.1282
 3558SOL    EPW14678   1.066   3.058   3.975  0.4379  0.2024 -0.0194
 3559SOL      O14679   0.952   0.736   2.527  0.1370 -0.5436  0.5218
 3559SOL     H114680   0.892   0.811   2.519 -0.9970 -1.2644  1.8121
 3559SOL     H214681   0.954   0.717   2.621  0.1076 -2.3613  0.1916
 3559SOL    EPW14682   0.946   0.742   2.536  0.0129 -0.8144  0.6242
 3560SOL      O14683   5.685   4.195   3.914  0.3137  0.1193 -0.0410
 3560SOL     H114684   5.600   4.159   3.887  0.5795 -0.1836 -0.4956
 3560SOL     H214685   5.715   4.135   3.982 -1.1736  1.8788  2.2849
 3560SOL    EPW14686   5.679   4.185   3.918  0.1834  0.2747  0.1587
 3561SOL      O14687   3.132   2.949   0.523  0.2761  0.3250  0.0274
 3561SOL     H114688   3.115   2.901   0.442  0.4623 -0.1635  0.2796
 3561SOL     H214689   3.044   2.971   0.555  0.1885  0.0709 -0.0352
 3561SOL    EPW14690   3.121   2.946   0.517  0.2866  0.2458  0.0477
 3562SOL      O14691   3.376   3.066   1.251 -0.0397 -0.6582  0.2256
 3562SOL     H114692   3.471   3.067   1.261 -0.1049 -1.8282  1.3318
 3562SOL     H214693   3.357   2.983   1.207 -0.6033 -0.9301  0.9507
 3562SOL    EPW14694   3.384   3.057   1.247 -0.1068 -0.8120  0.4209
 3563SOL      O14695   5.251   0.033   3.783 -1.2098 -0.0054  0.1126
 3563SOL     H114696   5.169   0.081   3.777 -1.6589 -0.6568  0.9069
 3563SOL     H214697   5.226  -0.059   3.778 -0.6955 -0.2710  1.7095
 3563SOL    EPW14698   5.240   0.028   3.782 -1.2028 -0.1032  0.3677
 3564SOL      O14699   0.169   2.243   2.777  0.1517 -0.3179 -0.0053
 3564SOL     H114700   0.254   2.199   2.781 -0.1143 -0.8051  0.4096
 3564SOL     H214701   0.157   2.281   2.863  0.2581  0.3525 -0.2825
 3564SOL    EPW14702   0.177   2.242   2.786  0.1347 -0.2984  0.0094
 3565SOL      O14703   1.284   0.810   0.666 -0.1399  0.1358  0.1702
 3565SOL     H114704   1.264   0.902   0.652 -1.2702  0.0393  1.0142
 3565SOL     H214705   1.216   0.779   0.725 -0.0011 -1.3363 -0.3894
 3565SOL    EPW14706   1.275   0.816   0.671 -0.2457 -0.0316  0.2005
 3566SOL      O14707   3.392   2.782   1.403  0.3466 -0.3314  0.0470
 3566SOL     H114708   3.410   2.775   1.309  0.8387  1.0484  0.0130
 3566SOL     H214709   3.302   2.813   1.408  1.1829  2.3318 -0.0946
 3566SOL    EPW14710   3.385   2.784   1.394  0.4883  0.0999  0.0283
 3567SOL      O14711   0.852   5.381   1.092  0.0713 -0.2107  0.6176
 3567SOL     H114712   0.908   5.459   1.098 -0.1346 -0.0388  0.3382
 3567SOL     H214713   0.910   5.309   1.116  1.3637 -0.4472 -2.6987
 3567SOL    EPW14714   0.864   5.382   1.095  0.1872 -0.2176  0.2340
 3568SOL      O14715   0.066   1.269   0.198  0.5427  0.3750  0.2676
 3568SOL     H114716  -0.022   1.231   0.202  0.8371 -0.3289  0.3282
 3568SOL     H214717   0.055   1.350   0.149 -0.0176 -0.0984 -0.4161
 3568SOL    EPW14718   0.055   1.273   0.193  0.5143  0.2494  0.2012
 3569SOL      O14719   2.710   3.297   0.231 -0.4337  0.1582  0.4364
 3569SOL     H114720   2.630   3.271   0.277 -0.5300  0.0900  0.2269
 3569SOL     H214721   2.780   3.277   0.293 -0.6876  1.6969  1.2780
 3569SOL    EPW14722   2.709   3.292   0.243 -0.4710  0.3151  0.5039
 3570SOL      O14723   2.952   4.352   2.548  0.2582  0.0529  0.3780
 3570SOL     H114724   2.912   4.364   2.634 -1.5785 -1.7490 -0.1262
 3570SOL     H214725   2.882   4.314   2.495  1.5330  0.5041 -1.7420
 3570SOL    EPW14726   2.940   4.349   2.551  0.1983 -0.0912  0.0981
 3571SOL      O14727   2.637   1.939   3.334  0.5134 -0.0605 -0.4209
 3571SOL     H114728   2.693   1.901   3.402 -1.0770  0.1614  1.0860
 3571SOL     H214729   2.621   2.029   3.363 -1.2686 -0.3616 -0.3459
 3571SOL    EPW14730   2.641   1.945   3.344  0.1537 -0.0690 -0.2521
 3572SOL      O14731   0.840   4.174   3.446  0.0900 -0.6208 -0.3913
 3572SOL     H114732   0.810   4.256   3.408  2.0858  0.2348 -0.2350
 3572SOL     H214733   0.779   4.157   3.517 -0.7488  0.3691 -0.8497
 3572SOL    EPW14734   0.830   4.181   3.450  0.2134 -0.4239 -0.4235
 3573SOL      O14735   3.159   5.125   2.193 -0.2008  0.2509 -0.2820
 3573SOL     H114736   3.110   5.088   2.267 -2.0825  1.8851 -0.6283
 3573SOL     H214737   3.250   5.126   2.223 -0.8271  0.3446  1.8079
 3573SOL    EPW14738   3.163   5.121   2.204 -0.4684  0.4352 -0.0960
 3574SOL      O14739   3.493   2.552   0.958  0.5587  0.1911 -0.0557
 3574SOL     H114740   3.562   2.616   0.976  1.1941 -0.2561 -0.8382
 3574SOL     H214741   3.498   2.537   0.863 -1.7454  1.4200 -0.4676
 3574SOL    EPW14742   3.501   2.558   0.950  0.3807  0.2745 -0.1831
 3575SOL      O14743   2.119   4.851   1.014  0.6000  0.2767  0.2090
 3575SOL     H114744   2.170   4.777   1.048  4.1870  1.5333 -1.9089
 3575SOL     H214745   2.120   4.915   1.085  2.4443  0.4244  0.0880
 3575SOL    EPW14746   2.125   4.850   1.025  1.1793  0.4265 -0.0298
 3576SOL      O14747   5.699   1.571   3.345 -0.0028  0.2991  0.1700
 3576SOL     H114748   5.662   1.564   3.433  1.4704 -1.0203  0.7293
 3576SOL     H214749   5.747   1.490   3.333  4.6480  2.7120  0.4064
 3576SOL    EPW14750   5.700   1.562   3.353  0.6505  0.4158  0.2549
 3577SOL      O14751   0.120   1.683   0.509  0.3157  0.6481  0.8082
 3577SOL     H114752   0.093   1.592   0.493 -0.6107  1.2584 -1.5882
 3577SOL     H214753   0.215   1.681   0.503  0.2344  0.0491 -0.8715
 3577SOL    EPW14754   0.127   1.673   0.507  0.2082  0.6493  0.3734
 3578SOL      O14755   1.017   2.436   3.615  0.4148 -0.3557  0.1742
 3578SOL     H114756   1.061   2.373   3.672  1.6593  2.1185  2.1625
 3578SOL     H214757   0.965   2.489   3.674 -1.7993 -0.3966 -1.6348
 3578SOL    EPW14758   1.016   2.435   3.628  0.3114 -0.0961  0.1933
 3579SOL      O14759   1.681   0.149   2.521  0.0053  0.2174 -0.5824
 3579SOL     H114760   1.776   0.158   2.530 -0.3135  2.6285  1.7532
 3579SOL     H214761   1.655   0.224   2.467 -0.7090  0.7819  0.4961
 3579SOL    EPW14762   1.688   0.158   2.516 -0.1049  0.5348 -0.2182
 3580SOL      O14763   3.034   3.270   0.700 -0.3112 -0.1209 -0.5017
 3580SOL     H114764   3.102   3.259   0.767 -0.7638 -1.1297 -0.1886
 3580SOL     H214765   3.083   3.291   0.621  0.2436  0.9709  0.1028
 3580SOL    EPW14766   3.047   3.271   0.699 -0.3003 -0.1121 -0.4038
 3581SOL      O14767   1.937   3.423   2.183 -0.1739  0.1359 -0.5559
 3581SOL     H114768   1.842   3.427   2.171 -0.6050 -1.7935  1.6103
 3581SOL     H214769   1.956   3.330   2.195  1.5454  0.7170  1.9666
 3581SOL    EPW14770   1.929   3.413   2.183 -0.0364 -0.0080 -0.0557
 3582SOL      O14771   0.507   3.113   0.584 -0.1059  0.1374 -0.4131
 3582SOL     H114772   0.536   3.104   0.675  0.4407  2.0860 -0.3469
 3582SOL     H214773   0.571   3.064   0.533 -1.5728 -2.7626  0.3397
 3582SOL    EPW14774   0.517   3.107   0.588 -0.2041  0.0359 -0.3258
 3583SOL      O14775   2.267   1.557   1.560  0.4766  0.4390 -0.8677
 3583SOL     H114776   2.355   1.538   1.526  1.3281  0.6992  1.0877
 3583SOL     H214777   2.251   1.648   1.536  0.8359  0.4659 -1.0159
 3583SOL    EPW14778   2.275   1.564   1.553  0.6058  0.4696 -0.6749
 3584SOL      O14779   4.015   1.661   2.454 -0.1898 -0.0440 -0.3434
 3584SOL     H114780   3.991   1.753   2.458 -2.2341 -0.3870 -2.4755
 3584SOL     H214781   3.933   1.614   2.467  0.9115 -1.6545  1.4233
 3584SOL    EPW14782   4.004   1.666   2.456 -0.2904 -0.2524 -0.3824
 3585SOL      O14783   3.930   5.384   3.433 -0.1177  0.5789  0.2064
 3585SOL     H114784   4.010   5.363   3.386 -0.0022  2.3610 -0.4942
 3585SOL     H214785   3.957   5.394   3.524  0.1672 -0.2338  0.2182
 3585SOL    EPW14786   3.941   5.383   3.437 -0.0750  0.6823  0.1329
 3586SOL      O14787   2.789   2.170   1.734  0.1899 -0.3689  0.2207
 3586SOL     H114788   2.716   2.138   1.681  0.8661 -0.0591 -0.9358
 3586SOL     H214789   2.796   2.107   1.806 -0.5644 -0.9817 -0.2251
 3586SOL    EPW14790   2.782   2.160   1.736  0.1816 -0.4012  0.0498
 3587SOL      O14791   5.447   4.307   1.090 -0.1744  1.0539  0.3451
 3587SOL     H114792   5.524   4.287   1.144  0.1054 -0.4179 -0.5371
 3587SOL     H214793   5.477   4.377   1.031  0.9275 -0.3136 -0.8013
 3587SOL    EPW14794   5.458   4.313   1.089 -0.0270  0.7510  0.1287
 3588SOL      O14795   3.990   3.528   1.080 -0.5568 -0.0936  0.4993
 3588SOL     H114796   4.024   3.578   1.006 -0.0830  0.2107  0.9167
 3588SOL     H214797   3.956   3.594   1.140  0.1698 -0.2550  1.1008
 3588SOL    EPW14798   3.990   3.540   1.078 -0.4287 -0.0784  0.6080
 3589SOL      O14799   1.686   0.770   3.231 -0.2268  0.6503  0.2706
 3589SOL     H114800   1.742   0.831   3.281 -1.3554  1.3880  0.6594
 3589SOL     H214801   1.634   0.726   3.298  0.4761 -0.6711 -0.0204
 3589SOL    EPW14802   1.687   0.772   3.244 -0.2722  0.5880  0.2810
 3590SOL      O14803   4.337   0.570   2.648  0.1308  0.2286 -0.7072
 3590SOL     H114804   4.317   0.654   2.689  1.8545  0.4528 -0.2190
 3590SOL     H214805   4.301   0.505   2.708  1.0676  0.5955  0.3009
 3590SOL    EPW14806   4.331   0.572   2.659  0.4146  0.2917 -0.5476
 3591SOL      O14807   3.729   5.572   3.493  0.1515  0.0585 -0.6568
 3591SOL     H114808   3.791   5.519   3.445  1.5339  1.2091 -0.2107
 3591SOL     H214809   3.674   5.613   3.426  1.2119  0.6196 -1.1972
 3591SOL    EPW14810   3.730   5.571   3.481  0.4121  0.2411 -0.6669
 3592SOL      O14811   5.601   1.531   2.748  0.1769 -0.1780 -0.3044
 3592SOL     H114812   5.630   1.540   2.839  0.7706 -2.8873 -0.1417
 3592SOL     H214813   5.645   1.452   2.716 -1.4431 -0.3402 -2.3737
 3592SOL    EPW14814   5.609   1.523   2.754  0.0674 -0.4843 -0.5078
 3593SOL      O14815   2.552   2.775   0.454 -0.4133 -0.3724 -0.5407
 3593SOL     H114816   2.588   2.862   0.434 -0.2849 -0.4793 -0.7849
 3593SOL     H214817   2.567   2.764   0.548  1.3133 -0.9028 -0.8288
 3593SOL    EPW14818   2.558   2.783   0.462 -0.2155 -0.4404 -0.5975
 3594SOL      O14819   1.002   3.479   1.788  0.0845 -0.5429 -0.7938
 3594SOL     H114820   0.924   3.519   1.751  0.4909  1.8482  0.7094
 3594SOL     H214821   1.055   3.553   1.818  0.8709 -2.1860  2.2997
 3594SOL    EPW14822   1.000   3.492   1.787  0.2118 -0.4631 -0.3035
 3595SOL      O14823   3.195   3.427   2.491 -0.3759  0.6012 -0.1863
 3595SOL     H114824   3.257   3.453   2.559  0.2456  0.6029 -0.7406
 3595SOL     H214825   3.193   3.501   2.431  2.5232 -1.0264 -2.5753
 3595SOL    EPW14826   3.201   3.438   2.492 -0.0003  0.4277 -0.5003
 3596SOL      O14827   2.465   0.040   2.593  0.6134 -0.3580  0.2072
 3596SOL     H114828   2.446   0.114   2.535 -0.0685 -0.6835  0.0066
 3596SOL     H214829   2.403  -0.028   2.567  1.6414 -1.2300 -0.0077
 3596SOL    EPW14830   2.456   0.041   2.584  0.6503 -0.4857  0.1629
 3597SOL      O14831   4.995   1.638   1.246 -0.4191  0.1307  0.5793
 3597SOL     H114832   5.075   1.617   1.199  1.0121  0.8616  2.5237
 3597SOL     H214833   4.936   1.565   1.229  0.9865 -0.8608 -0.1894
 3597SOL    EPW14834   4.997   1.628   1.240 -0.1165  0.1029  0.7047
 3598SOL      O14835   5.219   3.374   0.392  0.2717 -0.3408 -0.1793
 3598SOL     H114836   5.130   3.372   0.428  0.4040 -0.3068  0.1471
 3598SOL     H214837   5.276   3.386   0.468  0.4494  1.6793 -0.5773
 3598SOL    EPW14838   5.215   3.375   0.404  0.3048 -0.1217 -0.1869
 3599SOL      O14839   1.603   4.609   1.945 -0.0406  0.2874 -0.0594
 3599SOL     H114840   1.687   4.651   1.964  0.8362 -0.7843 -1.4094
 3599SOL     H214841   1.548   4.681   1.913  0.8327  0.7677 -0.5532
 3599SOL    EPW14842   1.606   4.621   1.944  0.1461  0.2243 -0.2561
 3600SOL      O14843   0.682   0.182   2.557 -0.7864 -0.2050  0.2093
 3600SOL     H114844   0.674   0.276   2.541  0.6434  0.0526  0.8698
 3600SOL     H214845   0.692   0.143   2.470 -1.9417  0.1765 -0.1070
 3600SOL    EPW14846   0.682   0.188   2.546 -0.7571 -0.1368  0.2460
 3601SOL      O14847   1.165   5.307   1.701  0.0171 -0.0097  0.3889
 3601SOL     H114848   1.256   5.297   1.672  0.4190  1.6175  1.0123
 3601SOL     H214849   1.122   5.228   1.668  2.0131 -1.7072  1.5639
 3601SOL    EPW14850   1.170   5.298   1.694  0.2729 -0.0172  0.5807
 3602SOL      O14851   3.091   1.156   2.922  0.0384  0.6342  0.3031
 3602SOL     H114852   3.034   1.151   2.999  1.1137 -1.2079  1.0436
 3602SOL     H214853   3.179   1.168   2.958  0.6599 -0.9675 -0.5465
 3602SOL    EPW14854   3.094   1.157   2.934  0.2194  0.2668  0.2915
 3603SOL      O14855   1.129   5.196   0.371  0.1719 -0.3824 -0.1787
 3603SOL     H114856   1.044   5.223   0.406  0.6675  1.0486 -0.0368
 3603SOL     H214857   1.109   5.157   0.286 -0.6264 -0.0400 -0.1555
 3603SOL    EPW14858   1.118   5.194   0.366  0.1396 -0.1932 -0.1611
 3604SOL      O14859   1.053   3.913   2.469 -0.3405 -0.7509  0.2584
 3604SOL     H114860   1.103   3.890   2.547 -0.4724 -0.8834  0.3049
 3604SOL     H214861   0.964   3.929   2.501 -0.3313 -0.5317  0.1740
 3604SOL    EPW14862   1.048   3.912   2.480 -0.3536 -0.7416  0.2543
 3605SOL      O14863   1.061   5.862   1.441  0.7876 -0.5466 -0.4373
 3605SOL     H114864   1.066   5.773   1.407  0.2507 -0.1073 -1.6982
 3605SOL     H214865   0.996   5.905   1.387  1.4225  0.7690 -0.1877
 3605SOL    EPW14866   1.055   5.857   1.432  0.7981 -0.3594 -0.5452
 3606SOL      O14867   1.619   0.335   2.318 -0.1516  0.0036  0.2906
 3606SOL     H114868   1.686   0.400   2.339  0.8865 -1.6517  2.5145
 3606SOL     H214869   1.640   0.307   2.229  0.1708  1.7050 -0.2149
 3606SOL    EPW14870   1.628   0.339   2.311 -0.0065  0.0085  0.4739
 3607SOL      O14871   3.072   0.224   2.222 -0.1272 -0.4066  0.0826
 3607SOL     H114872   3.044   0.233   2.131 -0.1180 -0.9221  0.0275
 3607SOL     H214873   3.015   0.285   2.270  1.0205  1.1591 -0.4684
 3607SOL    EPW14874   3.063   0.232   2.218 -0.0038 -0.2946  0.0179
 3608SOL      O14875   3.241   3.174   1.684  0.0124  0.1565  0.2148
 3608SOL     H114876   3.279   3.116   1.750  0.4824 -0.6721 -0.7668
 3608SOL     H214877   3.314   3.231   1.658  0.1500 -0.3238 -0.4615
 3608SOL    EPW14878   3.253   3.174   1.688  0.0772  0.0169  0.0379
 3609SOL      O14879   2.761   1.995   2.426 -0.5045  0.0744 -0.0643
 3609SOL     H114880   2.723   1.907   2.427 -1.6746  0.5707  0.2371
 3609SOL     H214881   2.703   2.045   2.368 -0.5361  0.9391  0.6929
 3609SOL    EPW14882   2.751   1.991   2.420 -0.6327  0.2196  0.0486
 3610SOL      O14883   2.863   3.319   1.831 -0.0491 -0.7095  0.0860
 3610SOL     H114884   2.933   3.288   1.888  1.0689  0.8611 -0.3552
 3610SOL     H214885   2.851   3.411   1.855  0.1895 -0.1047 -1.8980
 3610SOL    EPW14886   2.869   3.325   1.839  0.0956 -0.4774 -0.1727
 3611SOL      O14887   1.723   3.610   2.401 -0.5897 -0.0436  0.5887
 3611SOL     H114888   1.702   3.686   2.346 -0.8273 -1.0214 -0.7294
 3611SOL     H214889   1.818   3.617   2.415 -0.4326 -0.0250 -0.3703
 3611SOL    EPW14890   1.731   3.619   2.396 -0.5982 -0.1459  0.3458
 3612SOL      O14891   4.383   4.211   1.265 -0.1842 -0.0703 -0.2272
 3612SOL     H114892   4.434   4.134   1.243  0.3513  0.1778  0.1292
 3612SOL     H214893   4.381   4.263   1.185  0.3536  0.0470 -0.1670
 3612SOL    EPW14894   4.388   4.208   1.254 -0.0697 -0.0314 -0.1828
 3613SOL      O14895   3.987   1.675   2.772 -0.3713  1.0246  0.2619
 3613SOL     H114896   4.027   1.588   2.764  0.2607  1.3681 -0.5727
 3613SOL     H214897   4.045   1.732   2.721 -0.8318  1.9199  0.7121
 3613SOL    EPW14898   3.998   1.672   2.766 -0.3530  1.1568  0.2209
 3614SOL      O14899   5.740   2.328   0.713  0.2335  0.4703 -0.5935
 3614SOL     H114900   5.700   2.380   0.783 -0.6140 -0.6789 -0.1884
 3614SOL     H214901   5.824   2.299   0.750 -0.0477  0.1671 -0.1784
 3614SOL    EPW14902   5.745   2.331   0.725  0.1131  0.3154 -0.5060
 3615SOL      O14903   1.779   4.821   3.234  0.1088  0.0060  0.3590
 3615SOL     H114904   1.716   4.756   3.204  0.0285  0.4527 -0.4777
 3615SOL     H214905   1.860   4.800   3.188  0.1555  0.3275  0.2869
 3615SOL    EPW14906   1.781   4.812   3.226  0.1052  0.0880  0.2621
 3616SOL      O14907   0.331   4.827   1.579  0.6785  0.6363 -0.3731
 3616SOL     H114908   0.363   4.842   1.668 -0.5303  2.8732 -0.2312
 3616SOL     H214909   0.310   4.915   1.547  0.5222 -0.1763 -2.6599
 3616SOL    EPW14910   0.332   4.838   1.585  0.5329  0.7882 -0.6019
 3617SOL      O14911   2.999   5.489   2.765  0.2670 -1.1276 -0.0372
 3617SOL     H114912   3.040   5.482   2.679  0.1551 -0.8682 -0.1129
 3617SOL     H214913   3.045   5.561   2.808 -0.3782 -0.5704 -0.2759
 3617SOL    EPW14914   3.008   5.496   2.760  0.1862 -1.0405 -0.0707
 3618SOL      O14915   1.747   4.213   1.836  0.4129 -0.7258  0.6725
 3618SOL     H114916   1.834   4.220   1.876  0.4920 -0.8194  0.5195
 3618SOL     H214917   1.698   4.287   1.871  1.1490  0.4578 -0.7098
 3618SOL    EPW14918   1.751   4.221   1.844  0.4999 -0.6096  0.5087
 3619SOL      O14919   4.643   4.054   0.243  0.0741 -0.1383  0.5390
 3619SOL     H114920   4.550   4.064   0.263  0.1113 -0.7748  1.0737
 3619SOL     H214921   4.648   4.069   0.148 -0.6168 -0.3704  0.4550
 3619SOL    EPW14922   4.633   4.057   0.235  0.0044 -0.2310  0.5871
 3620SOL      O14923   2.878   3.188   1.429  0.0773 -0.1795  0.0201
 3620SOL     H114924   2.962   3.233   1.417  1.1884 -0.7975  3.9619
 3620SOL     H214925   2.834   3.237   1.499 -1.2545 -1.8731  0.4301
 3620SOL    EPW14926   2.883   3.198   1.435  0.0538 -0.4261  0.4843
 3621SOL      O14927   2.342   1.717   1.312 -0.8748 -0.3104  0.1915
 3621SOL     H114928   2.309   1.656   1.246 -0.2986 -1.9261  1.3365
 3621SOL     H214929   2.410   1.667   1.359 -0.6332  1.0967  1.4056
 3621SOL    EPW14930   2.346   1.705   1.310 -0.7876 -0.3326  0.4431
 3622SOL      O14931   1.080   2.856   2.090 -0.0014 -0.4003  0.1424
 3622SOL     H114932   1.067   2.916   2.163  1.7894  0.5138 -0.2270
 3622SOL     H214933   0.993   2.846   2.052 -0.6508  0.5400  1.3007
 3622SOL    EPW14934   1.070   2.861   2.094  0.1204 -0.2025  0.2266
 3623SOL      O14935   1.178   0.940   2.850  0.6664  0.1948 -0.1837
 3623SOL     H114936   1.147   0.856   2.881  0.4589  0.4272  0.2432
 3623SOL     H214937   1.207   0.986   2.929 -1.0605  1.2841 -0.1416
 3623SOL    EPW14938   1.178   0.936   2.862  0.4601  0.3358 -0.1337
 3624SOL      O14939   2.333   4.040   2.269 -0.6760  0.3303 -0.0903
 3624SOL     H114940   2.387   4.114   2.299 -0.6800  0.6020 -0.7474
 3624SOL     H214941   2.245   4.078   2.260 -1.2640 -0.3594  2.0447
 3624SOL    EPW14942   2.329   4.052   2.271 -0.7392  0.2857  0.0674
 3625SOL      O14943   1.319   4.596   3.169  0.1818 -0.9710  0.0324
 3625SOL     H114944   1.321   4.572   3.262  1.5578 -1.6453 -0.1396
 3625SOL     H214945   1.319   4.692   3.169 -0.6342 -0.9664  0.7283
 3625SOL    EPW14946   1.319   4.604   3.179  0.2416 -1.0425  0.0883
 3626SOL      O14947   3.617   3.078   3.365 -0.4464 -0.2513  0.1506
 3626SOL     H114948   3.541   3.052   3.416  0.4484  0.0469  1.7064
 3626SOL     H214949   3.602   3.171   3.344  1.1008  0.9951  3.7517
 3626SOL    EPW14950   3.607   3.085   3.368 -0.1859 -0.0865  0.7007
 3627SOL      O14951   3.600   4.420   3.508 -0.1820  0.0853  0.1478
 3627SOL     H114952   3.619   4.450   3.597  0.7675 -1.0798  0.3676
 3627SOL     H214953   3.627   4.328   3.508  0.1746  0.1687 -1.4370
 3627SOL    EPW14954   3.605   4.413   3.518 -0.0427 -0.0301  0.0022
 3628SOL      O14955   1.489   3.533   1.756 -0.3363  0.2705  0.3819
 3628SOL     H114956   1.543   3.560   1.682 -1.0067 -1.0787 -0.6530
 3628SOL     H214957   1.545   3.474   1.806  0.3571  1.7223  1.3859
 3628SOL    EPW14958   1.500   3.529   1.754 -0.3338  0.2814  0.3786
 3629SOL      O14959   2.567   0.306   2.992  0.2854 -0.1052  0.1775
 3629SOL     H114960   2.475   0.325   3.010  0.1596 -1.3169  0.9262
 3629SOL     H214961   2.596   0.379   2.936 -1.4726 -0.3598 -1.1672
 3629SOL    EPW14962   2.560   0.316   2.988  0.0844 -0.2616  0.1139
 3630SOL      O14963   5.356   2.124   2.505  0.5365 -0.2576 -0.1557
 3630SOL     H114964   5.367   2.077   2.423 -0.4071  0.4239 -0.6944
 3630SOL     H214965   5.399   2.209   2.490 -0.0784  0.0658 -0.1363
 3630SOL    EPW14966   5.362   2.128   2.495  0.3703 -0.1504 -0.2111
 3631SOL      O14967   3.594   5.116   0.953 -0.0641 -0.4877 -0.6468
 3631SOL     H114968   3.673   5.086   0.998 -0.2359 -0.4931 -0.3464
 3631SOL     H214969   3.568   5.042   0.897  0.2206 -0.4341 -0.8487
 3631SOL    EPW14970   3.599   5.105   0.952 -0.0521 -0.4826 -0.6363
 3632SOL      O14971   5.166   2.788   0.020 -0.3925 -0.7110 -0.1263
 3632SOL     H114972   5.181   2.863   0.077  3.7350 -0.8824 -0.7265
 3632SOL     H214973   5.138   2.826  -0.063  0.5794  0.1214 -0.0888
 3632SOL    EPW14974   5.165   2.800   0.017  0.1515 -0.6405 -0.1864
 3633SOL      O14975   4.501   0.927   1.345  0.2032  0.0486 -0.3797
 3633SOL     H114976   4.476   1.007   1.300 -0.2204  0.0059 -0.2247
 3633SOL     H214977   4.583   0.949   1.390 -0.2166  0.5655  0.1393
 3633SOL    EPW14978   4.507   0.938   1.345  0.1133  0.0992 -0.3078
 3634SOL      O14979   3.024   0.513   0.328 -0.3683 -0.9309  0.1579
 3634SOL     H114980   3.006   0.600   0.291  3.2647  0.2344  0.6677
 3634SOL     H214981   2.982   0.515   0.414 -1.4226 -0.2138 -0.3444
 3634SOL    EPW14982   3.018   0.523   0.333 -0.0932 -0.7301  0.1587
 3635SOL      O14983   4.069   2.426   2.465 -0.0761  0.2927  0.2957
 3635SOL     H114984   4.008   2.448   2.535 -0.0793  0.5078  0.2273
 3635SOL     H214985   4.020   2.443   2.385 -0.9951 -2.4410  0.1958
 3635SOL    EPW14986   4.057   2.430   2.464 -0.1745  0.0240  0.2778
 3636SOL      O14987   0.820   2.582   3.729  0.0827  0.1945 -0.0324
 3636SOL     H114988   0.812   2.576   3.634  0.5805  1.9686 -0.2180
 3636SOL     H214989   0.738   2.621   3.758 -0.5951 -1.5169  0.4286
 3636SOL    EPW14990   0.811   2.586   3.722  0.0635  0.2012 -0.0030
 3637SOL      O14991   3.081   3.475   2.977 -0.3375 -0.0547  0.2127
 3637SOL     H114992   3.141   3.402   2.960  0.2761  0.4964 -0.0406
 3637SOL     H214993   3.134   3.554   2.962 -1.5274  0.4757 -1.5743
 3637SOL    EPW14994   3.093   3.476   2.973 -0.3990  0.0606 -0.0049
 3638SOL      O14995   0.785   3.976   1.745 -0.1411  0.0147 -0.0927
 3638SOL     H114996   0.874   3.994   1.715 -0.2479  0.2676 -0.2626
 3638SOL     H214997   0.773   4.035   1.820  0.3432 -1.0558  0.8504
 3638SOL    EPW14998   0.793   3.984   1.750 -0.1008 -0.0725 -0.0102
 3639SOL      O14999   5.075   0.204   1.490 -0.6860  0.1755  0.0660
 3639SOL     H115000   5.018   0.279   1.505  0.6822  1.1476  0.5120
 3639SOL     H215001   5.106   0.179   1.577  1.4080  1.1477 -0.3641
 3639SOL    EPW15002   5.072   0.209   1.501 -0.3166  0.3829  0.0677
 3640SOL      O15003   4.011   2.908   3.789  0.4055  0.4600  0.2887
 3640SOL     H115004   3.962   2.845   3.842  1.2570 -0.1009  0.4294
 3640SOL     H215005   3.944   2.957   3.742 -0.3103  0.0807  0.8921
 3640SOL    EPW15006   3.999   2.906   3.790  0.4200  0.3597  0.3681
 3641SOL      O15007   1.911   4.883   1.357 -0.0188  0.3946 -0.3720
 3641SOL     H115008   1.912   4.934   1.437  3.0792  2.2695 -1.3948
 3641SOL     H215009   1.854   4.931   1.298  0.6128  1.1309 -0.4053
 3641SOL    EPW15010   1.905   4.893   1.359  0.3790  0.6732 -0.4847
 3642SOL      O15011   2.926   3.387   1.003  0.4891  0.0415 -0.1470
 3642SOL     H115012   2.982   3.454   0.962 -0.3463  1.0333  0.3068
 3642SOL     H215013   2.887   3.340   0.929  0.3122  0.7078 -0.4809
 3642SOL    EPW15014   2.928   3.389   0.991  0.3811  0.2184 -0.1342
 3643SOL      O15015   0.885   3.563   2.678  0.3034  0.3568 -0.1262
 3643SOL     H115016   0.979   3.565   2.695  0.0169  0.5255  1.6351
 3643SOL     H215017   0.853   3.647   2.712 -0.7639 -0.5917  1.2982
 3643SOL    EPW15018   0.892   3.572   2.683  0.1590  0.2736  0.2137
 3644SOL      O15019   0.027   3.543   3.852  0.0753  0.0973  0.6539
 3644SOL     H115020   0.108   3.530   3.901  0.6579 -0.9076 -0.4967
 3644SOL     H215021   0.008   3.457   3.814 -1.4573  0.3589  0.7782
 3644SOL    EPW15022   0.034   3.533   3.853 -0.0260  0.0180  0.5444
 3645SOL      O15023   4.798   4.857   3.048  0.3761 -0.6804 -0.5005
 3645SOL     H115024   4.883   4.813   3.051 -0.6868 -3.0531 -1.8810
 3645SOL     H215025   4.794   4.906   3.130  3.0568 -0.4580 -0.4102
 3645SOL    EPW15026   4.806   4.857   3.057  0.5487 -0.9098 -0.6382
 3646SOL      O15027   3.123   2.432   4.013  0.0050  0.5515  0.1609
 3646SOL     H115028   3.168   2.483   4.081 -2.1123 -0.8625  2.8041
 3646SOL     H215029   3.154   2.343   4.026 -0.5554  0.2323 -0.6456
 3646SOL    EPW15030   3.131   2.428   4.022 -0.2806  0.3666  0.3568
 3647SOL      O15031   4.932   3.525   3.743  0.1968 -0.0470 -0.3398
 3647SOL     H115032   4.953   3.523   3.836 -0.4623 -0.5730 -0.1975
 3647SOL     H215033   4.836   3.521   3.739  0.2452 -0.9345 -1.0518
 3647SOL    EPW15034   4.924   3.525   3.752  0.1317 -0.1978 -0.4006
 3648SOL      O15035   1.099   4.056   1.215 -0.2539 -0.2743  0.4346
 3648SOL     H115036   1.066   4.085   1.130  0.3604 -0.1297  0.2406
 3648SOL     H215037   1.089   3.961   1.214 -0.4582 -0.2510  0.2923
 3648SOL    EPW15038   1.095   4.049   1.206 -0.2101 -0.2564  0.3987
 3649SOL      O15039   5.585   5.282   0.082 -0.6706  0.0619  0.3852
 3649SOL     H115040   5.578   5.188   0.101 -0.3300 -0.4500 -1.8281
 3649SOL     H215041   5.663   5.290   0.027  0.3614  1.9313  1.9743
 3649SOL    EPW15042   5.593   5.273   0.078 -0.5242  0.2067  0.3186
 3650SOL      O15043   5.720   1.374   3.134  0.3029  0.0297 -0.3294
 3650SOL     H115044   5.702   1.468   3.122  0.3673  0.2096  0.8782
 3650SOL     H215045   5.812   1.364   3.111  0.9733  0.7376  1.8237
 3650SOL    EPW15046   5.728   1.383   3.130  0.3813  0.1244  0.0291
 3651SOL      O15047   0.959   3.504   3.212 -0.0208 -0.1171 -0.1329
 3651SOL     H115048   0.937   3.413   3.228  1.4500 -0.6146 -0.7426
 3651SOL     H215049   1.054   3.508   3.225  0.1327  1.0229 -1.4246
 3651SOL    EPW15050   0.967   3.495   3.215  0.1525 -0.0486 -0.3357
 3652SOL      O15051   1.297   5.577   2.908 -0.6177  1.6461  0.0309
 3652SOL     H115052   1.364   5.586   2.840 -0.2907 -0.9897 -0.1020
 3652SOL     H215053   1.233   5.646   2.888 -0.2977  1.2661 -2.6739
 3652SOL    EPW15054   1.298   5.585   2.898 -0.5487  1.3244 -0.2718
 3653SOL      O15055   1.473   3.285   3.058 -0.2378 -0.2708  0.8986
 3653SOL     H115056   1.480   3.286   3.153 -0.0886  1.0977  0.9002
 3653SOL     H215057   1.548   3.337   3.028  1.0750 -2.6235 -0.1062
 3653SOL    EPW15058   1.481   3.291   3.065 -0.0819 -0.3758  0.7915
 3654SOL      O15059   0.415   4.420   1.421  0.1191 -0.2767  0.2661
 3654SOL     H115060   0.481   4.422   1.490  0.5873 -0.1813 -0.1726
 3654SOL     H215061   0.332   4.404   1.466  0.4927 -0.7703  0.7882
 3654SOL    EPW15062   0.413   4.418   1.433  0.2089 -0.3192  0.2750
 3655SOL      O15063   3.721   5.501   4.106  0.8324 -0.1918 -0.3643
 3655SOL     H115064   3.754   5.518   4.018 -0.2793 -1.7224 -1.1375
 3655SOL     H215065   3.654   5.567   4.121 -0.3668 -1.0871 -1.5204
 3655SOL    EPW15066   3.717   5.510   4.098  0.5859 -0.4506 -0.5701
 3656SOL      O15067   2.003   5.522   3.220  0.3349 -0.1067  0.0302
 3656SOL     H115068   2.016   5.552   3.310 -0.0825 -1.2016  0.4725
 3656SOL     H215069   2.007   5.602   3.167  0.7321  0.5303  0.9993
 3656SOL    EPW15070   2.005   5.534   3.224  0.3327 -0.1556  0.1808
 3657SOL      O15071   5.620   0.640   1.061 -0.1909 -0.2203  0.7422
 3657SOL     H115072   5.680   0.568   1.082 -0.3836 -0.3387  0.8886
 3657SOL     H215073   5.663   0.686   0.989 -0.3584 -0.8566  0.2206
 3657SOL    EPW15074   5.631   0.637   1.055 -0.2293 -0.3008  0.7021
 3658SOL      O15075   1.021   1.200   2.209 -0.2295  0.0368 -0.5928
 3658SOL     H115076   1.104   1.243   2.228  0.4573 -0.1526 -2.8299
 3658SOL     H215077   1.005   1.220   2.116 -2.8478  0.3243 -0.1611
 3658SOL    EPW15078   1.028   1.207   2.201 -0.4355  0.0473 -0.7854
 3659SOL      O15079   4.115   2.512   1.911 -0.1853  0.2665  0.0182
 3659SOL     H115080   4.072   2.569   1.975 -0.7652  0.1855 -0.2945
 3659SOL     H215081   4.052   2.442   1.895  0.2862 -0.1534 -0.0408
 3659SOL    EPW15082   4.104   2.510   1.916 -0.1969  0.2131 -0.0215
 3660SOL      O15083   2.606   2.267   0.748  0.1364  0.1232 -0.0108
 3660SOL     H115084   2.639   2.340   0.800 -0.0873  0.8662 -0.8929
 3660SOL     H215085   2.511   2.272   0.758  0.1131  0.0450 -0.1999
 3660SOL    EPW15086   2.600   2.275   0.755  0.1100  0.1941 -0.1251
 3661SOL      O15087   3.040   2.401   3.732 -0.2810 -0.2634 -0.0759
 3661SOL     H115088   3.050   2.488   3.772  1.1640 -0.6331  0.4361
 3661SOL     H215089   3.075   2.341   3.797 -0.3647 -1.1385 -0.8238
 3661SOL    EPW15090   3.045   2.404   3.743 -0.1358 -0.3962 -0.1010
 3662SOL      O15091   2.855   3.005   0.075 -0.0102  0.2680  0.5112
 3662SOL     H115092   2.768   3.041   0.056 -0.2222  0.0666  1.0691
 3662SOL     H215093   2.838   2.931   0.133  0.6108  1.0962  1.8281
 3662SOL    EPW15094   2.844   3.001   0.079  0.0334  0.3349  0.7112
 3663SOL      O15095   2.115   0.161   4.078 -0.0504  0.1254 -0.1694
 3663SOL     H115096   2.141   0.230   4.138 -2.4316  0.1667  0.9406
 3663SOL     H215097   2.091   0.207   3.997 -0.6451  0.5009  0.2166
 3663SOL    EPW15098   2.115   0.173   4.076 -0.3678  0.1699 -0.0098
 3664SOL      O15099   1.316   3.202   2.308 -0.5289 -0.1416 -0.2404
 3664SOL     H115100   1.309   3.291   2.344 -0.0571 -0.1215 -0.1988
 3664SOL     H215101   1.225   3.176   2.292 -0.7058  0.0971  0.3526
 3664SOL    EPW15102   1.305   3.209   2.310 -0.4974 -0.1140 -0.1727
 3665SOL      O15103   4.321   1.658   3.325  0.1454  0.5562  0.2308
 3665SOL     H115104   4.395   1.671   3.384  0.9890  1.5795 -1.0012
 3665SOL     H215105   4.340   1.715   3.250 -1.3765  0.0433 -0.5780
 3665SOL    EPW15106   4.331   1.665   3.323  0.0730  0.6106  0.0131
 3666SOL      O15107   2.699   2.391   1.900  0.5489  0.0761 -0.8008
 3666SOL     H115108   2.655   2.452   1.841  0.5809 -0.1395 -1.0463
 3666SOL     H215109   2.716   2.314   1.847  0.1356 -0.3103 -0.3775
 3666SOL    EPW15110   2.696   2.390   1.888  0.5082  0.0119 -0.7819
 3667SOL      O15111   0.611   5.232   2.649 -0.8675 -0.8343  0.3842
 3667SOL     H115112   0.526   5.205   2.614 -1.5207  0.5737  0.8147
 3667SOL     H215113   0.630   5.169   2.718 -0.6271 -2.2987 -0.9422
 3667SOL    EPW15114   0.604   5.222   2.652 -0.9116 -0.8404  0.2886
 3668SOL      O15115   0.645   0.032   0.393  0.3744  0.5110  0.2313
 3668SOL     H115116   0.563   0.014   0.347  0.7625  1.0238 -0.6808
 3668SOL     H215117   0.657  -0.043   0.450  0.6097 -0.8867 -1.5615
 3668SOL    EPW15118   0.637   0.022   0.394  0.4409  0.4166 -0.0573
 3669SOL      O15119   0.984   0.905   0.557  0.1685 -0.6266 -0.1650
 3669SOL     H115120   0.974   0.902   0.652  2.4909 -2.4777  0.1282
 3669SOL     H215121   0.972   0.814   0.529  1.3992 -0.4585 -1.3593
 3669SOL    EPW15122   0.982   0.895   0.564  0.5476 -0.8062 -0.2611
 3670SOL      O15123   0.103   5.221   2.609 -0.1595  0.3896  0.4261
 3670SOL     H115124   0.190   5.191   2.634 -0.4299 -0.2310  0.6263
 3670SOL     H215125   0.079   5.284   2.677 -0.1382  0.0725  0.7272
 3670SOL    EPW15126   0.110   5.225   2.619 -0.1861  0.2896  0.4796
 3671SOL      O15127   3.887   0.114   2.140  0.1796  0.5093 -0.5845
 3671SOL     H115128   3.844   0.159   2.067  0.5169  1.9737  0.0942
 3671SOL     H215129   3.850   0.026   2.138 -1.7797  1.2836 -0.9041
 3671SOL    EPW15130   3.879   0.110   2.132  0.0065  0.7481 -0.5462
 3672SOL      O15131   1.887   0.593   0.392 -0.1227  0.5567 -0.1302
 3672SOL     H115132   1.926   0.601   0.479  0.3679  1.6385 -0.4442
 3672SOL     H215133   1.961   0.595   0.332 -0.2705 -2.0388 -0.5305
 3672SOL    EPW15134   1.899   0.594   0.395 -0.0862  0.3952 -0.2064
 3673SOL      O15135   4.512   3.640   1.873 -0.1336 -0.4073 -0.5908
 3673SOL     H115136   4.450   3.650   1.800  0.9630 -1.2171 -1.6696
 3673SOL     H215137   4.549   3.727   1.885 -1.3051  0.0474 -0.0603
 3673SOL    EPW15138   4.509   3.650   1.866 -0.1416 -0.4452 -0.6493
 3674SOL      O15139   4.914   4.672   3.282 -0.2233  0.0870  0.1694
 3674SOL     H115140   4.958   4.729   3.344  1.7035  1.4994 -2.3027
 3674SOL     H215141   4.828   4.656   3.320  0.3455  2.0489  2.4551
 3674SOL    EPW15142   4.909   4.676   3.292  0.0430  0.4470  0.1495
 3675SOL      O15143   4.725   5.240   3.218  0.0547 -0.0018 -0.1170
 3675SOL     H115144   4.758   5.272   3.134 -0.8059 -0.8005 -0.7644
 3675SOL     H215145   4.704   5.320   3.267  1.8528  0.5202 -0.0931
 3675SOL    EPW15146   4.727   5.252   3.214  0.1547 -0.0313 -0.1835
 3676SOL      O15147   0.177   5.123   3.448 -0.1410 -0.5286 -0.6407
 3676SOL     H115148   0.240   5.134   3.520 -0.1073 -1.5923 -0.4982
 3676SOL     H215149   0.140   5.036   3.461 -1.2332 -0.1396 -1.0629
 3676SOL    EPW15150   0.180   5.115   3.457 -0.2539 -0.6006 -0.6705
 3677SOL      O15151   5.406   1.573   3.404 -0.0887 -0.2591  0.3980
 3677SOL     H115152   5.461   1.500   3.431  1.4495  0.8427  0.3450
 3677SOL     H215153   5.432   1.591   3.314  0.0230  0.7653  0.6208
 3677SOL    EPW15154   5.415   1.567   3.397  0.0873 -0.0323  0.4161
 3678SOL      O15155   0.804   2.715   0.725 -0.2420  0.2585  0.0530
 3678SOL     H115156   0.710   2.702   0.734  0.0550 -1.6976  0.8274
 3678SOL     H215157   0.841   2.687   0.809  1.0327  1.0643 -0.2015
 3678SOL    EPW15158   0.798   2.711   0.735 -0.0744  0.1358  0.1085
 3679SOL      O15159   5.736   0.580   2.383 -0.0556 -0.0445  0.5018
 3679SOL     H115160   5.798   0.601   2.452  1.0590 -1.7886  0.0820
 3679SOL     H215161   5.747   0.651   2.319  1.6859 -0.4071  0.3400
 3679SOL    EPW15162   5.744   0.590   2.383  0.2491 -0.2693  0.4398
 3680SOL      O15163   3.795   1.804   0.393 -0.0733 -0.5227 -0.5242
 3680SOL     H115164   3.732   1.795   0.322 -0.3530 -0.1870 -0.3233
 3680SOL     H215165   3.797   1.717   0.435 -0.2141 -0.6034 -0.6852
 3680SOL    EPW15166   3.789   1.793   0.390 -0.1182 -0.4955 -0.5200
 3681SOL      O15167   1.856   4.052   3.429 -0.2395 -0.1448  0.6111
 3681SOL     H115168   1.896   4.137   3.412  1.1042 -0.9445 -0.3379
 3681SOL     H215169   1.766   4.062   3.397 -0.1445  0.9454  0.6321
 3681SOL    EPW15170   1.850   4.062   3.424 -0.0861 -0.1138  0.5121
 3682SOL      O15171   4.089   0.793   0.635 -0.5515  1.0891 -0.4165
 3682SOL     H115172   4.149   0.788   0.710  0.0874 -0.4974 -0.9771
 3682SOL     H215173   4.059   0.703   0.623 -1.4700  1.5125 -1.4185
 3682SOL    EPW15174   4.092   0.782   0.642 -0.5813  0.9650 -0.5832
 3683SOL      O15175   5.444   2.356   2.752 -0.2667 -0.2211 -0.2534
 3683SOL     H115176   5.480   2.267   2.754  1.5573  0.4223 -1.4325
 3683SOL     H215177   5.496   2.405   2.816 -0.7455  0.1768 -0.1603
 3683SOL    EPW15178   5.454   2.352   2.759 -0.1232 -0.1100 -0.3692
 3684SOL      O15179   1.852   5.529   0.720 -1.3635 -0.4290  0.3951
 3684SOL     H115180   1.826   5.515   0.811 -0.9645 -2.1685  0.2831
 3684SOL     H215181   1.849   5.441   0.681 -0.7613  0.1688 -1.0664
 3684SOL    EPW15182   1.849   5.518   0.725 -1.2567 -0.5508  0.2272
 3685SOL      O15183   3.770   4.797   3.028 -0.1601 -0.2048 -0.3953
 3685SOL     H115184   3.770   4.893   3.024  0.1521 -0.2199 -0.7073
 3685SOL     H215185   3.771   4.768   2.937  0.8923 -0.5065 -0.2941
 3685SOL    EPW15186   3.770   4.804   3.018 -0.0145 -0.2386 -0.4178
 3686SOL      O15187   3.986   5.317   0.626  0.0657  0.0412  0.1894
 3686SOL     H115188   3.962   5.247   0.688 -1.6929  1.2477  0.9473
 3686SOL     H215189   3.926   5.304   0.553  1.8378 -1.0999 -1.1662
 3686SOL    EPW15190   3.977   5.308   0.625  0.0672  0.0482  0.1256
 3687SOL      O15191   5.615   4.879   2.818  0.1075  0.3533  0.5824
 3687SOL     H115192   5.566   4.797   2.828  2.4206 -1.4663 -1.6559
 3687SOL     H215193   5.705   4.855   2.842  0.8519  2.2058 -0.2232
 3687SOL    EPW15194   5.620   4.867   2.822  0.4337  0.3568  0.2577
 3688SOL      O15195   0.386   2.096   2.818  0.6240  0.0819  0.3188
 3688SOL     H115196   0.420   2.070   2.903 -0.0572 -2.1908 -0.0175
 3688SOL     H215197   0.462   2.090   2.759  0.6798 -0.3160  0.4251
 3688SOL    EPW15198   0.398   2.093   2.821  0.5573 -0.2030  0.2942
 3689SOL      O15199   1.033   2.337   2.720  0.2177 -0.2394 -0.4133
 3689SOL     H115200   1.100   2.313   2.656  0.8877  1.8967 -0.5714
 3689SOL     H215201   1.042   2.431   2.731 -1.6593 -0.1454  0.8505
 3689SOL    EPW15202   1.041   2.344   2.714  0.0889 -0.0015 -0.2953
 3690SOL      O15203   0.479   0.469   3.559  0.7757 -0.4442 -0.1456
 3690SOL     H115204   0.411   0.439   3.500  0.1134 -1.9698  1.3042
 3690SOL     H215205   0.444   0.453   3.647  1.8427  1.4407  0.6855
 3690SOL    EPW15206   0.468   0.464   3.562  0.8189 -0.4059  0.0977
 3691SOL      O15207   5.244   2.789   3.648 -0.5917  0.3001  0.1901
 3691SOL     H115208   5.158   2.818   3.617  0.0554  1.2346 -0.7853
 3691SOL     H215209   5.237   2.794   3.744 -1.9379 -0.6100  0.1688
 3691SOL    EPW15210   5.234   2.793   3.655 -0.6663  0.3027  0.0838
 3692SOL      O15211   2.795   0.513   1.529  0.1609 -0.0901 -0.2933
 3692SOL     H115212   2.744   0.515   1.610  3.0259 -0.1829  1.6992
 3692SOL     H215213   2.825   0.603   1.517 -1.4517  0.2483 -2.1824
 3692SOL    EPW15214   2.793   0.523   1.537  0.2945 -0.0639 -0.2823
 3693SOL      O15215   1.087   3.189   3.491 -0.3572  0.1619 -0.0622
 3693SOL     H115216   1.082   3.254   3.561 -0.4234  2.0378 -1.7451
 3693SOL     H215217   1.175   3.153   3.498  0.3361  1.7481 -0.1888
 3693SOL    EPW15218   1.096   3.192   3.500 -0.2903  0.5312 -0.2553
 3694SOL      O15219   1.024   0.460   0.041 -0.4386  0.1119  0.3889
 3694SOL     H115220   1.033   0.438  -0.052  0.6524 -1.2299  0.7702
 3694SOL     H215221   1.002   0.377   0.083 -1.2388  0.7687  1.2997
 3694SOL    EPW15222   1.023   0.449   0.036 -0.4076  0.0388  0.5267
 3695SOL      O15223   2.620   0.483   0.881 -0.0833  0.3059 -0.1437
 3695SOL     H115224   2.619   0.389   0.900 -1.2075  0.3280 -0.0048
 3695SOL     H215225   2.677   0.520   0.948  2.6112 -0.5593 -1.8047
 3695SOL    EPW15226   2.626   0.477   0.890  0.0842  0.2160 -0.3061
 3696SOL      O15227   1.293   4.391   1.783  0.5088  0.7596 -0.4333
 3696SOL     H115228   1.287   4.296   1.790  1.0413  0.7311 -0.3235
 3696SOL     H215229   1.242   4.424   1.857 -0.5939  0.5832 -1.0989
 3696SOL    EPW15230   1.287   4.385   1.792  0.4479  0.7378 -0.4926
 3697SOL      O15231   5.738   1.655   2.005 -0.2825 -0.0605  0.0127
 3697SOL     H115232   5.751   1.742   1.965 -3.1918 -0.4909 -2.2127
 3697SOL     H215233   5.684   1.672   2.082  0.6941  0.2373  0.6506
 3697SOL    EPW15234   5.734   1.666   2.009 -0.4887 -0.0746 -0.1567
 3698SOL      O15235   5.789   3.193   1.081  0.5699  0.1592  0.6789
 3698SOL     H115236   5.715   3.179   1.140 -0.0210 -0.4731 -0.1662
 3698SOL     H215237   5.749   3.233   1.003  1.4706  1.8505  1.0418
 3698SOL    EPW15238   5.777   3.195   1.079  0.6029  0.2722  0.6275
 3699SOL      O15239   4.152   3.228   3.206 -0.0709 -0.3643 -0.0144
 3699SOL     H115240   4.155   3.167   3.131  2.3511 -0.4785  0.1080
 3699SOL     H215241   4.094   3.298   3.176  2.9274  1.0791 -3.3066
 3699SOL    EPW15242   4.146   3.229   3.195  0.5073 -0.2225 -0.3525
 3700SOL      O15243   3.044   4.870   3.055  0.7476 -0.5238  0.9410
 3700SOL     H115244   3.041   4.779   3.025  0.9976 -0.8686  1.9076
 3700SOL     H215245   3.032   4.864   3.150 -1.5806  0.6386  0.7679
 3700SOL    EPW15246   3.043   4.860   3.062  0.5259 -0.4366  1.0257
 3701SOL      O15247   0.267   0.953   1.445  0.7649  0.0467 -0.6949
 3701SOL     H115248   0.268   0.858   1.431 -0.9164  0.0040 -0.6615
 3701SOL     H215249   0.175   0.974   1.460  1.2457  1.5477  0.3000
 3701SOL    EPW15250   0.258   0.945   1.445  0.6368  0.2022 -0.5852
 3702SOL      O15251   3.277   3.672   2.963 -0.0652 -0.1143  0.4212
 3702SOL     H115252   3.345   3.623   3.009  1.1433 -0.6990 -1.8459
 3702SOL     H215253   3.286   3.646   2.872 -2.0154  1.3729 -0.2683
 3702SOL    EPW15254   3.285   3.664   2.958 -0.1443 -0.0180  0.1058
 3703SOL      O15255   2.536   3.203   1.514 -0.4358  0.1459 -0.7523
 3703SOL     H115256   2.554   3.121   1.560  0.2276 -0.0831 -1.4161
 3703SOL     H215257   2.536   3.180   1.422 -1.5787  0.6460 -0.8905
 3703SOL    EPW15258   2.538   3.192   1.509 -0.4870  0.1748 -0.8379
 3704SOL      O15259   3.438   5.667   2.836  0.3532  0.1610  0.6300
 3704SOL     H115260   3.445   5.656   2.741 -0.9726 -0.9643  0.6344
 3704SOL     H215261   3.467   5.584   2.872 -0.8635 -0.0705  1.1153
 3704SOL    EPW15262   3.442   5.657   2.830  0.0820  0.0163  0.6822
 3705SOL      O15263   1.414   1.664   0.791  0.3940 -0.0464  0.3083
 3705SOL     H115264   1.489   1.687   0.845 -0.4103  0.2173  1.3553
 3705SOL     H215265   1.419   1.569   0.781  0.5732 -0.0878  0.8142
 3705SOL    EPW15266   1.422   1.656   0.795  0.3273 -0.0227  0.4740
 3706SOL      O15267   3.173   1.961   1.452 -0.1217  0.4894  0.2779
 3706SOL     H115268   3.122   1.938   1.374 -3.1074  0.4161  2.0988
 3706SOL     H215269   3.145   1.898   1.518  1.2059  1.4564  1.8361
 3706SOL    EPW15270   3.164   1.952   1.451 -0.2986  0.5848  0.6384
 3707SOL      O15271   2.156   1.773   3.048  0.6390 -0.5024 -0.0426
 3707SOL     H115272   2.176   1.683   3.019 -0.2349 -1.0849  1.0789
 3707SOL     H215273   2.074   1.764   3.096 -0.2600  1.1610 -1.2006
 3707SOL    EPW15274   2.150   1.762   3.050  0.4498 -0.3870 -0.0465
 3708SOL      O15275   5.008   2.809   1.942 -0.5232  0.1469  0.2831
 3708SOL     H115276   5.016   2.730   1.995  2.6581 -0.5161 -0.9043
 3708SOL     H215277   5.096   2.848   1.944 -0.7984  1.2357 -2.6508
 3708SOL    EPW15278   5.019   2.805   1.948 -0.2132  0.1923 -0.1566
 3709SOL      O15279   1.775   0.009   3.803 -0.3049  0.3113 -0.6136
 3709SOL     H115280   1.812   0.045   3.884 -1.1043 -0.4887  0.1320
 3709SOL     H215281   1.847   0.010   3.741 -0.0975  2.4792 -0.4058
 3709SOL    EPW15282   1.786   0.013   3.805 -0.3681  0.4572 -0.5119
 3710SOL      O15283   2.183   0.385   0.764  0.2021  0.2013 -0.2614
 3710SOL     H115284   2.231   0.324   0.820 -4.0141 -2.5051  0.9075
 3710SOL     H215285   2.177   0.341   0.680 -2.4726 -1.0165  0.4553
 3710SOL    EPW15286   2.187   0.374   0.761 -0.5330 -0.2173 -0.0602
 3711SOL      O15287   2.542   3.060   3.347 -0.3229 -0.0469  0.0014
 3711SOL     H115288   2.470   3.096   3.295  0.1125 -1.2431 -1.5266
 3711SOL     H215289   2.502   2.992   3.401 -0.7185  0.9584  1.0135
 3711SOL    EPW15290   2.530   3.057   3.347 -0.3187 -0.0672 -0.0536
 3712SOL      O15291   0.160   2.420   2.028  0.5223  0.7011  0.0536
 3712SOL     H115292   0.066   2.435   2.041  0.6704  0.7586  1.1334
 3712SOL     H215293   0.195   2.506   2.005  0.5232  0.9857  1.0551
 3712SOL    EPW15294   0.154   2.431   2.027  0.5382  0.7376  0.2756
 3713SOL      O15295   3.935   1.080   2.350 -0.3044 -0.0499  0.5766
 3713SOL     H115296   3.861   1.142   2.348 -1.4593 -1.3736  0.7624
 3713SOL     H215297   3.904   1.004   2.301  0.2298 -1.3821  2.2114
 3713SOL    EPW15298   3.924   1.079   2.344 -0.3706 -0.3332  0.7708
 3714SOL      O15299   2.563   4.689   3.242 -0.4860 -0.4842 -0.1026
 3714SOL     H115300   2.609   4.610   3.214  1.3230  1.0290 -1.7016
 3714SOL     H215301   2.616   4.724   3.312  0.5507  0.9414 -1.5348
 3714SOL    EPW15302   2.573   4.684   3.246 -0.1824 -0.1707 -0.4260
 3715SOL      O15303   5.382   0.220   3.426  0.5327  0.5045 -0.3310
 3715SOL     H115304   5.304   0.181   3.388 -0.5423  0.3635  1.8525
 3715SOL     H215305   5.443   0.147   3.437 -0.4042 -0.1065  1.1466
 3715SOL    EPW15306   5.380   0.208   3.423  0.3181  0.4243  0.0595
 3716SOL      O15307   4.826   1.938   2.057  0.1501  0.8100 -0.3890
 3716SOL     H115308   4.910   1.984   2.064  0.3107  0.3511  0.8818
 3716SOL     H215309   4.839   1.876   1.985  1.9957 -1.4036  1.6854
 3716SOL    EPW15310   4.837   1.937   2.050  0.3641  0.5249 -0.0322
 3717SOL      O15311   4.603   5.739   1.169  0.2948 -0.1283  0.0250
 3717SOL     H115312   4.673   5.678   1.195 -0.8726 -1.5173  0.0118
 3717SOL     H215313   4.547   5.746   1.246  0.3662  0.8744 -0.0094
 3717SOL    EPW15314   4.605   5.733   1.180  0.1779 -0.1695  0.0199
 3718SOL      O15315   1.508   0.946   3.702  0.6038 -0.0215  0.5647
 3718SOL     H115316   1.500   0.978   3.613 -1.2006 -0.8026  0.4006
 3718SOL     H215317   1.419   0.953   3.738  0.6086 -2.5988  1.2575
 3718SOL    EPW15318   1.498   0.950   3.697  0.4118 -0.3797  0.6211
 3719SOL      O15319   0.724   1.347   1.861 -0.1804 -0.0880 -0.0080
 3719SOL     H115320   0.685   1.279   1.915 -0.6346  0.4341  0.3321
 3719SOL     H215321   0.809   1.311   1.834 -1.2130 -1.5863 -1.4565
 3719SOL    EPW15322   0.729   1.336   1.864 -0.3390 -0.1921 -0.1262
 3720SOL      O15323   3.549   0.297   1.035 -0.5950  0.1998  0.1483
 3720SOL     H115324   3.636   0.260   1.051 -0.1119  1.1362 -0.2512
 3720SOL     H215325   3.505   0.231   0.981 -0.4500 -0.6685  1.0585
 3720SOL    EPW15326   3.554   0.286   1.031 -0.5280  0.2071  0.2028
 3721SOL      O15327   5.838   1.829   1.814  0.0002  0.2162 -0.3158
 3721SOL     H115328   5.862   1.894   1.747 -0.1205  0.1379 -0.4329
 3721SOL     H215329   5.894   1.754   1.795 -0.9928 -0.3311 -1.1695
 3721SOL    EPW15330   5.847   1.828   1.805 -0.1186  0.1495 -0.4194
 3722SOL      O15331   5.699   1.497   4.050  0.3298 -0.6881 -0.3381
 3722SOL     H115332   5.720   1.410   4.085  0.0735 -0.9969 -0.9168
 3722SOL     H215333   5.647   1.478   3.971 -2.4306  0.0023  1.2009
 3722SOL    EPW15334   5.695   1.485   4.045  0.0080 -0.6474 -0.2356
 3723SOL      O15335   0.582   4.931   3.125  0.3291 -0.4718  0.1181
 3723SOL     H115336   0.504   4.907   3.175 -1.4453  2.3158 -1.0620
 3723SOL     H215337   0.632   4.987   3.184  0.1666 -0.2673  0.0636
 3723SOL    EPW15338   0.579   4.935   3.137  0.1225 -0.1526 -0.0136
 3724SOL      O15339   3.990   3.856   3.950 -0.0263 -0.4338  0.1765
 3724SOL     H115340   4.011   3.846   3.857 -0.7711 -2.7918  0.2004
 3724SOL     H215341   4.070   3.829   3.995 -0.5896 -2.1952  0.1983
 3724SOL    EPW15342   4.000   3.852   3.945 -0.1659 -0.8732  0.1814
 3725SOL      O15343   3.860   1.758   3.003 -0.3585  0.1282 -0.5004
 3725SOL     H115344   3.891   1.698   3.071 -4.6059 -1.5125  0.2853
 3725SOL     H215345   3.916   1.740   2.927  1.3156 -1.5642  1.0405
 3725SOL    EPW15346   3.870   1.750   3.002 -0.6330 -0.2274 -0.2522
 3726SOL      O15347   5.511   5.543   1.592  0.2643 -0.1990 -0.1172
 3726SOL     H115348   5.518   5.629   1.634 -2.8504 -0.9750  2.4330
 3726SOL     H215349   5.430   5.547   1.542 -1.0848 -2.1136  1.7015
 3726SOL    EPW15350   5.504   5.553   1.591 -0.2118 -0.4861  0.3488
 3727SOL      O15351   3.476   3.878   2.412 -0.6046  0.2183  0.3623
 3727SOL     H115352   3.424   3.957   2.398 -3.1750 -1.0926  1.6949
 3727SOL     H215353   3.516   3.890   2.497 -1.2819 -0.0096  0.7248
 3727SOL    EPW15354   3.474   3.888   2.419 -0.9511  0.0541  0.5431
 3728SOL      O15355   5.470   2.949   3.333 -0.0599  0.2628  0.2445
 3728SOL     H115356   5.451   2.875   3.390  1.5474 -1.1353 -0.8930
 3728SOL     H215357   5.563   2.938   3.311 -0.4133  1.1711 -1.9595
 3728SOL    EPW15358   5.478   2.940   3.336  0.0738  0.2105 -0.1119
 3729SOL      O15359   3.576   1.761   1.119  0.1502  0.2147  0.3898
 3729SOL     H115360   3.657   1.729   1.159  2.0217  2.4835 -1.3149
 3729SOL     H215361   3.581   1.856   1.126  0.2660  0.7936 -4.1640
 3729SOL    EPW15362   3.585   1.767   1.124  0.3622  0.5185 -0.2778
 3730SOL      O15363   0.368   1.289   2.921 -1.0018  0.4109 -0.2542
 3730SOL     H115364   0.325   1.252   2.998  0.1689 -0.0485  0.2031
 3730SOL     H215365   0.380   1.215   2.862 -2.3932  0.8635 -1.1381
 3730SOL    EPW15366   0.365   1.277   2.923 -1.0254  0.4102 -0.2997
 3731SOL      O15367   4.603   0.761   0.622  0.1698 -0.1110  0.0003
 3731SOL     H115368   4.641   0.794   0.703  1.9416  0.0911 -0.8758
 3731SOL     H215369   4.577   0.671   0.643 -1.8617  0.7474  1.5105
 3731SOL    EPW15370   4.604   0.755   0.633  0.1421  0.0021  0.0680
 3732SOL      O15371   2.668   5.496   3.488 -1.1955  0.4571 -0.0110
 3732SOL     H115372   2.742   5.529   3.539 -0.4766  0.7858 -1.2300
 3732SOL     H215373   2.622   5.438   3.548  1.3842 -1.6612  0.1084
 3732SOL    EPW15374   2.671   5.493   3.500 -0.8436  0.2662 -0.1283
 3733SOL      O15375   1.631   5.430   0.261 -0.1603  0.4225 -0.2973
 3733SOL     H115376   1.597   5.519   0.249  1.2281  0.9215 -0.7486
 3733SOL     H215377   1.680   5.412   0.181  0.2704 -0.4262  0.1417
 3733SOL    EPW15378   1.633   5.437   0.251  0.0338  0.3852 -0.2986
 3734SOL      O15379   1.426   2.956   4.022  0.2591 -0.2487  0.2914
 3734SOL     H115380   1.363   2.978   3.953  0.9726 -1.7736 -0.9000
 3734SOL     H215381   1.404   3.016   4.094 -0.3359  1.5769 -1.3231
 3734SOL    EPW15382   1.417   2.965   4.022  0.2718 -0.2166 -0.0079
 3735SOL      O15383   5.663   0.380   0.243 -0.1913  0.6497 -0.4756
 3735SOL     H115384   5.597   0.385   0.174 -0.3046  1.0806 -0.3396
 3735SOL     H215385   5.660   0.289   0.273  0.0722  0.3874 -1.2441
 3735SOL    EPW15386   5.655   0.370   0.239 -0.1753  0.6677 -0.5431
 3736SOL      O15387   1.174   0.999   1.535  0.0294  0.0510  0.8546
 3736SOL     H115388   1.085   0.982   1.567 -0.3464 -2.1248 -1.0192
 3736SOL     H215389   1.161   1.050   1.455  0.3828 -0.7996  0.2368
 3736SOL    EPW15390   1.163   1.002   1.530  0.0270 -0.2718  0.5888
 3737SOL      O15391   2.067   3.506   3.252  0.5544  0.1398 -0.0522
 3737SOL     H115392   2.060   3.447   3.177  0.9481 -1.8840  1.4041
 3737SOL     H215393   1.980   3.503   3.292  0.6645  0.2946  0.1987
 3737SOL    EPW15394   2.057   3.499   3.249  0.6082 -0.0596  0.1299
 3738SOL      O15395   0.096   5.116   2.955  0.5012  0.3075 -0.1509
 3738SOL     H115396   0.093   5.079   3.043  1.5295 -1.5131 -0.8278
 3738SOL     H215397   0.182   5.157   2.950  0.4044  0.4935 -0.2763
 3738SOL    EPW15398   0.105   5.116   2.964  0.6006  0.1331 -0.2365
 3739SOL      O15399   3.585   1.738   0.199  0.0576  0.0603 -0.2042
 3739SOL     H115400   3.501   1.765   0.163 -0.2231  0.3515  0.6363
 3739SOL     H215401   3.629   1.692   0.127 -1.6807 -1.9909 -0.0659
 3739SOL    EPW15402   3.581   1.736   0.187 -0.1577 -0.1275 -0.0998
 3740SOL      O15403   3.871   3.725   1.213 -0.5671 -0.3446 -0.0701
 3740SOL     H115404   3.920   3.806   1.196 -1.6438  0.0585 -1.5340
 3740SOL     H215405   3.852   3.727   1.306  2.1698 -0.5379  0.5720
 3740SOL    EPW15406   3.874   3.734   1.221 -0.3900 -0.3223 -0.1578
 3741SOL      O15407   4.059   1.746   1.399  0.4028 -0.3877  0.4597
 3741SOL     H115408   3.975   1.736   1.355  0.1827  0.6895  0.6023
 3741SOL     H215409   4.123   1.742   1.328  0.3476 -2.3017  0.4641
 3741SOL    EPW15410   4.057   1.745   1.387  0.3734 -0.4770  0.4754
 3742SOL      O15411   4.780   1.189   1.144 -0.1132  0.0330  0.0684
 3742SOL     H115412   4.769   1.213   1.052 -0.6776  3.0318  0.7786
 3742SOL     H215413   4.692   1.166   1.173 -0.5727  2.0189  0.4620
 3742SOL    EPW15414   4.769   1.189   1.137 -0.2224  0.5648  0.1862
 3743SOL      O15415   3.438   1.169   1.821  0.2914  0.2635  0.2598
 3743SOL     H115416   3.375   1.154   1.891 -0.0622 -1.2851 -0.3539
 3743SOL     H215417   3.409   1.111   1.750  2.4326 -0.5290 -0.0189
 3743SOL    EPW15418   3.428   1.162   1.821  0.4821  0.0137  0.1646
 3744SOL      O15419   5.157   4.929   1.915  0.5720 -0.3202  0.4643
 3744SOL     H115420   5.161   4.946   2.009  1.4300  0.9435  0.2198
 3744SOL     H215421   5.095   4.994   1.881 -0.3499 -1.2765  0.2306
 3744SOL    EPW15422   5.151   4.938   1.921  0.5652 -0.2874  0.4133
 3745SOL      O15423   2.097   0.550   3.811 -0.5182 -0.7363 -0.0564
 3745SOL     H115424   2.175   0.566   3.864 -0.1822 -1.8497 -0.2029
 3745SOL     H215425   2.037   0.621   3.835  1.3311  1.5144 -1.5324
 3745SOL    EPW15426   2.099   0.559   3.819 -0.2851 -0.6150 -0.2295
 3746SOL      O15427   2.617   1.004   0.552 -0.2307 -0.0164 -0.6304
 3746SOL     H115428   2.569   0.961   0.622 -0.0037 -0.4159 -0.7172
 3746SOL     H215429   2.553   1.013   0.481  0.1184 -1.7005 -1.2243
 3746SOL    EPW15430   2.605   1.000   0.552 -0.1693 -0.2387 -0.7030
 3747SOL      O15431   1.869   2.376   2.623  0.0779  0.2496 -0.4667
 3747SOL     H115432   1.801   2.443   2.623  0.6485  0.8952  1.2881
 3747SOL     H215433   1.906   2.379   2.712  1.3004 -1.1945 -0.8733
 3747SOL    EPW15434   1.866   2.383   2.633  0.2692  0.1644 -0.3229
 3748SOL      O15435   4.144   3.124   1.479 -0.3092 -0.4655 -1.0844
 3748SOL     H115436   4.083   3.171   1.421  0.4551  3.9993  1.2840
 3748SOL     H215437   4.095   3.112   1.560  0.0151 -2.6529 -1.1741
 3748SOL    EPW15438   4.132   3.128   1.481 -0.1931 -0.2225 -0.8413
 3749SOL      O15439   3.655   5.601   1.379 -0.0637 -0.1826  0.1764
 3749SOL     H115440   3.730   5.628   1.325 -0.6718  0.3914 -0.3999
 3749SOL     H215441   3.580   5.643   1.338 -0.9428 -2.0431 -0.2445
 3749SOL    EPW15442   3.655   5.608   1.369 -0.2223 -0.3198  0.0701
 3750SOL      O15443   5.350   5.258   2.580 -0.5665 -0.4295 -0.4244
 3750SOL     H115444   5.320   5.232   2.667 -0.5989 -0.6019 -0.4885
 3750SOL     H215445   5.294   5.210   2.519 -0.7289 -0.0971 -0.5416
 3750SOL    EPW15446   5.341   5.250   2.583 -0.5873 -0.4125 -0.4438
 3751SOL      O15447   3.253   3.160   2.489 -0.0795 -0.2647 -0.1876
 3751SOL     H115448   3.238   3.253   2.475  0.5160 -0.1065  0.1489
 3751SOL     H215449   3.192   3.116   2.431 -0.0409  0.3425 -0.6964
 3751SOL    EPW15450   3.245   3.165   2.481 -0.0119 -0.1830 -0.2060
 3752SOL      O15451   3.496   1.213   2.204  0.0158 -0.0511 -0.3517
 3752SOL     H115452   3.581   1.228   2.163 -0.3609  0.6008 -0.9170
 3752SOL     H215453   3.487   1.118   2.208  0.2359 -0.1184 -1.4204
 3752SOL    EPW15454   3.504   1.205   2.200 -0.0009  0.0112 -0.5261
 3753SOL      O15455   1.966   2.748   2.377 -0.2263 -0.7348 -0.0650
 3753SOL     H115456   1.902   2.739   2.307 -0.2296  0.3214 -0.2101
 3753SOL     H215457   2.027   2.675   2.363 -0.1525 -0.4634 -1.2506
 3753SOL    EPW15458   1.966   2.739   2.368 -0.2188 -0.5932 -0.2069
 3754SOL      O15459   3.229   3.737   2.474  0.2740 -0.3602  0.1726
 3754SOL     H115460   3.320   3.767   2.468 -0.1552  1.9776  3.0767
 3754SOL     H215461   3.196   3.741   2.384  2.7414 -0.3525 -0.8079
 3754SOL    EPW15462   3.235   3.740   2.464  0.4914 -0.1100  0.3778
 3755SOL      O15463   5.135   0.841   3.935  0.0491 -0.3903 -0.4290
 3755SOL     H115464   5.150   0.932   3.908 -1.2829  0.1625  0.5877
 3755SOL     H215465   5.198   0.827   4.005 -1.5669  0.7458  1.3728
 3755SOL    EPW15466   5.143   0.850   3.939 -0.2654 -0.2101 -0.1284
 3756SOL      O15467   1.483   2.241   3.100  0.7022  0.5078 -0.2257
 3756SOL     H115468   1.561   2.280   3.139  1.1677  0.2956 -0.9387
 3756SOL     H215469   1.507   2.224   3.009  1.0857 -2.9431  0.3986
 3756SOL    EPW15470   1.494   2.244   3.094  0.7928  0.1171 -0.2352
 3757SOL      O15471   0.227   5.218   1.975 -0.5361 -0.1498 -0.7576
 3757SOL     H115472   0.297   5.195   1.914 -0.1917  1.7312 -1.1446
 3757SOL     H215473   0.183   5.292   1.934  1.0116  2.6169  2.1328
 3757SOL    EPW15474   0.230   5.223   1.964 -0.3342  0.3460 -0.4905
 3758SOL      O15475   1.798   3.604   3.764  0.1421 -0.2801 -0.0416
 3758SOL     H115476   1.878   3.555   3.784  0.6121  0.1522 -0.7989
 3758SOL     H215477   1.820   3.653   3.685 -1.2222 -0.9672 -0.8763
 3758SOL    EPW15478   1.809   3.604   3.758  0.0467 -0.3072 -0.2115
 3759SOL      O15479   4.171   1.589   3.996  0.5430  0.8220  0.1404
 3759SOL     H115480   4.239   1.541   4.044  1.2280  0.4479 -1.1461
 3759SOL     H215481   4.089   1.559   4.035  0.9099 -1.8137 -0.8883
 3759SOL    EPW15482   4.170   1.581   4.005  0.6552  0.5009 -0.1066
 3760SOL      O15483   4.489   0.604   1.563  0.5086  0.2856  0.0395
 3760SOL     H115484   4.553   0.562   1.505  0.9374 -1.0147  1.3927
 3760SOL     H215485   4.540   0.667   1.614  0.0915  1.5911 -1.1153
 3760SOL    EPW15486   4.501   0.606   1.562  0.5098  0.2862  0.0607
 3761SOL      O15487   1.482   2.774   1.811 -0.1224 -0.4013  0.1380
 3761SOL     H115488   1.407   2.738   1.764  0.0763 -0.3321 -0.2325
 3761SOL     H215489   1.462   2.759   1.904 -1.2084  0.7948  0.1287
 3761SOL    EPW15490   1.472   2.769   1.816 -0.2170 -0.2663  0.0975
 3762SOL      O15491   1.836   4.460   3.629  0.0175 -0.0321 -0.0324
 3762SOL     H115492   1.896   4.515   3.579 -0.9349  0.0715 -1.0831
 3762SOL     H215493   1.885   4.378   3.643  0.6500  0.2953 -0.2883
 3762SOL    EPW15494   1.848   4.457   3.626 -0.0166  0.0139 -0.1717
 3763SOL      O15495   0.293   4.013   0.435  0.0257 -0.5050  0.6343
 3763SOL     H115496   0.231   3.971   0.494  0.1823 -0.0589  1.1284
 3763SOL     H215497   0.376   4.013   0.484 -0.2553  1.5429  1.2052
 3763SOL    EPW15498   0.295   4.009   0.447  0.0124 -0.2390  0.7479
 3764SOL      O15499   2.989   0.308   0.987 -0.1653  0.4366 -0.4761
 3764SOL     H115500   2.987   0.392   0.941  0.4735  0.6582 -0.0984
 3764SOL     H215501   2.897   0.281   0.990 -0.7568  2.3465  1.6603
 3764SOL    EPW15502   2.979   0.314   0.982 -0.1603  0.6640 -0.2079
 3765SOL      O15503   0.125   4.837   3.443 -0.0577 -0.7126  0.3480
 3765SOL     H115504   0.051   4.847   3.383 -0.5824 -1.3066  0.8691
 3765SOL     H215505   0.090   4.784   3.514  1.0921 -1.6471  0.2417
 3765SOL    EPW15506   0.113   4.832   3.444  0.0090 -0.8757  0.3923
 3766SOL      O15507   0.351   5.520   0.024 -0.3685  0.2210  0.1970
 3766SOL     H115508   0.428   5.475  -0.011 -0.6458 -0.4694  0.4539
 3766SOL     H215509   0.382   5.608   0.043 -0.3904  0.8719 -2.4505
 3766SOL    EPW15510   0.362   5.524   0.023 -0.4004  0.2168 -0.0580
 3767SOL      O15511   0.722   0.050   2.928  0.6237 -0.4223  0.0184
 3767SOL     H115512   0.707   0.044   3.022 -2.2281 -0.4156 -0.3285
 3767SOL     H215513   0.748   0.141   2.913 -0.2311 -0.0423  0.7040
 3767SOL    EPW15514   0.723   0.059   2.936  0.2283 -0.3810  0.0545
 3768SOL      O15515   2.065   1.098   1.246  0.1121  0.0064  0.5059
 3768SOL     H115516   2.104   1.078   1.161 -0.9568  0.9045 -0.2351
 3768SOL     H215517   2.040   1.190   1.239 -1.1925 -0.2634  1.3152
 3768SOL    EPW15518   2.067   1.106   1.236 -0.1411  0.0734  0.5132
 3769SOL      O15519   3.597   0.138   0.153 -0.7453  0.6420  0.3259
 3769SOL     H115520   3.513   0.116   0.192  0.1453 -1.9954  0.9855
 3769SOL     H215521   3.660   0.127   0.224  0.2439  2.0249 -0.2848
 3769SOL    EPW15522   3.595   0.134   0.165 -0.5448  0.5082  0.3311
 3770SOL      O15523   0.343   5.565   1.865  0.0058  0.2794 -0.0932
 3770SOL     H115524   0.378   5.484   1.828 -1.6391 -0.8126  0.6035
 3770SOL     H215525   0.257   5.540   1.900  0.1231  1.9682  1.5653
 3770SOL    EPW15526   0.338   5.554   1.865 -0.1572  0.3431  0.1581
 3771SOL      O15527   2.129   5.051   0.101  0.1201  0.0760  0.5507
 3771SOL     H115528   2.082   4.977   0.064  0.8889 -1.4965  2.5434
 3771SOL     H215529   2.167   5.018   0.182  2.8309  1.8601  0.1584
 3771SOL    EPW15530   2.128   5.040   0.105  0.4913  0.0986  0.7214
 3772SOL      O15531   5.560   5.430   0.895  0.5904  0.2296  0.1360
 3772SOL     H115532   5.487   5.381   0.932 -0.2651  1.6270  0.3820
 3772SOL     H215533   5.617   5.449   0.970  0.5193  0.2874  0.1749
 3772SOL    EPW15534   5.559   5.427   0.907  0.4915  0.3848  0.1664
 3773SOL      O15535   3.593   2.056   1.097  0.3561 -0.2908 -0.0172
 3773SOL     H115536   3.677   2.082   1.135  0.1888 -1.6040  1.3492
 3773SOL     H215537   3.598   2.086   1.006  1.6059  1.1569  0.4773
 3773SOL    EPW15538   3.603   2.062   1.091  0.4716 -0.2764  0.1813
 3774SOL      O15539   3.716   2.738   4.114 -0.0881 -0.2291 -0.5697
 3774SOL     H115540   3.765   2.820   4.099 -0.1977 -0.1679 -0.5958
 3774SOL     H215541   3.758   2.675   4.056 -0.5689  0.0297 -1.2198
 3774SOL    EPW15542   3.725   2.740   4.106 -0.1511 -0.1950 -0.6418
 3775SOL      O15543   4.048   3.100   2.045 -0.2293  0.1856 -0.0912
 3775SOL     H115544   4.068   3.032   1.980  1.2420 -1.7690  2.2116
 3775SOL     H215545   3.957   3.084   2.069 -1.0538  1.4205 -2.0729
 3775SOL    EPW15546   4.041   3.091   2.040 -0.1603  0.1088 -0.0570
 3776SOL      O15547   1.760   2.144   2.712 -0.2354 -0.0947  0.2190
 3776SOL     H115548   1.803   2.228   2.693 -2.4203  1.5285  1.9029
 3776SOL     H215549   1.695   2.135   2.642  1.1699 -1.3689 -0.9891
 3776SOL    EPW15550   1.758   2.152   2.702 -0.3186 -0.0575  0.2697
 3777SOL      O15551   5.506   2.907   1.174  0.4536  0.4656 -0.1059
 3777SOL     H115552   5.595   2.940   1.158  1.4673 -1.2975  1.5399
 3777SOL     H215553   5.492   2.842   1.105 -0.1868  1.7375 -1.2364
 3777SOL    EPW15554   5.514   2.904   1.165  0.4935  0.4132 -0.0510
 3778SOL      O15555   2.778   4.180   0.132 -0.3827  0.0440  0.3572
 3778SOL     H115556   2.752   4.103   0.182 -0.7598 -1.1019 -1.5275
 3778SOL     H215557   2.696   4.212   0.093  0.0792  0.1550 -0.5429
 3778SOL    EPW15558   2.766   4.176   0.133 -0.3736 -0.0664  0.0601
 3779SOL      O15559   1.046   2.818   1.577 -0.2205 -0.4090 -0.1289
 3779SOL     H115560   0.960   2.818   1.618 -0.3809 -4.9279  0.0214
 3779SOL     H215561   1.027   2.806   1.484  0.2584  0.2882 -0.3216
 3779SOL    EPW15562   1.035   2.817   1.571 -0.1866 -0.8167 -0.1334
 3780SOL      O15563   1.023   1.832   2.055  0.7429  0.0457  0.3922
 3780SOL     H115564   1.076   1.803   1.981 -0.6593  0.1101 -0.6902
 3780SOL     H215565   0.945   1.871   2.015  0.0203  0.2554  1.9065
 3780SOL    EPW15566   1.020   1.833   2.043  0.5163  0.0749  0.4383
 3781SOL      O15567   4.135   1.594   1.823 -0.2758 -0.4646 -0.1346
 3781SOL     H115568   4.054   1.544   1.813  0.9444 -2.7213  0.4760
 3781SOL     H215569   4.193   1.559   1.754  1.2124 -1.2507  1.4383
 3781SOL    EPW15570   4.133   1.585   1.814  0.0131 -0.7892  0.0984
 3782SOL      O15571   1.494   4.506   2.788 -0.2524  0.0307  0.0925
 3782SOL     H115572   1.534   4.442   2.729 -0.1428 -2.0042  2.2427
 3782SOL     H215573   1.421   4.459   2.829 -1.8625  2.1615 -0.1816
 3782SOL    EPW15574   1.491   4.494   2.786 -0.4124  0.0409  0.2927
 3783SOL      O15575   3.820   1.995   1.519 -0.2072 -0.1034 -0.4156
 3783SOL     H115576   3.780   2.057   1.580 -1.2326 -0.0496 -1.1009
 3783SOL     H215577   3.883   1.947   1.571  2.5370  3.1757 -0.3535
 3783SOL    EPW15578   3.822   1.997   1.531 -0.0239  0.2521 -0.4821
 3784SOL      O15579   2.422   4.889   1.174 -0.4821  0.0726  0.3288
 3784SOL     H115580   2.425   4.809   1.226 -0.9529 -0.2682 -0.1650
 3784SOL     H215581   2.467   4.868   1.093 -1.1485  0.1076 -0.0620
 3784SOL    EPW15582   2.427   4.878   1.171 -0.6034  0.0399  0.2344
 3785SOL      O15583   2.336   2.072   2.171  0.3957  0.4588  0.5707
 3785SOL     H115584   2.336   1.989   2.123 -0.5108 -0.0350  1.3848
 3785SOL     H215585   2.263   2.064   2.233  2.4458  0.4146  3.1400
 3785SOL    EPW15586   2.328   2.063   2.172  0.5177  0.4014  0.9316
 3786SOL      O15587   0.642   1.798   1.961 -0.0641 -0.1760  1.1708
 3786SOL     H115588   0.688   1.881   1.949 -1.1924  0.4578  1.0669
 3786SOL     H215589   0.607   1.803   2.050 -1.1129 -0.0248  0.7653
 3786SOL    EPW15590   0.643   1.807   1.969 -0.2963 -0.0922  1.1164
 3787SOL      O15591   3.483   0.925   0.339  0.0327 -0.2430  0.0151
 3787SOL     H115592   3.579   0.926   0.344  0.0340  0.4311 -0.0007
 3787SOL     H215593   3.460   1.014   0.312 -0.5704 -0.5720 -0.5968
 3787SOL    EPW15594   3.491   0.935   0.336 -0.0315 -0.2062 -0.0519
 3788SOL      O15595   3.539   5.042   3.150 -0.1109  0.1014 -0.0293
 3788SOL     H115596   3.519   5.046   3.057 -0.2821  0.5996  0.0284
 3788SOL     H215597   3.460   5.005   3.190 -0.1937  0.2702 -0.0347
 3788SOL    EPW15598   3.528   5.038   3.145 -0.1380  0.1726 -0.0237
 3789SOL      O15599   5.867   4.743   2.646  0.0434  0.3561 -0.0250
 3789SOL     H115600   5.939   4.682   2.631  0.9640  1.4858 -0.3299
 3789SOL     H215601   5.788   4.693   2.627  0.8346 -0.4065 -1.3802
 3789SOL    EPW15602   5.867   4.731   2.643  0.2260  0.3952 -0.2021
 3790SOL      O15603   3.408   2.014   3.460  0.6012 -0.3569  0.5859
 3790SOL     H115604   3.429   1.949   3.393  0.8844 -1.6702  1.9094
 3790SOL     H215605   3.418   2.098   3.415  0.5224 -1.1975 -1.0834
 3790SOL    EPW15606   3.411   2.016   3.448  0.6230 -0.5867  0.5490
 3791SOL      O15607   1.198   4.403   1.506 -0.1720  0.0557 -0.4549
 3791SOL     H115608   1.226   4.424   1.595 -1.4282  2.0086 -0.4733
 3791SOL     H215609   1.140   4.328   1.516 -2.5514  1.9208  0.8218
 3791SOL    EPW15610   1.195   4.397   1.516 -0.5598  0.4630 -0.3207
 3792SOL      O15611   5.130   0.666   3.208  0.1683 -0.3134 -0.0138
 3792SOL     H115612   5.076   0.744   3.206 -0.1890 -0.5628 -0.2106
 3792SOL     H215613   5.159   0.654   3.117  1.0231  0.1406  0.1886
 3792SOL    EPW15614   5.128   0.673   3.198  0.2214 -0.2916 -0.0132
 3793SOL      O15615   5.738   3.760   1.741  0.1399  0.0828 -0.5376
 3793SOL     H115616   5.663   3.714   1.777  2.1716 -2.9367  0.2643
 3793SOL     H215617   5.778   3.697   1.680  1.7734  1.7362 -1.2802
 3793SOL    EPW15618   5.735   3.748   1.738  0.5309 -0.0629 -0.5313
 3794SOL      O15619   1.599   3.152   1.171  0.5346  0.3145  0.1126
 3794SOL     H115620   1.649   3.070   1.164 -0.0632 -0.0456 -0.0044
 3794SOL     H215621   1.539   3.137   1.244  1.7141  1.3522  1.3530
 3794SOL    EPW15622   1.598   3.142   1.178  0.5967  0.3868  0.2325
 3795SOL      O15623   0.500   3.710   2.656 -0.5419 -0.2045 -0.4651
 3795SOL     H115624   0.551   3.683   2.580 -1.2354  1.3222 -1.5205
 3795SOL     H215625   0.521   3.803   2.666  2.5262 -1.0173  3.5754
 3795SOL    EPW15626   0.508   3.717   2.649 -0.2886 -0.1283 -0.1466
 3796SOL      O15627   0.340   3.053   3.566  0.4023  0.4364  0.1858
 3796SOL     H115628   0.323   3.028   3.475  0.4399  1.0138  0.0177
 3796SOL     H215629   0.291   2.989   3.618  0.1308  0.2917 -0.2467
 3796SOL    EPW15630   0.333   3.043   3.562  0.3774  0.4825  0.1217
 3797SOL      O15631   0.131   1.982   2.319  0.1907 -0.5366 -0.3545
 3797SOL     H115632   0.092   2.010   2.402  2.6052  0.9067  0.4157
 3797SOL     H215633   0.176   1.900   2.339 -0.4652 -0.9730 -0.6406
 3797SOL    EPW15634   0.132   1.977   2.330  0.3783 -0.4292 -0.3029
 3798SOL      O15635   3.565   1.635   3.199  0.2468  0.3083 -0.2148
 3798SOL     H115636   3.548   1.586   3.119 -0.3807  0.4107 -0.1435
 3798SOL     H215637   3.660   1.627   3.212 -0.0098 -1.9769  0.5236
 3798SOL    EPW15638   3.574   1.629   3.192  0.1525  0.0754 -0.1284
 3799SOL      O15639   4.252   5.656   2.681  0.1688  0.9575 -0.2490
 3799SOL     H115640   4.238   5.564   2.662 -3.4367  1.6884 -2.0177
 3799SOL     H215641   4.312   5.686   2.612  0.7063  0.1417 -0.1533
 3799SOL    EPW15642   4.257   5.650   2.672 -0.1585  0.9484 -0.4275
 3800SOL      O15643   0.840   1.913   3.400  0.3254 -0.7458 -0.2197
 3800SOL     H115644   0.800   1.989   3.359  1.5320  0.7733  1.2626
 3800SOL     H215645   0.781   1.891   3.473  0.4997 -0.5646 -0.0215
 3800SOL    EPW15646   0.829   1.918   3.404  0.4727 -0.5644 -0.0404
 3801SOL      O15647   4.687   5.566   2.470  0.0247  0.2367 -0.2254
 3801SOL     H115648   4.665   5.521   2.388  3.4651  0.1541 -1.2436
 3801SOL     H215649   4.730   5.499   2.523  1.5429  1.2523 -0.1053
 3801SOL    EPW15650   4.689   5.554   2.467  0.5536  0.3362 -0.3212
 3802SOL      O15651   3.647   5.236   2.852  0.9626  0.6328  0.4280
 3802SOL     H115652   3.564   5.199   2.882  0.7123  1.7375  1.1569
 3802SOL     H215653   3.713   5.195   2.908  1.0611 -1.0582 -0.8565
 3802SOL    EPW15654   3.645   5.228   2.861  0.9464  0.5703  0.3688
 3803SOL      O15655   5.861   3.754   2.111 -0.2164  0.1367 -0.2377
 3803SOL     H115656   5.792   3.695   2.080  1.0761 -1.4202 -0.2677
 3803SOL     H215657   5.818   3.839   2.118 -2.1543 -0.7940 -0.1726
 3803SOL    EPW15658   5.849   3.757   2.108 -0.2852 -0.1287 -0.2340
 3804SOL      O15659   4.692   0.125   0.407 -0.1365  0.4648 -0.4682
 3804SOL     H115660   4.684   0.031   0.423 -2.0010  0.2773 -2.1122
 3804SOL     H215661   4.778   0.148   0.441  1.1889 -2.2195 -1.6948
 3804SOL    EPW15662   4.701   0.117   0.412 -0.1940  0.1584 -0.7744
 3805SOL      O15663   3.575   3.394   3.638  0.5271 -0.4660 -0.1723
 3805SOL     H115664   3.545   3.332   3.703 -0.9520  1.5826  1.2030
 3805SOL     H215665   3.498   3.414   3.585  0.2409  2.0126  1.0173
 3805SOL    EPW15666   3.564   3.390   3.639  0.3388  0.0170  0.1013
 3806SOL      O15667   3.898   2.166   3.950 -0.1800  0.3687  1.2094
 3806SOL     H115668   3.959   2.118   3.894 -1.0347  1.9039 -1.1826
 3806SOL     H215669   3.835   2.099   3.980  1.4643 -0.8575  2.1115
 3806SOL    EPW15670   3.898   2.153   3.948 -0.0957  0.4016  1.0505
 3807SOL      O15671   4.151   0.122   3.559  0.2601  0.3802  0.6038
 3807SOL     H115672   4.140   0.139   3.652 -0.3417  0.2721  0.5601
 3807SOL     H215673   4.093   0.185   3.516 -2.1124 -1.7293  0.4430
 3807SOL    EPW15674   4.143   0.130   3.564 -0.0572  0.1436  0.5820
 3808SOL      O15675   5.090   1.074   1.028 -0.0574  0.1322  0.3249
 3808SOL     H115676   5.063   1.020   0.954  0.9339  1.1212 -0.7996
 3808SOL     H215677   5.076   1.164   0.999  1.5352  0.5760  0.8221
 3808SOL    EPW15678   5.086   1.078   1.017  0.2182  0.2851  0.2579
 3809SOL      O15679   1.676   0.242   1.463 -0.2667  0.0543 -0.7636
 3809SOL     H115680   1.624   0.306   1.415 -0.9290 -0.1129 -0.2858
 3809SOL     H215681   1.740   0.209   1.399 -0.4891  0.5550 -1.2452
 3809SOL    EPW15682   1.678   0.245   1.451 -0.3610  0.0899 -0.7640
 3810SOL      O15683   0.390   4.549   3.365  1.0145  0.5390  0.3588
 3810SOL     H115684   0.450   4.516   3.299  0.1629 -1.2682  0.4072
 3810SOL     H215685   0.417   4.505   3.446 -0.9501 -1.1495  0.1734
 3810SOL    EPW15686   0.399   4.541   3.367  0.7141  0.1661  0.3442
 3811SOL      O15687   2.345   2.217   4.097 -0.4290 -0.6210 -0.0508
 3811SOL     H115688   2.271   2.237   4.154  0.0471  0.5141  0.2110
 3811SOL     H215689   2.406   2.290   4.112  1.6277 -2.4855  1.2392
 3811SOL    EPW15690   2.344   2.227   4.104 -0.1588 -0.6988  0.1147
 3812SOL      O15691   3.927   1.190   1.215  0.1525  0.6802  0.0060
 3812SOL     H115692   3.874   1.268   1.195 -0.6364  0.1395 -0.0951
 3812SOL     H215693   3.927   1.141   1.133 -0.0609  0.1791  0.3017
 3812SOL    EPW15694   3.921   1.193   1.204  0.0456  0.5691  0.0268
 3813SOL      O15695   3.187   3.762   2.199 -0.0925 -0.0017  0.0305
 3813SOL     H115696   3.265   3.783   2.148 -0.8581  1.5228 -0.5566
 3813SOL     H215697   3.125   3.832   2.179 -1.9123 -1.5705 -0.1124
 3813SOL    EPW15698   3.189   3.772   2.191 -0.3683 -0.0064 -0.0473
 3814SOL      O15699   0.148   5.694   4.091  0.7214  0.7075 -0.1130
 3814SOL     H115700   0.131   5.788   4.086 -1.8133  0.3192 -0.3348
 3814SOL     H215701   0.131   5.663   4.002  0.1180 -0.1464  0.2921
 3814SOL    EPW15702   0.144   5.701   4.081  0.3866  0.5750 -0.0935
 3815SOL      O15703   5.466   4.868   1.093 -0.6353  0.5662 -0.0256
 3815SOL     H115704   5.457   4.788   1.042  5.2474  0.7673 -2.1406
 3815SOL     H215705   5.524   4.845   1.165  1.4831  2.8515 -0.8628
 3815SOL    EPW15706   5.471   4.857   1.095  0.2182  0.8315 -0.3405
 3816SOL      O15707   3.899   4.079   2.400  0.8063  0.1308  0.6757
 3816SOL     H115708   3.870   4.099   2.489 -0.9428 -1.5900  0.5562
 3816SOL     H215709   3.826   4.107   2.345  2.4145  2.4545 -0.4312
 3816SOL    EPW15710   3.888   4.084   2.404  0.7913  0.1951  0.5449
 3817SOL      O15711   2.064   3.301   2.728 -0.2053 -0.3351 -0.6390
 3817SOL     H115712   2.119   3.332   2.656 -0.7406 -2.4813 -2.0714
 3817SOL     H215713   1.976   3.333   2.706  0.1197  1.7734  0.8397
 3817SOL    EPW15714   2.060   3.307   2.718 -0.2277 -0.3392 -0.6341
 3818SOL      O15715   4.950   0.566   0.869  0.6754 -0.2619  0.1398
 3818SOL     H115716   5.001   0.502   0.918  0.6508 -0.2229  0.2163
 3818SOL     H215717   4.888   0.514   0.819  0.6593 -0.2981  0.1977
 3818SOL    EPW15718   4.949   0.554   0.869  0.6710 -0.2616  0.1542
 3819SOL      O15719   4.630   5.745   2.867 -0.1711  0.2312 -0.1122
 3819SOL     H115720   4.629   5.660   2.911 -0.5014  0.8241  1.0668
 3819SOL     H215721   4.682   5.801   2.924 -1.8133  1.4041  0.3157
 3819SOL    EPW15722   4.635   5.742   2.878 -0.3816  0.4196  0.0592
 3820SOL      O15723   0.130   1.068   0.593  0.2962 -0.1033  0.1934
 3820SOL     H115724   0.148   1.125   0.518 -0.2836  0.3370  0.3863
 3820SOL     H215725   0.044   1.031   0.575  0.2134 -0.1022  0.5768
 3820SOL    EPW15726   0.123   1.070   0.583  0.2255 -0.0562  0.2548
 3821SOL      O15727   5.577   2.170   1.320  0.2291 -0.3146  0.1724
 3821SOL     H115728   5.660   2.138   1.355  1.0206 -1.7598 -2.7650
 3821SOL     H215729   5.512   2.110   1.356  0.9419 -1.4705 -0.4145
 3821SOL    EPW15730   5.579   2.160   1.328  0.3895 -0.5921 -0.2036
 3822SOL      O15731   1.233   1.391   3.457  0.0621 -0.0569  0.3413
 3822SOL     H115732   1.250   1.405   3.364 -1.1354 -0.4456  0.0478
 3822SOL     H215733   1.180   1.466   3.484  0.4757  0.1002  0.7417
 3822SOL    EPW15734   1.230   1.400   3.450 -0.0216 -0.0816  0.3527
 3823SOL      O15735   0.948   1.661   2.732  0.3271 -0.0405  0.4531
 3823SOL     H115736   1.027   1.615   2.761  0.0051  0.4270  2.1675
 3823SOL     H215737   0.956   1.749   2.769 -0.0409  0.6746 -1.0709
 3823SOL    EPW15738   0.957   1.666   2.739  0.2535  0.0856  0.4734
 3824SOL      O15739   2.491   5.241   0.074  0.5642  0.3435  0.0610
 3824SOL     H115740   2.567   5.279   0.029  0.1416  1.7652  0.4885
 3824SOL     H215741   2.444   5.193   0.006  1.8302 -0.5583 -0.2101
 3824SOL    EPW15742   2.494   5.240   0.062  0.6541  0.3989  0.0777
 3825SOL      O15743   2.696   5.399   4.034  0.0778  0.5844  0.1556
 3825SOL     H115744   2.790   5.418   4.034 -0.0266  1.2723 -1.2002
 3825SOL     H215745   2.689   5.313   3.992  0.1326  0.3171  0.6926
 3825SOL    EPW15746   2.705   5.392   4.029  0.0725  0.6293  0.0683
 3826SOL      O15747   5.440   3.699   1.514  0.3593  0.2813  0.2083
 3826SOL     H115748   5.492   3.653   1.580  0.7732 -0.7135 -0.7688
 3826SOL     H215749   5.441   3.641   1.438 -1.2969  0.7440 -0.2124
 3826SOL    EPW15750   5.446   3.688   1.513  0.2268  0.2245  0.0592
 3827SOL      O15751   1.170   1.546   2.260  0.4405  0.1600  0.0052
 3827SOL     H115752   1.193   1.639   2.259 -1.9904  0.8179 -1.8134
 3827SOL     H215753   1.096   1.539   2.320  0.1172 -0.4828 -0.4526
 3827SOL    EPW15754   1.165   1.555   2.266  0.1467  0.1616 -0.2377
 3828SOL      O15755   0.628   3.477   3.916  0.0555 -0.1742 -0.1946
 3828SOL     H115756   0.573   3.477   3.838 -1.1628 -1.2654  0.6085
 3828SOL     H215757   0.610   3.392   3.957  0.5412  0.4463  1.3562
 3828SOL    EPW15758   0.620   3.468   3.912 -0.0227 -0.2244  0.0565
 3829SOL      O15759   1.365   4.310   1.120  0.4556 -0.2845 -0.4905
 3829SOL     H115760   1.305   4.345   1.185 -1.4561 -1.2434 -1.6362
 3829SOL     H215761   1.392   4.386   1.069  0.2155  0.1594  0.0402
 3829SOL    EPW15762   1.362   4.322   1.121  0.2260 -0.3394 -0.5561
 3830SOL      O15763   0.441   4.697   1.352 -0.5041 -0.4604 -0.9308
 3830SOL     H115764   0.407   4.708   1.441  2.3689 -1.7713  0.4535
 3830SOL     H215765   0.438   4.603   1.336 -0.1296 -0.3253 -1.8663
 3830SOL    EPW15766   0.437   4.688   1.360 -0.1577 -0.5858 -0.8830
 3831SOL      O15767   4.878   1.604   2.646  0.3739 -0.0202  0.2028
 3831SOL     H115768   4.927   1.546   2.588  1.1709  0.1069  0.7307
 3831SOL     H215769   4.929   1.606   2.727  1.0400  2.3624 -0.2020
 3831SOL    EPW15770   4.889   1.598   2.648  0.5300  0.2475  0.2160
 3832SOL      O15771   1.405   4.945   2.464 -0.3000  0.0226 -0.2823
 3832SOL     H115772   1.317   4.913   2.442 -0.0932 -0.4799 -0.3898
 3832SOL     H215773   1.463   4.899   2.403  0.0554  0.2226 -0.0963
 3832SOL    EPW15774   1.401   4.936   2.455 -0.2400 -0.0096 -0.2739
 3833SOL      O15775   4.817   4.894   0.518 -0.0807  0.6462  0.5089
 3833SOL     H115776   4.891   4.862   0.570  1.2174  1.7711 -0.5773
 3833SOL     H215777   4.744   4.838   0.545  1.1644 -0.5795  1.5490
 3833SOL    EPW15778   4.818   4.884   0.527  0.1906  0.6354  0.5040
 3834SOL      O15779   3.125   4.641   1.850  0.2981  0.1162 -0.1902
 3834SOL     H115780   3.166   4.585   1.784  0.1567 -0.5389  0.2703
 3834SOL     H215781   3.138   4.594   1.933  1.2389  1.3194  0.3918
 3834SOL    EPW15782   3.131   4.630   1.852  0.3833  0.1747 -0.0790
 3835SOL      O15783   3.128   2.244   1.780 -0.1418  1.1665  0.0511
 3835SOL     H115784   3.065   2.302   1.823  0.5368  2.2522 -0.3802
 3835SOL     H215785   3.102   2.244   1.688 -1.0007 -0.3814  0.2587
 3835SOL    EPW15786   3.119   2.250   1.775 -0.1611  1.1172  0.0272
 3836SOL      O15787   1.924   1.426   2.863  0.4795 -0.0261  0.3043
 3836SOL     H115788   1.913   1.517   2.835 -3.7996  0.3890  2.6010
 3836SOL     H215789   1.876   1.375   2.799  0.4077 -0.3407  0.6071
 3836SOL    EPW15790   1.918   1.430   2.853  0.0154 -0.0154  0.5816
 3837SOL      O15791   4.124   3.741   1.480 -0.0972  0.1427 -0.3255
 3837SOL     H115792   4.033   3.710   1.472 -0.3396  0.7757 -0.1277
 3837SOL     H215793   4.116   3.822   1.530  0.6832 -0.2796  0.5022
 3837SOL    EPW15794   4.113   3.746   1.484 -0.0398  0.1652 -0.2161
 3838SOL      O15795   2.706   4.828   1.021  0.1046  0.0783  0.1390
 3838SOL     H115796   2.727   4.783   1.103 -1.8624 -2.0467 -0.4039
 3838SOL     H215797   2.712   4.759   0.955 -3.1139  0.5092 -0.7416
 3838SOL    EPW15798   2.709   4.816   1.023 -0.4486 -0.1024 -0.0128
 3839SOL      O15799   5.326   1.526   0.953  0.4009  0.3070 -0.1526
 3839SOL     H115800   5.392   1.474   0.999 -1.1657 -0.6182  1.1646
 3839SOL     H215801   5.368   1.552   0.871  2.0077 -1.1524  0.1601
 3839SOL    EPW15802   5.337   1.524   0.949  0.4052  0.0526  0.0212
 3840SOL      O15803   4.531   2.768   0.709  0.1475 -0.0173 -0.2963
 3840SOL     H115804   4.482   2.688   0.727 -0.3862  0.4055  0.1731
 3840SOL     H215805   4.602   2.767   0.774 -1.5303  1.2942  1.6925
 3840SOL    EPW15806   4.533   2.759   0.718 -0.0884  0.1677 -0.0341
 3841SOL      O15807   2.858   5.031   1.379  0.4035 -0.0105 -0.0145
 3841SOL     H115808   2.829   4.941   1.368 -1.1926  0.2212  1.7391
 3841SOL     H215809   2.780   5.077   1.411  1.5110  1.7272  0.3030
 3841SOL    EPW15810   2.847   5.027   1.381  0.3514  0.1996  0.2064
 3842SOL      O15811   0.688   0.918   0.453  0.2495 -0.3458  0.5518
 3842SOL     H115812   0.656   1.006   0.435 -1.1535 -1.0851 -0.7765
 3842SOL     H215813   0.747   0.898   0.380 -0.1308 -0.8290  0.3701
 3842SOL    EPW15814   0.691   0.925   0.443  0.0593 -0.4762  0.3907
 3843SOL      O15815   1.661   2.131   0.044  0.4146 -0.5433 -0.3960
 3843SOL     H115816   1.649   2.036   0.039 -0.4617 -0.4834  0.1718
 3843SOL     H215817   1.753   2.142   0.068  1.3134 -1.1299 -3.2260
 3843SOL    EPW15818   1.669   2.122   0.046  0.4170 -0.5995 -0.6373
 3844SOL      O15819   4.919   3.499   2.051  0.0991  0.0439 -0.9211
 3844SOL     H115820   4.830   3.472   2.030 -0.7637  2.0857 -0.1879
 3844SOL     H215821   4.971   3.420   2.042 -1.6616 -1.0476 -2.0772
 3844SOL    EPW15822   4.915   3.488   2.048 -0.1808  0.1452 -0.9662
 3845SOL      O15823   5.217   2.069   1.536  0.2790 -0.3638  0.1935
 3845SOL     H115824   5.193   1.995   1.591  0.8029 -1.4975 -1.0576
 3845SOL     H215825   5.305   2.048   1.504  0.6006  0.9915  0.1322
 3845SOL    EPW15826   5.224   2.059   1.538  0.3692 -0.3402  0.0535
 3846SOL      O15827   0.060   1.518   3.906 -0.3526  0.0367 -0.7451
 3846SOL     H115828  -0.028   1.505   3.940 -0.5190  2.0254 -0.2944
 3846SOL     H215829   0.047   1.559   3.821  0.1078  1.7626 -0.0241
 3846SOL    EPW15830   0.049   1.521   3.900 -0.3212  0.4330 -0.6201
 3847SOL      O15831   5.538   4.957   1.980 -0.8049 -0.2880  0.4146
 3847SOL     H115832   5.633   4.966   1.976 -0.7792  0.3156  1.8759
 3847SOL     H215833   5.523   4.863   1.976 -0.1786 -0.3774 -0.0938
 3847SOL    EPW15834   5.546   4.948   1.979 -0.7353 -0.2332  0.5163
 3848SOL      O15835   2.576   3.008   0.023 -0.1437 -0.4096  0.3307
 3848SOL     H115836   2.584   3.038  -0.067 -0.2575 -0.6643  0.2360
 3848SOL     H215837   2.532   2.923   0.017 -1.3249  0.1645  0.7262
 3848SOL    EPW15838   2.572   3.002   0.013 -0.2818 -0.3756  0.3628
 3849SOL      O15839   2.420   2.517   1.998 -0.1017 -0.3154 -0.1675
 3849SOL     H115840   2.376   2.459   2.059  1.1958 -1.2859 -0.1259
 3849SOL     H215841   2.484   2.565   2.051  0.8867 -1.0138 -0.6973
 3849SOL    EPW15842   2.422   2.516   2.010  0.1422 -0.4935 -0.2196
 3850SOL      O15843   0.259   1.415   0.864  0.0451  0.4200  0.8280
 3850SOL     H115844   0.288   1.389   0.951 -1.0101 -0.9410  0.7953
 3850SOL     H215845   0.333   1.466   0.829  0.7361  0.4603  2.2560
 3850SOL    EPW15846   0.270   1.418   0.869  0.0062  0.2791  0.9769
 3851SOL      O15847   3.158   5.047   2.896  0.8393 -0.0667  0.2589
 3851SOL     H115848   3.127   4.957   2.909  1.2239 -0.2431 -0.0528
 3851SOL     H215849   3.144   5.089   2.981  0.1238 -0.2569  0.2473
 3851SOL    EPW15850   3.153   5.042   2.906  0.8040 -0.1058  0.2244
 3852SOL      O15851   0.794   2.566   1.964  0.1744 -0.2303 -0.0339
 3852SOL     H115852   0.858   2.526   1.906 -1.2471  0.3024 -2.0628
 3852SOL     H215853   0.814   2.660   1.961 -0.2716 -0.1336 -0.1756
 3852SOL    EPW15854   0.803   2.572   1.958 -0.0248 -0.1631 -0.2655
 3853SOL      O15855   0.803   0.504   1.956 -0.1468  0.0699 -0.3363
 3853SOL     H115856   0.799   0.558   2.035  1.5564  1.5909 -1.2190
 3853SOL     H215857   0.757   0.423   1.979  0.7665  0.2463  2.3842
 3853SOL    EPW15858   0.798   0.501   1.967  0.1323  0.2510 -0.1403
 3854SOL      O15859   4.633   3.810   1.138 -0.4364 -0.3835 -0.0321
 3854SOL     H115860   4.634   3.829   1.044 -0.0064  1.0822  0.2539
 3854SOL     H215861   4.721   3.834   1.168  0.6379 -3.9497  0.1986
 3854SOL    EPW15862   4.642   3.814   1.131 -0.2759 -0.6076  0.0230
 3855SOL      O15863   0.114   2.637   4.095 -0.1295  0.3413 -0.3309
 3855SOL     H115864   0.090   2.560   4.045 -0.0169 -0.2303  0.4727
 3855SOL     H215865   0.204   2.620   4.123 -0.4463  0.3084  0.6926
 3855SOL    EPW15866   0.121   2.627   4.093 -0.1513  0.2768 -0.1360
 3856SOL      O15867   1.261   0.409   0.957 -0.1223 -0.3444  0.2112
 3856SOL     H115868   1.333   0.469   0.975  0.4917 -0.5712 -1.3847
 3856SOL     H215869   1.232   0.431   0.869 -2.4534  0.1591  1.0372
 3856SOL    EPW15870   1.266   0.418   0.950 -0.3055 -0.3149  0.1291
 3857SOL      O15871   2.098   1.279   2.216  0.0679  0.3691  0.6955
 3857SOL     H115872   2.035   1.233   2.161  1.2826 -0.3052 -0.1754
 3857SOL     H215873   2.120   1.358   2.167 -1.1829  1.3704  1.6838
 3857SOL    EPW15874   2.094   1.282   2.205  0.0640  0.4040  0.7080
 3858SOL      O15875   1.525   5.089   3.668  0.4092  0.0540  0.2109
 3858SOL     H115876   1.498   5.037   3.743  0.3440 -0.8609 -0.4336
 3858SOL     H215877   1.568   5.027   3.609  0.6364  0.7929 -0.4278
 3858SOL    EPW15878   1.527   5.077   3.669  0.4265  0.0352  0.0740
 3859SOL      O15879   1.235   5.569   0.411  0.3865 -0.2683  0.0152
 3859SOL     H115880   1.243   5.535   0.322 -1.3427  3.0213 -1.5774
 3859SOL     H215881   1.160   5.522   0.447  1.0785 -1.6055 -0.2043
 3859SOL    EPW15882   1.228   5.560   0.405  0.2759 -0.0600 -0.1781
 3860SOL      O15883   5.536   1.909   0.374 -0.4688 -0.4248  0.3038
 3860SOL     H115884   5.527   1.846   0.445 -1.7141 -0.0721  0.4672
 3860SOL     H215885   5.447   1.924   0.342  0.0571 -0.5857 -1.3486
 3860SOL    EPW15886   5.526   1.904   0.378 -0.5455 -0.4044  0.1450
 3861SOL      O15887   3.755   3.145   2.921 -0.2433 -0.4320  0.0013
 3861SOL     H115888   3.822   3.177   2.861 -0.3045  2.0072  1.1099
 3861SOL     H215889   3.803   3.126   3.002 -0.7274  0.4603  0.5122
 3861SOL    EPW15890   3.767   3.146   2.924 -0.3015 -0.0766  0.1740
 3862SOL      O15891   1.767   0.469   2.071  0.3079  0.1733 -0.1140
 3862SOL     H115892   1.737   0.378   2.072  1.2881 -0.1564  0.0008
 3862SOL     H215893   1.816   0.477   1.990  1.3906  0.1961  0.5168
 3862SOL    EPW15894   1.769   0.460   2.063  0.5279  0.1406 -0.0345
 3863SOL      O15895   1.441   1.506   3.952  0.3314  0.2262  0.3630
 3863SOL     H115896   1.503   1.481   4.021 -0.7211  0.1621  1.3251
 3863SOL     H215897   1.368   1.547   4.000 -0.9188 -0.7837 -0.6063
 3863SOL    EPW15898   1.439   1.508   3.965  0.0857  0.1117  0.3622
 3864SOL      O15899   0.691   5.652   2.330  0.0835  0.0083 -0.7538
 3864SOL     H115900   0.654   5.626   2.246  2.0852 -1.3241 -1.3034
 3864SOL     H215901   0.713   5.744   2.320 -0.8178  0.1778 -1.2385
 3864SOL    EPW15902   0.690   5.659   2.320  0.2009 -0.1157 -0.8642
 3865SOL      O15903   1.708   1.394   1.548  0.1407  0.1509  0.8197
 3865SOL     H115904   1.704   1.488   1.529  0.4835  0.1619  0.7919
 3865SOL     H215905   1.728   1.390   1.642 -1.3250  0.0976  1.1614
 3865SOL    EPW15906   1.710   1.404   1.556  0.0209  0.1464  0.8532
 3866SOL      O15907   4.767   3.062   0.237 -0.2071 -0.0067 -0.2035
 3866SOL     H115908   4.794   2.994   0.175 -0.7188  0.1546 -0.6099
 3866SOL     H215909   4.718   3.015   0.304  1.0849 -0.3126  0.5738
 3866SOL    EPW15910   4.765   3.050   0.238 -0.1239 -0.0221 -0.1639
 3867SOL      O15911   0.123   5.599   3.227  0.1481  0.2123 -0.1495
 3867SOL     H115912   0.092   5.509   3.230 -2.3684  1.0140  0.9159
 3867SOL     H215913   0.129   5.626   3.319  1.7915  0.8981 -0.4030
 3867SOL    EPW15914   0.121   5.592   3.237  0.0549  0.3710 -0.0629
 3868SOL      O15915   2.225   3.268   3.431 -0.2295 -0.1307 -0.0414
 3868SOL     H115916   2.296   3.329   3.453 -0.4313  0.2531 -0.4178
 3868SOL     H215917   2.156   3.325   3.397  0.2290 -0.6985 -2.0953
 3868SOL    EPW15918   2.225   3.281   3.429 -0.2021 -0.1503 -0.3007
 3869SOL      O15919   5.764   0.244   2.692  0.0251 -0.0833  0.1014
 3869SOL     H115920   5.846   0.293   2.696 -0.0960  0.0614  0.9907
 3869SOL     H215921   5.772   0.179   2.762  0.4120 -1.7146 -1.3810
 3869SOL    EPW15922   5.774   0.242   2.700  0.0535 -0.2419  0.0381
 3870SOL      O15923   2.826   0.282   0.656 -0.2151 -0.1177 -0.2374
 3870SOL     H115924   2.871   0.215   0.708 -2.5207 -1.3545  0.2714
 3870SOL     H215925   2.771   0.328   0.719 -0.4205  0.7236 -1.0090
 3870SOL    EPW15926   2.825   0.280   0.668 -0.4829 -0.1599 -0.2654
 3871SOL      O15927   1.661   3.875   0.726 -0.1049 -0.3065 -0.4044
 3871SOL     H115928   1.745   3.859   0.683 -0.5287 -1.9106 -0.7250
 3871SOL     H215929   1.650   3.970   0.724  3.1112  0.3512  2.3773
 3871SOL    EPW15930   1.669   3.883   0.721  0.1929 -0.4075 -0.1419
 3872SOL      O15931   4.059   1.039   1.387 -0.3847  0.0119  0.0144
 3872SOL     H115932   3.989   1.093   1.350 -1.2105 -0.6063  0.6574
 3872SOL     H215933   4.122   1.103   1.421 -1.5963  0.5994  1.2376
 3872SOL    EPW15934   4.058   1.052   1.387 -0.6021  0.0086  0.2135
 3873SOL      O15935   3.811   5.225   1.446 -0.2220  0.2407  0.1000
 3873SOL     H115936   3.752   5.283   1.495 -0.5094  1.5043 -1.6356
 3873SOL     H215937   3.800   5.140   1.488 -1.4502  0.9612  1.3561
 3873SOL    EPW15938   3.803   5.222   1.456 -0.3837  0.4523  0.0489
 3874SOL      O15939   2.828   3.697   0.203 -0.2479 -0.0015 -0.3886
 3874SOL     H115940   2.784   3.782   0.207  0.8898  0.6901 -1.7059
 3874SOL     H215941   2.776   3.641   0.261 -3.0969  0.6235 -2.1283
 3874SOL    EPW15942   2.817   3.700   0.209 -0.4304  0.1390 -0.7147
 3875SOL      O15943   2.313   4.194   1.597 -0.2505 -0.2860 -0.0741
 3875SOL     H115944   2.324   4.104   1.566 -0.8680 -0.3129 -0.2439
 3875SOL     H215945   2.302   4.245   1.517 -0.6410 -0.1724  0.0497
 3875SOL    EPW15946   2.313   4.190   1.585 -0.3580 -0.2767 -0.0790
 3876SOL      O15947   1.434   1.824   4.068  0.3182 -0.3403 -0.0443
 3876SOL     H115948   1.383   1.744   4.058  1.8387 -1.2830 -0.5888
 3876SOL     H215949   1.403   1.863   4.150 -2.0436 -0.2444 -0.8992
 3876SOL    EPW15950   1.425   1.820   4.075  0.2285 -0.4306 -0.1936
 3877SOL      O15951   3.617   3.221   1.831  0.1696  0.0341 -0.7065
 3877SOL     H115952   3.688   3.205   1.893 -0.1187 -0.8546 -0.5923
 3877SOL     H215953   3.586   3.134   1.807 -0.0242  0.3801 -1.7565
 3877SOL    EPW15954   3.621   3.210   1.835  0.1182 -0.0238 -0.8064
 3878SOL      O15955   1.091   2.919   0.675 -0.2062 -0.5174 -0.4075
 3878SOL     H115956   1.000   2.926   0.644 -0.3580 -3.7534 -1.0263
 3878SOL     H215957   1.086   2.858   0.749  1.2621  0.8979  0.9512
 3878SOL    EPW15958   1.081   2.913   0.680 -0.0658 -0.7116 -0.3286
 3879SOL      O15959   1.344   2.389   1.732  0.4512 -0.7186  0.0550
 3879SOL     H115960   1.298   2.347   1.659  0.4646 -0.0345 -0.3594
 3879SOL     H215961   1.285   2.459   1.760  1.8077  1.1539 -1.4585
 3879SOL    EPW15962   1.333   2.392   1.727  0.5973 -0.4459 -0.1507
 3880SOL      O15963   1.834   2.612   0.214 -0.0466 -0.3561 -0.1008
 3880SOL     H115964   1.846   2.625   0.120  1.7158  1.6614  0.3431
 3880SOL     H215965   1.909   2.557   0.240 -1.2496 -2.0497 -0.0365
 3880SOL    EPW15966   1.843   2.607   0.207  0.0131 -0.3215 -0.0466
 3881SOL      O15967   4.274   0.842   0.836  0.1609  0.0023  0.2799
 3881SOL     H115968   4.327   0.781   0.888  1.0113  0.4877 -0.0040
 3881SOL     H215969   4.248   0.910   0.898 -2.9708 -1.8819  1.2665
 3881SOL    EPW15970   4.277   0.843   0.848 -0.0825 -0.1470  0.3548
 3882SOL      O15971   1.643   0.591   3.034  0.6515 -0.0691  0.1564
 3882SOL     H115972   1.670   0.652   3.103 -1.9844 -0.3349  1.5809
 3882SOL     H215973   1.645   0.643   2.954  3.6516  0.2946  0.3858
 3882SOL    EPW15974   1.646   0.603   3.033  0.6904 -0.0587  0.3328
 3883SOL      O15975   1.944   3.810   0.649  0.3430  0.7873  0.6688
 3883SOL     H115976   1.954   3.820   0.744  0.4316  0.8314  0.6544
 3883SOL     H215977   1.949   3.716   0.634 -0.5162  0.7114  0.8093
 3883SOL    EPW15978   1.945   3.801   0.657  0.2608  0.7839  0.6823
 3884SOL      O15979   2.110   3.513   0.609 -0.2584 -0.0938 -0.0106
 3884SOL     H115980   2.014   3.513   0.609 -0.2795 -1.5073  0.0027
 3884SOL     H215981   2.134   3.457   0.684  0.5516 -0.5228 -0.5752
 3884SOL    EPW15982   2.102   3.507   0.617 -0.1742 -0.2903 -0.0694
 3885SOL      O15983   1.363   5.626   1.151 -0.0553 -0.5671 -0.5666
 3885SOL     H115984   1.268   5.631   1.165 -0.2071 -3.3995  0.0018
 3885SOL     H215985   1.371   5.603   1.058  0.0445 -0.8166 -0.4966
 3885SOL    EPW15986   1.353   5.624   1.142 -0.0608 -0.8959 -0.4985
 3886SOL      O15987   3.043   0.821   0.506 -0.0152  0.4462 -0.3266
 3886SOL     H115988   2.969   0.872   0.539  0.7252  1.2072  0.2117
 3886SOL     H215989   3.020   0.800   0.416 -1.2050  0.0412  0.0595
 3886SOL    EPW15990   3.033   0.824   0.500 -0.0632  0.4842 -0.2280
 3887SOL      O15991   1.199   1.802   0.648  0.1375  0.2533  0.5217
 3887SOL     H115992   1.268   1.802   0.714 -0.9940 -0.9294  1.7690
 3887SOL     H215993   1.228   1.739   0.582  0.6200  0.3693  0.6208
 3887SOL    EPW15994   1.210   1.796   0.648  0.0683  0.1395  0.6653
 3888SOL      O15995   5.505   5.841   3.453 -0.4276  0.1921  0.9563
 3888SOL     H115996   5.597   5.846   3.426  0.5999 -0.4081  3.9321
 3888SOL     H215997   5.466   5.778   3.393  0.5797  1.7469 -1.5024
 3888SOL    EPW15998   5.511   5.835   3.444 -0.2106  0.2939  1.0115
 3889SOL      O15999   2.240   2.928   0.677 -0.4568 -0.5597 -0.2812
 3889SOL     H116000   2.224   3.010   0.630 -0.3567  0.0153  0.6543
 3889SOL     H216001   2.329   2.938   0.712 -1.3494  0.0708  2.0229
 3889SOL    EPW16002   2.248   2.938   0.676 -0.5413 -0.4311  0.0644
 3890SOL      O16003   1.400   2.171   1.013 -0.0884 -0.0269  0.2574
 3890SOL     H116004   1.404   2.221   0.932 -0.3042 -2.4285 -1.3387
 3890SOL     H216005   1.312   2.188   1.048 -1.2127 -1.3447 -1.7288
 3890SOL    EPW16006   1.391   2.178   1.008 -0.2314 -0.4237 -0.1247
 3891SOL      O16007   0.608   1.661   3.253 -0.5092 -0.1283 -0.0115
 3891SOL     H116008   0.528   1.715   3.251  0.9262  2.1789  0.9518
 3891SOL     H216009   0.606   1.613   3.171 -1.7453  1.6528 -1.1024
 3891SOL    EPW16010   0.599   1.662   3.244 -0.4880  0.3078 -0.0251
 3892SOL      O16011   1.286   0.078   1.864 -0.9719  0.4416 -0.1117
 3892SOL     H116012   1.223   0.102   1.796  0.5881 -0.2575 -1.9133
 3892SOL     H216013   1.359   0.139   1.852  0.0171 -0.7042 -0.1765
 3892SOL    EPW16014   1.287   0.087   1.855 -0.7000  0.2448 -0.3108
 3893SOL      O16015   5.071   5.391   0.513 -0.2187 -0.2509 -0.0542
 3893SOL     H116016   5.005   5.417   0.578 -0.6726  0.2491 -0.6935
 3893SOL     H216017   5.147   5.444   0.533 -0.3337 -0.1518  0.1216
 3893SOL    EPW16018   5.072   5.400   0.522 -0.2794 -0.1870 -0.1036
 3894SOL      O16019   3.754   3.979   3.379 -0.3775  0.0303  0.4625
 3894SOL     H116020   3.834   3.998   3.331 -0.2553 -2.4227 -0.4253
 3894SOL     H216021   3.685   4.025   3.331  0.3467  1.3174  0.6374
 3894SOL    EPW16022   3.755   3.986   3.369 -0.2872 -0.0941  0.3865
 3895SOL      O16023   4.956   0.772   2.736 -0.2695  0.2978  0.5294
 3895SOL     H116024   5.006   0.853   2.725  1.7662 -0.7145  1.7558
 3895SOL     H216025   4.960   0.730   2.650  2.0240 -0.2720  0.8524
 3895SOL    EPW16026   4.962   0.776   2.725  0.1924  0.1290  0.6947
 3896SOL      O16027   0.507   0.449   2.162 -0.5597 -0.2434  0.1440
 3896SOL     H116028   0.418   0.412   2.167 -0.3875 -0.6506  0.2320
 3896SOL     H216029   0.554   0.389   2.105 -0.7105  0.7336 -1.0286
 3896SOL    EPW16030   0.502   0.439   2.157 -0.5574 -0.1826  0.0283
 3897SOL      O16031   5.675   0.642   0.328 -0.2014  0.5340 -0.0226
 3897SOL     H116032   5.724   0.678   0.402 -3.2013  1.0641  1.8887
 3897SOL     H216033   5.661   0.550   0.351 -2.3188  1.0158  0.8963
 3897SOL    EPW16034   5.678   0.636   0.339 -0.7473  0.6419  0.2793
 3898SOL      O16035   4.692   4.194   3.246 -0.5325 -0.3436  0.2884
 3898SOL     H116036   4.680   4.273   3.193 -0.0754 -0.3584  0.1639
 3898SOL     H216037   4.710   4.125   3.183 -0.1289 -0.3886  0.4476
 3898SOL    EPW16038   4.693   4.195   3.234 -0.4407 -0.3500  0.2921
 3899SOL      O16039   1.299   3.031   3.802  0.0689 -0.0599  0.2980
 3899SOL     H116040   1.290   2.938   3.778 -0.6346  0.1566 -0.3240
 3899SOL     H216041   1.230   3.045   3.867  0.7313 -0.1743  1.0361
 3899SOL    EPW16042   1.290   3.022   3.806  0.0645 -0.0490  0.3104
 3900SOL      O16043   3.720   0.809   1.811 -0.0463  0.0128  0.2100
 3900SOL     H116044   3.646   0.749   1.819  0.0926 -0.0358  1.3086
 3900SOL     H216045   3.729   0.824   1.717  0.7942 -2.7732 -0.2494
 3900SOL    EPW16046   3.713   0.805   1.802  0.0581 -0.2896  0.2782
 3901SOL      O16047   2.888   0.675   2.151  0.3527  0.0752  0.5145
 3901SOL     H116048   2.858   0.757   2.191  1.4071  0.5521  0.3620
 3901SOL     H216049   2.816   0.614   2.165  0.4068  0.4222  2.5053
 3901SOL    EPW16050   2.877   0.677   2.157  0.4709  0.1631  0.7106
 3902SOL      O16051   1.297   5.239   2.019  0.7238 -0.0670  0.1061
 3902SOL     H116052   1.347   5.158   2.013 -0.3595 -0.7317 -0.4048
 3902SOL     H216053   1.262   5.252   1.931  1.1627  1.1527  0.0966
 3902SOL    EPW16054   1.298   5.231   2.009  0.6550 -0.0078  0.0506
 3903SOL      O16055   0.012   3.291   3.673 -0.1487 -0.2029 -0.5161
 3903SOL     H116056  -0.059   3.303   3.611  0.1286 -2.2015 -1.3006
 3903SOL     H216057   0.091   3.291   3.620  0.3316  0.5501  0.1721
 3903SOL    EPW16058   0.013   3.292   3.661 -0.0679 -0.3358 -0.5264
 3904SOL      O16059   3.885   2.199   0.029  0.1013 -0.6109 -0.1923
 3904SOL     H116060   3.851   2.287   0.045  1.0736 -0.4185  0.8788
 3904SOL     H216061   3.806   2.145   0.022 -0.4909 -0.1169  1.9317
 3904SOL    EPW16062   3.873   2.202   0.030  0.1418 -0.5377  0.1485
 3905SOL      O16063   5.066   4.091   1.253  0.3972 -0.4386  0.0881
 3905SOL     H116064   5.143   4.146   1.240  0.1325 -0.1232 -0.1529
 3905SOL     H216065   5.076   4.020   1.189  0.8070 -0.7535  0.4925
 3905SOL    EPW16066   5.076   4.089   1.245  0.4127 -0.4386  0.1055
 3906SOL      O16067   1.318   3.791   1.681  0.3889 -0.0132  0.2021
 3906SOL     H116068   1.347   3.709   1.721 -0.4958 -0.8209 -0.7572
 3906SOL     H216069   1.377   3.857   1.717  3.2991 -1.5061 -1.4443
 3906SOL    EPW16070   1.328   3.789   1.689  0.6050 -0.2586 -0.0758
 3907SOL      O16071   2.313   1.697   3.953 -1.2166  0.0311 -0.1914
 3907SOL     H116072   2.402   1.727   3.939 -1.6545  1.2270 -0.5395
 3907SOL     H216073   2.319   1.602   3.953  0.0118  0.0982 -0.4519
 3907SOL    EPW16074   2.323   1.690   3.952 -1.1322  0.1658 -0.2563
 3908SOL      O16075   4.948   1.550   0.441  0.3089 -0.1758 -0.0621
 3908SOL     H116076   4.874   1.581   0.388  1.9834  1.8528 -1.3782
 3908SOL     H216077   5.023   1.556   0.382  2.2469  1.8974  2.3821
 3908SOL    EPW16078   4.948   1.554   0.429  0.6943  0.2617  0.0583
 3909SOL      O16079   0.955   3.757   3.435 -0.2822  0.0032  0.3533
 3909SOL     H116080   0.981   3.768   3.527 -1.7424 -0.4683  0.8505
 3909SOL     H216081   0.998   3.676   3.408  0.0536  0.0764  0.6583
 3909SOL    EPW16082   0.962   3.750   3.442 -0.4021 -0.0393  0.4389
 3910SOL      O16083   2.209   4.405   3.822  0.2428  0.2553  0.0587
 3910SOL     H116084   2.228   4.458   3.745 -0.5778 -1.0447 -1.0927
 3910SOL     H216085   2.284   4.346   3.829 -1.1480 -1.8819 -1.8205
 3910SOL    EPW16086   2.219   4.404   3.814  0.0069 -0.1114 -0.2646
 3911SOL      O16087   4.750   0.939   3.927 -0.2649  0.2997 -0.1392
 3911SOL     H116088   4.829   0.949   3.981  0.3403  2.4443 -1.3389
 3911SOL     H216089   4.781   0.895   3.848 -0.7940 -1.0972  0.3930
 3911SOL    EPW16090   4.761   0.935   3.925 -0.2568  0.3794 -0.2104
 3912SOL      O16091   4.256   2.791   0.947 -0.4446  0.1010 -0.2476
 3912SOL     H116092   4.175   2.834   0.975 -2.0795 -2.1217 -1.2596
 3912SOL     H216093   4.232   2.743   0.868  1.7060 -1.1922 -0.1955
 3912SOL    EPW16094   4.245   2.791   0.942 -0.3896 -0.2741 -0.3500
 3913SOL      O16095   2.087   3.806   3.954 -0.5448 -0.5994  0.2955
 3913SOL     H116096   1.996   3.775   3.949 -1.4719  1.8616  0.6500
 3913SOL     H216097   2.114   3.785   4.043 -1.6448  0.8121  0.9944
 3913SOL    EPW16098   2.080   3.800   3.963 -0.7610 -0.1863  0.4079
 3914SOL      O16099   2.132   2.273   3.229 -0.0626 -0.0621  0.5815
 3914SOL     H116100   2.112   2.293   3.138  0.7076  2.4367  0.8932
 3914SOL     H216101   2.163   2.182   3.228  1.8038  0.5052 -1.9616
 3914SOL    EPW16102   2.133   2.265   3.220  0.2186  0.2650  0.3435
 3915SOL      O16103   5.771   4.028   2.456 -0.0284  0.1245 -0.3033
 3915SOL     H116104   5.854   4.075   2.463 -0.4027  0.8192 -0.3621
 3915SOL     H216105   5.714   4.072   2.520 -0.0711 -0.9605  0.4335
 3915SOL    EPW16106   5.773   4.038   2.464 -0.0729  0.0828 -0.2310
 3916SOL      O16107   3.158   2.924   1.541 -0.3529 -0.1670 -0.0434
 3916SOL     H116108   3.066   2.950   1.534 -1.2100 -2.3807  1.5023
 3916SOL     H216109   3.198   2.992   1.595 -0.8411  1.2601 -1.4071
 3916SOL    EPW16110   3.152   2.934   1.546 -0.4964 -0.2509 -0.0240
 3917SOL      O16111   5.803   2.487   3.647 -0.6543 -0.4438 -0.1131
 3917SOL     H116112   5.871   2.434   3.606 -0.6355 -0.5410  0.0416
 3917SOL     H216113   5.848   2.567   3.674 -0.5755 -0.5562  0.0914
 3917SOL    EPW16114   5.815   2.490   3.646 -0.6439 -0.4662 -0.0748
 3918SOL      O16115   4.153   5.560   4.004  0.3984  0.3872 -0.5686
 3918SOL     H116116   4.093   5.629   4.034  0.8681  0.5256  0.0923
 3918SOL     H216117   4.138   5.554   3.910 -0.0821  0.9769 -0.5362
 3918SOL    EPW16118   4.145   5.567   3.998  0.3973  0.4649 -0.4946
 3919SOL      O16119   3.365   4.104   2.323 -0.0109  0.0788  0.0303
 3919SOL     H116120   3.406   4.078   2.240 -0.8700 -0.7561 -0.1383
 3919SOL     H216121   3.274   4.121   2.300 -0.1653  0.2212  0.7406
 3919SOL    EPW16122   3.360   4.103   2.312 -0.1190  0.0049  0.0881
 3920SOL      O16123   2.598   5.768   1.928  0.0663 -0.6751  0.0544
 3920SOL     H116124   2.505   5.763   1.951  0.0855 -0.4402  0.1906
 3920SOL     H216125   2.625   5.854   1.960  0.4050 -0.8653  0.2862
 3920SOL    EPW16126   2.591   5.777   1.934  0.1045 -0.6703  0.0936
 3921SOL      O16127   0.821   0.315   2.856  0.1008  0.2817 -0.0379
 3921SOL     H116128   0.880   0.331   2.930  0.9538  2.8917 -1.1565
 3921SOL     H216129   0.754   0.383   2.866  0.7577  1.2988 -2.1355
 3921SOL    EPW16130   0.820   0.324   2.865  0.2618  0.6686 -0.3810
 3922SOL      O16131   4.027   1.819   1.670  0.3950  0.1111 -0.2951
 3922SOL     H116132   4.069   1.762   1.733  1.9499 -1.3920 -2.5194
 3922SOL     H216133   4.061   1.790   1.585 -2.1820  1.4439 -1.9273
 3922SOL    EPW16134   4.035   1.810   1.667  0.2860  0.0929 -0.7065
 3923SOL      O16135   4.577   1.780   2.731 -0.7370  0.2833 -0.8420
 3923SOL     H116136   4.624   1.748   2.808 -0.6500 -1.8906 -1.7060
 3923SOL     H216137   4.486   1.756   2.747 -0.6912 -0.3437 -1.4669
 3923SOL    EPW16138   4.572   1.774   2.741 -0.7229 -0.0155 -1.0008
 3924SOL      O16139   1.158   3.783   1.466 -0.3136 -0.1903 -0.2778
 3924SOL     H116140   1.189   3.788   1.556  1.1665 -2.4536 -0.5874
 3924SOL     H216141   1.225   3.826   1.413 -0.9341  0.6830 -0.3910
 3924SOL    EPW16142   1.168   3.788   1.470 -0.2219 -0.3386 -0.3229
 3925SOL      O16143   0.049   0.971   3.640  0.4470  0.5014 -0.1378
 3925SOL     H116144  -0.007   0.905   3.680  0.6694 -1.1943 -2.3893
 3925SOL     H216145  -0.008   1.019   3.580  0.8279  0.5589 -0.4637
 3925SOL    EPW16146   0.037   0.969   3.638  0.5114  0.3266 -0.4127
 3926SOL      O16147   5.316   3.620   0.858  0.3070  0.0831 -0.1324
 3926SOL     H116148   5.360   3.701   0.831  1.8510  0.3189  2.6679
 3926SOL     H216149   5.322   3.563   0.781  0.2013  2.1790 -1.7957
 3926SOL    EPW16150   5.322   3.623   0.847  0.4604  0.3318 -0.0111
 3927SOL      O16151   1.583   3.895   1.424  0.3667  0.5958  1.0657
 3927SOL     H116152   1.636   3.960   1.379 -0.2287 -0.1633 -0.8494
 3927SOL     H216153   1.493   3.923   1.409  0.0529 -1.0565 -0.5748
 3927SOL    EPW16154   1.579   3.905   1.417  0.2697  0.3386  0.6864
 3928SOL      O16155   3.334   4.599   0.602 -0.2800 -0.3158  0.3381
 3928SOL     H116156   3.364   4.679   0.560  1.6736 -0.5079  1.2867
 3928SOL     H216157   3.259   4.628   0.655 -0.0110  0.7497  0.1706
 3928SOL    EPW16158   3.329   4.611   0.603 -0.0429 -0.2226  0.4214
 3929SOL      O16159   1.195   3.110   1.313  0.2022  0.0383  0.4452
 3929SOL     H116160   1.285   3.089   1.339  0.3681  0.1266 -0.0418
 3929SOL     H216161   1.168   3.038   1.257  0.5882  0.8314 -0.8032
 3929SOL    EPW16162   1.202   3.100   1.310  0.2611  0.1323  0.2601
 3930SOL      O16163   5.007   2.051   0.398  0.6879 -0.3170  0.1255
 3930SOL     H116164   5.102   2.060   0.404  0.7107 -0.8158  0.5175
 3930SOL     H216165   4.985   1.983   0.461 -0.1880  1.3367  1.6822
 3930SOL    EPW16166   5.015   2.045   0.405  0.5968 -0.1938  0.3334
 3931SOL      O16167   5.761   2.383   2.519  0.2309 -0.5808  0.4506
 3931SOL     H116168   5.698   2.449   2.490 -0.7718 -1.8077 -0.2727
 3931SOL     H216169   5.843   2.431   2.532 -0.7750  1.0101  1.1679
 3931SOL    EPW16170   5.763   2.395   2.518  0.0167 -0.5420  0.4499
 3932SOL      O16171   0.015   2.095   0.411  0.0139  0.1670 -0.2122
 3932SOL     H116172   0.032   2.168   0.351 -0.3237 -0.1331 -0.6819
 3932SOL     H216173  -0.000   2.020   0.353 -0.0131 -0.1945  0.2584
 3932SOL    EPW16174   0.015   2.095   0.398 -0.0250  0.0964 -0.2121
 3933SOL      O16175   1.329   3.927   1.331  0.1900  0.2453  0.0798
 3933SOL     H116176   1.361   3.909   1.242 -0.0423 -2.5712  0.4706
 3933SOL     H216177   1.265   3.997   1.320 -0.2515 -0.4182 -2.0649
 3933SOL    EPW16178   1.326   3.933   1.321  0.1181 -0.1259 -0.1073
 3934SOL      O16179   2.834   0.742   3.077 -0.4131 -0.1257  0.8090
 3934SOL     H116180   2.841   0.748   2.982  1.8922 -1.0703  0.8576
 3934SOL     H216181   2.774   0.669   3.092 -0.3667 -0.3147  0.0841
 3934SOL    EPW16182   2.828   0.735   3.068 -0.1622 -0.2466  0.7368
 3935SOL      O16183   0.401   1.086   2.701  0.3464  0.1902  0.8067
 3935SOL     H116184   0.454   1.085   2.622  0.1341 -1.0019  0.6669
 3935SOL     H216185   0.376   0.995   2.715 -2.4733  0.7749  0.3143
 3935SOL    EPW16186   0.404   1.076   2.694  0.0230  0.1254  0.7393
 3936SOL      O16187   3.650   0.149   1.431 -0.1790  0.0090 -0.1299
 3936SOL     H116188   3.714   0.090   1.390  0.6680  0.2197  0.8604
 3936SOL     H216189   3.565   0.109   1.411  0.4006 -2.5172  1.9113
 3936SOL    EPW16190   3.648   0.139   1.424 -0.0268 -0.2380  0.1935
 3937SOL      O16191   4.422   3.104   3.211 -0.1327  0.4177  0.3231
 3937SOL     H116192   4.507   3.137   3.238 -0.5664  2.4762 -0.6715
 3937SOL     H216193   4.359   3.172   3.238 -1.2318 -0.1760 -0.6408
 3937SOL    EPW16194   4.424   3.115   3.217 -0.2962  0.5740  0.1141
 3938SOL      O16195   1.770   2.613   1.951  0.6444 -0.0843  0.2477
 3938SOL     H116196   1.778   2.520   1.927 -2.6581 -1.3023  2.9969
 3938SOL     H216197   1.840   2.627   2.014 -0.2438 -1.5427  1.6540
 3938SOL    EPW16198   1.778   2.604   1.955  0.1973 -0.3698  0.6910
 3939SOL      O16199   2.314   4.986   1.608 -0.4855 -0.4119 -0.1680
 3939SOL     H116200   2.268   4.912   1.570 -0.6680 -1.1288  1.3770
 3939SOL     H216201   2.250   5.027   1.667  0.5716 -1.0096  1.4832
 3939SOL    EPW16202   2.302   4.983   1.611 -0.3922 -0.5522  0.1729
 3940SOL      O16203   1.787   4.231   1.563 -0.8287 -0.0555  0.5606
 3940SOL     H116204   1.830   4.317   1.570 -1.5538  0.3744 -0.1034
 3940SOL     H216205   1.759   4.212   1.652  0.4950 -0.2350  0.9673
 3940SOL    EPW16206   1.789   4.238   1.573 -0.7648 -0.0288  0.5332
 3941SOL      O16207   5.275   3.287   3.141  0.3425 -0.3809  0.2721
 3941SOL     H116208   5.269   3.381   3.158  3.5847  0.2667 -1.3923
 3941SOL     H216209   5.245   3.278   3.051 -0.1873 -1.0038  0.5087
 3941SOL    EPW16210   5.271   3.296   3.133  0.6319 -0.3783  0.1198
 3942SOL      O16211   4.313   2.649   2.189 -0.5727 -0.1372  0.2728
 3942SOL     H116212   4.302   2.720   2.124 -0.7204 -1.6805 -1.4799
 3942SOL     H216213   4.314   2.569   2.136  1.3714 -1.3564  2.0038
 3942SOL    EPW16214   4.312   2.648   2.176 -0.3811 -0.4319  0.2704
 3943SOL      O16215   3.686   3.408   2.938  0.0133 -0.5187 -0.0730
 3943SOL     H116216   3.756   3.472   2.941 -0.8918  0.5003 -0.0469
 3943SOL     H216217   3.727   3.326   2.966  0.7386  0.4816  2.0693
 3943SOL    EPW16218   3.698   3.406   2.942 -0.0059 -0.3033  0.1584
 3944SOL      O16219   2.265   2.811   1.434 -0.2751  0.3926  0.0808
 3944SOL     H116220   2.229   2.833   1.520  0.2636  1.3143  0.0819
 3944SOL     H216221   2.359   2.810   1.448 -0.1671  0.9340 -0.5806
 3944SOL    EPW16222   2.271   2.813   1.445 -0.2061  0.5487  0.0104
 3945SOL      O16223   3.840   4.764   3.304 -0.5525 -0.4312  0.1554
 3945SOL     H116224   3.836   4.773   3.209 -0.7117 -1.2208  0.0808
 3945SOL     H216225   3.763   4.810   3.336 -0.8503 -0.7223 -0.1436
 3945SOL    EPW16226   3.832   4.770   3.297 -0.6012 -0.5464  0.1155
 3946SOL      O16227   4.617   3.054   3.499  0.0229 -0.3207  0.2117
 3946SOL     H116228   4.633   3.128   3.441 -0.3550 -0.5913 -0.2449
 3946SOL     H216229   4.535   3.016   3.468 -0.9761  0.4158  1.8624
 3946SOL    EPW16230   4.610   3.058   3.489 -0.1240 -0.2710  0.3391
 3947SOL      O16231   0.229   1.343   4.010  0.1410 -0.0790 -0.2450
 3947SOL     H116232   0.167   1.409   3.979 -1.6984 -2.0332 -1.0239
 3947SOL     H216233   0.240   1.283   3.937 -1.0101 -2.4971  1.4007
 3947SOL    EPW16234   0.223   1.343   3.999 -0.1781 -0.5454 -0.1525
 3948SOL      O16235   3.774   3.043   2.054  0.0550 -0.1650 -0.0213
 3948SOL     H116236   3.773   3.064   2.147  1.0320 -2.1797  0.5231
 3948SOL     H216237   3.745   2.952   2.050  1.5831 -0.6456 -1.4844
 3948SOL    EPW16238   3.771   3.035   2.063  0.3222 -0.4312 -0.1193
 3949SOL      O16239   2.369   0.086   1.244  0.6690 -0.6391  0.0916
 3949SOL     H116240   2.378   0.002   1.290 -1.0903 -0.4498  0.8585
 3949SOL     H216241   2.458   0.122   1.244  1.1994 -1.8536  1.0052
 3949SOL    EPW16242   2.380   0.081   1.249  0.5379 -0.7484  0.2709
 3950SOL      O16243   3.328   0.405   2.961  0.4435 -0.5111 -0.3617
 3950SOL     H116244   3.366   0.444   2.883  0.3310 -1.3525 -0.8435
 3950SOL     H216245   3.241   0.445   2.969  1.1377  0.9145  0.3652
 3950SOL    EPW16246   3.323   0.413   2.954  0.5056 -0.4488 -0.3356
 3951SOL      O16247   4.377   2.189   1.398  0.4437  0.2847 -0.4707
 3951SOL     H116248   4.467   2.162   1.385  0.0639 -1.4624  0.2303
 3951SOL     H216249   4.368   2.199   1.493 -0.0260  0.7177 -0.5526
 3951SOL    EPW16250   4.385   2.187   1.407  0.3531  0.1445 -0.4047
 3952SOL      O16251   0.250   3.483   1.315  0.3609 -0.4096 -0.1183
 3952SOL     H116252   0.177   3.449   1.264  0.3218  0.3640 -0.6001
 3952SOL     H216253   0.228   3.463   1.406  1.2879 -3.4522 -0.4561
 3952SOL    EPW16254   0.240   3.477   1.320  0.4557 -0.6517 -0.2058
 3953SOL      O16255   2.322   4.684   3.706 -0.0247  0.1830 -0.6166
 3953SOL     H116256   2.355   4.629   3.634 -0.8571  0.2406 -1.0600
 3953SOL     H216257   2.230   4.698   3.684 -0.9079 -1.6317  1.5802
 3953SOL    EPW16258   2.316   4.679   3.696 -0.2077 -0.0045 -0.4296
 3954SOL      O16259   3.207   2.170   3.580  0.3725  0.2159  0.1064
 3954SOL     H116260   3.197   2.254   3.534 -2.6820 -0.6455 -1.0066
 3954SOL     H216261   3.280   2.127   3.534  0.7483  1.4867 -0.5402
 3954SOL    EPW16262   3.214   2.175   3.570  0.0868  0.2595 -0.0813
 3955SOL      O16263   2.857   1.926   3.554 -0.3047 -0.1809 -0.4447
 3955SOL     H116264   2.897   1.867   3.491  2.1810 -0.2415  1.0470
 3955SOL     H216265   2.864   2.013   3.515 -2.5094 -0.5841 -1.9340
 3955SOL    EPW16266   2.862   1.929   3.543 -0.2747 -0.2304 -0.4444
 3956SOL      O16267   2.847   5.454   0.830  0.1821  0.1245 -0.0512
 3956SOL     H116268   2.832   5.431   0.738  0.9832  0.8491 -0.3742
 3956SOL     H216269   2.942   5.455   0.839  0.2311  2.9034  0.0141
 3956SOL    EPW16270   2.856   5.451   0.821  0.2728  0.4982 -0.0787
 3957SOL      O16271   1.987   3.524   3.995 -0.2602  0.1133 -0.5586
 3957SOL     H116272   1.979   3.434   3.961 -0.5480 -0.5270  1.1313
 3957SOL     H216273   2.082   3.539   3.999 -0.2166  0.2099 -1.6071
 3957SOL    EPW16274   1.996   3.516   3.992 -0.2863  0.0553 -0.4902
 3958SOL      O16275   4.461   2.843   0.437  0.1514  0.3422  0.3262
 3958SOL     H116276   4.376   2.887   0.438  0.9280  1.9123 -0.0878
 3958SOL     H216277   4.472   2.811   0.527 -1.2206 -0.6280  0.1790
 3958SOL    EPW16278   4.453   2.844   0.447  0.0879  0.4062  0.2663
 3959SOL      O16279   5.855   2.761   0.380 -0.7667  0.3942 -0.2631
 3959SOL     H116280   5.816   2.754   0.467  0.1682  0.4856  0.1724
 3959SOL     H216281   5.885   2.851   0.374 -0.4734  0.2809 -0.5302
 3959SOL    EPW16282   5.854   2.770   0.389 -0.6357  0.3918 -0.2451
 3960SOL      O16283   5.662   2.555   3.300 -0.3749  0.7250  0.5182
 3960SOL     H116284   5.605   2.549   3.377 -0.0451 -2.4141  0.6120
 3960SOL     H216285   5.737   2.499   3.320  0.4841  1.0530 -1.4908
 3960SOL    EPW16286   5.664   2.549   3.310 -0.2480  0.4252  0.3139
 3961SOL      O16287   3.828   1.370   2.964 -0.1885  0.4078  0.0843
 3961SOL     H116288   3.786   1.285   2.947  1.2883 -0.1756 -0.8306
 3961SOL     H216289   3.756   1.433   2.961 -1.2451 -0.7494  0.2994
 3961SOL    EPW16290   3.815   1.367   2.962 -0.1436  0.2221  0.0096
 3962SOL      O16291   3.163   1.983   1.825  0.5561 -0.0819  0.3631
 3962SOL     H116292   3.216   1.954   1.900 -2.8501 -1.4457  2.4615
 3962SOL     H216293   3.154   2.077   1.838  0.7112 -0.1670  1.1778
 3962SOL    EPW16294   3.168   1.990   1.835  0.2093 -0.2365  0.6738
 3963SOL      O16295   2.851   3.899   1.693  0.4586 -0.4898 -0.1150
 3963SOL     H116296   2.778   3.947   1.654  0.3180  0.2932  1.0704
 3963SOL     H216297   2.818   3.811   1.709  0.1333 -0.4582 -0.6150
 3963SOL    EPW16298   2.840   3.895   1.690  0.4089 -0.4029 -0.0418
 3964SOL      O16299   3.929   4.138   3.904  0.7783 -0.1740 -0.4334
 3964SOL     H116300   3.967   4.134   3.816 -0.4070 -1.0622 -0.9281
 3964SOL     H216301   3.952   4.054   3.944 -0.7731 -0.8176 -0.8162
 3964SOL    EPW16302   3.936   4.128   3.899  0.4864 -0.3374 -0.5270
 3965SOL      O16303   2.612   1.763   3.938  0.8218  0.1878  0.7273
 3965SOL     H116304   2.624   1.823   3.865 -1.3124 -0.0719  0.1062
 3965SOL     H216305   2.672   1.795   4.006  2.5510  0.6648 -0.9475
 3965SOL    EPW16306   2.620   1.773   3.938  0.7786  0.2110  0.4824
 3966SOL      O16307   1.344   4.150   3.987  0.9087 -0.5438  0.1021
 3966SOL     H116308   1.373   4.241   3.975  0.1943 -0.5110 -1.5958
 3966SOL     H216309   1.260   4.158   4.031 -0.7136 -0.1338 -2.8263
 3966SOL    EPW16310   1.338   4.161   3.991  0.6594 -0.4966 -0.3914
 3967SOL      O16311   1.883   1.744   1.524 -0.2457  0.4087 -0.2460
 3967SOL     H116312   1.935   1.666   1.504 -0.6136 -0.6381  2.4939
 3967SOL     H216313   1.792   1.716   1.511 -0.3982  0.2272  1.0997
 3967SOL    EPW16314   1.879   1.733   1.520 -0.3012  0.2777  0.1899
 3968SOL      O16315   3.561   1.488   2.938 -0.4217  0.2390 -0.0907
 3968SOL     H116316   3.504   1.424   2.895 -0.0025  0.4315 -0.9601
 3968SOL     H216317   3.537   1.572   2.900  0.4292  0.3242 -0.4677
 3968SOL    EPW16318   3.552   1.490   2.929 -0.2862  0.2686 -0.2237
 3969SOL      O16319   1.424   4.413   0.034 -0.0221  0.3244  0.2107
 3969SOL     H116320   1.490   4.348   0.058 -0.8724 -1.3333 -1.6536
 3969SOL     H216321   1.383   4.438   0.117 -1.0540 -3.1274  0.9163
 3969SOL    EPW16322   1.426   4.409   0.045 -0.2229 -0.2206  0.0871
 3970SOL      O16323   2.489   2.442   2.878 -0.6702 -0.0912 -0.4930
 3970SOL     H116324   2.419   2.505   2.862 -0.4054  0.7334  1.3267
 3970SOL     H216325   2.466   2.402   2.961  1.3278  0.6962  0.4969
 3970SOL    EPW16326   2.479   2.445   2.885 -0.4288  0.0808 -0.1933
 3971SOL      O16327   5.713   2.939   1.467 -0.1633  0.4330  0.8150
 3971SOL     H116328   5.650   3.003   1.432 -1.1868  0.7971  3.1375
 3971SOL     H216329   5.660   2.861   1.482  0.5937 -0.2207  0.1744
 3971SOL    EPW16330   5.700   2.937   1.465 -0.1917  0.4021  0.9944
 3972SOL      O16331   5.635   2.765   0.197 -0.4018  0.2738 -0.2612
 3972SOL     H116332   5.711   2.755   0.254 -1.2468  1.6136  1.1617
 3972SOL     H216333   5.601   2.676   0.188  0.0465 -0.0401  0.9284
 3972SOL    EPW16334   5.640   2.754   0.202 -0.4441  0.3832  0.0175
 3973SOL      O16335   0.941   5.631   2.407 -0.0907  0.2098 -0.4658
 3973SOL     H116336   0.848   5.634   2.384 -0.0929 -0.6835 -0.6168
 3973SOL     H216337   0.981   5.584   2.334 -0.1307 -2.9999  1.3859
 3973SOL    EPW16338   0.935   5.626   2.396 -0.0952 -0.2279 -0.2843
 3974SOL      O16339   4.412   3.163   1.668 -0.0180 -0.3204 -0.3169
 3974SOL     H116340   4.464   3.237   1.635  0.9870 -1.7018 -2.0050
 3974SOL     H216341   4.322   3.184   1.643  0.5224 -0.5961 -2.7515
 3974SOL    EPW16342   4.408   3.174   1.662  0.1469 -0.4971 -0.7567
 3975SOL      O16343   5.287   1.298   1.394  0.4055 -0.0674 -0.2892
 3975SOL     H116344   5.332   1.226   1.439  0.5195 -1.4090 -2.4624
 3975SOL     H216345   5.198   1.296   1.428  0.9016  0.0844  1.1182
 3975SOL    EPW16346   5.283   1.290   1.403  0.4706 -0.1943 -0.3709
 3976SOL      O16347   5.054   0.733   2.141 -0.2861  0.0152  0.0196
 3976SOL     H116348   5.147   0.714   2.154  0.0446  0.6712 -1.2530
 3976SOL     H216349   5.048   0.828   2.143 -0.8286 -0.0035 -0.5755
 3976SOL    EPW16350   5.063   0.741   2.143 -0.3087  0.0832 -0.1797
 3977SOL      O16351   2.459   5.619   1.713  0.0857  0.1696  0.3889
 3977SOL     H116352   2.527   5.628   1.646 -0.6991 -1.2121 -0.6375
 3977SOL     H216353   2.465   5.528   1.742 -0.7302  0.2813  0.9459
 3977SOL    EPW16354   2.467   5.611   1.709 -0.0850  0.0341  0.3388
 3978SOL      O16355   1.718   4.548   1.110  0.3508 -0.2786 -0.4581
 3978SOL     H116356   1.721   4.535   1.205 -2.2218  0.5642 -0.1823
 3978SOL     H216357   1.757   4.469   1.074  1.0989 -0.7538  1.2999
 3978SOL    EPW16358   1.722   4.538   1.116  0.1562 -0.2394 -0.2411
 3979SOL      O16359   4.895   1.341   3.854 -0.7769 -0.5023 -0.4629
 3979SOL     H116360   4.842   1.262   3.846  1.2495 -1.9993  0.1494
 3979SOL     H216361   4.877   1.373   3.943  0.2632 -1.7552  0.2341
 3979SOL    EPW16362   4.888   1.336   3.863 -0.4497 -0.7956 -0.3232
 3980SOL      O16363   2.863   4.145   3.006 -0.2251  0.1365 -0.0036
 3980SOL     H116364   2.958   4.139   2.997 -0.1883  0.2903  0.2970
 3980SOL     H216365   2.849   4.174   3.096 -0.5758 -0.5531  0.1675
 3980SOL    EPW16366   2.872   4.147   3.014 -0.2586  0.0794  0.0467
 3981SOL      O16367   1.050   1.342   0.378 -0.3617  0.0716 -0.0506
 3981SOL     H116368   1.106   1.330   0.455 -0.7994 -0.0706  0.2461
 3981SOL     H216369   0.990   1.268   0.380 -0.9129  0.5057 -0.0594
 3981SOL    EPW16370   1.050   1.333   0.387 -0.4672  0.1027 -0.0199
 3982SOL      O16371   1.948   2.348   2.338  0.7593  0.3795 -0.4110
 3982SOL     H116372   1.921   2.368   2.428  0.8190  3.8236 -1.0345
 3982SOL     H216373   1.866   2.322   2.295  0.8536 -2.0727  0.7186
 3982SOL    EPW16374   1.936   2.347   2.343  0.7758  0.4853 -0.3570
 3983SOL      O16375   4.418   3.054   2.072 -0.0402 -0.0756  0.2997
 3983SOL     H116376   4.418   3.139   2.028  0.1830 -0.4857 -0.5219
 3983SOL     H216377   4.405   3.074   2.164  1.3151  0.9428  0.2983
 3983SOL    EPW16378   4.417   3.065   2.077  0.1282 -0.0107  0.2119
 3984SOL      O16379   3.775   3.682   3.223 -0.5066 -0.4292  0.0324
 3984SOL     H116380   3.836   3.611   3.242 -0.1676 -0.3430 -0.7147
 3984SOL     H216381   3.694   3.657   3.267 -0.6973 -1.7431 -1.0405
 3984SOL    EPW16382   3.773   3.672   3.230 -0.4908 -0.5602 -0.1618
 3985SOL      O16383   3.959   0.031   0.083 -0.3022  0.2946  0.7243
 3985SOL     H116384   3.994   0.070   0.164 -1.5981  1.3022  0.8447
 3985SOL     H216385   3.892  -0.030   0.114  0.6047 -0.8506  0.4664
 3985SOL    EPW16386   3.955   0.029   0.095 -0.3437  0.2799  0.7096
 3986SOL      O16387   5.075   1.359   0.096  0.3768  0.2777 -0.0037
 3986SOL     H116388   5.168   1.350   0.078  0.1147 -2.2839 -0.4108
 3986SOL     H216389   5.050   1.439   0.050  2.2971  0.8718 -0.1049
 3986SOL    EPW16390   5.082   1.367   0.089  0.5537  0.0678 -0.0579
 3987SOL      O16391   1.366   5.010   1.316 -0.2952  0.7615  0.4209
 3987SOL     H116392   1.423   4.945   1.276  0.1844  0.7851  1.0530
 3987SOL     H216393   1.337   5.065   1.243 -1.9418 -1.0485 -0.3898
 3987SOL    EPW16394   1.369   5.009   1.304 -0.4197  0.5709  0.4019
 3988SOL      O16395   1.098   2.923   1.142  0.1406 -0.4338 -0.0784
 3988SOL     H116396   1.157   2.889   1.074 -0.2608 -2.1280  0.3755
 3988SOL     H216397   1.020   2.950   1.094  0.4855 -0.1092 -0.4630
 3988SOL    EPW16398   1.096   2.922   1.129  0.1346 -0.5799 -0.0710
 3989SOL      O16399   5.610   0.015   2.551  0.5125  0.0334 -0.5845
 3989SOL     H116400   5.590   0.037   2.642  1.5565  0.0115 -0.3442
 3989SOL     H216401   5.566   0.083   2.500  0.9565  0.7769 -0.0013
 3989SOL    EPW16402   5.603   0.025   2.556  0.6713  0.1104 -0.4967
 3990SOL      O16403   2.601   4.525   3.616 -0.3394 -0.1022 -0.1600
 3990SOL     H116404   2.595   4.582   3.692 -2.5214  1.1516 -1.1607
 3990SOL     H216405   2.514   4.532   3.575  0.9031 -0.3169 -3.0276
 3990SOL    EPW16406   2.591   4.532   3.620 -0.4396  0.0086 -0.5727
 3991SOL      O16407   3.284   4.743   4.034 -0.1032  0.7836  0.3028
 3991SOL     H116408   3.302   4.833   4.005  1.6433  0.3325 -0.1345
 3991SOL     H216409   3.188   4.739   4.040 -0.2488  2.5131 -0.1518
 3991SOL    EPW16410   3.276   4.752   4.032  0.0676  0.9200  0.2077
 3992SOL      O16411   3.512   5.702   4.109  0.0303 -0.4074 -0.1285
 3992SOL     H116412   3.462   5.630   4.147  1.7904 -1.4617  0.3261
 3992SOL     H216413   3.459   5.732   4.035 -0.8878 -1.9795 -0.1542
 3992SOL    EPW16414   3.501   5.698   4.105  0.1202 -0.6875 -0.0828
 3993SOL      O16415   0.631   3.465   2.747 -0.1491 -0.3954 -0.2259
 3993SOL     H116416   0.718   3.503   2.733  1.1765 -3.5565 -1.4565
 3993SOL     H216417   0.637   3.423   2.833 -0.5542 -0.4225 -0.2103
 3993SOL    EPW16418   0.641   3.465   2.755 -0.0509 -0.7355 -0.3555
 3994SOL      O16419   2.749   4.058   3.333 -0.0479 -0.2322 -0.0698
 3994SOL     H116420   2.795   4.138   3.311 -2.3030  1.2985  0.3937
 3994SOL     H216421   2.758   4.051   3.428 -2.0220  0.9997  0.2637
 3994SOL    EPW16422   2.755   4.066   3.341 -0.4990  0.0625  0.0152
 3995SOL      O16423   5.867   4.817   1.391 -0.2739  0.7341 -0.6892
 3995SOL     H116424   5.893   4.726   1.377  0.3930  1.3081 -3.7527
 3995SOL     H216425   5.919   4.867   1.328 -2.4135  2.9661 -0.8203
 3995SOL    EPW16426   5.875   4.812   1.383 -0.4310  1.0335 -1.0300
 3996SOL      O16427   1.259   1.992   2.067 -0.5795 -0.2509 -0.1089
 3996SOL     H116428   1.254   2.029   2.155 -0.8718 -0.0003 -0.2280
 3996SOL     H216429   1.169   1.966   2.047 -0.3114 -1.3589  0.1145
 3996SOL    EPW16430   1.249   1.994   2.074 -0.5821 -0.3423 -0.0978
 3997SOL      O16431   5.319   2.213   1.139 -0.5597 -0.3390 -0.7622
 3997SOL     H116432   5.326   2.122   1.169 -0.4399  0.1619  0.8154
 3997SOL     H216433   5.397   2.227   1.085  0.4286 -0.6293  0.5451
 3997SOL    EPW16434   5.328   2.205   1.136 -0.4415 -0.3165 -0.4545
 3998SOL      O16435   3.831   4.037   1.888 -0.4029  0.1262  0.3275
 3998SOL     H116436   3.832   4.065   1.797  1.0530  0.1389  0.3138
 3998SOL     H216437   3.788   4.108   1.936  1.0753  1.3290 -0.0312
 3998SOL    EPW16438   3.827   4.047   1.884 -0.0899  0.2559  0.2878
 3999SOL      O16439   1.670   1.314   0.574 -0.2041 -0.0720 -0.3204
 3999SOL     H116440   1.580   1.291   0.597  0.4239 -0.7658  1.6008
 3999SOL     H216441   1.673   1.305   0.479 -2.9732  3.0219 -0.8740
 3999SOL    EPW16442   1.661   1.310   0.566 -0.4325  0.1841 -0.1745
 4000SOL      O16443   4.714   1.152   3.158  0.5446  0.1765 -0.3670
 4000SOL     H116444   4.685   1.208   3.230  1.1681  1.0575 -0.7900
 4000SOL     H216445   4.808   1.168   3.150  1.0391 -1.9225  0.3564
 4000SOL    EPW16446   4.721   1.159   3.164  0.6639  0.0466 -0.3349
 4001SOL      O16447   0.319   2.689   3.504  0.2110  0.4607  0.6721
 4001SOL     H116448   0.310   2.630   3.429 -2.1895 -0.7475  1.7918
 4001SOL     H216449   0.399   2.739   3.486  1.6279 -2.1659 -0.9981
 4001SOL    EPW16450   0.327   2.688   3.494  0.1061  0.0516  0.6133
 4002SOL      O16451   2.002   2.347   1.144  0.1721  0.1508  0.1604
 4002SOL     H116452   1.977   2.255   1.143 -0.2394  0.2517 -1.2885
 4002SOL     H216453   2.094   2.346   1.171  0.1508 -0.6814  0.2287
 4002SOL    EPW16454   2.009   2.337   1.147  0.1260  0.0728  0.0131
 4003SOL      O16455   1.507   2.029   1.928  0.4587 -0.0822 -0.4320
 4003SOL     H116456   1.419   1.994   1.941  0.6672 -0.9634 -1.2700
 4003SOL     H216457   1.497   2.124   1.939 -0.6196 -0.1566 -0.6323
 4003SOL    EPW16458   1.497   2.035   1.930  0.3659 -0.1841 -0.5428
 4004SOL      O16459   4.388   2.170   1.701  0.3721 -0.2343 -0.6159
 4004SOL     H116460   4.477   2.138   1.685  0.0540 -2.0328  0.8595
 4004SOL     H216461   4.400   2.261   1.728  1.8945 -0.7577  0.6262
 4004SOL    EPW16462   4.399   2.176   1.702  0.5006 -0.4820 -0.3260
 4005SOL      O16463   4.225   3.763   4.126  0.2479 -0.7844  0.0092
 4005SOL     H116464   4.216   3.671   4.151 -2.2561 -0.6980 -0.3087
 4005SOL     H216465   4.226   3.810   4.209  2.1156 -1.0608  0.2031
 4005SOL    EPW16466   4.224   3.758   4.138  0.1800 -0.8047 -0.0040
 4006SOL      O16467   4.557   4.202   0.749  0.3662 -0.1864 -0.4893
 4006SOL     H116468   4.485   4.160   0.797  0.5329  0.9432  0.8257
 4006SOL     H216469   4.559   4.292   0.783 -0.7015  1.3050 -3.9716
 4006SOL    EPW16470   4.550   4.207   0.758  0.2701  0.0932 -0.7205
 4007SOL      O16471   5.376   1.093   1.866 -0.0386  0.6603  0.0354
 4007SOL     H116472   5.321   1.021   1.836  0.4339  0.3638 -0.1357
 4007SOL     H216473   5.360   1.164   1.803  0.3123  0.3288 -0.4394
 4007SOL    EPW16474   5.369   1.093   1.856  0.0492  0.5933 -0.0335
 4008SOL      O16475   2.995   2.498   3.477  0.1864  0.4829 -0.1930
 4008SOL     H116476   2.980   2.465   3.566  0.6509  1.7044  0.3656
 4008SOL     H216477   2.961   2.588   3.480 -1.9951 -0.2017 -1.9405
 4008SOL    EPW16478   2.990   2.504   3.487  0.0033  0.5402 -0.3198
 4009SOL      O16479   2.036   0.669   0.644  0.0870 -0.2772 -0.5844
 4009SOL     H116480   2.026   0.761   0.666 -2.2995 -0.5925 -0.1225
 4009SOL     H216481   2.032   0.623   0.728 -2.0339 -0.9774 -1.0037
 4009SOL    EPW16482   2.034   0.674   0.655 -0.3939 -0.3855 -0.5798
 4010SOL      O16483   1.015   1.554   3.073 -0.3067  0.0476  0.1698
 4010SOL     H116484   1.004   1.639   3.115  3.1228 -0.2254  2.0154
 4010SOL     H216485   0.987   1.491   3.139 -0.3094 -0.3181 -0.1774
 4010SOL    EPW16486   1.011   1.556   3.085  0.0588 -0.0205  0.3296
 4011SOL      O16487   4.400   3.817   2.096 -0.4742 -0.2674  0.5788
 4011SOL     H116488   4.468   3.822   2.163  0.4965 -0.4144 -0.3659
 4011SOL     H216489   4.409   3.899   2.047  0.4237 -1.1941 -0.8518
 4011SOL    EPW16490   4.408   3.827   2.098 -0.2749 -0.3819  0.3254
 4012SOL      O16491   1.388   2.476   4.012 -0.3631 -0.0994 -0.3279
 4012SOL     H116492   1.439   2.491   4.092  3.0267  1.7124 -2.5584
 4012SOL     H216493   1.369   2.382   4.013 -0.3248 -0.1775  2.4410
 4012SOL    EPW16494   1.391   2.467   4.021  0.0026  0.0856 -0.2705
 4013SOL      O16495   1.453   4.522   0.968  0.1548  0.2325 -0.3126
 4013SOL     H116496   1.473   4.492   0.880  1.1175  0.5417 -0.2027
 4013SOL     H216497   1.538   4.538   1.009 -0.2880  0.6324  0.4880
 4013SOL    EPW16498   1.464   4.520   0.963  0.2103  0.3082 -0.2154
 4014SOL      O16499   3.141   0.340   0.531  0.5627  0.2351  0.1280
 4014SOL     H116500   3.193   0.329   0.452 -0.8119  0.3619 -0.8335
 4014SOL     H216501   3.056   0.300   0.509 -0.9375  3.0219  0.3800
 4014SOL    EPW16502   3.137   0.334   0.520  0.2560  0.5459  0.0523
 4015SOL      O16503   2.323   0.548   1.881 -0.7036  0.4036 -0.2386
 4015SOL     H116504   2.348   0.624   1.934 -1.7563  1.0543 -0.6449
 4015SOL     H216505   2.357   0.568   1.793  0.2761 -0.2705 -0.0242
 4015SOL    EPW16506   2.330   0.558   1.877 -0.7114  0.4011 -0.2591
 4016SOL      O16507   1.346   4.633   2.571  0.3832  0.8098  0.3438
 4016SOL     H116508   1.297   4.638   2.654 -0.2893 -0.1670  0.0229
 4016SOL     H216509   1.437   4.620   2.598  0.0178 -0.6957  0.9413
 4016SOL    EPW16510   1.351   4.633   2.583  0.2725  0.5450  0.3733
 4017SOL      O16511   5.529   4.425   2.262 -0.1463  0.1567  0.4207
 4017SOL     H116512   5.559   4.379   2.341  2.2358  1.3276  0.2538
 4017SOL     H216513   5.587   4.396   2.193 -0.7302  0.9146 -0.4129
 4017SOL    EPW16514   5.538   4.417   2.263  0.0456  0.3624  0.3140
 4018SOL      O16515   2.744   5.189   3.867 -0.5316 -0.3457 -0.0644
 4018SOL     H116516   2.729   5.181   3.773 -0.1504  0.4365 -0.1934
 4018SOL     H216517   2.826   5.142   3.882 -0.8940 -0.9771 -0.0234
 4018SOL    EPW16518   2.751   5.183   3.859 -0.5296 -0.3296 -0.0738
 4019SOL      O16519   1.926   3.151   2.193 -0.2023 -0.7182  0.8868
 4019SOL     H116520   1.967   3.094   2.258  0.0285  0.8861  2.1946
 4019SOL     H216521   1.839   3.114   2.180  0.7417 -2.7901 -0.1656
 4019SOL    EPW16522   1.921   3.141   2.198 -0.0770 -0.7681  0.9140
 4020SOL      O16523   2.227   5.764   1.735 -0.0426  0.4476 -0.0847
 4020SOL     H116524   2.239   5.815   1.655  1.2143 -1.4211 -1.1499
 4020SOL     H216525   2.304   5.707   1.739  0.9297  1.7310  3.4630
 4020SOL    EPW16526   2.236   5.763   1.727  0.1952  0.3851  0.1801
 4021SOL      O16527   2.266   1.475   2.518  0.1122 -0.3281  0.5219
 4021SOL     H116528   2.308   1.556   2.546 -0.3475 -0.0015  0.2656
 4021SOL     H216529   2.315   1.449   2.440  0.5982 -0.5828  0.9059
 4021SOL    EPW16530   2.276   1.481   2.513  0.1150 -0.3204  0.5355
 4022SOL      O16531   3.887   0.132   3.304 -0.4329  0.4237  0.0737
 4022SOL     H116532   3.883   0.070   3.377  2.6330 -0.5518 -0.4398
 4022SOL     H216533   3.939   0.205   3.336 -0.8524  0.9765 -0.4833
 4022SOL    EPW16534   3.892   0.133   3.315 -0.1506  0.3786 -0.0405
 4023SOL      O16535   0.721   3.124   1.908 -0.0690 -0.1387  0.2352
 4023SOL     H116536   0.815   3.142   1.904  0.0029 -0.4408  0.5684
 4023SOL     H216537   0.689   3.146   1.820  0.4325 -0.7449 -0.1070
 4023SOL    EPW16538   0.728   3.129   1.898 -0.0079 -0.2356  0.2342
 4024SOL      O16539   5.435   0.186   1.825  0.0921  0.3798 -0.3405
 4024SOL     H116540   5.464   0.112   1.877  0.1942 -0.0519 -1.0151
 4024SOL     H216541   5.421   0.256   1.890  3.1300  0.8195 -0.0155
 4024SOL    EPW16542   5.436   0.186   1.838  0.4270  0.3806 -0.3778
 4025SOL      O16543   3.203   4.133   4.121 -0.3089  0.0142 -0.7511
 4025SOL     H116544   3.132   4.136   4.185  0.0538  2.1872 -0.3588
 4025SOL     H216545   3.259   4.061   4.150 -0.5898  0.4270  0.9133
 4025SOL    EPW16546   3.201   4.126   4.131 -0.3001  0.2901 -0.5317
 4026SOL      O16547   5.287   4.251   0.096 -0.3616 -0.2416  0.2472
 4026SOL     H116548   5.361   4.269   0.155 -0.4655 -0.0933  0.3347
 4026SOL     H216549   5.224   4.205   0.151 -0.0805 -0.9175  0.0112
 4026SOL    EPW16550   5.289   4.248   0.108 -0.3427 -0.2979  0.2313
 4027SOL      O16551   0.701   3.829   0.922  0.1903 -0.7099 -0.5932
 4027SOL     H116552   0.783   3.799   0.883 -0.3455 -1.9627 -0.7905
 4027SOL     H216553   0.725   3.909   0.970  1.5171 -1.0443 -0.6676
 4027SOL    EPW16554   0.712   3.834   0.923  0.2747 -0.8792 -0.6222
 4028SOL      O16555   0.527   3.645   2.094 -0.5122 -0.1511  0.0513
 4028SOL     H116556   0.541   3.564   2.046 -1.3325 -1.1579  1.4658
 4028SOL     H216557   0.484   3.619   2.175 -0.0450  1.5999  0.9234
 4028SOL    EPW16558   0.524   3.634   2.098 -0.5499 -0.0717  0.2952
 4029SOL      O16559   1.150   4.212   0.171  0.1108  0.1467 -0.0281
 4029SOL     H116560   1.163   4.307   0.172 -0.1357  0.2511  2.9300
 4029SOL     H216561   1.145   4.190   0.078  0.9486  2.8965 -0.8408
 4029SOL    EPW16562   1.151   4.220   0.161  0.1739  0.4512  0.2008
 4030SOL      O16563   5.592   4.675   0.228 -0.2198  0.1413 -0.2521
 4030SOL     H116564   5.591   4.671   0.132 -0.6452 -0.5801 -0.2242
 4030SOL     H216565   5.644   4.753   0.248 -1.3046  1.1166 -1.0936
 4030SOL    EPW16566   5.597   4.683   0.220 -0.3809  0.1683 -0.3389
 4031SOL      O16567   2.138   4.850   2.792  0.5207  0.2612 -0.4965
 4031SOL     H116568   2.114   4.936   2.827 -0.0357 -0.8657  2.0563
 4031SOL     H216569   2.055   4.811   2.764  0.7607  0.4752 -1.5602
 4031SOL    EPW16570   2.127   4.855   2.793  0.4869  0.1638 -0.3377
 4032SOL      O16571   0.449   4.963   1.865 -0.3915 -0.9714  0.0935
 4032SOL     H116572   0.535   5.006   1.863 -1.5650  1.5795 -0.1378
 4032SOL     H216573   0.466   4.877   1.904  1.9973  0.0660  1.5944
 4032SOL    EPW16574   0.460   4.959   1.869 -0.2619 -0.5886  0.2289
 4033SOL      O16575   0.770   0.716   1.103 -1.2499 -0.6056  0.2638
 4033SOL     H116576   0.786   0.810   1.101  0.0143 -0.8190 -1.3223
 4033SOL     H216577   0.818   0.686   1.180  0.0551 -0.2069 -0.3604
 4033SOL    EPW16578   0.777   0.723   1.111 -0.9758 -0.5859  0.0280
 4034SOL      O16579   2.828   3.689   3.219  0.2081  0.2386 -0.2042
 4034SOL     H116580   2.782   3.631   3.158  1.4129 -0.4898 -0.4514
 4034SOL     H216581   2.915   3.700   3.181 -0.1436  2.6623 -0.4347
 4034SOL    EPW16582   2.833   3.684   3.209  0.2991  0.4195 -0.2552
 4035SOL      O16583   2.612   3.606   0.073  0.0104 -0.4860  0.3558
 4035SOL     H116584   2.696   3.625   0.115  0.8184 -0.5926 -1.1703
 4035SOL     H216585   2.572   3.692   0.059 -0.9410 -0.4904  2.5661
 4035SOL    EPW16586   2.617   3.617   0.076 -0.0049 -0.4979  0.4288
 4036SOL      O16587   0.107   0.955   3.293 -0.2126 -0.6291 -0.0347
 4036SOL     H116588   0.151   0.970   3.210 -1.1573 -0.4610 -0.5180
 4036SOL     H216589   0.174   0.916   3.349  0.1513 -1.7595 -1.2096
 4036SOL    EPW16590   0.119   0.952   3.290 -0.2745 -0.7317 -0.2116
 4037SOL      O16591   1.333   4.854   3.524  0.1936  0.1578  0.9933
 4037SOL     H116592   1.359   4.856   3.616 -0.8295 -0.5618  1.3159
 4037SOL     H216593   1.386   4.923   3.483 -0.5737  1.6946  2.4438
 4037SOL    EPW16594   1.342   4.862   3.529  0.0026  0.2450  1.1825
 4038SOL      O16595   2.007   0.038   3.632  0.1228 -0.1659  0.5579
 4038SOL     H116596   1.956   0.018   3.554  0.2143  1.5163  0.0207
 4038SOL     H216597   2.099   0.035   3.603  0.1679  0.1936  0.6503
 4038SOL    EPW16598   2.012   0.036   3.620  0.1374  0.0519  0.5105
 4039SOL      O16599   2.827   4.581   0.315 -0.0019 -0.2934 -0.0459
 4039SOL     H116600   2.877   4.502   0.332  0.1735  0.1067  1.4815
 4039SOL     H216601   2.876   4.650   0.360 -0.0890  0.7118 -1.4436
 4039SOL    EPW16602   2.837   4.580   0.322  0.0075 -0.1435 -0.0321
 4040SOL      O16603   2.138   1.346   0.073 -0.2428  0.6244 -0.3669
 4040SOL     H116604   2.158   1.325   0.164  2.2892 -0.7207 -1.1227
 4040SOL     H216605   2.043   1.335   0.066 -0.4142  0.1370  1.9283
 4040SOL    EPW16606   2.130   1.343   0.082  0.0090  0.4289 -0.2027
 4041SOL      O16607   0.848   2.253   3.105  0.0871 -0.0665 -0.5300
 4041SOL     H116608   0.802   2.191   3.162 -0.0358 -0.0921 -0.6566
 4041SOL     H216609   0.778   2.302   3.061  0.1813 -0.0060 -0.6130
 4041SOL    EPW16610   0.836   2.251   3.106  0.0841 -0.0628 -0.5524
 4042SOL      O16611   1.770   2.370   0.748 -0.4044 -0.1807 -0.0451
 4042SOL     H116612   1.772   2.447   0.692  0.3826  0.1011  0.3525
 4042SOL     H216613   1.842   2.315   0.718  0.2760  0.1530  0.9115
 4042SOL    EPW16614   1.778   2.372   0.739 -0.2478 -0.1150  0.0994
 4043SOL      O16615   5.703   3.382   3.488  0.3095 -0.3069  0.4728
 4043SOL     H116616   5.623   3.330   3.489  0.4708 -0.6515 -1.1896
 4043SOL     H216617   5.674   3.472   3.504 -0.7114 -0.1335 -1.8779
 4043SOL    EPW16618   5.691   3.386   3.490  0.2178 -0.3251  0.0447
 4044SOL      O16619   0.170   1.976   1.028 -0.4426 -0.3852 -0.2085
 4044SOL     H116620   0.136   1.970   1.118 -0.3488 -0.8967 -0.2041
 4044SOL     H216621   0.156   1.889   0.992  0.4140 -0.4578 -0.3751
 4044SOL    EPW16622   0.165   1.966   1.034 -0.3412 -0.4475 -0.2258
 4045SOL      O16623   1.526   1.001   0.560  0.0496  0.5963 -0.1636
 4045SOL     H116624   1.499   1.058   0.488 -2.4669  0.2932  0.4501
 4045SOL     H216625   1.452   0.942   0.573  0.6284  0.3072  2.3130
 4045SOL    EPW16626   1.515   1.001   0.554 -0.1571  0.5331  0.1660
 4046SOL      O16627   4.091   4.964   2.912 -0.5969  0.7308  0.4734
 4046SOL     H116628   4.063   4.919   2.833  1.1959  0.3213  0.0327
 4046SOL     H216629   4.111   5.053   2.884  0.7700  0.3793  0.2895
 4046SOL    EPW16630   4.090   4.969   2.901 -0.2598  0.6496  0.4068
 4047SOL      O16631   5.779   3.032   0.549  0.2820  0.1764  0.1179
 4047SOL     H116632   5.758   2.956   0.603  1.7091 -1.2339 -1.2147
 4047SOL     H216633   5.873   3.027   0.536  0.3150  1.8173 -0.5659
 4047SOL    EPW16634   5.787   3.024   0.554  0.4378  0.2010 -0.0972
 4048SOL      O16635   1.472   5.044   3.369  0.6681 -0.0827 -0.6634
 4048SOL     H116636   1.566   5.030   3.383  0.4055 -1.1173  0.0938
 4048SOL     H216637   1.462   5.139   3.375  1.6807  0.0544 -0.8660
 4048SOL    EPW16638   1.481   5.053   3.371  0.7481 -0.1784 -0.6042
 4049SOL      O16639   5.642   3.013   3.680 -0.1337  0.2804  0.1367
 4049SOL     H116640   5.596   3.080   3.630  2.2353  1.4391 -0.6244
 4049SOL     H216641   5.674   3.058   3.758 -1.7409 -0.9533  1.6076
 4049SOL    EPW16642   5.641   3.025   3.683 -0.0524  0.2724  0.2125
 4050SOL      O16643   4.261   4.855   0.150  0.2350  0.2691  0.3324
 4050SOL     H116644   4.312   4.936   0.157 -0.1572  0.6531 -0.9348
 4050SOL     H216645   4.242   4.830   0.240 -1.4669  2.7594  0.7623
 4050SOL    EPW16646   4.265   4.861   0.160  0.0116  0.5757  0.2431
 4051SOL      O16647   4.851   2.419   1.949  0.1003 -0.0640 -0.3741
 4051SOL     H116648   4.761   2.452   1.954  1.1061  3.4322 -2.0100
 4051SOL     H216649   4.875   2.431   1.857  2.7219  0.6482  0.3295
 4051SOL    EPW16650   4.844   2.424   1.939  0.4873  0.3849 -0.4736
 4052SOL      O16651   5.182   2.900   2.443  0.1998  0.3915 -0.0195
 4052SOL     H116652   5.137   2.965   2.498  1.4798 -0.0276  1.6109
 4052SOL     H216653   5.113   2.863   2.388 -1.1916  0.7364  1.4274
 4052SOL    EPW16654   5.170   2.903   2.443  0.1879  0.3836  0.3088
 4053SOL      O16655   4.261   3.672   0.596  0.4297  0.0258 -0.0587
 4053SOL     H116656   4.299   3.673   0.683  1.0415  0.1202 -0.3189
 4053SOL     H216657   4.193   3.738   0.598 -0.4514 -0.8868  0.7329
 4053SOL    EPW16658   4.258   3.679   0.605  0.4010 -0.0615 -0.0020
 4054SOL      O16659   3.151   5.227   3.098 -0.3270 -0.1712 -0.0900
 4054SOL     H116660   3.183   5.305   3.052 -1.4571  0.8394  0.7833
 4054SOL     H216661   3.057   5.240   3.106 -0.2367 -0.4557  2.1806
 4054SOL    EPW16662   3.144   5.236   3.094 -0.4379 -0.0938  0.2454
 4055SOL      O16663   2.589   5.061   2.002  0.5784 -0.1625 -0.7099
 4055SOL     H116664   2.539   5.126   2.051  1.6049  0.6914 -0.7631
 4055SOL     H216665   2.598   4.987   2.063  0.7797  0.3910 -0.0568
 4055SOL    EPW16666   2.585   5.060   2.014  0.7094 -0.0124 -0.6459
 4056SOL      O16667   3.932   3.284   0.783 -0.1399 -0.3599 -0.3962
 4056SOL     H116668   3.847   3.329   0.784  0.5386  0.9940 -0.1505
 4056SOL     H216669   3.983   3.331   0.717  0.9153 -0.1345  0.5504
 4056SOL    EPW16670   3.928   3.294   0.776  0.0451 -0.1914 -0.2690
 4057SOL      O16671   4.821   4.996   3.290  0.2305  0.6199  0.1149
 4057SOL     H116672   4.751   4.958   3.342  0.5834 -1.6222 -0.9203
 4057SOL     H216673   4.798   5.088   3.283 -0.6531  0.6936  2.8261
 4057SOL    EPW16674   4.811   5.002   3.295  0.1739  0.3886  0.2937
 4058SOL      O16675   2.315   4.030   0.006 -0.1994  0.2761 -0.4022
 4058SOL     H116676   2.302   4.106  -0.051 -1.6166  0.5531  0.2373
 4058SOL     H216677   2.310   4.066   0.094  0.2698 -0.4056 -0.0890
 4058SOL    EPW16678   2.313   4.042   0.009 -0.3005  0.2329 -0.3006
 4059SOL      O16679   3.942   1.494   4.127  0.4142  0.1930 -0.1424
 4059SOL     H116680   3.957   1.402   4.109 -0.1956  0.2809 -1.1990
 4059SOL     H216681   3.847   1.501   4.141  0.6583  0.4091  1.5519
 4059SOL    EPW16682   3.933   1.485   4.127  0.3752  0.2254 -0.0743
 4060SOL      O16683   0.573   5.468   1.036  0.8001 -0.0554  0.2907
 4060SOL     H116684   0.664   5.436   1.034  0.5612 -1.2565  3.2068
 4060SOL     H216685   0.555   5.482   1.129 -1.7905  0.9119 -0.2735
 4060SOL    EPW16686   0.581   5.466   1.046  0.4982 -0.0803  0.5416
 4061SOL      O16687   2.929   1.483   1.803  0.1558  0.1503  0.8599
 4061SOL     H116688   2.872   1.408   1.786 -1.1796  1.1723  0.6435
 4061SOL     H216689   2.984   1.489   1.725  0.2951 -0.6036  0.8878
 4061SOL    EPW16690   2.928   1.476   1.793  0.0282  0.1789  0.8398
 4062SOL      O16691   0.489   3.629   2.957 -0.0997 -0.0384  0.2402
 4062SOL     H116692   0.503   3.613   2.864  0.1882  0.1133  0.2589
 4062SOL     H216693   0.395   3.614   2.970 -0.1061 -0.2352 -0.0386
 4062SOL    EPW16694   0.480   3.626   2.949 -0.0697 -0.0432  0.2124
 4063SOL      O16695   5.491   0.536   3.248  0.1988  0.0995  0.7346
 4063SOL     H116696   5.548   0.591   3.194 -0.8140 -0.3860 -0.8829
 4063SOL     H216697   5.552   0.479   3.295  1.1039 -0.9274 -1.5250
 4063SOL    EPW16698   5.504   0.536   3.247  0.1873 -0.0618  0.3210
 4064SOL      O16699   1.119   1.017   1.883  0.1092 -0.0406  0.0641
 4064SOL     H116700   1.044   0.959   1.893  0.4221 -0.7833 -1.6193
 4064SOL     H216701   1.195   0.959   1.881  0.4321  0.3948 -1.5983
 4064SOL    EPW16702   1.119   1.005   1.884  0.1770 -0.0734 -0.2929
 4065SOL      O16703   0.581   2.771   3.501 -0.0793 -0.2141  0.3749
 4065SOL     H116704   0.612   2.681   3.488 -0.6621 -0.5015  0.9251
 4065SOL     H216705   0.615   2.795   3.588  1.4001  0.6688 -0.4184
 4065SOL    EPW16706   0.588   2.764   3.509  0.0164 -0.1506  0.3490
 4066SOL      O16707   1.070   5.591   1.806 -0.3041  0.6519  0.0801
 4066SOL     H116708   1.010   5.623   1.739 -0.0464  0.3666 -0.2876
 4066SOL     H216709   1.081   5.498   1.787  0.9224  0.8702 -0.3823
 4066SOL    EPW16710   1.065   5.584   1.797 -0.1458  0.6448 -0.0084
 4067SOL      O16711   0.586   0.027   3.862 -0.0960  0.3884  0.0068
 4067SOL     H116712   0.612   0.054   3.950  0.0122  0.8252 -0.1590
 4067SOL     H216713   0.534   0.099   3.828 -2.4655 -0.8830  0.7085
 4067SOL    EPW16714   0.584   0.037   3.867 -0.3372  0.2994  0.0640
 4068SOL      O16715   3.094   2.652   3.832 -0.1139 -0.4243  0.1290
 4068SOL     H116716   3.190   2.652   3.838 -0.1431 -1.5861  0.8278
 4068SOL     H216717   3.065   2.598   3.905 -1.3162 -0.1042 -0.0850
 4068SOL    EPW16718   3.101   2.646   3.841 -0.2453 -0.5141  0.1807
 4069SOL      O16719   2.819   3.069   2.807  0.0292 -0.2557 -0.5345
 4069SOL     H116720   2.825   2.996   2.869  0.1554  0.3557  0.1874
 4069SOL     H216721   2.792   3.144   2.861  0.9495  0.4761 -1.0654
 4069SOL    EPW16722   2.816   3.069   2.820  0.1408 -0.1124 -0.5141
 4070SOL      O16723   0.197   1.658   2.307  0.3402 -0.4968 -0.0836
 4070SOL     H116724   0.138   1.643   2.233  0.7984 -0.0409 -0.5457
 4070SOL     H216725   0.139   1.668   2.383 -0.3244  1.9565 -0.8383
 4070SOL    EPW16726   0.185   1.657   2.308  0.3182 -0.1864 -0.2134
 4071SOL      O16727   3.410   1.305   4.112 -0.5786  1.1424  0.3247
 4071SOL     H116728   3.413   1.350   4.028 -0.7903  0.6497  0.0452
 4071SOL     H216729   3.498   1.314   4.148  0.1292 -0.4243 -0.9059
 4071SOL    EPW16730   3.419   1.311   4.107 -0.5257  0.9227  0.1636
 4072SOL      O16731   0.499   3.613   1.774  0.3595 -0.0131  0.8075
 4072SOL     H116732   0.587   3.583   1.751  0.8467  0.1208  2.4037
 4072SOL     H216733   0.470   3.552   1.841 -0.4460  0.4446  0.8813
 4072SOL    EPW16734   0.505   3.603   1.778  0.3255  0.0500  0.9856
 4073SOL      O16735   3.932   1.012   4.024  0.2825 -0.7855 -0.5218
 4073SOL     H116736   3.891   0.973   4.102  0.9980 -0.4908  0.0115
 4073SOL     H216737   3.969   0.938   3.976 -2.5920 -1.3453 -2.1110
 4073SOL    EPW16738   3.931   1.000   4.027  0.0522 -0.8138 -0.6345
 4074SOL      O16739   2.602   3.723   3.396 -0.0201  0.0573 -0.2716
 4074SOL     H116740   2.541   3.795   3.384  0.7114  1.0393  1.5230
 4074SOL     H216741   2.663   3.731   3.322 -1.6693 -0.6124 -1.7762
 4074SOL    EPW16742   2.602   3.732   3.387 -0.1180  0.0906 -0.2407
 4075SOL      O16743   5.749   1.178   2.035  0.1266 -0.1133  0.1157
 4075SOL     H116744   5.812   1.213   2.099 -0.1278  1.4889 -0.4713
 4075SOL     H216745   5.803   1.130   1.972  0.9046  1.7967 -0.7541
 4075SOL    EPW16746   5.762   1.176   2.035  0.1825  0.2614 -0.0397
 4076SOL      O16747   5.823   3.234   0.263 -0.0488  0.0498 -0.0037
 4076SOL     H116748   5.881   3.281   0.202 -0.0545  0.2174  0.1224
 4076SOL     H216749   5.737   3.237   0.221 -0.0516  0.1623  0.0095
 4076SOL    EPW16750   5.820   3.239   0.252 -0.0497  0.0797  0.0111
 4077SOL      O16751   0.562   2.174   3.802 -0.2954 -0.0658 -0.3342
 4077SOL     H116752   0.510   2.200   3.878 -0.5687 -0.7568 -0.2779
 4077SOL     H216753   0.515   2.099   3.765 -0.2715  0.3807 -1.3050
 4077SOL    EPW16754   0.552   2.169   3.806 -0.3220 -0.0919 -0.4317
 4078SOL      O16755   0.002   4.164   3.672 -0.1505 -0.0505 -0.5100
 4078SOL     H116756  -0.074   4.182   3.727 -0.5430 -1.9145 -0.3681
 4078SOL     H216757  -0.026   4.090   3.617  2.0248 -1.8390  0.6362
 4078SOL    EPW16758  -0.009   4.158   3.672  0.0396 -0.4401 -0.3726
 4079SOL      O16759   3.866   2.040   2.709 -0.1255 -0.6727  0.3731
 4079SOL     H116760   3.819   2.123   2.716  0.7745 -0.2686  4.1665
 4079SOL     H216761   3.798   1.974   2.701 -1.0444  0.2331  0.5411
 4079SOL    EPW16762   3.854   2.042   2.709 -0.1275 -0.5329  0.7957
 4080SOL      O16763   1.233   1.305   1.608 -0.3834  0.3762 -0.0911
 4080SOL     H116764   1.248   1.344   1.694  0.3215 -2.6312  1.2656
 4080SOL     H216765   1.163   1.241   1.623  0.3972 -0.8664 -1.5085
 4080SOL    EPW16766   1.227   1.302   1.619 -0.2249 -0.0772 -0.0976
 4081SOL      O16767   1.413   2.792   2.084 -0.3752  0.5656  0.0985
 4081SOL     H116768   1.347   2.743   2.134  0.7959 -0.0919  1.0391
 4081SOL     H216769   1.417   2.877   2.127 -0.0050  0.3055  0.5928
 4081SOL    EPW16770   1.406   2.796   2.094 -0.2108  0.4677  0.2515
 4082SOL      O16771   3.923   1.892   2.055  0.1993 -0.4094  0.0213
 4082SOL     H116772   3.877   1.876   1.973 -1.7109 -1.3017  1.1863
 4082SOL     H216773   3.941   1.805   2.090 -0.4114 -0.0659  1.2558
 4082SOL    EPW16774   3.920   1.881   2.050 -0.0696 -0.4680  0.2773
 4083SOL      O16775   4.908   0.444   1.655  0.4004 -0.1257  0.0573
 4083SOL     H116776   4.892   0.530   1.616 -0.7848 -0.1632  0.4367
 4083SOL     H216777   4.980   0.458   1.716 -1.2245  1.1270  1.7902
 4083SOL    EPW16778   4.914   0.454   1.657  0.1006  0.0040  0.2826
 4084SOL      O16779   3.081   2.812   0.286  0.2508  0.6260 -0.0216
 4084SOL     H116780   3.120   2.734   0.246  1.0231  1.8665 -1.8404
 4084SOL     H216781   2.987   2.799   0.276  0.3626 -0.1239 -0.2036
 4084SOL    EPW16782   3.075   2.802   0.280  0.3451  0.6783 -0.2350
 4085SOL      O16783   4.053   1.315   0.020  0.1411  0.0486  0.7172
 4085SOL     H116784   3.973   1.301  -0.031  2.6267  0.1045 -3.6996
 4085SOL     H216785   4.055   1.410   0.036 -0.5975  0.0517  0.8399
 4085SOL    EPW16786   4.045   1.324   0.017  0.3275  0.0549  0.2591
 4086SOL      O16787   2.244   5.580   2.800  0.0183 -0.3500  0.5010
 4086SOL     H116788   2.322   5.608   2.847  0.4930 -2.0619  0.7817
 4086SOL     H216789   2.251   5.485   2.796 -2.2248 -0.5792  0.8365
 4086SOL    EPW16790   2.253   5.573   2.805 -0.1704 -0.5570  0.5667
 4087SOL      O16791   2.639   1.982   0.785 -0.1143  0.1707 -0.1626
 4087SOL     H116792   2.647   2.077   0.782 -1.3583  0.2577 -1.4573
 4087SOL     H216793   2.588   1.959   0.708  1.7077 -1.7459 -0.8959
 4087SOL    EPW16794   2.635   1.989   0.777 -0.0526 -0.0244 -0.3790
 4088SOL      O16795   5.457   3.513   1.292 -0.3862  0.1623 -0.4936
 4088SOL     H116796   5.464   3.444   1.358 -0.2194  1.1452  0.5346
 4088SOL     H216797   5.378   3.489   1.243  0.8790 -1.9832 -1.6492
 4088SOL    EPW16798   5.449   3.503   1.294 -0.2335  0.0383 -0.5072
 4089SOL      O16799   1.011   4.689   1.954  0.0427  0.3631 -0.6000
 4089SOL     H116800   0.980   4.736   2.032 -0.0293 -0.7770  0.0762
 4089SOL     H216801   1.078   4.747   1.917  1.4936  0.0860  1.4181
 4089SOL    EPW16802   1.015   4.701   1.958  0.1898  0.2120 -0.3126
 4090SOL      O16803   0.843   1.297   2.434  0.4943 -0.0361  0.3046
 4090SOL     H116804   0.900   1.370   2.457 -0.7646  1.2970 -0.6745
 4090SOL     H216805   0.894   1.246   2.371  1.9008 -0.8044  1.9780
 4090SOL    EPW16806   0.855   1.299   2.430  0.5101  0.0241  0.3786
 4091SOL      O16807   3.289   1.344   1.357  0.3968  0.3637  0.0663
 4091SOL     H116808   3.379   1.364   1.329  0.4872  0.1151  0.1759
 4091SOL     H216809   3.240   1.424   1.337  0.2245 -0.1662 -1.7546
 4091SOL    EPW16810   3.294   1.355   1.352  0.3881  0.2807 -0.1162
 4092SOL      O16811   1.454   3.979   2.344 -0.0704  0.1379  0.0322
 4092SOL     H116812   1.446   4.037   2.268  0.0814  0.6742  0.4154
 4092SOL     H216813   1.445   4.037   2.419  0.6533 -0.2531  0.4294
 4092SOL    EPW16814   1.452   3.991   2.344  0.0230  0.1534  0.1154
 4093SOL      O16815   4.458   3.665   3.165  0.0679 -0.1271 -0.4561
 4093SOL     H116816   4.460   3.758   3.185  1.0047 -0.2834  0.2281
 4093SOL     H216817   4.370   3.650   3.130 -0.5212  0.7772  0.5687
 4093SOL    EPW16818   4.448   3.673   3.163  0.1050 -0.0473 -0.2738
 4094SOL      O16819   0.724   5.126   1.926  0.2162 -0.1868 -0.4016
 4094SOL     H116820   0.748   5.108   2.018 -1.8462  0.8261  0.3793
 4094SOL     H216821   0.721   5.221   1.920  1.2444 -0.2125 -1.8142
 4094SOL    EPW16822   0.727   5.134   1.935  0.1059 -0.0815 -0.4690
 4095SOL      O16823   2.644   5.043   3.647  0.1635 -0.2293  0.1418
 4095SOL     H116824   2.679   5.083   3.567 -1.2861 -0.2781 -0.5465
 4095SOL     H216825   2.678   4.954   3.646  0.2961 -0.1781 -0.3288
 4095SOL    EPW16826   2.652   5.038   3.638  0.0230 -0.2291  0.0182
 4096SOL      O16827   3.965   0.394   3.685 -0.0175 -0.1583 -0.3731
 4096SOL     H116828   3.894   0.334   3.663 -0.3506 -0.0670  0.4161
 4096SOL     H216829   3.921   0.478   3.699  0.2395 -0.0983  0.1043
 4096SOL    EPW16830   3.953   0.397   3.685 -0.0256 -0.1422 -0.2380
 4097SOL      O16831   4.629   1.214   3.703  0.1300 -0.3613 -0.7607
 4097SOL     H116832   4.663   1.211   3.614 -2.2349  0.0968 -1.7505
 4097SOL     H216833   4.558   1.151   3.704 -0.3405  0.1605  0.6033
 4097SOL    EPW16834   4.625   1.207   3.694 -0.1725 -0.2568 -0.7208
 4098SOL      O16835   1.125   4.455   2.003  0.2818 -0.0729  0.1538
 4098SOL     H116836   1.080   4.538   1.985 -0.8220 -0.9966 -1.5937
 4098SOL     H216837   1.061   4.404   2.053  0.1469 -0.6289 -0.5743
 4098SOL    EPW16838   1.113   4.458   2.006  0.1496 -0.2308 -0.1103
 4099SOL      O16839   1.392   5.369   1.561  0.1300 -0.9136 -0.7478
 4099SOL     H116840   1.338   5.378   1.483  0.2835 -0.2807 -0.7934
 4099SOL     H216841   1.434   5.455   1.571 -1.8826 -0.0528  1.5185
 4099SOL    EPW16842   1.391   5.379   1.554 -0.0683 -0.7543 -0.5109
 4100SOL      O16843   5.270   1.931   1.206  0.0572 -0.5855  0.1696
 4100SOL     H116844   5.182   1.962   1.225 -0.1194  1.2111 -2.8602
 4100SOL     H216845   5.258   1.837   1.188 -1.6852 -0.0597 -1.9247
 4100SOL    EPW16846   5.259   1.924   1.206 -0.1475 -0.3377 -0.3770
 4101SOL      O16847   2.312   3.661   1.392 -0.0484 -0.0363 -0.1214
 4101SOL     H116848   2.256   3.619   1.327 -0.0015 -0.8736  0.3724
 4101SOL     H216849   2.288   3.620   1.475  1.6700 -0.8208  0.0372
 4101SOL    EPW16850   2.303   3.652   1.394  0.1399 -0.2093 -0.0518
 4102SOL      O16851   4.015   2.521   1.269  0.3982 -0.9798 -0.7874
 4102SOL     H116852   3.970   2.490   1.347 -0.8708 -1.5603 -1.6948
 4102SOL     H216853   4.107   2.499   1.283  0.5040  0.5337  1.2755
 4102SOL    EPW16854   4.020   2.515   1.279  0.2741 -0.8803 -0.6642
 4103SOL      O16855   2.784   5.343   0.296 -0.4938 -0.2063  0.4703
 4103SOL     H116856   2.797   5.264   0.243  0.9322  1.2031 -1.4154
 4103SOL     H216857   2.729   5.400   0.242 -0.0642  0.7728  1.0417
 4103SOL    EPW16858   2.780   5.341   0.284 -0.2958  0.0485  0.3301
 4104SOL      O16859   1.295   5.465   4.087 -0.3478  0.0314  0.1088
 4104SOL     H116860   1.267   5.510   4.166  0.8934  2.6641 -0.8420
 4104SOL     H216861   1.386   5.439   4.104 -0.5668 -0.7915  0.0812
 4104SOL    EPW16862   1.302   5.467   4.097 -0.2387  0.2244  0.0044
 4105SOL      O16863   3.788   1.630   3.769 -0.6731  0.1734 -0.1635
 4105SOL     H116864   3.779   1.678   3.686  1.0254  0.1370 -0.4189
 4105SOL     H216865   3.816   1.542   3.742  0.2628  0.2705  0.4303
 4105SOL    EPW16866   3.790   1.626   3.757 -0.3920  0.1799 -0.1274
 4106SOL      O16867   5.330   0.644   3.797 -0.1724 -0.0495  0.1282
 4106SOL     H116868   5.316   0.663   3.704  1.6138  1.2141  0.0497
 4106SOL     H216869   5.254   0.681   3.840 -0.1275  1.0803 -0.7021
 4106SOL    EPW16870   5.321   0.650   3.791  0.0229  0.2059  0.0312
 4107SOL      O16871   5.663   4.688   3.089  0.1717 -0.7686  0.1480
 4107SOL     H116872   5.576   4.657   3.062  0.0473  0.8635 -1.5143
 4107SOL     H216873   5.716   4.682   3.010  1.2539 -0.6434  0.8505
 4107SOL    EPW16874   5.659   4.684   3.077  0.2739 -0.5811  0.0456
 4108SOL      O16875   3.778   1.235   2.504  0.3763  0.2108  0.3923
 4108SOL     H116876   3.725   1.313   2.488 -0.4360 -0.7118 -1.7172
 4108SOL     H216877   3.719   1.175   2.551  0.1177 -0.0920 -0.2938
 4108SOL    EPW16878   3.766   1.237   2.507  0.2621  0.0801  0.0941
 4109SOL      O16879   5.876   3.473   0.433 -0.1698 -0.5195  0.8207
 4109SOL     H116880   5.849   3.395   0.384 -0.8962  0.4935 -0.4407
 4109SOL     H216881   5.969   3.484   0.410  0.2961 -1.7039  2.0048
 4109SOL    EPW16882   5.883   3.466   0.425 -0.1976 -0.5378  0.8124
 4110SOL      O16883   3.791   2.287   2.782  0.2378  0.3720  0.2184
 4110SOL     H116884   3.751   2.261   2.865  2.1903  1.7739  1.6639
 4110SOL     H216885   3.741   2.364   2.755 -0.8345 -0.4725 -0.3233
 4110SOL    EPW16886   3.781   2.292   2.788  0.3317  0.4315  0.3149
 4111SOL      O16887   0.796   2.362   0.815  0.2971 -0.6189 -0.1367
 4111SOL     H116888   0.858   2.290   0.815  3.0458  1.5492  0.0650
 4111SOL     H216889   0.816   2.411   0.735 -0.2485  0.8200  0.5654
 4111SOL    EPW16890   0.805   2.360   0.807  0.5321 -0.2341 -0.0403
 4112SOL      O16891   3.004   1.443   0.154  0.7121 -0.4837 -0.2201
 4112SOL     H116892   2.991   1.355   0.117 -2.0454 -0.0184 -0.5839
 4112SOL     H216893   2.966   1.502   0.089 -2.2310  0.5367  2.1676
 4112SOL    EPW16894   2.999   1.440   0.143  0.1040 -0.3252 -0.0042
 4113SOL      O16895   0.369   5.194   2.916 -0.2468  0.4994 -0.2592
 4113SOL     H116896   0.398   5.280   2.884  2.0726 -0.1439 -0.0740
 4113SOL     H216897   0.450   5.146   2.932 -1.3891 -0.6558  2.6758
 4113SOL    EPW16898   0.381   5.198   2.914 -0.1212  0.3076  0.0736
 4114SOL      O16899   2.440   2.075   1.025  0.3581 -0.2043 -0.2963
 4114SOL     H116900   2.518   2.128   1.039 -0.1248  0.6805 -0.8127
 4114SOL     H216901   2.401   2.112   0.945 -1.4851  0.5254  0.8715
 4114SOL    EPW16902   2.444   2.085   1.018  0.1099 -0.0321 -0.2268
 4115SOL      O16903   4.529   0.409   1.968  1.1447  0.1923 -0.7198
 4115SOL     H116904   4.558   0.325   1.933  3.7967  0.5196  0.4351
 4115SOL     H216905   4.438   0.417   1.941 -0.0211 -4.1337  1.1109
 4115SOL    EPW16906   4.522   0.401   1.962  1.3032 -0.2343 -0.4013
 4116SOL      O16907   0.636   0.401   2.398 -0.0329 -0.1074 -0.1388
 4116SOL     H116908   0.723   0.436   2.379 -0.1634 -0.5591 -1.6366
 4116SOL     H216909   0.589   0.408   2.316 -1.1104 -0.7784  0.4090
 4116SOL    EPW16910   0.641   0.406   2.388 -0.1618 -0.2272 -0.2401
 4117SOL      O16911   5.450   2.720   2.064  0.1459 -0.3658 -0.2535
 4117SOL     H116912   5.543   2.741   2.075 -0.2280  0.9979  0.5740
 4117SOL     H216913   5.440   2.635   2.106  0.5037  0.7856  2.3550
 4117SOL    EPW16914   5.459   2.713   2.070  0.1442 -0.0975  0.1130
 4118SOL      O16915   1.414   3.784   0.666 -0.0215 -0.1527  0.8988
 4118SOL     H116916   1.499   3.816   0.694 -0.0493  1.0969 -0.3387
 4118SOL     H216917   1.364   3.862   0.643 -0.6492 -0.9505 -0.6877
 4118SOL    EPW16918   1.417   3.795   0.666 -0.0915 -0.1045  0.5976
 4119SOL      O16919   3.402   0.139   1.250 -0.4130 -0.3616  0.2214
 4119SOL     H116920   3.467   0.209   1.245  0.7901 -1.2324  2.1407
 4119SOL     H216921   3.318   0.183   1.257  0.0834  0.8226 -0.9154
 4119SOL    EPW16922   3.400   0.151   1.250 -0.2317 -0.3282  0.3049
 4120SOL      O16923   1.716   2.984   2.897 -0.1214 -0.0250 -0.2993
 4120SOL     H116924   1.781   2.962   2.831 -0.3208  0.0763 -0.5298
 4120SOL     H216925   1.755   3.057   2.946 -0.5336  0.7957 -1.1626
 4120SOL    EPW16926   1.727   2.990   2.895 -0.1866  0.0733 -0.4160
 4121SOL      O16927   4.234   1.509   1.563 -0.8441  1.1122  0.0819
 4121SOL     H116928   4.191   1.486   1.481  1.0670  1.0432 -0.9702
 4121SOL     H216929   4.287   1.586   1.542  1.0526  0.0744  0.7281
 4121SOL    EPW16930   4.235   1.515   1.552 -0.4379  0.9941  0.0386
 4122SOL      O16931   2.444   2.589   0.266 -0.3504  0.0475  0.7101
 4122SOL     H116932   2.445   2.638   0.184 -1.2603  1.2523  1.3899
 4122SOL     H216933   2.483   2.648   0.330  1.0529 -1.1685  1.0231
 4122SOL    EPW16934   2.448   2.600   0.264 -0.2978  0.0463  0.8160
 4123SOL      O16935   2.050   4.216   3.694  0.5414 -0.1726 -0.2419
 4123SOL     H116936   2.006   4.160   3.759  1.8351  0.8577  1.5704
 4123SOL     H216937   2.101   4.278   3.745  0.7690  1.3917 -2.2471
 4123SOL    EPW16938   2.050   4.216   3.706  0.7037  0.1042 -0.2625
 4124SOL      O16939   0.257   2.113   0.602 -0.0173 -0.3499  0.3298
 4124SOL     H116940   0.190   2.066   0.552  0.7087 -0.3759 -0.6363
 4124SOL     H216941   0.308   2.160   0.536  0.8072 -0.1800  1.0698
 4124SOL    EPW16942   0.255   2.113   0.590  0.1481 -0.3345  0.3057
 4125SOL      O16943   3.373   1.005   4.063 -0.1803  0.2868  0.2200
 4125SOL     H116944   3.281   1.031   4.055 -0.3939 -0.9491 -2.3490
 4125SOL     H216945   3.421   1.088   4.065 -1.2290  0.9633 -1.0013
 4125SOL    EPW16946   3.368   1.017   4.062 -0.3150  0.2271 -0.1843
 4126SOL      O16947   2.465   4.824   3.023 -0.3411  0.2619  0.2373
 4126SOL     H116948   2.408   4.895   3.054 -1.7140 -0.9480  0.5999
 4126SOL     H216949   2.484   4.774   3.102 -0.8115 -0.7355 -0.2600
 4126SOL    EPW16950   2.461   4.826   3.035 -0.5378  0.0265  0.2229
 4127SOL      O16951   1.399   4.786   0.210  0.0806 -0.3124 -0.2054
 4127SOL     H116952   1.308   4.775   0.237  0.6006  0.6242  2.1946
 4127SOL     H216953   1.442   4.704   0.235 -0.0176 -0.6200 -1.0218
 4127SOL    EPW16954   1.394   4.776   0.216  0.1256 -0.2453 -0.0365
 4128SOL      O16955   4.033   1.714   3.368 -0.4297  0.5168 -0.3272
 4128SOL     H116956   4.119   1.708   3.327 -0.8751  0.2201 -1.2623
 4128SOL     H216957   4.002   1.623   3.371 -0.5826  0.5829  0.3011
 4128SOL    EPW16958   4.039   1.703   3.364 -0.4935  0.4922 -0.3599
 4129SOL      O16959   1.065   2.904   2.572 -1.1201  0.1274 -0.2161
 4129SOL     H116960   1.122   2.856   2.512  1.0128  2.3714 -0.1544
 4129SOL     H216961   0.977   2.884   2.542 -0.4099 -3.3006 -0.4922
 4129SOL    EPW16962   1.062   2.897   2.562 -0.8168  0.0011 -0.2390
 4130SOL      O16963   0.213   4.058   1.064 -1.2770  0.4061  0.6371
 4130SOL     H116964   0.213   3.983   1.122 -0.3448 -0.0964  0.0200
 4130SOL     H216965   0.259   4.126   1.112 -1.1550  0.2301  0.7694
 4130SOL    EPW16966   0.218   4.057   1.075 -1.1645  0.3337  0.5854
 4131SOL      O16967   0.501   5.223   1.349  0.0378  0.0130 -0.0600
 4131SOL     H116968   0.571   5.185   1.402 -0.7697  0.5249  1.4205
 4131SOL     H216969   0.521   5.316   1.345 -0.4606  0.1367  0.2256
 4131SOL    EPW16970   0.510   5.229   1.354 -0.1015  0.0808  0.1284
 4132SOL      O16971   0.471   1.870   2.453  0.1667 -0.1894  0.2742
 4132SOL     H116972   0.459   1.963   2.473  0.6441  0.5755 -2.5189
 4132SOL     H216973   0.440   1.824   2.531 -0.3976  2.2861  1.6088
 4132SOL    EPW16974   0.466   1.875   2.463  0.1574  0.1563  0.1186
 4133SOL      O16975   4.955   5.191   0.371 -0.0576  0.1101  0.0013
 4133SOL     H116976   5.005   5.264   0.408 -1.2139  1.2205 -0.5544
 4133SOL     H216977   4.936   5.135   0.446 -1.1224  1.5857  0.8981
 4133SOL    EPW16978   4.958   5.193   0.383 -0.2945  0.3860  0.0377
 4134SOL      O16979   3.137   3.950   2.630 -0.2155  0.2372 -0.6598
 4134SOL     H116980   3.046   3.943   2.660 -0.3891  1.9706 -0.6682
 4134SOL     H216981   3.152   3.870   2.580 -1.8306  0.0555 -0.9118
 4134SOL    EPW16982   3.129   3.941   2.628 -0.4063  0.4027 -0.6876
 4135SOL      O16983   0.025   2.411   3.917  0.1122 -0.2051 -0.6016
 4135SOL     H116984  -0.009   2.414   3.828  0.4302 -0.8095 -0.7481
 4135SOL     H216985  -0.048   2.379   3.970 -0.0056 -0.0664 -0.6801
 4135SOL    EPW16986   0.014   2.408   3.913  0.1335 -0.2548 -0.6256
 4136SOL      O16987   0.093   1.272   3.133  0.0310 -0.0533 -0.6394
 4136SOL     H116988   0.125   1.281   3.223  1.1496  0.9013 -1.1031
 4136SOL     H216989   0.130   1.189   3.102  1.7083  0.7874 -0.9944
 4136SOL    EPW16990   0.100   1.264   3.139  0.3292  0.1382 -0.7268
 4137SOL      O16991   5.697   4.167   3.122 -0.0013  0.3085  0.4552
 4137SOL     H116992   5.699   4.174   3.027 -1.2667 -0.0321  0.3877
 4137SOL     H216993   5.686   4.257   3.152  0.5560  0.4357  0.3026
 4137SOL    EPW16994   5.696   4.178   3.115 -0.0768  0.2857  0.4317
 4138SOL      O16995   1.867   4.812   3.960  0.2952  0.4742  0.0710
 4138SOL     H116996   1.952   4.827   4.000  0.9724 -0.0098 -1.1483
 4138SOL     H216997   1.807   4.805   4.035  1.3387  0.6107  0.9562
 4138SOL    EPW16998   1.869   4.813   3.973  0.4788  0.4371  0.0353
 4139SOL      O16999   0.785   1.146   0.123  0.0556  0.1071  0.2744
 4139SOL     H117000   0.844   1.094   0.177  1.4388 -0.4381 -1.6509
 4139SOL     H217001   0.723   1.082   0.087 -0.4822  0.3688  0.7303
 4139SOL    EPW17002   0.784   1.134   0.125  0.1458  0.0768  0.1176
 4140SOL      O17003   1.838   3.752   3.539 -0.1595  0.1648  0.2168
 4140SOL     H117004   1.921   3.794   3.517 -0.5916 -0.4113 -2.9485
 4140SOL     H217005   1.772   3.805   3.495 -0.9461 -2.1571 -1.5990
 4140SOL    EPW17006   1.840   3.762   3.532 -0.2895 -0.1444 -0.3146
 4141SOL      O17007   4.501   1.101   0.486  1.0029 -0.1268  0.3211
 4141SOL     H117008   4.455   1.019   0.471  0.9083 -0.1722  0.8387
 4141SOL     H217009   4.442   1.151   0.543  0.5908  0.7205 -0.8329
 4141SOL    EPW17010   4.490   1.098   0.491  0.9488 -0.0413  0.2532
 4142SOL      O17011   5.090   4.664   1.891  0.5132 -0.3431 -0.0625
 4142SOL     H117012   5.171   4.612   1.893  0.0562 -1.0949 -0.5784
 4142SOL     H217013   5.119   4.754   1.906  1.4226 -0.6329 -0.0256
 4142SOL    EPW17014   5.102   4.668   1.893  0.5615 -0.4542 -0.1136
 4143SOL      O17015   1.839   1.786   0.548 -0.3768 -0.6342 -0.1512
 4143SOL     H117016   1.887   1.867   0.540 -1.7725  0.2099 -0.3903
 4143SOL     H217017   1.803   1.788   0.637 -2.5346  0.2935 -0.9812
 4143SOL    EPW17018   1.840   1.795   0.557 -0.7559 -0.4452 -0.2652
 4144SOL      O17019   3.122   2.693   3.226 -0.4547  0.2216  0.1188
 4144SOL     H117020   3.188   2.742   3.276  1.8277 -2.4076 -0.0986
 4144SOL     H217021   3.039   2.715   3.269  0.9987  0.7232  2.9197
 4144SOL    EPW17022   3.120   2.701   3.236 -0.0561 -0.0054  0.3944
 4145SOL      O17023   2.063   1.268   1.807  1.0084 -0.4304  0.7631
 4145SOL     H117024   2.119   1.208   1.856 -0.3881  0.1646  3.2576
 4145SOL     H217025   1.999   1.211   1.765  2.6097 -1.0024 -1.0124
 4145SOL    EPW17026   2.062   1.255   1.808  1.0303 -0.4280  0.8398
 4146SOL      O17027   5.671   0.849   1.591  0.6734  0.6850  0.0270
 4146SOL     H117028   5.650   0.938   1.563 -0.3006  0.2858 -0.5589
 4146SOL     H217029   5.675   0.798   1.510  3.7018  0.6226  0.0926
 4146SOL    EPW17030   5.669   0.853   1.580  0.8926  0.6358 -0.0285
 4147SOL      O17031   3.182   4.140   3.533 -0.1445  0.5780  0.0391
 4147SOL     H117032   3.249   4.206   3.551 -0.1047  0.5343  0.0509
 4147SOL     H217033   3.119   4.149   3.604 -1.0820  1.8323 -0.8945
 4147SOL    EPW17034   3.183   4.148   3.542 -0.2403  0.7072 -0.0592
 4148SOL      O17035   4.373   1.275   0.181  0.5013  0.4647 -0.1570
 4148SOL     H117036   4.355   1.213   0.111  3.6772  1.8691 -2.4957
 4148SOL     H217037   4.337   1.358   0.150  0.3946  0.7569  0.7113
 4148SOL    EPW17038   4.367   1.278   0.170  0.8287  0.6457 -0.3139
 4149SOL      O17039   5.338   5.800   2.264 -0.3317  0.0361  0.2136
 4149SOL     H117040   5.409   5.744   2.296 -0.4050 -0.0920  0.1522
 4149SOL     H217041   5.265   5.740   2.249 -0.4940  0.1884  0.3987
 4149SOL    EPW17042   5.338   5.787   2.266 -0.3569  0.0387  0.2268
 4150SOL      O17043   1.807   4.371   0.769  0.3868  0.1807 -0.2295
 4150SOL     H117044   1.723   4.324   0.769  1.5232 -1.9707 -0.3429
 4150SOL     H217045   1.839   4.361   0.858  0.4521  1.1984 -0.1261
 4150SOL    EPW17046   1.801   4.365   0.779  0.5150  0.0598 -0.2306
 4151SOL      O17047   5.759   2.826   0.951 -0.3964  0.7557 -0.7214
 4151SOL     H117048   5.830   2.887   0.973  0.1464 -0.2671  0.4972
 4151SOL     H217049   5.765   2.758   1.018 -1.0994 -0.5440 -1.9320
 4151SOL    EPW17050   5.767   2.825   0.960 -0.4135  0.5080 -0.7205
 4152SOL      O17051   0.745   3.104   0.824 -0.4116  0.0381  0.0866
 4152SOL     H117052   0.799   3.182   0.820 -3.9836  2.8394  1.0501
 4152SOL     H217053   0.681   3.122   0.893 -0.0389 -4.8608  2.1750
 4152SOL    EPW17054   0.744   3.114   0.831 -0.7529 -0.1856  0.4122
 4153SOL      O17055   1.373   2.948   2.353  0.5778  0.3276  0.3713
 4153SOL     H117056   1.441   2.933   2.419  1.2982  2.1531  0.1014
 4153SOL     H217057   1.355   3.042   2.359 -2.3103 -0.1577  0.7756
 4153SOL    EPW17058   1.378   2.957   2.361  0.3466  0.4706  0.3857
 4154SOL      O17059   1.425   2.148   3.552 -0.6309  0.5147 -0.0929
 4154SOL     H117060   1.429   2.195   3.635  0.5770 -1.2861  0.9334
 4154SOL     H217061   1.512   2.156   3.515 -0.4053 -0.8286  0.0904
 4154SOL    EPW17062   1.434   2.154   3.557 -0.4780  0.1793  0.0362
 4155SOL      O17063   4.374   5.509   3.216  0.0695  0.2688 -0.3466
 4155SOL     H117064   4.421   5.550   3.288 -1.2107  0.5668  0.3510
 4155SOL     H217065   4.309   5.575   3.189 -2.2125 -1.2989  0.9690
 4155SOL    EPW17066   4.372   5.521   3.221 -0.3105  0.1333 -0.1318
 4156SOL      O17067   4.405   0.617   0.921 -0.3148  0.1596  0.8656
 4156SOL     H117068   4.311   0.600   0.929 -0.3731  0.4871  0.8902
 4156SOL     H217069   4.441   0.592   1.006 -0.4917  0.7474  1.1188
 4156SOL    EPW17070   4.399   0.612   0.931 -0.3399  0.2573  0.8952
 4157SOL      O17071   1.237   3.717   0.866  0.8249 -0.2654 -0.6537
 4157SOL     H117072   1.255   3.628   0.896  2.6424  0.0651 -0.6161
 4157SOL     H217073   1.299   3.731   0.794  0.0860  0.7376 -1.1235
 4157SOL    EPW17074   1.246   3.709   0.862  0.9399 -0.1232 -0.6998
 4158SOL      O17075   4.072   3.107   3.989  0.1283 -0.5014  0.3090
 4158SOL     H117076   4.009   3.172   3.958  0.6333  0.2438  0.8166
 4158SOL     H217077   4.100   3.062   3.909  0.1121  0.2117 -0.1126
 4158SOL    EPW17078   4.068   3.109   3.977  0.1804 -0.3458  0.3182
 4159SOL      O17079   1.513   5.864   3.893  0.1096  0.4750 -0.1721
 4159SOL     H117080   1.473   5.778   3.887 -0.7352  0.8983 -0.7991
 4159SOL     H217081   1.592   5.858   3.840  0.9567 -0.3829  1.1147
 4159SOL    EPW17082   1.517   5.854   3.887  0.1099  0.4287 -0.1017
 4160SOL      O17083   3.830   2.166   3.342  0.1123  0.2699  0.1219
 4160SOL     H117084   3.805   2.077   3.319  0.2316  0.3749 -0.4246
 4160SOL     H217085   3.912   2.181   3.296 -0.3279  0.9461 -0.4536
 4160SOL    EPW17086   3.836   2.158   3.335  0.0781  0.3532  0.0022
 4161SOL      O17087   3.198   4.565   0.969 -0.4314  0.3026  0.1472
 4161SOL     H117088   3.190   4.583   1.062  3.0030  2.3438  0.2166
 4161SOL     H217089   3.261   4.630   0.937 -3.1829  1.2786 -4.1358
 4161SOL    EPW17090   3.204   4.573   0.975 -0.3585  0.6245 -0.3023
 4162SOL      O17091   2.599   0.807   3.916 -0.4720  0.2159  0.0167
 4162SOL     H117092   2.642   0.722   3.908  2.1611  1.5069 -0.7867
 4162SOL     H217093   2.665   0.870   3.887 -2.7676  2.4578 -0.7036
 4162SOL    EPW17094   2.611   0.804   3.912 -0.4360  0.5928 -0.1459
 4163SOL      O17095   1.162   0.444   0.443 -0.3674  0.0833 -0.4057
 4163SOL     H117096   1.127   0.390   0.514 -0.1026  0.5165  0.0539
 4163SOL     H217097   1.087   0.493   0.410 -0.6358 -0.6353 -0.9018
 4163SOL    EPW17098   1.150   0.443   0.447 -0.3678  0.0529 -0.4096
 4164SOL      O17099   2.773   5.652   3.284 -0.4684  0.2904 -0.8351
 4164SOL     H117100   2.724   5.585   3.331  1.0955  1.4662  2.8509
 4164SOL     H217101   2.857   5.611   3.262 -0.1792  0.5136 -0.1593
 4164SOL    EPW17102   2.777   5.640   3.286 -0.2707  0.4396 -0.3698
 4165SOL      O17103   3.994   0.210   1.446 -0.2768 -0.4676  0.6190
 4165SOL     H117104   4.045   0.186   1.368  0.2793 -0.7550  1.0647
 4165SOL     H217105   4.041   0.170   1.519 -0.2798  0.5443  1.1983
 4165SOL    EPW17106   4.005   0.204   1.445 -0.2178 -0.3903  0.7283
 4166SOL      O17107   4.634   2.090   1.429 -0.0986 -0.7012  0.2468
 4166SOL     H117108   4.666   2.036   1.356  0.3873 -1.7041  1.1693
 4166SOL     H217109   4.701   2.157   1.441 -0.8630  0.3656 -1.1220
 4166SOL    EPW17110   4.645   2.091   1.423 -0.1283 -0.6944  0.1992
 4167SOL      O17111   4.005   4.509   3.646 -0.2945  0.4428  0.3614
 4167SOL     H117112   4.081   4.454   3.625 -0.2468 -0.0819  1.8128
 4167SOL     H217113   4.039   4.573   3.709 -0.7429  1.0962 -0.0495
 4167SOL    EPW17114   4.017   4.510   3.650 -0.3373  0.4565  0.4724
 4168SOL      O17115   2.374   1.191   3.020 -0.0859 -0.3863 -0.0389
 4168SOL     H117116   2.379   1.100   3.049  1.6784 -0.0972  0.7129
 4168SOL     H217117   2.457   1.206   2.974  0.0457  1.0813  0.6231
 4168SOL    EPW17118   2.383   1.183   3.018  0.1163 -0.1989  0.1119
 4169SOL      O17119   3.866   1.973   0.601  0.2343 -0.3187  0.7364
 4169SOL     H117120   3.866   1.905   0.534 -1.7163 -1.1666  1.5225
 4169SOL     H217121   3.902   1.930   0.679  0.6644  0.0864  0.7665
 4169SOL    EPW17122   3.870   1.961   0.602  0.0721 -0.3659  0.8235
 4170SOL      O17123   2.204   4.066   4.004  0.2156 -0.2411 -0.1423
 4170SOL     H117124   2.144   4.125   4.049 -0.0591  0.6492 -1.6170
 4170SOL     H217125   2.152   3.987   3.988 -0.1739  0.0396 -0.2848
 4170SOL    EPW17126   2.192   4.064   4.007  0.1447 -0.1162 -0.3148
 4171SOL      O17127   2.756   1.568   3.502 -0.1369 -0.8170 -0.1134
 4171SOL     H117128   2.833   1.622   3.488  0.0354 -1.1604 -0.5074
 4171SOL     H217129   2.702   1.581   3.424 -1.1926  0.5662  0.7843
 4171SOL    EPW17130   2.758   1.575   3.493 -0.2311 -0.7061 -0.0597
 4172SOL      O17131   4.386   1.043   3.720 -0.0546  0.4838 -0.7960
 4172SOL     H117132   4.376   1.082   3.634 -1.3616  1.7495 -0.1087
 4172SOL     H217133   4.329   1.094   3.777 -0.2027 -1.1169  0.5811
 4172SOL    EPW17134   4.379   1.052   3.717 -0.2098  0.4480 -0.5758
 4173SOL      O17135   0.194   5.140   2.242 -0.2299  0.0796  0.2730
 4173SOL     H117136   0.238   5.061   2.274  0.6468  0.8769  1.1314
 4173SOL     H217137   0.222   5.148   2.151 -1.6771 -1.4944 -0.3566
 4173SOL    EPW17138   0.202   5.133   2.236 -0.2907 -0.0033  0.2975
 4174SOL      O17139   4.022   2.239   1.027  0.0197  0.1730 -0.4627
 4174SOL     H117140   4.086   2.248   0.956  0.8625  1.8049  0.4435
 4174SOL     H217141   3.971   2.319   1.025  0.5661  0.6187  1.2038
 4174SOL    EPW17142   4.024   2.248   1.019  0.1679  0.3947 -0.1882
 4175SOL      O17143   1.366   2.807   3.080  0.3835 -0.3354  0.2914
 4175SOL     H117144   1.354   2.900   3.059 -1.5625 -1.1184 -2.5045
 4175SOL     H217145   1.443   2.781   3.029 -0.0167 -0.6134 -0.1713
 4175SOL    EPW17146   1.373   2.814   3.073  0.1332 -0.4486 -0.0562
 4176SOL      O17147   0.007   5.843   2.562 -0.0382  0.4702 -0.3516
 4176SOL     H117148  -0.078   5.885   2.574  0.2373  1.4596 -1.7301
 4176SOL     H217149  -0.010   5.750   2.578 -1.6815  0.4638 -1.9146
 4176SOL    EPW17150  -0.004   5.837   2.565 -0.1841  0.5751 -0.6654
 4177SOL      O17151   5.570   1.813   0.665  0.2426  0.1916 -0.1041
 4177SOL     H117152   5.664   1.795   0.675  0.2579 -1.0103 -1.9089
 4177SOL     H217153   5.554   1.886   0.724  2.1111 -0.1745  0.9717
 4177SOL    EPW17154   5.579   1.819   0.673  0.4436  0.0243 -0.1818
 4178SOL      O17155   0.605   5.040   2.886 -0.3947  0.4975 -0.4579
 4178SOL     H117156   0.595   4.990   2.967 -0.1494 -0.6601 -1.1221
 4178SOL     H217157   0.700   5.052   2.876 -0.4804  1.7635  0.0751
 4178SOL    EPW17158   0.614   5.036   2.893 -0.3777  0.5091 -0.4719
 4179SOL      O17159   3.440   5.043   2.877  0.2687  0.6306  0.3646
 4179SOL     H117160   3.471   4.961   2.839  0.5468  0.7698  0.2890
 4179SOL     H217161   3.345   5.036   2.875  0.2843  0.5619 -0.1924
 4179SOL    EPW17162   3.433   5.034   2.873  0.3001  0.6381  0.2971
 4180SOL      O17163   5.094   3.099   1.569  0.1000  0.0004 -0.7596
 4180SOL     H117164   5.022   3.081   1.509 -2.3629 -0.7393  2.1723
 4180SOL     H217165   5.074   3.185   1.606  0.7931 -0.1508 -0.0050
 4180SOL    EPW17166   5.084   3.106   1.566 -0.0888 -0.0947 -0.3664
 4181SOL      O17167   2.743   2.932   2.360 -0.0308 -0.7422 -0.1301
 4181SOL     H117168   2.761   2.842   2.332  0.8247 -0.5651 -0.1938
 4181SOL     H217169   2.697   2.922   2.443  0.8114 -1.2468  0.3031
 4181SOL    EPW17170   2.740   2.921   2.366  0.1503 -0.7772 -0.0907
 4182SOL      O17171   5.379   5.242   0.977 -0.2377 -0.6214  0.0802
 4182SOL     H117172   5.293   5.203   0.992 -0.7560  0.4344 -0.0820
 4182SOL     H217173   5.423   5.180   0.919 -1.2911 -0.6495 -0.7137
 4182SOL    EPW17174   5.375   5.231   0.972 -0.4053 -0.5118 -0.0218
 4183SOL      O17175   0.625   0.837   0.716 -0.6903  0.3753  0.0909
 4183SOL     H117176   0.656   0.750   0.689 -0.0198  0.3829  0.7969
 4183SOL     H217177   0.622   0.887   0.634  0.4096  0.1272 -0.1290
 4183SOL    EPW17178   0.628   0.833   0.704 -0.5015  0.3497  0.1428
 4184SOL      O17179   3.785   0.899   2.207 -0.1801  0.2170  0.6795
 4184SOL     H117180   3.812   0.820   2.254 -2.2470 -1.0617 -0.1378
 4184SOL     H217181   3.808   0.881   2.116 -1.9526 -0.1069  0.2648
 4184SOL    EPW17182   3.791   0.889   2.202 -0.5897  0.0460  0.5481
 4185SOL      O17183   1.359   0.138   0.010  0.4661 -0.3694 -0.0303
 4185SOL     H117184   1.345   0.193   0.087  0.9342 -0.7387  0.3253
 4185SOL     H217185   1.287   0.160  -0.049 -0.9986 -1.4259  1.2780
 4185SOL    EPW17186   1.350   0.146   0.012  0.3598 -0.5215  0.1472
 4186SOL      O17187   1.558   1.430   0.336  0.3299  0.1032  0.2545
 4186SOL     H117188   1.641   1.459   0.300  0.0874  1.7984  0.9931
 4186SOL     H217189   1.547   1.481   0.416 -1.3481 -0.2084  0.2623
 4186SOL    EPW17190   1.565   1.438   0.341  0.1250  0.2508  0.3341
 4187SOL      O17191   3.000   5.692   3.544 -0.3141  0.2829  0.6118
 4187SOL     H117192   2.941   5.648   3.605 -0.1968  0.2083  0.6736
 4187SOL     H217193   3.085   5.690   3.589 -0.3629  0.8191  0.7426
 4187SOL    EPW17194   3.003   5.687   3.556 -0.3068  0.3322  0.6323
 4188SOL      O17195   5.609   5.537   0.241 -0.2080  0.2334 -0.1440
 4188SOL     H117196   5.688   5.573   0.201 -0.0304 -0.0279 -0.0255
 4188SOL     H217197   5.575   5.476   0.176 -0.0789  0.0271 -0.0186
 4188SOL    EPW17198   5.614   5.535   0.230 -0.1753  0.1835 -0.1180
 4189SOL      O17199   0.509   2.149   2.530 -0.0921 -0.5002  0.2007
 4189SOL     H117200   0.596   2.185   2.513  0.4715 -2.1238 -0.5299
 4189SOL     H217201   0.449   2.215   2.495  0.9310 -1.6265 -4.2909
 4189SOL    EPW17202   0.512   2.160   2.525  0.0772 -0.7936 -0.3564
 4190SOL      O17203   5.516   2.441   1.353  0.1374  0.2012  0.0249
 4190SOL     H117204   5.449   2.470   1.291 -0.5961 -0.7331  0.3402
 4190SOL     H217205   5.535   2.351   1.326 -0.4185 -0.3321  1.3053
 4190SOL    EPW17206   5.511   2.434   1.343 -0.0001  0.0446  0.1951
 4191SOL      O17207   3.881   1.477   1.764  0.0946 -0.1652  0.2870
 4191SOL     H117208   3.811   1.414   1.785 -0.0694  0.6123  2.3377
 4191SOL     H217209   3.885   1.478   1.669 -3.0269  0.0819  0.0632
 4191SOL    EPW17210   3.874   1.470   1.756 -0.2559 -0.0559  0.4819
 4192SOL      O17211   5.100   3.687   3.967 -0.4132  0.2310 -0.3259
 4192SOL     H117212   5.183   3.721   4.001 -0.0555 -1.5724  0.7188
 4192SOL     H217213   5.119   3.667   3.875 -0.2947  1.6361 -0.6337
 4192SOL    EPW17214   5.111   3.688   3.960 -0.3624  0.1885 -0.2473
 4193SOL      O17215   0.565   3.255   2.320 -0.3645 -0.2009 -0.0244
 4193SOL     H117216   0.661   3.251   2.312 -0.4129  0.8582 -1.3819
 4193SOL     H217217   0.549   3.243   2.414  0.9475 -2.5541 -0.0317
 4193SOL    EPW17218   0.574   3.253   2.330 -0.2297 -0.3389 -0.1700
 4194SOL      O17219   3.515   0.388   1.561 -0.9564 -0.7163  0.1170
 4194SOL     H117220   3.522   0.292   1.556 -0.0793 -0.6514  0.0420
 4194SOL     H217221   3.581   0.420   1.499 -1.3486 -0.0581  0.0295
 4194SOL    EPW17222   3.523   0.381   1.554 -0.9047 -0.6391  0.0997
 4195SOL      O17223   4.338   5.730   0.506  0.3463  0.4091 -0.3189
 4195SOL     H117224   4.251   5.750   0.541  0.8501  1.3462  0.4496
 4195SOL     H217225   4.326   5.730   0.411 -0.8379 -1.1892 -0.1980
 4195SOL    EPW17226   4.328   5.732   0.499  0.2737  0.3386 -0.2241
 4196SOL      O17227   4.981   1.118   2.495 -0.4556  0.0538  0.0697
 4196SOL     H117228   4.994   1.028   2.466  1.8795 -0.1664  1.5571
 4196SOL     H217229   5.007   1.171   2.420  0.3338 -0.5098 -0.0710
 4196SOL    EPW17230   4.985   1.114   2.484 -0.1223 -0.0298  0.2134
 4197SOL      O17231   1.485   3.846   3.381  0.2278  0.0787 -0.7896
 4197SOL     H117232   1.390   3.844   3.393 -0.1146  2.1821 -2.4782
 4197SOL     H217233   1.520   3.870   3.467 -0.6818 -1.3473  0.0104
 4197SOL    EPW17234   1.479   3.848   3.391  0.0942  0.1510 -0.8844
 4198SOL      O17235   1.849   0.092   4.080  0.4368  0.5926  0.2486
 4198SOL     H117236   1.944   0.098   4.090  0.4476 -0.4002  0.9464
 4198SOL     H217237   1.829   0.001   4.101 -0.4612  0.2611 -1.7683
 4198SOL    EPW17238   1.857   0.083   4.083  0.3422  0.4514  0.1079
 4199SOL      O17239   3.957   3.234   1.286 -0.1381 -0.2578 -0.1578
 4199SOL     H117240   3.880   3.187   1.256  1.0025 -1.9361 -0.6086
 4199SOL     H217241   3.987   3.282   1.208 -1.9947  2.3816  0.5977
 4199SOL    EPW17242   3.952   3.234   1.274 -0.2145 -0.1553 -0.1253
 4200SOL      O17243   2.666   4.605   2.887  0.0451  0.0271  0.6045
 4200SOL     H117244   2.578   4.644   2.894 -0.9877 -1.5268 -2.0068
 4200SOL     H217245   2.706   4.651   2.813  0.9557 -0.1128  1.0100
 4200SOL    EPW17246   2.661   4.614   2.880  0.0321 -0.1536  0.3692
 4201SOL      O17247   1.398   0.147   2.720 -0.3438  0.1994  0.1436
 4201SOL     H117248   1.325   0.133   2.781 -0.0658  1.4548  0.8089
 4201SOL     H217249   1.464   0.193   2.773 -0.6792  2.6712 -1.4610
 4201SOL    EPW17250   1.397   0.151   2.732 -0.3499  0.5970  0.0434
 4202SOL      O17251   5.476   0.189   0.985  0.4350 -0.2425  0.1277
 4202SOL     H117252   5.476   0.125   1.057  0.9735  1.4272  1.7005
 4202SOL     H217253   5.569   0.207   0.971  0.3663 -0.9552 -1.4239
 4202SOL    EPW17254   5.486   0.184   0.991  0.4852 -0.1404  0.1299
 4203SOL      O17255   5.276   5.572   2.947 -0.4244  0.0431  0.2673
 4203SOL     H117256   5.208   5.616   2.896 -1.8125 -2.1734  0.0696
 4203SOL     H217257   5.246   5.578   3.038  1.9542  3.8268  1.0390
 4203SOL    EPW17258   5.266   5.578   2.952 -0.3187  0.2103  0.3285
 4204SOL      O17259   0.332   2.792   0.598 -0.4800 -0.0363 -0.4936
 4204SOL     H117260   0.267   2.726   0.622  0.2414 -0.4336  0.4593
 4204SOL     H217261   0.293   2.876   0.622 -0.7366 -0.2538 -0.1450
 4204SOL    EPW17262   0.321   2.794   0.603 -0.4304 -0.1019 -0.3547
 4205SOL      O17263   4.092   3.198   2.318 -0.0514 -0.2811 -0.0034
 4205SOL     H117264   4.187   3.194   2.309 -0.0185  2.0461 -1.4318
 4205SOL     H217265   4.059   3.131   2.258  0.6614 -0.1395 -0.5589
 4205SOL    EPW17266   4.098   3.191   2.311  0.0282 -0.0177 -0.2150
 4206SOL      O17267   2.003   5.626   1.889  0.2810 -0.3660 -0.0943
 4206SOL     H117268   1.995   5.687   1.963  0.0795  0.2076 -0.5760
 4206SOL     H217269   2.079   5.659   1.840 -0.2920 -0.0399 -0.7759
 4206SOL    EPW17270   2.011   5.636   1.891  0.1984 -0.2700 -0.2184
 4207SOL      O17271   2.918   0.747   2.802  0.4454 -0.1645  0.6026
 4207SOL     H117272   2.912   0.689   2.726 -0.7260 -0.2878  0.7661
 4207SOL     H217273   2.979   0.815   2.776  0.6333 -0.6211 -0.1744
 4207SOL    EPW17274   2.924   0.748   2.791  0.3405 -0.2264  0.5371
 4208SOL      O17275   5.831   4.590   4.105 -0.0111 -0.5280 -0.1782
 4208SOL     H117276   5.798   4.653   4.042 -0.9922 -2.7860 -2.0923
 4208SOL     H217277   5.766   4.588   4.175  0.4018  1.0164  0.2948
 4208SOL    EPW17278   5.821   4.596   4.106 -0.0717 -0.6041 -0.3319
 4209SOL      O17279   2.217   5.285   3.831  0.1654  0.2424 -0.0351
 4209SOL     H117280   2.126   5.314   3.818  0.2527  0.9647  0.8542
 4209SOL     H217281   2.236   5.231   3.754 -0.4566  1.4637 -1.0755
 4209SOL    EPW17282   2.209   5.282   3.821  0.1083  0.4498 -0.0512
 4210SOL      O17283   5.256   3.131   1.345 -0.6861  0.6581  0.0362
 4210SOL     H117284   5.187   3.144   1.410 -0.7964 -0.9738  0.2910
 4210SOL     H217285   5.316   3.068   1.386  1.2565  2.3907  0.0268
 4210SOL    EPW17286   5.255   3.126   1.357 -0.4907  0.6688  0.0624
 4211SOL      O17287   5.792   2.487   2.082 -0.7179  0.2286  0.3077
 4211SOL     H117288   5.741   2.489   2.001 -1.1384  0.0205  0.5583
 4211SOL     H217289   5.799   2.579   2.109  0.7746  0.4621 -0.7735
 4211SOL    EPW17290   5.787   2.497   2.077 -0.6035  0.2313  0.2191
 4212SOL      O17291   1.399   2.452   2.679 -0.2041  0.4367  0.4565
 4212SOL     H117292   1.425   2.381   2.737 -1.9249  0.7618  1.7140
 4212SOL     H217293   1.475   2.467   2.623  0.1067 -2.5953 -0.0888
 4212SOL    EPW17294   1.410   2.446   2.679 -0.3545  0.1479  0.5325
 4213SOL      O17295   0.093   1.916   1.292  0.0489 -0.5648 -0.0230
 4213SOL     H117296   0.078   1.822   1.298  1.1809 -1.0626 -3.1108
 4213SOL     H217297   0.188   1.926   1.300  0.0045  0.2096 -0.3390
 4213SOL    EPW17298   0.101   1.907   1.293  0.1649 -0.5353 -0.3861
 4214SOL      O17299   5.492   1.831   4.115 -0.0296  0.2441 -0.6443
 4214SOL     H117300   5.566   1.795   4.165  0.9151  2.0454 -0.6327
 4214SOL     H217301   5.528   1.911   4.075 -1.7963  0.8029 -1.1892
 4214SOL    EPW17302   5.504   1.836   4.116 -0.1173  0.4959 -0.7012
 4215SOL      O17303   0.189   1.166   3.827 -0.0221 -0.2369  0.2992
 4215SOL     H117304   0.095   1.157   3.811  0.5371 -1.3668 -3.5431
 4215SOL     H217305   0.220   1.076   3.837  0.9180 -0.0841 -0.9749
 4215SOL    EPW17306   0.183   1.155   3.826  0.1378 -0.3411 -0.2466
 4216SOL      O17307   0.660   5.723   0.614  0.0150  0.4292  0.0877
 4216SOL     H117308   0.637   5.631   0.631 -0.2466  0.5534  0.4084
 4216SOL     H217309   0.750   5.719   0.580  0.2266  0.1061  0.6724
 4216SOL    EPW17310   0.667   5.713   0.612  0.0097  0.4080  0.1843
 4217SOL      O17311   0.815   4.284   4.081  0.1690  0.2199 -0.4914
 4217SOL     H117312   0.788   4.236   4.003 -0.8596 -0.1585  0.0780
 4217SOL     H217313   0.754   4.255   4.150 -1.4964  3.3775 -0.4460
 4217SOL    EPW17314   0.806   4.276   4.080 -0.1184  0.5164 -0.4259
 4218SOL      O17315   5.439   2.224   2.151 -0.3282  0.2347  0.7167
 4218SOL     H117316   5.378   2.297   2.161 -1.0412 -0.2592  0.1327
 4218SOL     H217317   5.400   2.153   2.203  0.4602  0.3290  1.4437
 4218SOL    EPW17318   5.428   2.224   2.157 -0.3202  0.1920  0.7319
 4219SOL      O17319   1.749   5.476   4.000 -0.1882  0.5493 -0.1189
 4219SOL     H117320   1.836   5.513   3.985 -0.1195  0.0177 -1.1275
 4219SOL     H217321   1.692   5.521   3.937 -0.6327  0.8333  0.4757
 4219SOL    EPW17322   1.752   5.485   3.991 -0.2283  0.5229 -0.1631
 4220SOL      O17323   0.252   3.461   3.256  0.0078  0.6569  0.2324
 4220SOL     H117324   0.242   3.538   3.200 -0.0364  1.4873  1.3549
 4220SOL     H217325   0.347   3.448   3.263  0.1574  2.2555  2.1581
 4220SOL    EPW17326   0.261   3.468   3.251  0.0191  0.9160  0.5576
 4221SOL      O17327   1.549   2.831   0.874 -0.2606 -0.5056  0.1471
 4221SOL     H117328   1.644   2.831   0.864 -0.2665 -1.0336  0.0802
 4221SOL     H217329   1.523   2.920   0.850  0.2800 -0.1602  0.7910
 4221SOL    EPW17330   1.556   2.840   0.870 -0.2036 -0.5251  0.2087
 4222SOL      O17331   1.830   4.146   3.848 -0.1949 -0.3159 -0.2204
 4222SOL     H117332   1.829   4.051   3.839 -1.2134 -0.2880 -0.5495
 4222SOL     H217333   1.753   4.175   3.799 -1.7100  0.4470  2.4239
 4222SOL    EPW17334   1.822   4.139   3.842 -0.4652 -0.2315  0.0266
 4223SOL      O17335   5.492   3.285   0.693  0.2384 -0.2030 -0.3303
 4223SOL     H117336   5.438   3.232   0.751  2.9807 -0.7051  1.9886
 4223SOL     H217337   5.515   3.226   0.622  0.6947 -1.1697  0.5897
 4223SOL    EPW17338   5.488   3.273   0.692  0.5796 -0.3597  0.0152
 4224SOL      O17339   5.833   0.896   1.209  0.0238 -0.5757  0.4685
 4224SOL     H117340   5.834   0.938   1.123  0.3168 -1.4363  0.0399
 4224SOL     H217341   5.742   0.868   1.221  0.1284 -1.0945  0.1064
 4224SOL    EPW17342   5.823   0.897   1.201  0.0662 -0.7228  0.3841
 4225SOL      O17343   4.991   0.858   1.838 -0.2647  0.1026  0.4638
 4225SOL     H117344   4.995   0.769   1.873  0.5418 -1.8675 -3.9936
 4225SOL     H217345   5.080   0.875   1.806 -1.1165  1.1789 -1.4889
 4225SOL    EPW17346   5.001   0.850   1.838 -0.2695  0.0072 -0.2200
 4226SOL      O17347   2.505   3.024   2.221  0.1758  1.0249 -0.2385
 4226SOL     H117348   2.581   3.009   2.277  0.0108 -0.0502 -0.2799
 4226SOL     H217349   2.525   2.977   2.140 -0.5667  0.6439 -0.2088
 4226SOL    EPW17350   2.515   3.017   2.218  0.0790  0.8696 -0.2398
 4227SOL      O17351   2.996   5.192   3.970  0.1293  0.4075  0.3642
 4227SOL     H117352   2.990   5.157   4.059  0.3165  2.2019  1.1061
 4227SOL     H217353   3.055   5.266   3.977  1.6700 -0.5221 -1.6321
 4227SOL    EPW17354   3.002   5.196   3.981  0.3136  0.4997  0.2304
 4228SOL      O17355   3.599   2.821   3.681 -0.2252 -0.0604  0.1555
 4228SOL     H117356   3.605   2.732   3.714 -0.0499  0.6176  2.1388
 4228SOL     H217357   3.673   2.830   3.622 -0.9147 -1.5502 -0.9868
 4228SOL    EPW17358   3.607   2.813   3.679 -0.2801 -0.1470  0.2452
 4229SOL      O17359   5.589   2.175   2.916 -0.4138 -0.3861  0.4372
 4229SOL     H117360   5.651   2.205   2.848  0.1490  0.3458  1.2461
 4229SOL     H217361   5.604   2.081   2.922 -0.6589 -0.5118 -0.6305
 4229SOL    EPW17362   5.597   2.169   2.909 -0.3799 -0.3215  0.4096
 4230SOL      O17363   1.810   1.295   3.076 -0.2519  0.6763  0.3782
 4230SOL     H117364   1.737   1.354   3.057  0.2573  1.1814 -0.0618
 4230SOL     H217365   1.867   1.303   3.000 -0.0902 -0.2690  0.3958
 4230SOL    EPW17366   1.808   1.302   3.066 -0.1803  0.6293  0.3332
 4231SOL      O17367   3.592   2.942   0.729 -0.1594 -0.3670  1.1282
 4231SOL     H117368   3.678   2.939   0.770  0.1300 -0.1703  0.5473
 4231SOL     H217369   3.590   2.867   0.670 -0.1140  0.0246  0.6210
 4231SOL    EPW17370   3.601   2.934   0.727 -0.1237 -0.3042  1.0121
 4232SOL      O17371   4.024   5.334   2.049 -0.1336 -0.5268 -0.1273
 4232SOL     H117372   3.945   5.297   2.088 -0.4085 -1.0746 -1.1653
 4232SOL     H217373   4.093   5.269   2.066 -0.0883 -0.4221  0.0860
 4232SOL    EPW17374   4.023   5.323   2.055 -0.1581 -0.5741 -0.2153
 4233SOL      O17375   5.814   0.541   1.855 -0.4795  0.5135 -0.3942
 4233SOL     H117376   5.835   0.538   1.949  1.4394 -0.6769 -0.8111
 4233SOL     H217377   5.749   0.473   1.843  0.1559 -0.1659 -0.0951
 4233SOL    EPW17378   5.810   0.534   1.864 -0.2070  0.3141 -0.4068
 4234SOL      O17379   0.264   5.722   3.460 -0.0287  0.5370  0.4071
 4234SOL     H117380   0.334   5.735   3.524 -0.3517 -0.2439  0.9374
 4234SOL     H217381   0.298   5.758   3.379  0.8575  0.4605  0.7396
 4234SOL    EPW17382   0.275   5.727   3.459  0.0314  0.4456  0.4991
 4235SOL      O17383   2.641   2.458   1.386  0.7280  0.2025 -0.2537
 4235SOL     H117384   2.570   2.399   1.411  0.5235 -0.1297 -1.5394
 4235SOL     H217385   2.721   2.408   1.403  0.6267  0.2403  0.3500
 4235SOL    EPW17386   2.642   2.447   1.390  0.6954  0.1711 -0.3265
 4236SOL      O17387   2.441   1.468   2.305  0.0017 -0.1353 -0.1251
 4236SOL     H117388   2.496   1.393   2.326 -0.2644 -0.5190 -0.7668
 4236SOL     H217389   2.501   1.529   2.261  0.7522  1.0224  2.3531
 4236SOL    EPW17390   2.453   1.467   2.302  0.0534 -0.0527  0.0708
 4237SOL      O17391   4.597   5.865   0.086  0.2546 -0.2293 -0.1093
 4237SOL     H117392   4.691   5.862   0.065  0.5389  0.5579  1.0040
 4237SOL     H217393   4.554   5.837   0.005  1.4619 -1.0032 -0.5088
 4237SOL    EPW17394   4.603   5.862   0.075  0.4137 -0.2279 -0.0331
 4238SOL      O17395   1.108   5.838   0.979  0.1046  0.0690  0.0803
 4238SOL     H117396   1.162   5.888   1.040 -1.6397  2.4382 -0.2059
 4238SOL     H217397   1.071   5.768   1.033 -0.7285  1.6063  1.5996
 4238SOL    EPW17398   1.110   5.836   0.991 -0.1703  0.4857  0.2118
 4239SOL      O17399   0.923   3.246   3.257  0.3165  0.3902 -0.0765
 4239SOL     H117400   0.993   3.235   3.321  1.5648  1.5365 -1.1722
 4239SOL     H217401   0.934   3.172   3.198  1.0804  0.9266 -0.6345
 4239SOL    EPW17402   0.932   3.237   3.257  0.5312  0.5697 -0.2529
 4240SOL      O17403   1.159   3.101   2.763 -0.7488 -0.2145  0.0244
 4240SOL     H117404   1.083   3.143   2.805 -0.5848  0.4389 -0.3133
 4240SOL     H217405   1.122   3.052   2.690 -0.7705  0.8723 -0.7214
 4240SOL    EPW17406   1.147   3.100   2.760 -0.7336 -0.0289 -0.0912
 4241SOL      O17407   4.414   2.001   1.079  0.4005 -0.2375 -0.0709
 4241SOL     H117408   4.380   2.001   0.990 -0.7590 -0.0059  0.3547
 4241SOL     H217409   4.400   2.091   1.110 -0.0774 -0.5439  0.6441
 4241SOL    EPW17410   4.409   2.011   1.073  0.2258 -0.2455  0.0507
 4242SOL      O17411   2.419   3.045   2.752  0.0324 -0.4754  0.2571
 4242SOL     H117412   2.386   3.004   2.832 -3.6400  1.6616  0.0704
 4242SOL     H217413   2.474   3.117   2.783 -0.1053 -0.6078  0.8273
 4242SOL    EPW17414   2.421   3.048   2.764 -0.3740 -0.2615  0.2980
 4243SOL      O17415   2.752   1.513   4.092 -0.5499 -0.3685  0.0165
 4243SOL     H117416   2.757   1.495   3.998 -0.0128 -0.1194 -0.0062
 4243SOL     H217417   2.774   1.606   4.100 -1.2179 -0.2344  0.3301
 4243SOL    EPW17418   2.755   1.521   4.082 -0.5639 -0.3276  0.0475
 4244SOL      O17419   2.390   0.686   2.204  0.2512  0.1236  0.0325
 4244SOL     H117420   2.395   0.743   2.281  0.5435 -0.3878  0.3978
 4244SOL     H217421   2.362   0.744   2.133  0.7958  0.7798  0.3424
 4244SOL    EPW17422   2.387   0.699   2.204  0.3405  0.1391  0.1045
 4245SOL      O17423   0.960   3.085   0.288 -0.9668  0.3199  0.5145
 4245SOL     H117424   0.899   3.132   0.345 -2.5716 -2.1507  1.0022
 4245SOL     H217425   0.939   3.116   0.200  1.4589  4.1000  1.0166
 4245SOL    EPW17426   0.951   3.093   0.285 -0.8792  0.4596  0.6201
 4246SOL      O17427   4.319   5.492   2.898 -0.1147  0.1315 -0.3961
 4246SOL     H117428   4.315   5.575   2.850 -1.3242  0.2401 -0.1488
 4246SOL     H217429   4.303   5.516   2.989  1.3477 -0.1737 -0.0330
 4246SOL    EPW17430   4.317   5.503   2.903 -0.0877  0.1105 -0.3310
 4247SOL      O17431   4.041   5.296   2.537  0.8287 -0.6936  0.3050
 4247SOL     H117432   4.014   5.260   2.453  1.5200  1.3134 -0.8367
 4247SOL     H217433   4.133   5.319   2.526  0.8815 -0.1960  1.5394
 4247SOL    EPW17434   4.048   5.294   2.527  0.9080 -0.4264  0.3148
 4248SOL      O17435   1.261   2.690   3.493 -0.0704  0.2468 -0.2466
 4248SOL     H117436   1.240   2.717   3.583  0.3094  0.2775 -0.1661
 4248SOL     H217437   1.288   2.599   3.501 -0.2089  0.1944 -0.3584
 4248SOL    EPW17438   1.261   2.683   3.503 -0.0446  0.2445 -0.2499
 4249SOL      O17439   2.109   2.015   2.572  0.2336  0.5983  0.7699
 4249SOL     H117440   2.081   2.003   2.662 -1.1360  2.3990  0.6246
 4249SOL     H217441   2.193   2.062   2.578  0.0665  0.8537  1.0954
 4249SOL    EPW17442   2.115   2.018   2.582  0.0696  0.8177  0.7892
 4250SOL      O17443   1.465   3.128   2.064  0.0032  0.0521  0.3226
 4250SOL     H117444   1.412   3.118   1.985  1.2036 -0.4623 -0.4511
 4250SOL     H217445   1.406   3.169   2.128 -1.2261 -0.2695 -0.5742
 4250SOL    EPW17446   1.453   3.132   2.063  0.0001 -0.0371  0.1444
 4251SOL      O17447   0.279   4.376   0.876  0.2439 -0.5651 -0.0717
 4251SOL     H117448   0.369   4.342   0.877  0.2408 -0.5740 -0.1061
 4251SOL     H217449   0.226   4.305   0.913  0.2008 -0.7030 -0.3906
 4251SOL    EPW17450   0.283   4.365   0.880  0.2390 -0.5808 -0.1094
 4252SOL      O17451   2.104   2.260   0.458  0.6756  0.4158  0.3079
 4252SOL     H117452   2.085   2.309   0.378 -1.9644  0.3609  0.8350
 4252SOL     H217453   2.193   2.288   0.482  1.5083  0.5085 -2.5322
 4252SOL    EPW17454   2.112   2.269   0.452  0.4828  0.4198  0.0612
 4253SOL      O17455   4.892   2.463   0.879 -0.0554 -0.2699  0.4170
 4253SOL     H117456   4.820   2.446   0.819  0.9709 -1.9132 -0.4358
 4253SOL     H217457   4.962   2.496   0.823  0.2485  0.1913  1.0565
 4253SOL    EPW17458   4.892   2.465   0.867  0.0865 -0.3960  0.3943
 4254SOL      O17459   5.857   1.424   0.732  0.1097  0.5425  0.5644
 4254SOL     H117460   5.879   1.405   0.641  0.8636  0.9849  0.6452
 4254SOL     H217461   5.940   1.415   0.779 -0.7772 -2.9542  1.8090
 4254SOL    EPW17462   5.868   1.421   0.727  0.0955  0.2167  0.7058
 4255SOL      O17463   0.344   0.457   3.124 -0.3027  0.0229 -0.2528
 4255SOL     H117464   0.257   0.422   3.141  0.0417 -1.2438 -0.9385
 4255SOL     H217465   0.353   0.454   3.029  0.8197 -0.7263 -0.1384
 4255SOL    EPW17466   0.336   0.453   3.116 -0.1463 -0.1922 -0.3137
 4256SOL      O17467   0.470   5.378   3.913 -0.4712 -0.2839 -0.1426
 4256SOL     H117468   0.400   5.375   3.847  0.8782 -0.7205 -1.6395
 4256SOL     H217469   0.539   5.321   3.877  0.3838 -0.4116  1.5994
 4256SOL    EPW17470   0.470   5.372   3.902 -0.2360 -0.3441 -0.1164
 4257SOL      O17471   4.866   0.843   3.670 -0.0946 -0.0656  0.1916
 4257SOL     H117472   4.957   0.869   3.653 -0.0591  0.2930  0.8921
 4257SOL     H217473   4.834   0.812   3.586  0.3884  0.6933 -0.2868
 4257SOL    EPW17474   4.872   0.842   3.659 -0.0392  0.0536  0.2153
 4258SOL      O17475   5.316   0.817   4.136 -0.5545 -0.1199 -0.1401
 4258SOL     H117476   5.280   0.904   4.152  0.8145  0.1846  1.5810
 4258SOL     H217477   5.282   0.763   4.208 -0.0440 -0.5639 -0.2195
 4258SOL    EPW17478   5.309   0.820   4.146 -0.3540 -0.1348  0.0350
 4259SOL      O17479   2.552   4.796   2.159  0.3610 -0.3182 -0.3694
 4259SOL     H117480   2.568   4.720   2.103 -1.6605 -0.5952 -0.6544
 4259SOL     H217481   2.630   4.803   2.214  1.8616 -0.7989 -2.3457
 4259SOL    EPW17482   2.562   4.789   2.159  0.3054 -0.3990 -0.6107
 4260SOL      O17483   0.884   2.605   0.979 -0.0423  0.1714 -0.2113
 4260SOL     H117484   0.847   2.523   0.948  1.7428 -0.4495 -0.8418
 4260SOL     H217485   0.850   2.616   1.068 -1.2856 -0.5966 -0.5842
 4260SOL    EPW17486   0.877   2.598   0.986  0.0155  0.0232 -0.3183
 4261SOL      O17487   1.657   2.980   3.461  0.7369 -0.6232 -0.1258
 4261SOL     H117488   1.675   3.054   3.403  2.1653 -1.5505 -0.9202
 4261SOL     H217489   1.580   2.938   3.423  0.7468 -0.3426 -0.4665
 4261SOL    EPW17490   1.651   2.983   3.451  0.8903 -0.6922 -0.2469
 4262SOL      O17491   4.771   2.720   0.908 -0.1219  0.0193 -0.5867
 4262SOL     H117492   4.772   2.737   1.003  0.9492  1.2538 -0.7886
 4262SOL     H217493   4.803   2.630   0.900 -1.9923 -0.7865  0.3053
 4262SOL    EPW17494   4.774   2.712   0.918 -0.2072  0.0651 -0.5131
 4263SOL      O17495   3.645   2.401   1.122  0.3654  0.1370  0.1095
 4263SOL     H117496   3.598   2.451   1.056 -0.1611 -0.6089 -0.1041
 4263SOL     H217497   3.733   2.391   1.087  0.4030  0.7046  0.0443
 4263SOL    EPW17498   3.649   2.405   1.111  0.3133  0.1180  0.0798
 4264SOL      O17499   3.705   3.130   0.501 -0.2413 -0.4969 -0.1438
 4264SOL     H117500   3.657   3.209   0.525 -1.4770 -1.1305 -0.3900
 4264SOL     H217501   3.668   3.062   0.558 -0.6927 -1.2914 -1.3336
 4264SOL    EPW17502   3.696   3.131   0.510 -0.4213 -0.6493 -0.2970
 4265SOL      O17503   5.661   5.774   3.942 -0.1220 -0.5563  0.0653
 4265SOL     H117504   5.694   5.864   3.946 -0.8185 -0.3392  2.0985
 4265SOL     H217505   5.610   5.771   3.861  0.9311  0.4964 -0.6705
 4265SOL    EPW17506   5.659   5.784   3.934 -0.0840 -0.4209  0.2037
 4266SOL      O17507   3.464   3.626   0.362  0.1452 -0.2308 -0.8305
 4266SOL     H117508   3.509   3.669   0.289  1.5130 -1.8992 -1.0127
 4266SOL     H217509   3.512   3.654   0.440  1.4037 -1.7991 -1.0008
 4266SOL    EPW17510   3.474   3.634   0.363  0.4254 -0.5761 -0.8681
 4267SOL      O17511   4.022   5.840   3.799  0.2618  0.6151  0.7691
 4267SOL     H117512   3.938   5.820   3.840  0.4326  2.6539  2.2634
 4267SOL     H217513   4.051   5.920   3.842  2.8065  0.1849  0.0180
 4267SOL    EPW17514   4.016   5.846   3.808  0.5515  0.7867  0.8484
 4268SOL      O17515   4.069   4.049   3.672  0.4582  0.4352  0.2005
 4268SOL     H117516   4.061   3.956   3.693 -1.1105  0.5765  0.2894
 4268SOL     H217517   4.124   4.050   3.593  0.6723 -0.5422  0.3148
 4268SOL    EPW17518   4.074   4.039   3.666  0.3137  0.3460  0.2222
 4269SOL      O17519   4.504   0.200   2.930  0.1226 -0.3945  0.5706
 4269SOL     H117520   4.564   0.256   2.880 -0.9018  0.0993 -0.1720
 4269SOL     H217521   4.480   0.130   2.869 -0.6856 -0.1189  0.5582
 4269SOL    EPW17522   4.508   0.199   2.918 -0.0729 -0.3125  0.4900
 4270SOL      O17523   4.418   2.350   0.328 -0.0052 -0.6139  0.6135
 4270SOL     H117524   4.434   2.365   0.235  1.7560  2.5076  1.2812
 4270SOL     H217525   4.331   2.387   0.343  0.1837 -0.0733  0.3989
 4270SOL    EPW17526   4.410   2.355   0.320  0.2028 -0.2232  0.6618
 4271SOL      O17527   4.601   2.540   3.164  0.1305  0.2840 -0.5836
 4271SOL     H117528   4.631   2.514   3.251 -1.5744 -0.8710 -0.2840
 4271SOL     H217529   4.533   2.606   3.181  0.5790  0.8966 -1.1112
 4271SOL    EPW17530   4.597   2.545   3.175 -0.0036  0.2261 -0.6079
 4272SOL      O17531   1.146   1.795   0.238 -0.1328 -0.4038  0.1644
 4272SOL     H117532   1.102   1.761   0.316  2.3910 -2.3437  0.9000
 4272SOL     H217533   1.224   1.739   0.229  0.0327  0.1847 -3.3690
 4272SOL    EPW17534   1.150   1.785   0.246  0.1540 -0.5480 -0.1341
 4273SOL      O17535   2.327   2.660   3.709 -0.7261 -0.1089  0.0271
 4273SOL     H117536   2.244   2.613   3.698 -0.0130 -1.7078  1.1305
 4273SOL     H217537   2.369   2.656   3.623 -1.6254  0.4456 -0.4553
 4273SOL    EPW17538   2.323   2.655   3.699 -0.7460 -0.2203  0.0934
 4274SOL      O17539   3.841   2.593   2.568  0.5986 -0.4907 -0.8545
 4274SOL     H117540   3.884   2.678   2.575  1.8705 -1.1885  0.2822
 4274SOL     H217541   3.750   2.610   2.591  1.3318  0.1880  1.9426
 4274SOL    EPW17542   3.836   2.604   2.572  0.8125 -0.4928 -0.4349
 4275SOL      O17543   2.214   3.078   3.604  0.0856 -0.3046  0.2746
 4275SOL     H117544   2.288   3.110   3.655  0.1892 -1.3353  0.8144
 4275SOL     H217545   2.203   3.141   3.533  1.3935 -0.0658  0.2709
 4275SOL    EPW17546   2.220   3.088   3.602  0.2362 -0.3891  0.3318
 4276SOL      O17547   4.954   1.785   1.847 -0.0385 -0.0656  0.3422
 4276SOL     H117548   4.942   1.696   1.879  0.5165 -0.5206 -0.6623
 4276SOL     H217549   5.042   1.785   1.809 -0.4148  0.6249 -0.5764
 4276SOL    EPW17550   4.962   1.776   1.846 -0.0194 -0.0404  0.1371
 4277SOL      O17551   4.352   2.803   1.956  0.0069 -0.9183  0.2730
 4277SOL     H117552   4.437   2.763   1.943  0.6762  1.0861 -2.4094
 4277SOL     H217553   4.371   2.891   1.990 -0.9590 -0.3756 -0.5395
 4277SOL    EPW17554   4.363   2.808   1.958 -0.0247 -0.6466 -0.0998
 4278SOL      O17555   4.839   1.840   2.523  0.2029 -0.2751 -0.2854
 4278SOL     H117556   4.826   1.756   2.567  1.1802  0.2229  1.0196
 4278SOL     H217557   4.800   1.827   2.436 -1.4371 -1.4213  0.5530
 4278SOL    EPW17558   4.833   1.829   2.518  0.1322 -0.3443 -0.0567
 4279SOL      O17559   0.689   0.124   0.022 -0.3962  0.4333 -0.0517
 4279SOL     H117560   0.702   0.164  -0.063  0.2097  0.6491  0.1423
 4279SOL     H217561   0.777   0.102   0.053 -0.7001 -0.9298 -0.1011
 4279SOL    EPW17562   0.700   0.126   0.017 -0.3640  0.3109 -0.0363
 4280SOL      O17563   5.804   3.631   0.207 -0.2939 -0.4710  0.6499
 4280SOL     H117564   5.710   3.644   0.194 -0.1163 -0.7414 -1.2352
 4280SOL     H217565   5.811   3.593   0.295 -1.7461  1.3467  1.6118
 4280SOL    EPW17566   5.795   3.628   0.215 -0.4299 -0.3060  0.5514
 4281SOL      O17567   0.342   5.202   3.659  0.2791  0.0297  0.4511
 4281SOL     H117568   0.317   5.293   3.671 -0.5743 -0.1596  0.2248
 4281SOL     H217569   0.425   5.205   3.612  0.9191  0.6979  1.5961
 4281SOL    EPW17570   0.348   5.212   3.655  0.2564  0.0808  0.5491
 4282SOL      O17571   1.338   4.384   3.806  0.2931  0.6407 -0.5376
 4282SOL     H117572   1.258   4.380   3.753  0.4471  2.2460 -0.9366
 4282SOL     H217573   1.367   4.475   3.799 -0.3466  1.3254  3.3129
 4282SOL    EPW17574   1.333   4.393   3.800  0.2412  0.8850 -0.1694
 4283SOL      O17575   1.575   5.603   1.832 -0.4751 -0.7589 -0.5307
 4283SOL     H117576   1.627   5.668   1.878  1.3060 -1.4885 -1.4167
 4283SOL     H217577   1.487   5.641   1.829  0.2929  1.1730 -0.2243
 4283SOL    EPW17578   1.571   5.614   1.837 -0.2032 -0.6307 -0.5925
 4284SOL      O17579   5.553   5.621   2.941 -0.3986  0.3183  0.4467
 4284SOL     H117580   5.534   5.707   2.903 -0.0185  0.2915  0.1879
 4284SOL     H217581   5.470   5.573   2.933 -0.5250  0.5562  0.3056
 4284SOL    EPW17582   5.542   5.625   2.936 -0.3715  0.3408  0.4040
 4285SOL      O17583   1.964   2.545   3.079  0.3773 -0.5872 -0.1886
 4285SOL     H117584   1.995   2.480   3.016  0.2544 -1.0074  0.1808
 4285SOL     H217585   1.869   2.537   3.077  0.3131  0.1597 -0.7443
 4285SOL    EPW17586   1.958   2.538   3.072  0.3573 -0.5523 -0.2085
 4286SOL      O17587   3.810   5.746   0.238 -0.1946  0.2876 -0.1421
 4286SOL     H117588   3.720   5.731   0.209 -0.2986  1.0744 -0.2713
 4286SOL     H217589   3.849   5.659   0.242 -1.0671 -0.1060  0.2751
 4286SOL    EPW17590   3.804   5.735   0.235 -0.2988  0.3295 -0.1114
 4287SOL      O17591   0.860   5.533   0.173  0.1689  0.1504 -0.2402
 4287SOL     H117592   0.826   5.541   0.262 -1.6610 -1.7020 -0.7013
 4287SOL     H217593   0.802   5.587   0.120  1.0674  1.0038 -0.3767
 4287SOL    EPW17594   0.850   5.539   0.177  0.0695  0.0439 -0.3039
 4288SOL      O17595   3.908   0.409   0.319  0.5277 -0.3290  0.1996
 4288SOL     H117596   3.991   0.446   0.287  0.6071 -0.3664  0.3597
 4288SOL     H217597   3.852   0.405   0.241  0.9967 -1.2025 -0.1079
 4288SOL    EPW17598   3.911   0.413   0.307  0.5862 -0.4262  0.1839
 4289SOL      O17599   5.763   2.499   1.058  0.8214  0.5265  0.1640
 4289SOL     H117600   5.722   2.534   0.979 -1.2245 -2.5285 -0.2671
 4289SOL     H217601   5.760   2.572   1.120  3.3968  3.3866 -2.6830
 4289SOL    EPW17602   5.758   2.511   1.056  0.8779  0.5057 -0.1857
 4290SOL      O17603   0.050   1.368   2.876 -0.0451 -0.1351 -0.1717
 4290SOL     H117604   0.070   1.324   2.959  0.0688 -1.0535 -0.6808
 4290SOL     H217605   0.049   1.461   2.899  0.4123 -0.3477  0.7759
 4290SOL    EPW17606   0.052   1.373   2.887  0.0158 -0.2558 -0.1250
 4291SOL      O17607   2.782   1.530   0.974  0.1728  0.5784  0.3915
 4291SOL     H117608   2.747   1.490   0.894 -0.1166  0.4638  0.5732
 4291SOL     H217609   2.814   1.615   0.945 -3.3385  2.2140  0.7710
 4291SOL    EPW17610   2.781   1.535   0.962 -0.2326  0.7407  0.4513
 4292SOL      O17611   0.965   5.001   1.328 -0.1928 -0.1440  0.8151
 4292SOL     H117612   0.874   5.018   1.353 -0.5206 -2.0065  1.0674
 4292SOL     H217613   0.983   5.064   1.259 -0.7261  2.1478  2.6479
 4292SOL    EPW17614   0.957   5.009   1.323 -0.2846 -0.0982  1.0375
 4293SOL      O17615   0.452   4.284   2.952  0.0773  0.5684  0.5093
 4293SOL     H117616   0.408   4.363   2.921  1.3529  0.1167 -2.9583
 4293SOL     H217617   0.385   4.216   2.947  0.0955  0.6133 -1.0497
 4293SOL    EPW17618   0.440   4.285   2.948  0.2153  0.5250 -0.0269
 4294SOL      O17619   3.476   1.891   3.221 -0.1298  0.1877 -0.3984
 4294SOL     H117620   3.381   1.890   3.207 -0.2246  0.3253  0.2058
 4294SOL     H217621   3.500   1.798   3.223 -0.4538  0.1098  0.6969
 4294SOL    EPW17622   3.469   1.881   3.220 -0.1745  0.1941 -0.2171
 4295SOL      O17623   5.137   4.166   3.485  0.1020 -0.5745  0.2891
 4295SOL     H117624   5.124   4.094   3.423 -0.1190  0.7683 -1.2818
 4295SOL     H217625   5.137   4.245   3.431  2.9073  0.4707  1.6347
 4295SOL    EPW17626   5.135   4.166   3.473  0.3777 -0.3198  0.2651
 4296SOL      O17627   3.390   4.480   3.060  0.1831  0.2880  0.5479
 4296SOL     H117628   3.406   4.566   3.021  1.9822 -0.5329 -0.6097
 4296SOL     H217629   3.412   4.492   3.153  1.4367  0.8204  0.1972
 4296SOL    EPW17630   3.394   4.491   3.066  0.5088  0.2572  0.3870
 4297SOL      O17631   2.964   5.484   1.568 -0.1158 -1.0331 -0.6128
 4297SOL     H117632   3.009   5.415   1.520  0.2247 -0.7988 -0.6315
 4297SOL     H217633   3.033   5.544   1.594 -0.0855 -1.8241  1.3156
 4297SOL    EPW17634   2.976   5.483   1.566 -0.0762 -1.0925 -0.4091
 4298SOL      O17635   1.651   3.539   4.017  0.2492 -0.4716  0.0145
 4298SOL     H117636   1.572   3.559   3.966  0.6158 -0.6750 -0.6335
 4298SOL     H217637   1.723   3.564   3.960  0.6712  1.4879  1.2979
 4298SOL    EPW17638   1.650   3.544   4.006  0.3333 -0.2842  0.0822
 4299SOL      O17639   5.305   4.095   1.496 -0.1490 -0.3888 -0.5363
 4299SOL     H117640   5.277   4.141   1.417  0.4449 -0.9999 -1.1146
 4299SOL     H217641   5.224   4.085   1.548 -1.0481 -2.0491 -2.1390
 4299SOL    EPW17642   5.293   4.099   1.493 -0.1816 -0.6311 -0.7690
 4300SOL      O17643   0.079   2.362   1.457  0.1771  0.3502  0.1672
 4300SOL     H117644   0.027   2.287   1.429  1.5401 -0.1522 -1.1293
 4300SOL     H217645   0.151   2.324   1.507  0.0461  0.9393  0.8274
 4300SOL    EPW17646   0.081   2.350   1.459  0.3085  0.3594  0.0993
 4301SOL      O17647   1.019   3.317   2.935  0.2269  0.0772 -0.4043
 4301SOL     H117648   0.937   3.322   2.984  0.5390  0.5736  0.0762
 4301SOL     H217649   1.032   3.406   2.901  2.9327  1.4014  3.4546
 4301SOL    EPW17650   1.012   3.327   2.936  0.5489  0.2714  0.0586
 4302SOL      O17651   3.248   3.909   3.803 -0.3201 -0.1714  0.2521
 4302SOL     H117652   3.343   3.895   3.798 -0.3630 -0.2563 -0.3460
 4302SOL     H217653   3.213   3.824   3.830 -0.3389 -0.5114 -0.7959
 4302SOL    EPW17654   3.255   3.898   3.805 -0.3266 -0.2167  0.0765
 4303SOL      O17655   1.483   1.118   2.231  0.0775  0.1603  0.5712
 4303SOL     H117656   1.434   1.200   2.231 -0.8955 -0.3910 -0.5726
 4303SOL     H217657   1.417   1.050   2.213  1.0787 -0.7023  0.0074
 4303SOL    EPW17658   1.471   1.119   2.229  0.0805  0.0095  0.3890
 4304SOL      O17659   5.526   4.044   3.306  1.1115 -0.4107  0.3435
 4304SOL     H117660   5.574   4.095   3.240  0.0030 -0.3410 -0.4409
 4304SOL     H217661   5.510   4.106   3.377  0.7224  0.0308 -0.1271
 4304SOL    EPW17662   5.529   4.056   3.306  0.9517 -0.3561  0.2096
 4305SOL      O17663   4.491   3.432   1.604  0.1154  0.3973  0.1540
 4305SOL     H117664   4.492   3.426   1.509  0.7488 -0.8567  0.2190
 4305SOL     H217665   4.407   3.472   1.625  0.0089  0.7663 -0.9315
 4305SOL    EPW17666   4.482   3.436   1.596  0.1716  0.3029  0.0451
 4306SOL      O17667   3.285   5.061   0.159 -0.0277 -0.7623  0.3550
 4306SOL     H117668   3.271   4.984   0.105 -0.1995 -0.8381  0.5038
 4306SOL     H217669   3.226   5.049   0.234  0.7419 -1.0255  0.9383
 4306SOL    EPW17670   3.277   5.052   0.162  0.0361 -0.7985  0.4331
 4307SOL      O17671   5.850   3.766   1.367 -0.0528 -0.3672  0.6006
 4307SOL     H117672   5.781   3.744   1.305  0.2200 -1.2071  0.5860
 4307SOL     H217673   5.863   3.687   1.418  3.0079 -1.3660 -1.4008
 4307SOL    EPW17674   5.844   3.756   1.366  0.3028 -0.5634  0.3855
 4308SOL      O17675   0.687   3.695   3.148  0.3598 -0.5066 -0.3956
 4308SOL     H117676   0.650   3.650   3.072  3.4400  0.4095 -2.6513
 4308SOL     H217677   0.650   3.783   3.143  2.0815  0.1959 -2.2185
 4308SOL    EPW17678   0.679   3.700   3.139  0.8720 -0.3339 -0.8307
 4309SOL      O17679   2.540   5.498   2.383 -0.1868 -0.2892 -0.1977
 4309SOL     H117680   2.507   5.409   2.384  0.5740 -0.6148 -1.6980
 4309SOL     H217681   2.512   5.535   2.467 -0.8409 -1.8007  0.2786
 4309SOL    EPW17682   2.534   5.493   2.392 -0.1754 -0.4852 -0.3069
 4310SOL      O17683   5.033   0.955   0.768 -0.3417 -0.0834 -0.0455
 4310SOL     H117684   5.055   0.868   0.735  0.2994  0.2293 -0.4586
 4310SOL     H217685   4.943   0.969   0.741 -1.1717 -1.4472  1.7881
 4310SOL    EPW17686   5.026   0.947   0.762 -0.3619 -0.1955  0.1060
 4311SOL      O17687   2.037   3.145   0.097  0.3244 -0.1955 -0.9391
 4311SOL     H117688   1.997   3.136   0.010  1.5014 -0.1730 -1.5038
 4311SOL     H217689   2.122   3.103   0.088  0.7931  0.5361 -0.0160
 4311SOL    EPW17690   2.041   3.139   0.087  0.5000 -0.1150 -0.9009
 4312SOL      O17691   3.794   3.996   1.330  0.4632  0.5295  0.5204
 4312SOL     H117692   3.880   4.000   1.288  0.5240  1.8536  0.7328
 4312SOL     H217693   3.795   4.069   1.393 -1.3603  1.5466 -0.5466
 4312SOL    EPW17694   3.803   4.004   1.333  0.2751  0.7792  0.4292
 4313SOL      O17695   0.112   0.901   2.130 -0.1231 -0.4460 -0.5247
 4313SOL     H117696   0.144   0.980   2.173  1.3033 -1.1594 -0.1941
 4313SOL     H217697   0.086   0.929   2.043  0.3982  0.3745 -0.4238
 4313SOL    EPW17698   0.113   0.912   2.126  0.0847 -0.4345 -0.4787
 4314SOL      O17699   1.515   0.602   0.331  0.7843  0.7943 -0.3931
 4314SOL     H117700   1.581   0.538   0.357  2.1245  1.7286 -1.2868
 4314SOL     H217701   1.565   0.683   0.318 -0.6159  1.6373 -0.7393
 4314SOL    EPW17702   1.528   0.604   0.332  0.7779  0.9839 -0.5253
 4315SOL      O17703   5.653   0.990   0.017 -0.7408  0.4858  0.2020
 4315SOL     H117704   5.716   0.918   0.021  1.1295  2.0855  1.9917
 4315SOL     H217705   5.607   0.977  -0.066  0.1510 -2.1914  0.0177
 4315SOL    EPW17706   5.655   0.981   0.008 -0.4461  0.3709  0.3733
 4316SOL      O17707   5.496   3.894   0.025  0.2610 -0.4757 -0.0275
 4316SOL     H117708   5.549   3.939   0.091 -1.0756  1.3994 -0.1468
 4316SOL     H217709   5.557   3.873  -0.046  0.8607  1.7315 -0.2272
 4316SOL    EPW17710   5.508   3.897   0.025  0.1824 -0.0402 -0.0616
 4317SOL      O17711   2.309   4.156   0.251  0.4788  0.6658 -0.2676
 4317SOL     H117712   2.240   4.149   0.318  0.0120  2.6567 -0.4879
 4317SOL     H217713   2.343   4.245   0.261  3.3776 -0.3626  0.1215
 4317SOL    EPW17714   2.305   4.165   0.259  0.7382  0.7685 -0.2496
 4318SOL      O17715   5.539   5.636   0.663  0.6934  0.3466 -0.3354
 4318SOL     H117716   5.625   5.647   0.622  1.0127  2.2961  0.7343
 4318SOL     H217717   5.559   5.597   0.748  0.4370  0.2242 -0.3314
 4318SOL    EPW17718   5.550   5.633   0.668  0.7002  0.5415 -0.2209
 4319SOL      O17719   4.280   5.813   3.421 -0.3655 -0.8830 -0.2737
 4319SOL     H117720   4.322   5.868   3.354  1.8827  0.8671  2.3650
 4319SOL     H217721   4.233   5.875   3.477  0.6505 -1.7885  1.6906
 4319SOL    EPW17722   4.280   5.825   3.420 -0.0173 -0.7929  0.2173
 4320SOL      O17723   5.773   1.238   3.697 -0.0070  0.2881  0.8697
 4320SOL     H117724   5.690   1.283   3.680 -0.0340  0.4728  1.4760
 4320SOL     H217725   5.808   1.220   3.610 -0.8653 -0.1378  0.5971
 4320SOL    EPW17726   5.768   1.241   3.686 -0.1014  0.2624  0.9053
 4321SOL      O17727   0.640   4.642   2.802 -0.5885  0.4228  0.4281
 4321SOL     H117728   0.621   4.734   2.784  0.6097  0.6010 -0.0379
 4321SOL     H217729   0.710   4.620   2.740 -1.6551 -1.1393 -0.2907
 4321SOL    EPW17730   0.645   4.650   2.794 -0.5744  0.2752  0.3017
 4322SOL      O17731   1.116   0.434   1.680  0.5526  0.5653 -0.5320
 4322SOL     H117732   1.144   0.467   1.595 -1.8623  0.6853 -1.3655
 4322SOL     H217733   1.105   0.340   1.666  0.5085  0.5287 -0.2492
 4322SOL    EPW17734   1.118   0.428   1.669  0.2903  0.5742 -0.5907
 4323SOL      O17735   4.316   2.439   1.689 -0.3282 -0.3536 -0.2280
 4323SOL     H117736   4.244   2.411   1.633 -0.3367 -0.5896 -0.0975
 4323SOL     H217737   4.273   2.473   1.768 -0.3058 -0.2427 -0.2628
 4323SOL    EPW17738   4.304   2.440   1.692 -0.3267 -0.3670 -0.2178
 4324SOL      O17739   0.840   0.968   3.358  0.5951  0.1315 -0.1982
 4324SOL     H117740   0.882   1.053   3.365  0.8855  0.1903 -2.1286
 4324SOL     H217741   0.749   0.984   3.386  0.8452  0.8841  0.2124
 4324SOL    EPW17742   0.835   0.979   3.362  0.6528  0.2180 -0.3603
 4325SOL      O17743   4.029   1.052   3.655  0.2367  0.0009  0.2324
 4325SOL     H117744   3.935   1.052   3.671  0.4340  0.8944  1.6570
 4325SOL     H217745   4.062   0.980   3.709  0.2875 -0.9575 -1.0373
 4325SOL    EPW17746   4.023   1.045   3.663  0.2632 -0.0060  0.2489
 4326SOL      O17747   0.950   1.545   2.467 -0.2908  0.2507  0.0955
 4326SOL     H117748   0.943   1.594   2.549  0.1648  1.8584 -0.7770
 4326SOL     H217749   0.901   1.598   2.403  2.1827  0.8774 -1.4176
 4326SOL    EPW17750   0.944   1.556   2.469  0.0217  0.4891 -0.1590
 4327SOL      O17751   3.241   5.202   2.696 -0.1018  0.2949  0.3033
 4327SOL     H117752   3.279   5.129   2.647  2.1775  0.5823  1.4903
 4327SOL     H217753   3.220   5.166   2.781  0.0152  0.7573  0.5332
 4327SOL    EPW17754   3.243   5.190   2.700  0.1539  0.3749  0.4544
 4328SOL      O17755   1.261   0.955   2.198 -0.8341 -0.2277  0.4895
 4328SOL     H117756   1.226   1.034   2.155  1.8010  0.1379 -1.2061
 4328SOL     H217757   1.252   0.887   2.132  1.0312 -0.2494  0.2245
 4328SOL    EPW17758   1.256   0.956   2.186 -0.3540 -0.1911  0.2804
 4329SOL      O17759   4.787   1.542   0.907  0.1378  0.9554 -0.1657
 4329SOL     H117760   4.778   1.448   0.897 -0.9713  0.9606  0.5590
 4329SOL     H217761   4.746   1.579   0.828 -2.9877  0.8705  1.2680
 4329SOL    EPW17762   4.782   1.536   0.897 -0.3140  0.9469  0.0646
 4330SOL      O17763   4.387   2.939   3.411 -0.1515 -1.4845 -0.3065
 4330SOL     H117764   4.307   2.942   3.463  0.2897 -0.4822  0.3496
 4330SOL     H217765   4.369   2.999   3.338  0.4549 -0.2050  0.5571
 4330SOL    EPW17766   4.376   2.946   3.409 -0.0397 -1.2411 -0.1444
 4331SOL      O17767   4.205   0.377   2.481 -0.1669  0.6730  0.4049
 4331SOL     H117768   4.215   0.320   2.558 -1.6072  0.6982  0.6412
 4331SOL     H217769   4.243   0.461   2.508  0.0839  0.4377  0.7976
 4331SOL    EPW17770   4.210   0.380   2.492 -0.2938  0.6506  0.4720
 4332SOL      O17771   0.531   3.895   2.955 -0.2749  0.0035 -0.3187
 4332SOL     H117772   0.515   3.906   3.049 -1.2845  0.9900 -0.5772
 4332SOL     H217773   0.500   3.807   2.936  0.9965 -0.6413  0.4669
 4332SOL    EPW17774   0.526   3.887   2.963 -0.2470  0.0400 -0.2625
 4333SOL      O17775   2.021   1.545   1.397  0.3379 -0.5487  0.3839
 4333SOL     H117776   2.110   1.538   1.432  0.2079 -0.6569  0.6897
 4333SOL     H217777   2.032   1.598   1.318  0.5471  0.2289  0.9155
 4333SOL    EPW17778   2.032   1.550   1.392  0.3464 -0.4773  0.4733
 4334SOL      O17779   2.175   3.525   1.219  0.2709  0.4917 -0.2850
 4334SOL     H117780   2.174   3.586   1.145 -0.1821 -0.9978 -1.5340
 4334SOL     H217781   2.083   3.501   1.232  0.6010 -1.2828 -0.9899
 4334SOL    EPW17782   2.165   3.529   1.212  0.2578  0.1435 -0.4934
 4335SOL      O17783   0.584   4.232   1.319 -0.7868  0.1416  0.6491
 4335SOL     H117784   0.599   4.152   1.369 -3.3346 -1.1756 -0.4967
 4335SOL     H217785   0.508   4.273   1.361 -0.9013  0.7834 -0.1572
 4335SOL    EPW17786   0.577   4.228   1.329 -1.0708  0.0696  0.4409
 4336SOL      O17787   1.091   0.150   1.681  0.1335  0.2164 -0.0259
 4336SOL     H117788   1.017   0.141   1.740  0.3661 -0.1711  0.2118
 4336SOL     H217789   1.080   0.079   1.618 -0.8350  1.4053 -1.2601
 4336SOL    EPW17790   1.082   0.142   1.680  0.0550  0.3019 -0.1322
 4337SOL      O17791   4.096   3.956   0.157 -0.5538 -0.4990  0.2867
 4337SOL     H117792   4.042   3.999   0.223 -2.1699 -0.9372 -0.6913
 4337SOL     H217793   4.156   3.901   0.206  1.6692  2.7839  1.6356
 4337SOL    EPW17794   4.097   3.955   0.169 -0.4890 -0.1955  0.3263
 4338SOL      O17795   3.266   5.751   0.718  0.2225  0.3257  0.5653
 4338SOL     H117796   3.273   5.728   0.810  1.8957  0.2633  0.4559
 4338SOL     H217797   3.172   5.765   0.703 -0.0559  0.4332  2.2842
 4338SOL    EPW17798   3.256   5.750   0.726  0.3713  0.3305  0.7370
 4339SOL      O17799   1.107   1.844   1.407  0.3841  0.1222 -0.4407
 4339SOL     H117800   1.078   1.811   1.322 -0.7705  1.7529 -0.7291
 4339SOL     H217801   1.031   1.892   1.441  1.2715  0.6243  0.9072
 4339SOL    EPW17802   1.096   1.845   1.401  0.3556  0.3497 -0.3276
 4340SOL      O17803   3.973   4.052   0.380 -0.1257 -0.5960 -0.1030
 4340SOL     H117804   3.999   4.144   0.379 -0.2248 -0.5618 -1.4891
 4340SOL     H217805   3.952   4.034   0.472  1.1895  0.3793  0.4272
 4340SOL    EPW17806   3.974   4.059   0.390  0.0040 -0.4883 -0.1943
 4341SOL      O17807   0.908   0.405   2.580 -0.4361 -0.2911 -0.1067
 4341SOL     H117808   0.986   0.363   2.543  0.0594 -0.0058  0.5984
 4341SOL     H217809   0.880   0.346   2.650 -0.4757 -0.0736  0.0617
 4341SOL    EPW17810   0.914   0.394   2.583 -0.3874 -0.2375 -0.0135
 4342SOL      O17811   1.900   3.500   1.244 -0.1242 -0.1075 -0.0506
 4342SOL     H117812   1.852   3.483   1.163  0.0380  1.5985 -0.5444
 4342SOL     H217813   1.871   3.431   1.304 -0.5246 -1.1769 -1.4317
 4342SOL    EPW17814   1.892   3.491   1.242 -0.1496 -0.0396 -0.2506
 4343SOL      O17815   1.906   1.118   2.108  0.2592  0.1253 -0.0168
 4343SOL     H117816   1.925   1.024   2.114 -0.4395  0.0606  1.6036
 4343SOL     H217817   1.817   1.122   2.074  0.9932  0.2860 -2.0415
 4343SOL    EPW17818   1.899   1.108   2.105  0.2630  0.1355 -0.0599
 4344SOL      O17819   0.880   4.834   2.176  0.1964  0.2612  0.2683
 4344SOL     H117820   0.794   4.793   2.188  1.7412 -2.9992  1.2174
 4344SOL     H217821   0.920   4.833   2.263  2.0724 -0.5223 -0.5430
 4344SOL    EPW17822   0.875   4.830   2.186  0.5613 -0.1702  0.2830
 4345SOL      O17823   1.295   0.791   1.959  0.3533 -0.3871  0.2337
 4345SOL     H117824   1.265   0.726   1.896 -2.0701  1.5338 -0.7542
 4345SOL     H217825   1.387   0.806   1.936 -0.2479 -0.3215 -2.3316
 4345SOL    EPW17826   1.302   0.785   1.950  0.0306 -0.1752 -0.1454
 4346SOL      O17827   5.181   3.829   3.681  0.1691 -0.7472 -0.1447
 4346SOL     H117828   5.237   3.835   3.604 -0.9553 -1.2938 -1.0351
 4346SOL     H217829   5.092   3.839   3.647 -0.2675  1.8556  1.4136
 4346SOL    EPW17830   5.178   3.831   3.669  0.0026 -0.5278 -0.0734
 4347SOL      O17831   0.791   2.546   3.171  0.3001  0.4380  0.3594
 4347SOL     H117832   0.854   2.478   3.198  1.2555  1.3154  0.3981
 4347SOL     H217833   0.708   2.499   3.164  0.8585 -0.6658  0.7554
 4347SOL    EPW17834   0.789   2.533   3.173  0.4616  0.4138  0.4058
 4348SOL      O17835   0.490   2.024   0.743 -0.4962 -0.1939  0.6674
 4348SOL     H117836   0.398   2.030   0.715 -1.2869 -2.2693  2.4921
 4348SOL     H217837   0.521   1.941   0.709  0.1406 -0.3244  1.5120
 4348SOL    EPW17838   0.483   2.016   0.737 -0.5126 -0.4292  0.9522
 4349SOL      O17839   5.081   5.619   2.769 -0.0941  0.1249 -0.1299
 4349SOL     H117840   5.131   5.678   2.713 -2.3519  0.4069 -1.9828
 4349SOL     H217841   4.999   5.665   2.786 -1.0368 -1.5708  0.1763
 4349SOL    EPW17842   5.078   5.630   2.765 -0.4356 -0.0259 -0.2949
 4350SOL      O17843   0.204   5.398   1.538 -0.0261 -0.2359 -0.5974
 4350SOL     H117844   0.149   5.463   1.582  0.1792  0.0626 -0.7742
 4350SOL     H217845   0.274   5.450   1.497  0.3199 -0.5962 -0.4756
 4350SOL    EPW17846   0.206   5.411   1.538  0.0327 -0.2425 -0.6033
 4351SOL      O17847   4.949   0.225   2.906 -0.0327 -0.2870  0.1078
 4351SOL     H117848   4.944   0.270   2.821  0.7348  0.0137  0.2094
 4351SOL     H217849   4.930   0.293   2.970  0.8072 -0.1696  0.2447
 4351SOL    EPW17850   4.947   0.237   2.904  0.1388 -0.2424  0.1333
 4352SOL      O17851   1.665   3.826   2.250  0.1111 -0.3943  0.3715
 4352SOL     H117852   1.599   3.880   2.293 -1.5305 -2.5104  0.6237
 4352SOL     H217853   1.667   3.859   2.160  1.8371  2.4485  1.3089
 4352SOL    EPW17854   1.659   3.836   2.245  0.1201 -0.3168  0.4984
 4353SOL      O17855   4.324   2.101   3.821  0.2126  0.5349  0.3222
 4353SOL     H117856   4.302   2.019   3.865  0.1019  0.5640  0.3218
 4353SOL     H217857   4.373   2.152   3.886  0.3336  0.4439  0.3021
 4353SOL    EPW17858   4.327   2.098   3.832  0.2137  0.5283  0.3200
 4354SOL      O17859   3.583   3.524   1.406  0.0266  0.3633  0.6183
 4354SOL     H117860   3.558   3.498   1.318  0.3823  1.5186  0.1597
 4354SOL     H217861   3.672   3.492   1.416  1.0438  2.6198 -0.5197
 4354SOL    EPW17862   3.589   3.518   1.398  0.1731  0.7272  0.4480
 4355SOL      O17863   0.178   1.919   2.916  0.4003 -0.4084 -0.7633
 4355SOL     H117864   0.207   1.982   2.851  0.2425  0.2858 -0.1709
 4355SOL     H217865   0.257   1.870   2.939  0.6174 -0.1169 -0.8887
 4355SOL    EPW17866   0.190   1.920   2.912  0.4066 -0.3033 -0.7135
 4356SOL      O17867   2.199   3.561   1.603 -0.0996 -0.1740 -0.0497
 4356SOL     H117868   2.105   3.564   1.587  0.3115  0.7295 -2.8271
 4356SOL     H217869   2.218   3.468   1.617 -1.3293 -0.4334 -0.0246
 4356SOL    EPW17870   2.191   3.551   1.603 -0.1869 -0.1053 -0.3433
 4357SOL      O17871   2.216   5.205   0.465  0.3674 -0.0542 -0.1617
 4357SOL     H117872   2.147   5.259   0.425 -0.2758  0.1359  1.1471
 4357SOL     H217873   2.222   5.238   0.555  0.5767 -1.5842  0.4015
 4357SOL    EPW17874   2.209   5.215   0.470  0.3211 -0.1972  0.0380
 4358SOL      O17875   3.270   0.903   1.088  0.1863 -0.5154  0.5217
 4358SOL     H117876   3.226   0.979   1.125  0.5471  0.1563 -0.3955
 4358SOL     H217877   3.348   0.892   1.144  1.3827  1.2390 -0.6918
 4358SOL    EPW17878   3.274   0.910   1.098  0.3524 -0.2566  0.2944
 4359SOL      O17879   2.642   2.679   3.431  0.1525  0.4916  0.0022
 4359SOL     H117880   2.599   2.721   3.505 -0.1150 -0.1189  0.2009
 4359SOL     H217881   2.571   2.634   3.385  0.2294  1.3104 -0.9386
 4359SOL    EPW17882   2.630   2.678   3.434  0.1322  0.5138 -0.0770
 4360SOL      O17883   0.362   5.177   0.822  0.1108  0.3494  0.5778
 4360SOL     H117884   0.446   5.201   0.782 -0.7490  1.7493 -0.4844
 4360SOL     H217885   0.345   5.246   0.886 -1.3735  1.5014 -0.9794
 4360SOL    EPW17886   0.369   5.187   0.824 -0.1392  0.6216  0.2984
 4361SOL      O17887   4.666   5.786   2.168 -0.1206  0.9513 -0.8447
 4361SOL     H117888   4.643   5.775   2.076  1.1373  1.1666 -1.2050
 4361SOL     H217889   4.643   5.877   2.188 -0.6928  0.8134 -0.8331
 4361SOL    EPW17890   4.661   5.795   2.161 -0.0475  0.9595 -0.8819
 4362SOL      O17891   2.767   1.976   1.242 -0.5425  0.2809 -0.1321
 4362SOL     H117892   2.727   2.062   1.229 -0.4432  0.1764 -1.1972
 4362SOL     H217893   2.805   1.981   1.330 -0.5488  1.3232 -0.1694
 4362SOL    EPW17894   2.767   1.986   1.250 -0.5326  0.3809 -0.2497
 4363SOL      O17895   2.435   4.234   3.874  0.8442  0.0366 -0.4670
 4363SOL     H117896   2.396   4.151   3.845 -0.6701  0.8491 -0.8352
 4363SOL     H217897   2.410   4.241   3.966  1.2996 -0.0812 -0.3294
 4363SOL    EPW17898   2.428   4.226   3.880  0.7312  0.1107 -0.4916
 4364SOL      O17899   3.035   2.889   3.710 -0.6297 -0.5103  0.2542
 4364SOL     H117900   3.010   2.858   3.623 -1.1161 -0.1855  0.2711
 4364SOL     H217901   3.043   2.810   3.763  0.4348 -0.7724 -0.2726
 4364SOL    EPW17902   3.033   2.878   3.706 -0.5680 -0.5036  0.1998
 4365SOL      O17903   5.501   5.017   3.608 -0.3439 -0.2374  0.3510
 4365SOL     H117904   5.415   5.040   3.643  0.6493  2.5471  1.3014
 4365SOL     H217905   5.505   5.059   3.522 -0.1506 -0.8471  0.0576
 4365SOL    EPW17906   5.493   5.024   3.603 -0.2173 -0.0054  0.4211
 4366SOL      O17907   0.725   2.381   2.439 -0.0936  0.6872  0.5231
 4366SOL     H117908   0.725   2.476   2.438 -0.1214  0.7435 -2.3017
 4366SOL     H217909   0.818   2.357   2.435 -0.0821  0.5624  1.3069
 4366SOL    EPW17910   0.735   2.388   2.438 -0.0954  0.6799  0.3054
 4367SOL      O17911   0.427   5.594   1.607  0.5815  0.2765  0.5617
 4367SOL     H117912   0.509   5.545   1.599 -0.4396 -1.1367 -2.4460
 4367SOL     H217913   0.408   5.592   1.701  2.5832 -1.7602  1.0189
 4367SOL    EPW17914   0.434   5.589   1.616  0.6861 -0.0915  0.2896
 4368SOL      O17915   3.603   3.319   2.677 -0.3383 -0.2386  0.1094
 4368SOL     H117916   3.585   3.410   2.652 -2.4082 -0.4965  0.5166
 4368SOL     H217917   3.635   3.325   2.767 -0.6714  0.0782  0.2101
 4368SOL    EPW17918   3.605   3.330   2.684 -0.5947 -0.2323  0.1635
 4369SOL      O17919   3.645   0.575   2.055  0.1393  0.0096  0.7220
 4369SOL     H117920   3.575   0.630   2.092 -1.5652 -1.1639 -0.5959
 4369SOL     H217921   3.660   0.508   2.121  0.2304  0.4366  1.1389
 4369SOL    EPW17922   3.639   0.574   2.066 -0.0328 -0.0701  0.6258
 4370SOL      O17923   3.330   2.846   3.351 -0.7566 -0.0360  0.6966
 4370SOL     H117924   3.404   2.849   3.290 -0.7368  0.0184  0.7237
 4370SOL     H217925   3.368   2.862   3.437 -0.3805 -2.5549  1.0925
 4370SOL    EPW17926   3.342   2.848   3.354 -0.7144 -0.2989  0.7418
 4371SOL      O17927   4.877   4.360   2.841 -0.3357  0.1973 -0.0805
 4371SOL     H117928   4.900   4.270   2.864  2.5202  1.1465  1.2834
 4371SOL     H217929   4.857   4.357   2.747  1.3434 -1.6153 -0.4400
 4371SOL    EPW17930   4.878   4.350   2.833  0.1480  0.1052  0.0267
 4372SOL      O17931   2.461   1.359   1.290 -0.1105  0.0008 -0.1185
 4372SOL     H117932   2.463   1.338   1.196 -0.0735  0.7678 -0.2923
 4372SOL     H217933   2.394   1.302   1.326  1.0312 -1.5327 -0.3024
 4372SOL    EPW17934   2.454   1.351   1.284  0.0152 -0.0810 -0.1566
 4373SOL      O17935   5.491   3.201   3.501 -0.1131  0.5694  0.1585
 4373SOL     H117936   5.490   3.142   3.425 -2.1460 -1.5456  1.6804
 4373SOL     H217937   5.399   3.214   3.522  0.3737  2.4909  1.2723
 4373SOL    EPW17938   5.481   3.196   3.495 -0.2780  0.5487  0.4397
 4374SOL      O17939   5.110   4.612   0.485 -0.2299  0.5244 -0.4545
 4374SOL     H117940   5.115   4.555   0.562 -0.3653  1.4680  0.2732
 4374SOL     H217941   5.189   4.592   0.435  0.4896  0.7700  0.5591
 4374SOL    EPW17942   5.119   4.604   0.488 -0.1676  0.6513 -0.2688
 4375SOL      O17943   4.334   1.234   0.669  0.0840  0.2056  0.0066
 4375SOL     H117944   4.250   1.190   0.685 -0.1266  0.3615 -0.6060
 4375SOL     H217945   4.310   1.326   0.654  0.3760  0.2767 -0.0293
 4375SOL    EPW17946   4.322   1.239   0.669  0.0927  0.2298 -0.0626
 4376SOL      O17947   1.304   4.054   2.986  0.0140  0.3025 -0.0939
 4376SOL     H117948   1.359   3.977   2.976  1.8309  1.2883  1.5269
 4376SOL     H217949   1.230   4.024   3.039  1.2403 -0.1532  1.4448
 4376SOL    EPW17950   1.302   4.043   2.991  0.3386  0.3591  0.2431
 4377SOL      O17951   2.547   5.194   2.404  0.4786  0.3829 -0.0085
 4377SOL     H117952   2.488   5.165   2.334 -0.2209 -0.1280  0.7765
 4377SOL     H217953   2.629   5.213   2.359 -0.0944  0.5125 -1.0383
 4377SOL    EPW17954   2.549   5.193   2.391  0.3429  0.3423 -0.0346
 4378SOL      O17955   1.574   0.409   3.992  0.3760 -0.5152  0.3118
 4378SOL     H117956   1.565   0.373   4.080  1.6512 -1.9240 -0.0877
 4378SOL     H217957   1.618   0.493   4.006 -0.0226 -0.4173  1.0581
 4378SOL    EPW17958   1.578   0.414   4.003  0.4695 -0.6550  0.3488
 4379SOL      O17959   1.092   0.441   2.814 -0.5960 -0.3298 -1.1228
 4379SOL     H117960   1.181   0.451   2.780 -0.6855  2.8486 -0.7884
 4379SOL     H217961   1.037   0.441   2.736 -0.4405  0.7658 -1.2518
 4379SOL    EPW17962   1.096   0.442   2.802 -0.5890  0.1261 -1.1009
 4380SOL      O17963   3.123   5.394   0.825  0.1126  0.7528 -0.0341
 4380SOL     H117964   3.186   5.390   0.754 -0.4037  0.2842 -0.4815
 4380SOL     H217965   3.160   5.456   0.888  2.1409 -1.1873  0.8113
 4380SOL    EPW17966   3.134   5.400   0.824  0.2739  0.4958  0.0083
 4381SOL      O17967   1.538   2.467   3.299  0.2665 -0.6963  0.2270
 4381SOL     H117968   1.453   2.471   3.342  0.3956 -0.8657  0.4980
 4381SOL     H217969   1.598   2.513   3.358  0.3332 -0.4331 -0.0402
 4381SOL    EPW17970   1.536   2.472   3.310  0.2874 -0.6863  0.2274
 4382SOL      O17971   2.887   2.262   1.012  0.3540  0.1630  0.2171
 4382SOL     H117972   2.949   2.240   1.081  0.6192 -2.3484 -0.7214
 4382SOL     H217973   2.892   2.189   0.951 -2.0840  0.8392 -0.9238
 4382SOL    EPW17974   2.894   2.252   1.013  0.1222 -0.0327 -0.0047
 4383SOL      O17975   1.258   1.789   2.826  0.3059 -0.0232  0.1001
 4383SOL     H117976   1.304   1.871   2.847 -0.5513  0.7807 -1.0156
 4383SOL     H217977   1.224   1.760   2.911  1.9922 -0.1159  0.7785
 4383SOL    EPW17978   1.259   1.795   2.837  0.3943  0.0526  0.0534
 4384SOL      O17979   1.449   3.512   1.334 -0.0204  0.2730  0.4697
 4384SOL     H117980   1.387   3.446   1.304  0.5121  0.7163 -1.8187
 4384SOL     H217981   1.453   3.576   1.262  1.2434  1.5406  1.5953
 4384SOL    EPW17982   1.443   3.512   1.323  0.1712  0.4555  0.3457
 4385SOL      O17983   2.946   2.137   2.568  0.2284 -0.1691  0.3081
 4385SOL     H117984   2.908   2.225   2.565 -0.7381 -0.5609  0.6745
 4385SOL     H217985   2.880   2.081   2.527  1.7642 -0.4354 -2.0170
 4385SOL    EPW17986   2.935   2.140   2.564  0.2891 -0.2393  0.0991
 4386SOL      O17987   4.647   0.172   1.898 -0.1680 -0.1423 -0.2866
 4386SOL     H117988   4.662   0.156   1.805  1.6651 -1.6571  0.2143
 4386SOL     H217989   4.626   0.085   1.934  1.1283  0.0628  1.0398
 4386SOL    EPW17990   4.646   0.161   1.892  0.1658 -0.2820 -0.0916
 4387SOL      O17991   0.400   0.927   0.984  0.5556  0.0312  0.0276
 4387SOL     H117992   0.339   0.922   0.911  0.0051 -0.1864  0.4981
 4387SOL     H217993   0.418   0.835   1.006  5.3261 -0.3177 -3.5805
 4387SOL    EPW17994   0.396   0.916   0.978  1.0057 -0.0293 -0.3071
 4388SOL      O17995   1.229   5.331   1.316  0.3055  0.3098 -0.0383
 4388SOL     H117996   1.173   5.406   1.295  0.6880 -0.0296 -2.6132
 4388SOL     H217997   1.315   5.356   1.283  1.0861 -0.2596  1.4506
 4388SOL    EPW17998   1.232   5.342   1.310  0.4296  0.2128 -0.1541
 4389SOL      O17999   2.727   0.566   3.909  0.0102 -0.1240 -0.0706
 4389SOL     H118000   2.817   0.540   3.926  0.2092  0.6104  0.0390
 4389SOL     H218001   2.675   0.515   3.971  0.5445  0.9437  1.3088
 4389SOL    EPW18002   2.731   0.558   3.918  0.0884  0.0683  0.0883
 4390SOL      O18003   4.066   0.740   1.121 -0.2330  0.3004  0.1331
 4390SOL     H118004   4.033   0.675   1.184 -0.0594 -1.2359 -1.2907
 4390SOL     H218005   4.139   0.782   1.166 -1.9344  1.3944  2.0678
 4390SOL    EPW18006   4.070   0.737   1.133 -0.3960  0.2532  0.1876
 4391SOL      O18007   1.280   0.488   2.145  0.3992  0.3922  0.1012
 4391SOL     H118008   1.333   0.545   2.089 -1.0171 -0.0765 -1.8150
 4391SOL     H218009   1.330   0.481   2.226  1.5292  2.8067 -0.3091
 4391SOL    EPW18010   1.291   0.493   2.147  0.3687  0.5997 -0.1470
 4392SOL      O18011   1.476   2.630   0.692 -0.1346 -0.2991 -0.0305
 4392SOL     H118012   1.393   2.651   0.649 -0.6545 -0.8312  0.6922
 4392SOL     H218013   1.507   2.714   0.726  0.7862  0.3383 -2.2379
 4392SOL    EPW18014   1.470   2.641   0.691 -0.0918 -0.2878 -0.1889
 4393SOL      O18015   4.149   1.147   3.434  0.9036 -0.8168 -0.1178
 4393SOL     H118016   4.155   1.242   3.425 -0.0776 -0.6108  1.1798
 4393SOL     H218017   4.090   1.133   3.508  2.2862 -2.4200  0.7509
 4393SOL    EPW18018   4.144   1.156   3.441  0.9464 -0.9659  0.1133
 4394SOL      O18019   5.431   1.204   3.934  0.1268 -0.1611 -0.6486
 4394SOL     H118020   5.358   1.148   3.909 -0.8894 -0.6418  2.9230
 4394SOL     H218021   5.503   1.143   3.953  0.2352  0.0477 -0.3938
 4394SOL    EPW18022   5.431   1.192   3.933  0.0300 -0.1901 -0.2404
 4395SOL      O18023   0.900   0.691   3.818  0.5909 -0.0359 -0.1070
 4395SOL     H118024   0.853   0.759   3.867 -0.9456 -1.8822  1.0918
 4395SOL     H218025   0.839   0.667   3.747  0.9737 -0.4012 -0.3136
 4395SOL    EPW18026   0.888   0.696   3.815  0.4679 -0.2718 -0.0011
 4396SOL      O18027   1.777   1.223   2.348 -0.1670  0.5780 -0.0178
 4396SOL     H118028   1.852   1.238   2.291  2.5788 -0.5426  2.9912
 4396SOL     H218029   1.767   1.128   2.351  1.0909  0.4189  2.6924
 4396SOL    EPW18030   1.784   1.215   2.342  0.2601  0.4415  0.5923
 4397SOL      O18031   4.182   2.660   0.151 -0.3948  0.7159 -0.7883
 4397SOL     H118032   4.139   2.738   0.115 -0.8560 -0.1856 -2.2925
 4397SOL     H218033   4.273   2.688   0.165 -0.7968  1.8283 -0.2678
 4397SOL    EPW18034   4.187   2.671   0.149 -0.4869  0.7384 -0.8932
 4398SOL      O18035   1.854   5.752   2.743 -0.1949 -0.2396 -0.2010
 4398SOL     H118036   1.874   5.834   2.698  0.2335 -0.5416 -0.5744
 4398SOL     H218037   1.842   5.689   2.673 -0.9012 -0.4133  0.0749
 4398SOL    EPW18038   1.855   5.754   2.731 -0.2245 -0.2904 -0.2114
 4399SOL      O18039   4.928   0.227   0.506 -0.1300  0.0570 -0.0118
 4399SOL     H118040   5.004   0.253   0.557 -0.3904  0.0811  0.3708
 4399SOL     H218041   4.937   0.274   0.424 -0.5961  1.3847  0.6670
 4399SOL    EPW18042   4.937   0.234   0.503 -0.2075  0.2012  0.1014
 4400SOL      O18043   3.996   3.764   3.689 -0.5748  0.1874 -0.3021
 4400SOL     H118044   3.915   3.804   3.657 -0.0658 -0.2067 -2.1945
 4400SOL     H218045   4.044   3.739   3.610  2.1384  1.8354  0.6700
 4400SOL    EPW18046   3.993   3.766   3.677 -0.2311  0.3211 -0.4003
 4401SOL      O18047   1.542   5.183   2.481 -0.1784 -0.4574  0.6704
 4401SOL     H118048   1.635   5.166   2.494  0.1190 -0.1334 -0.8375
 4401SOL     H218049   1.500   5.097   2.489  0.0031 -0.4109  2.8748
 4401SOL    EPW18050   1.547   5.172   2.483 -0.1273 -0.4179  0.7447
 4402SOL      O18051   2.249   1.723   2.765  0.0281 -0.5811  0.0451
 4402SOL     H118052   2.290   1.767   2.691 -1.4511  0.3301 -0.2753
 4402SOL     H218053   2.218   1.794   2.821 -0.9666 -1.2258  0.3365
 4402SOL    EPW18054   2.250   1.735   2.763 -0.2358 -0.5526  0.0420
 4403SOL      O18055   2.595   4.226   0.853  0.3441 -0.1548  0.6572
 4403SOL     H118056   2.550   4.235   0.769  1.3983  0.9346  0.1811
 4403SOL     H218057   2.527   4.195   0.913 -0.1562 -2.2232 -0.8505
 4403SOL    EPW18058   2.583   4.224   0.850  0.4032 -0.2593  0.4456
 4404SOL      O18059   0.864   0.138   1.853 -0.2017 -0.0012 -0.3228
 4404SOL     H118060   0.832   0.169   1.768  0.4130  0.1724 -0.4950
 4404SOL     H218061   0.823   0.052   1.863  0.3545 -0.3853 -1.1809
 4404SOL    EPW18062   0.857   0.132   1.845 -0.0768 -0.0236 -0.4327
 4405SOL      O18063   3.241   2.528   0.556 -0.1755  0.0411 -0.3852
 4405SOL     H118064   3.170   2.587   0.582 -0.2304  0.0189 -0.4841
 4405SOL     H218065   3.245   2.536   0.461 -0.7242 -0.7187 -0.4849
 4405SOL    EPW18066   3.234   2.535   0.549 -0.2399 -0.0423 -0.4064
 4406SOL      O18067   2.379   5.716   1.387 -0.4064 -0.3035  0.3093
 4406SOL     H118068   2.403   5.660   1.314  0.7072  0.6930 -0.1334
 4406SOL     H218069   2.347   5.656   1.454  1.7505 -1.6154  0.2636
 4406SOL    EPW18070   2.378   5.704   1.387 -0.0575 -0.3371  0.2572
 4407SOL      O18071   0.945   1.926   2.771 -0.1155  0.3335 -0.5349
 4407SOL     H118072   0.995   2.000   2.804  1.1887 -0.5864 -0.3990
 4407SOL     H218073   0.954   1.932   2.675  3.1609 -1.6833 -0.4893
 4407SOL    EPW18074   0.951   1.935   2.764  0.3731  0.0202 -0.5156
 4408SOL      O18075   0.567   5.576   2.079 -0.0737 -0.2116 -0.0102
 4408SOL     H118076   0.523   5.658   2.054 -0.4407 -0.5249 -0.4069
 4408SOL     H218077   0.497   5.511   2.080 -0.2327 -0.1028  2.5304
 4408SOL    EPW18078   0.555   5.578   2.076 -0.1298 -0.2334  0.2185
 4409SOL      O18079   3.105   1.490   1.600 -0.3073 -0.3869 -0.1023
 4409SOL     H118080   3.121   1.531   1.515 -2.9439 -0.3368 -0.6663
 4409SOL     H218081   3.165   1.416   1.604  3.2901  2.2720  0.1357
 4409SOL    EPW18082   3.113   1.487   1.592 -0.2048 -0.0979 -0.1371
 4410SOL      O18083   2.048   0.733   1.556  0.5226  0.3073 -0.6260
 4410SOL     H118084   2.004   0.816   1.539  1.7396  1.3185  0.8947
 4410SOL     H218085   2.068   0.735   1.650  2.1104 -0.9248 -0.8903
 4410SOL    EPW18086   2.045   0.742   1.564  0.8218  0.2837 -0.4920
 4411SOL      O18087   0.632   5.727   1.481  0.5646 -0.0407  0.1672
 4411SOL     H118088   0.551   5.703   1.525  0.7492 -0.5972  0.2206
 4411SOL     H218089   0.613   5.809   1.437 -0.4050 -0.7823 -0.8362
 4411SOL    EPW18090   0.622   5.733   1.481  0.4808 -0.1792  0.0659
 4412SOL      O18091   1.583   5.384   2.286  0.7687 -0.1947 -0.1697
 4412SOL     H118092   1.629   5.324   2.226  1.4831  0.6325 -0.4696
 4412SOL     H218093   1.623   5.469   2.269  1.1974  0.0068  1.7103
 4412SOL    EPW18094   1.592   5.386   2.277  0.8906 -0.0849 -0.0012
 4413SOL      O18095   2.139   0.295   3.009 -0.1478  0.4406 -0.5620
 4413SOL     H118096   2.176   0.226   2.955  0.7349 -0.6993  1.3807
 4413SOL     H218097   2.089   0.350   2.948  0.9990 -0.5953 -2.5258
 4413SOL    EPW18098   2.137   0.294   2.997  0.0687  0.2085 -0.5642
 4414SOL      O18099   2.283   0.160   1.487  0.2968 -0.2739  0.2919
 4414SOL     H118100   2.335   0.154   1.407  0.1899  1.8267  0.0125
 4414SOL     H218101   2.199   0.121   1.464  0.3782  0.0215 -0.5124
 4414SOL    EPW18102   2.280   0.155   1.476  0.2941 -0.0183  0.1763
 4415SOL      O18103   2.444   4.131   1.107  0.7359 -0.0756 -0.2333
 4415SOL     H118104   2.509   4.076   1.150  1.8497  0.7398 -0.8297
 4415SOL     H218105   2.387   4.069   1.061  1.3136 -0.7837 -0.0179
 4415SOL    EPW18106   2.445   4.118   1.107  0.9164 -0.0642 -0.2740
 4416SOL      O18107   0.347   3.871   2.060 -0.3418 -0.3691 -0.5240
 4416SOL     H118108   0.286   3.831   1.999  0.1175 -0.9057 -0.6344
 4416SOL     H218109   0.431   3.828   2.043  0.0352  0.2399 -0.2600
 4416SOL    EPW18110   0.349   3.862   2.052 -0.2526 -0.3614 -0.5076
 4417SOL      O18111   2.408   2.689   1.142 -0.1429 -0.3309 -0.0161
 4417SOL     H118112   2.389   2.739   1.221  1.8295 -1.1659  1.0568
 4417SOL     H218113   2.333   2.706   1.085 -0.8581  1.5924  1.3699
 4417SOL    EPW18114   2.398   2.696   1.145 -0.0088 -0.2148  0.2462
 4418SOL      O18115   1.765   0.957   2.398  0.3008 -0.0114 -0.1777
 4418SOL     H118116   1.710   0.946   2.475  0.5904 -0.1909  0.0049
 4418SOL     H218117   1.725   0.899   2.332 -0.4007  0.7236 -0.4156
 4418SOL    EPW18118   1.755   0.949   2.399  0.2569  0.0478 -0.1836
 4419SOL      O18119   2.853   1.221   1.803 -0.2727  0.0346  0.2760
 4419SOL     H118120   2.803   1.205   1.883  1.2916 -0.6638  1.1519
 4419SOL     H218121   2.944   1.202   1.827  0.2234 -0.2974 -1.7000
 4419SOL    EPW18122   2.857   1.217   1.814 -0.0529 -0.0753  0.1586
 4420SOL      O18123   3.324   3.495   3.471  0.3144  0.1474  0.3019
 4420SOL     H118124   3.281   3.440   3.405  0.1105 -2.2224  2.2801
 4420SOL     H218125   3.253   3.540   3.516  0.4178  1.2742 -0.5967
 4420SOL    EPW18126   3.312   3.494   3.469  0.3037  0.0148  0.4170
 4421SOL      O18127   3.061   4.151   3.789 -0.0140  0.7616 -0.1538
 4421SOL     H118128   3.108   4.071   3.812 -0.5749  0.5783  0.3923
 4421SOL     H218129   3.087   4.214   3.855 -0.6103  0.6278  0.2116
 4421SOL    EPW18130   3.069   4.149   3.798 -0.1375  0.7277 -0.0565
 4422SOL      O18131   0.831   2.014   0.284 -0.2269  0.4906 -0.1826
 4422SOL     H118132   0.783   2.047   0.208 -2.4123 -0.1600  0.8326
 4422SOL     H218133   0.809   1.921   0.288 -0.2357  0.5359  1.2934
 4422SOL    EPW18134   0.823   2.008   0.276 -0.4610  0.4260  0.0831
 4423SOL      O18135   2.109   5.656   3.479  0.8944 -0.3666 -0.0370
 4423SOL     H118136   2.156   5.710   3.415  1.1224 -0.8509 -0.2880
 4423SOL     H218137   2.081   5.717   3.547 -0.1689  0.3220 -1.0553
 4423SOL    EPW18138   2.111   5.668   3.479  0.8053 -0.3448 -0.1724
 4424SOL      O18139   0.729   3.399   3.000 -0.0023 -0.5375 -0.2791
 4424SOL     H118140   0.776   3.466   3.050 -1.3072  0.5413 -0.4168
 4424SOL     H218141   0.647   3.387   3.049 -0.5243 -0.7612 -1.1952
 4424SOL    EPW18142   0.725   3.405   3.011 -0.1972 -0.4463 -0.3915
 4425SOL      O18143   5.434   3.788   1.911  0.3674 -1.3164  0.2467
 4425SOL     H118144   5.406   3.732   1.983  0.3229 -0.9786  0.4917
 4425SOL     H218145   5.459   3.727   1.842  1.4498 -1.6602  0.9266
 4425SOL    EPW18146   5.433   3.775   1.911  0.4781 -1.3171  0.3453
 4426SOL      O18147   4.508   0.449   3.312 -0.2313  0.2511  0.7059
 4426SOL     H118148   4.414   0.438   3.300  0.0589 -0.5111 -1.1650
 4426SOL     H218149   4.533   0.516   3.249  0.4429  0.7575  1.4820
 4426SOL    EPW18150   4.501   0.455   3.304 -0.1284  0.2238  0.5891
 4427SOL      O18151   0.612   1.345   3.555 -0.2376 -0.1592  0.2086
 4427SOL     H118152   0.593   1.419   3.497 -0.5398 -1.1964 -1.0587
 4427SOL     H218153   0.703   1.323   3.537 -0.3062 -0.4347  0.1988
 4427SOL    EPW18154   0.620   1.351   3.547 -0.2772 -0.2993  0.0723
 4428SOL      O18155   3.317   3.587   2.696 -0.5233 -0.1727 -1.0627
 4428SOL     H118156   3.401   3.616   2.659 -0.2034 -0.9062 -0.9333
 4428SOL     H218157   3.251   3.624   2.638 -0.2117  1.8628 -0.2154
 4428SOL    EPW18158   3.319   3.594   2.686 -0.4560 -0.0338 -0.9585
 4429SOL      O18159   3.197   0.730   3.589  0.7388 -0.5949  0.6210
 4429SOL     H118160   3.233   0.750   3.675  1.3230 -0.3845  0.3313
 4429SOL     H218161   3.117   0.680   3.607  0.9861 -0.7559  1.2752
 4429SOL    EPW18162   3.192   0.727   3.600  0.8275 -0.5896  0.6599
 4430SOL      O18163   1.169   0.276   3.846 -0.3077 -0.0564  0.2445
 4430SOL     H118164   1.098   0.335   3.822 -0.4756 -1.1457 -2.3566
 4430SOL     H218165   1.213   0.257   3.763  1.4499 -1.4108  1.4021
 4430SOL    EPW18166   1.166   0.280   3.834 -0.1381 -0.3171  0.0905
 4431SOL      O18167   2.622   4.227   2.133  0.3463  0.2023  0.4931
 4431SOL     H118168   2.542   4.275   2.112 -0.0127  0.0601  1.4414
 4431SOL     H218169   2.683   4.249   2.064 -0.6003  0.1148 -0.3991
 4431SOL    EPW18170   2.620   4.234   2.123  0.2070  0.1778  0.4991
 4432SOL      O18171   3.756   5.548   2.306  0.5276 -0.1061  0.0484
 4432SOL     H118172   3.835   5.549   2.361  0.3799 -0.7350  0.2731
 4432SOL     H218173   3.685   5.535   2.368  0.1646  1.1470 -0.0663
 4432SOL    EPW18174   3.757   5.547   2.319  0.4731 -0.0395  0.0602
 4433SOL      O18175   0.341   5.560   0.429 -0.6519 -0.0392 -0.1588
 4433SOL     H118176   0.349   5.495   0.358 -2.7452  0.6891 -1.1401
 4433SOL     H218177   0.298   5.635   0.388 -0.6232  0.9698  1.5732
 4433SOL    EPW18178   0.337   5.561   0.417 -0.8721  0.1462 -0.0787
 4434SOL      O18179   5.349   3.391   3.743 -0.3472 -0.5256 -0.2070
 4434SOL     H118180   5.323   3.367   3.654  0.8114 -0.7632 -0.4927
 4434SOL     H218181   5.274   3.365   3.797 -1.1715 -0.1539 -1.1197
 4434SOL    EPW18182   5.338   3.386   3.739 -0.3115 -0.5113 -0.3348
 4435SOL      O18183   1.593   5.447   2.577  0.1358 -0.2240  0.0602
 4435SOL     H118184   1.617   5.535   2.608  0.2796 -0.2752  0.0962
 4435SOL     H218185   1.650   5.388   2.628  0.6580 -0.2890 -0.5806
 4435SOL    EPW18186   1.602   5.450   2.586  0.2069 -0.2364 -0.0043
 4436SOL      O18187   3.151   0.501   1.196 -0.1545  0.0060  0.3711
 4436SOL     H118188   3.091   0.427   1.196  0.9238 -0.9011  0.0026
 4436SOL     H218189   3.104   0.571   1.241 -0.9438 -1.1127  1.3321
 4436SOL    EPW18190   3.140   0.501   1.201 -0.1237 -0.2101  0.4343
 4437SOL      O18191   3.332   4.859   2.212 -0.1518 -0.1191 -0.6331
 4437SOL     H118192   3.331   4.844   2.118  0.8225  1.4883 -0.9328
 4437SOL     H218193   3.355   4.951   2.222 -3.0918  0.5411  1.1196
 4437SOL    EPW18194   3.335   4.867   2.203 -0.3615  0.1228 -0.4781
 4438SOL      O18195   0.776   4.195   2.405 -0.1851 -0.1619  0.5116
 4438SOL     H118196   0.866   4.214   2.431  0.5159 -1.2951 -0.9179
 4438SOL     H218197   0.762   4.105   2.433 -0.6172 -0.2288  0.0772
 4438SOL    EPW18198   0.784   4.188   2.411 -0.1564 -0.2899  0.3128
 4439SOL      O18199   1.717   2.870   1.925  0.1417 -0.4358  0.0007
 4439SOL     H118200   1.627   2.875   1.893  0.6001  0.4557 -1.2552
 4439SOL     H218201   1.743   2.780   1.908  0.1292 -0.1794 -1.5721
 4439SOL    EPW18202   1.710   2.861   1.919  0.1893 -0.3134 -0.3011
 4440SOL      O18203   1.898   0.521   3.283 -0.0911  0.4515  0.4470
 4440SOL     H118204   1.956   0.582   3.237  1.4215 -1.0929  0.2322
 4440SOL     H218205   1.955   0.450   3.311 -1.8918 -1.1320  0.2689
 4440SOL    EPW18206   1.910   0.520   3.281 -0.1218  0.1178  0.4051
 4441SOL      O18207   4.978   1.326   2.760  0.3596 -0.0172 -0.1918
 4441SOL     H118208   5.006   1.236   2.743  1.8884  0.3763  0.1038
 4441SOL     H218209   4.891   1.332   2.721  0.8039 -1.2192 -1.4379
 4441SOL    EPW18210   4.972   1.317   2.754  0.5700 -0.1034 -0.2932
 4442SOL      O18211   3.532   5.288   3.294  0.1116  0.0016 -0.7104
 4442SOL     H118212   3.524   5.216   3.231 -1.6131  0.6996 -1.3420
 4442SOL     H218213   3.540   5.245   3.379 -2.7730 -0.9844 -0.8534
 4442SOL    EPW18214   3.532   5.275   3.296 -0.3801 -0.0291 -0.7930
 4443SOL      O18215   3.388   3.338   1.517  0.0973 -0.8547 -0.3409
 4443SOL     H118216   3.412   3.393   1.592  0.2621 -2.7267  1.0328
 4443SOL     H218217   3.444   3.370   1.446 -0.9863  1.8466 -0.1132
 4443SOL    EPW18218   3.397   3.348   1.517 -0.0007 -0.7662 -0.1700
 4444SOL      O18219   1.696   1.751   0.783 -0.6488 -0.1532  0.5280
 4444SOL     H118220   1.724   1.659   0.773 -0.0034  0.1007 -0.1518
 4444SOL     H218221   1.684   1.762   0.877 -2.1965 -1.3426  0.5201
 4444SOL    EPW18222   1.698   1.742   0.792 -0.7450 -0.2530  0.4547
 4445SOL      O18223   2.747   3.378   1.586 -0.3839  0.2032  0.3551
 4445SOL     H118224   2.796   3.365   1.667 -1.2719  1.2785  1.0951
 4445SOL     H218225   2.670   3.322   1.596 -0.9249  0.9894  0.6429
 4445SOL    EPW18226   2.744   3.370   1.596 -0.5364  0.4018  0.4647
 4446SOL      O18227   5.816   5.661   2.293 -0.3011 -0.8573  0.1023
 4446SOL     H118228   5.722   5.656   2.313 -0.3155  0.2928  0.3475
 4446SOL     H218229   5.855   5.699   2.372  0.1185  0.4328 -0.7097
 4446SOL    EPW18230   5.810   5.664   2.304 -0.2578 -0.5970  0.0418
 4447SOL      O18231   5.839   0.363   0.590  0.1221  0.6390 -0.6499
 4447SOL     H118232   5.870   0.334   0.505 -1.8711 -1.0396 -0.8919
 4447SOL     H218233   5.743   0.361   0.583 -0.1035  0.7941  1.5215
 4447SOL    EPW18234   5.832   0.360   0.580 -0.1146  0.4765 -0.4441
 4448SOL      O18235   3.081   4.754   2.248  0.2429 -0.1007  0.3005
 4448SOL     H118236   3.099   4.662   2.230  0.0074 -0.3294  1.1808
 4448SOL     H218237   3.166   4.797   2.241  0.3645 -0.3962 -0.0429
 4448SOL    EPW18238   3.092   4.749   2.245  0.2308 -0.1566  0.3578
 4449SOL      O18239   2.708   1.143   0.806 -0.6138 -0.2243 -0.2705
 4449SOL     H118240   2.664   1.069   0.764  0.2540  0.0414 -1.7117
 4449SOL     H218241   2.725   1.113   0.895 -0.1268 -1.8366 -0.8739
 4449SOL    EPW18242   2.705   1.132   0.811 -0.4693 -0.3680 -0.4886
 4450SOL      O18243   1.434   3.279   0.061 -0.1492 -0.5591 -0.2230
 4450SOL     H118244   1.411   3.290  -0.031 -1.0031 -1.4727 -0.1322
 4450SOL     H218245   1.524   3.311   0.067 -0.5440  0.8095 -1.0878
 4450SOL    EPW18246   1.441   3.284   0.052 -0.2824 -0.5106 -0.3055
 4451SOL      O18247   0.340   1.763   3.877  0.7352 -0.0059  0.1501
 4451SOL     H118248   0.320   1.782   3.969 -0.0765 -0.5750  0.1036
 4451SOL     H218249   0.321   1.846   3.832  2.5471  0.7343  0.6648
 4451SOL    EPW18250   0.336   1.774   3.882  0.8419  0.0124  0.2001
 4452SOL      O18251   4.587   1.868   0.007  0.3704  0.0920  0.1189
 4452SOL     H118252   4.522   1.931  -0.025 -0.3452  0.8300  2.7731
 4452SOL     H218253   4.550   1.782  -0.013 -1.5449  0.4983  1.6085
 4452SOL    EPW18254   4.576   1.865   0.002  0.0898  0.2141  0.5609
 4453SOL      O18255   1.583   1.118   0.092  0.1269  0.4059  0.0936
 4453SOL     H118256   1.622   1.063   0.024 -0.4524 -0.3155  0.3341
 4453SOL     H218257   1.517   1.170   0.046  0.3663  0.5831 -0.0531
 4453SOL    EPW18258   1.580   1.118   0.080  0.0906  0.3479  0.1036
 4454SOL      O18259   1.658   2.360   2.155  0.1455  0.1650 -0.2092
 4454SOL     H118260   1.584   2.338   2.099 -0.8025 -0.8870  1.4128
 4454SOL     H218261   1.735   2.333   2.104 -0.7246 -1.5602 -0.6700
 4454SOL    EPW18262   1.659   2.355   2.144 -0.0485 -0.1313 -0.0853
 4455SOL      O18263   3.255   3.089   3.183  0.1504  0.0544 -0.1535
 4455SOL     H118264   3.299   3.029   3.242  0.0850 -0.2204 -0.3842
 4455SOL     H218265   3.161   3.071   3.194  0.1099  0.3956  0.0786
 4455SOL    EPW18266   3.249   3.081   3.190  0.1391  0.0615 -0.1534
 4456SOL      O18267   0.853   1.055   3.745  0.0168 -0.2321 -1.7818
 4456SOL     H118268   0.792   0.992   3.785  2.0887 -0.6745  0.9500
 4456SOL     H218269   0.916   1.000   3.698  1.1385 -0.1814 -0.3913
 4456SOL    EPW18270   0.853   1.042   3.744  0.3575 -0.2739 -1.3421
 4457SOL      O18271   2.331   2.365   2.229 -0.4663  0.3190 -0.1506
 4457SOL     H118272   2.309   2.273   2.217  2.0265 -0.2922 -0.4132
 4457SOL     H218273   2.373   2.369   2.315 -1.1965  1.3696  0.1822
 4457SOL    EPW18274   2.333   2.356   2.237 -0.2783  0.3659 -0.1431
 4458SOL      O18275   1.052   3.044   2.282  0.5924  0.3637  0.2436
 4458SOL     H118276   1.040   3.015   2.373  0.1657 -0.4014 -0.0541
 4458SOL     H218277   0.978   3.103   2.266  2.0580  2.5975  1.2109
 4458SOL    EPW18278   1.043   3.047   2.290  0.7032  0.5204  0.3150
 4459SOL      O18279   0.148   4.140   2.406  0.3198  0.8669 -0.5078
 4459SOL     H118280   0.160   4.119   2.313 -0.0192  1.3750 -0.6714
 4459SOL     H218281   0.197   4.221   2.418 -0.1319  1.1225 -0.3835
 4459SOL    EPW18282   0.155   4.146   2.397  0.2354  0.9483 -0.5120
 4460SOL      O18283   5.730   0.390   4.107  0.2120 -0.0904 -0.0759
 4460SOL     H118284   5.704   0.381   4.199 -1.0889 -1.1491 -0.5216
 4460SOL     H218285   5.704   0.480   4.084  1.2229  0.4470  0.7661
 4460SOL    EPW18286   5.724   0.399   4.115  0.1811 -0.1460 -0.0336
 4461SOL      O18287   0.007   2.279   0.175 -0.0642 -0.5409  0.0424
 4461SOL     H118288  -0.089   2.277   0.178 -0.1781 -1.1911 -2.3550
 4461SOL     H218289   0.030   2.372   0.173 -0.5147 -0.3337  1.9741
 4461SOL    EPW18290  -0.001   2.289   0.175 -0.1244 -0.5881 -0.0073
 4462SOL      O18291   3.098   2.267   1.209  0.0623 -0.2019  0.0753
 4462SOL     H118292   3.183   2.229   1.188 -0.7559 -2.3907  0.3747
 4462SOL     H218293   3.115   2.359   1.225  2.2922 -0.5068 -0.2957
 4462SOL    EPW18294   3.109   2.273   1.209  0.2129 -0.4679  0.0676
 4463SOL      O18295   1.798   0.662   3.518  0.2047  0.8031  0.1126
 4463SOL     H118296   1.720   0.626   3.561  1.1790  1.9411  3.0874
 4463SOL     H218297   1.790   0.634   3.427 -0.7988 -3.9739  1.4125
 4463SOL    EPW18298   1.789   0.655   3.513  0.2016  0.4149  0.5686
 4464SOL      O18299   3.376   3.273   4.099  0.2556 -0.3887  0.6250
 4464SOL     H118300   3.299   3.221   4.124 -0.6667  0.6938  0.1352
 4464SOL     H218301   3.451   3.217   4.121 -0.7006 -2.2619 -0.6138
 4464SOL    EPW18302   3.376   3.261   4.104  0.0552 -0.4731  0.4406
 4465SOL      O18303   4.100   1.997   4.089 -0.5417  0.7814 -0.3901
 4465SOL     H118304   4.007   1.990   4.066 -0.1034  0.6474 -2.2653
 4465SOL     H218305   4.100   2.042   4.174 -2.2770  1.4618 -0.7109
 4465SOL    EPW18306   4.090   2.001   4.096 -0.6800  0.8397 -0.6244
 4466SOL      O18307   5.226   1.888   0.922 -0.1706  0.3002  0.4326
 4466SOL     H118308   5.180   1.909   1.003  0.8364  1.0602  0.8280
 4466SOL     H218309   5.187   1.806   0.893 -0.2536 -0.2089  1.9157
 4466SOL    EPW18310   5.217   1.882   0.928 -0.0720  0.3270  0.6330
 4467SOL      O18311   5.144   0.878   3.579  0.6288  0.3762  0.3875
 4467SOL     H118312   5.164   0.913   3.665 -1.0345 -1.5261  1.6302
 4467SOL     H218313   5.221   0.825   3.557  0.9017  0.5628  0.8681
 4467SOL    EPW18314   5.154   0.876   3.586  0.4805  0.1932  0.5714
 4468SOL      O18315   3.024   3.525   4.103  0.5870 -0.2233 -0.4111
 4468SOL     H118316   3.005   3.495   4.192 -1.6094 -1.0980 -1.0940
 4468SOL     H218317   3.111   3.565   4.109  1.3587 -1.9972  1.7006
 4468SOL    EPW18318   3.031   3.526   4.113  0.4350 -0.5059 -0.2587
 4469SOL      O18319   4.187   0.987   0.171  0.3006 -0.1998  0.2571
 4469SOL     H118320   4.256   0.931   0.135 -0.1841  0.5214 -1.9352
 4469SOL     H218321   4.105   0.948   0.140 -0.1215  0.7309  0.1654
 4469SOL    EPW18322   4.186   0.977   0.164  0.2038 -0.0236  0.0134
 4470SOL      O18323   1.733   4.279   0.254  0.0175  0.4630 -0.2881
 4470SOL     H118324   1.740   4.229   0.335  0.1664  1.9761  0.6697
 4470SOL     H218325   1.650   4.252   0.216 -0.4228  0.2967  0.7656
 4470SOL    EPW18326   1.725   4.271   0.258 -0.0136  0.6067 -0.0736
 4471SOL      O18327   1.274   3.506   3.039 -0.2363 -0.0257 -0.1224
 4471SOL     H118328   1.285   3.417   3.072  1.6986  0.0697 -0.3792
 4471SOL     H218329   1.227   3.552   3.108 -1.4143 -1.2654 -0.0582
 4471SOL    EPW18330   1.270   3.501   3.050 -0.1556 -0.1478 -0.1430
 4472SOL      O18331   0.692   0.463   1.686 -0.8544 -0.4773  0.4214
 4472SOL     H118332   0.690   0.510   1.602 -1.3303  1.2906  1.3719
 4472SOL     H218333   0.762   0.505   1.735  0.3915 -2.4533  0.4458
 4472SOL    EPW18334   0.699   0.473   1.682 -0.7723 -0.4995  0.5254
 4473SOL      O18335   5.254   2.916   1.973 -0.5547 -0.5461 -0.3582
 4473SOL     H118336   5.269   3.003   2.012  1.4245  0.1311 -2.3997
 4473SOL     H218337   5.295   2.855   2.036  0.1535  0.2392 -0.0264
 4473SOL    EPW18338   5.260   2.919   1.984 -0.2680 -0.3901 -0.5406
 4474SOL      O18339   3.100   2.227   1.482  0.2064 -0.0060  0.8220
 4474SOL     H118340   3.157   2.151   1.495  0.2384  0.1337  1.5308
 4474SOL     H218341   3.083   2.228   1.388  2.6465  0.8658  0.3249
 4474SOL    EPW18342   3.104   2.219   1.473  0.4702  0.1019  0.8446
 4475SOL      O18343   5.697   3.286   2.870 -0.0811  0.4659 -0.1395
 4475SOL     H118344   5.651   3.254   2.948 -0.1330 -1.1850 -0.8139
 4475SOL     H218345   5.633   3.281   2.800 -0.2970  2.7525 -0.1915
 4475SOL    EPW18346   5.686   3.282   2.871 -0.1096  0.5337 -0.2170
 4476SOL      O18347   4.792   5.285   1.164  0.8305 -0.3125 -0.5709
 4476SOL     H118348   4.715   5.266   1.109 -0.3166  0.3366  0.7410
 4476SOL     H218349   4.821   5.200   1.196 -0.8129 -0.4056  0.7886
 4476SOL    EPW18350   4.787   5.274   1.161  0.5328 -0.2532 -0.2859
 4477SOL      O18351   2.894   5.256   2.561 -0.2009 -0.2838  0.3413
 4477SOL     H118352   2.937   5.178   2.525  2.0148  1.7566 -1.7645
 4477SOL     H218353   2.902   5.245   2.656  0.7697 -2.2215  0.1011
 4477SOL    EPW18354   2.899   5.246   2.568  0.1390 -0.2728  0.0910
 4478SOL      O18355   2.169   1.862   3.775  0.2729 -0.0534 -0.8248
 4478SOL     H118356   2.194   1.778   3.815 -0.3786 -0.0018 -0.3061
 4478SOL     H218357   2.220   1.865   3.694  0.4321 -0.8728 -0.7670
 4478SOL    EPW18358   2.177   1.853   3.771  0.2204 -0.1353 -0.7633
 4479SOL      O18359   4.298   2.085   2.814  0.4402 -0.0285  0.1900
 4479SOL     H118360   4.205   2.077   2.837  0.1807  0.4899 -0.6521
 4479SOL     H218361   4.326   1.995   2.797 -0.0639 -0.1314 -0.1319
 4479SOL    EPW18362   4.291   2.075   2.815  0.3587  0.0158  0.0658
 4480SOL      O18363   0.056   5.767   3.624 -0.1500 -0.6012  0.5977
 4480SOL     H118364   0.082   5.839   3.682 -1.1592  1.0008 -0.8351
 4480SOL     H218365   0.129   5.759   3.562 -1.3732  1.4954 -1.2503
 4480SOL    EPW18366   0.067   5.774   3.624 -0.3882 -0.2066  0.2477
 4481SOL      O18367   1.601   5.862   0.011 -0.0900  0.6968 -0.7024
 4481SOL     H118368   1.548   5.940   0.023  1.0357  1.3052  0.7653
 4481SOL     H218369   1.691   5.892   0.023  0.4618 -0.6197 -1.2736
 4481SOL    EPW18370   1.605   5.873   0.014  0.0889  0.6212 -0.6068
 4482SOL      O18371   2.410   2.435   3.800 -0.0074  0.0907  0.2072
 4482SOL     H118372   2.398   2.528   3.784 -1.7255 -0.0055  0.7903
 4482SOL     H218373   2.434   2.429   3.892 -0.6818 -0.0907  0.3745
 4482SOL    EPW18374   2.411   2.444   3.808 -0.2626  0.0611  0.2873
 4483SOL      O18375   4.892   3.821   1.212  0.1294  0.1992  0.1930
 4483SOL     H118376   4.948   3.761   1.162 -0.8882  1.3138 -2.4448
 4483SOL     H218377   4.936   3.829   1.297  1.0838 -3.0723  0.1496
 4483SOL    EPW18378   4.903   3.815   1.216  0.1226 -0.0309 -0.0930
 4484SOL      O18379   3.101   1.640   0.927 -0.0461 -0.0925 -0.1172
 4484SOL     H118380   3.134   1.561   0.970 -1.5740 -2.0940 -2.3730
 4484SOL     H218381   3.027   1.667   0.980 -0.8752 -1.5302 -0.4812
 4484SOL    EPW18382   3.097   1.634   0.937 -0.2975 -0.4594 -0.3967
 4485SOL      O18383   3.214   1.332   2.587  0.5497 -0.6960  0.4970
 4485SOL     H118384   3.146   1.266   2.579 -2.9354  2.6799 -1.4842
 4485SOL     H218385   3.275   1.313   2.515 -1.6868 -0.5716 -1.5744
 4485SOL    EPW18386   3.214   1.323   2.578 -0.0607 -0.3226  0.0647
 4486SOL      O18387   1.175   4.927   3.843 -0.1320 -0.2503 -0.0439
 4486SOL     H118388   1.179   4.994   3.912 -0.1465  0.6019 -0.8456
 4486SOL     H218389   1.121   4.858   3.880  1.8079 -0.9415  1.7393
 4486SOL    EPW18390   1.170   4.927   3.854  0.0734 -0.2331  0.0608
 4487SOL      O18391   2.778   1.923   0.177 -0.1885  0.2699  0.3717
 4487SOL     H118392   2.766   1.831   0.154  1.5314 -0.2324  1.3624
 4487SOL     H218393   2.808   1.965   0.096  0.8476 -0.4362  0.3791
 4487SOL    EPW18394   2.780   1.918   0.166  0.1055  0.1410  0.4782
 4488SOL      O18395   3.626   4.320   1.750  0.0145  0.7792 -0.4423
 4488SOL     H118396   3.657   4.374   1.677 -1.3079  1.1756 -0.7408
 4488SOL     H218397   3.683   4.343   1.823  2.4951 -0.8485 -1.7043
 4488SOL    EPW18398   3.636   4.328   1.750  0.1381  0.6478 -0.6088
 4489SOL      O18399   4.032   0.366   3.399 -0.0142  0.0077  0.5769
 4489SOL     H118400   4.057   0.412   3.480  2.3938 -0.6833  0.3033
 4489SOL     H218401   4.105   0.382   3.339 -0.9603 -0.9260 -0.8801
 4489SOL    EPW18402   4.042   0.373   3.401  0.1417 -0.1656  0.3923
 4490SOL      O18403   0.693   1.183   3.063  0.6026  0.3127 -0.0530
 4490SOL     H118404   0.778   1.142   3.054 -0.8462 -2.7153 -1.3876
 4490SOL     H218405   0.677   1.224   2.978 -0.0120 -0.8150 -0.5062
 4490SOL    EPW18406   0.700   1.183   3.053  0.3825 -0.1306 -0.2437
 4491SOL      O18407   3.206   1.907   0.338 -0.2112 -0.0047  0.4348
 4491SOL     H118408   3.204   1.818   0.374 -0.0678 -0.5576 -0.8621
 4491SOL     H218409   3.114   1.934   0.338 -0.1799  0.1406  1.4954
 4491SOL    EPW18410   3.196   1.901   0.342 -0.1926 -0.0482  0.4096
 4492SOL      O18411   3.485   3.448   1.761  0.3761 -0.8028  0.3077
 4492SOL     H118412   3.515   3.359   1.780 -0.8975 -1.4159 -0.3804
 4492SOL     H218413   3.405   3.458   1.812 -0.6686 -0.8688 -1.2557
 4492SOL    EPW18414   3.480   3.440   1.768  0.1288 -0.8753  0.0675
 4493SOL      O18415   4.648   2.167   0.876  0.3604 -0.2275 -0.4367
 4493SOL     H118416   4.743   2.178   0.875  0.3273  0.0138 -1.0490
 4493SOL     H218417   4.617   2.229   0.942  0.5976 -0.1020 -0.4435
 4493SOL    EPW18418   4.655   2.175   0.883  0.3822 -0.1884 -0.5028
 4494SOL      O18419   1.051   3.254   1.496 -0.1113  0.4106 -0.0658
 4494SOL     H118420   1.081   3.345   1.487  0.2385  0.2331 -0.8016
 4494SOL     H218421   1.104   3.205   1.433 -0.9272 -0.1474 -0.3406
 4494SOL    EPW18422   1.060   3.259   1.488 -0.1610  0.3322 -0.1736
 4495SOL      O18423   3.063   1.893   1.208 -0.3212  0.2168 -0.2997
 4495SOL     H118424   3.150   1.867   1.180 -1.0782 -3.1918  0.0870
 4495SOL     H218425   3.008   1.882   1.131 -0.6094  1.5555 -0.3197
 4495SOL    EPW18426   3.066   1.889   1.197 -0.4327 -0.0040 -0.2606
 4496SOL      O18427   5.521   1.359   0.187 -0.4309  0.4274  0.0141
 4496SOL     H118428   5.538   1.453   0.186 -3.8831  1.2045 -0.3040
 4496SOL     H218429   5.449   1.349   0.250  0.6209 -2.2281  0.9519
 4496SOL    EPW18430   5.515   1.368   0.194 -0.6869  0.2270  0.0802
 4497SOL      O18431   3.427   2.606   1.608 -0.3205 -0.0328  0.0902
 4497SOL     H118432   3.425   2.672   1.540  1.4837 -0.2588 -0.2304
 4497SOL     H218433   3.400   2.525   1.564 -2.6887  0.4646  0.5220
 4497SOL    EPW18434   3.424   2.604   1.596 -0.3807 -0.0038  0.1021
 4498SOL      O18435   2.436   1.875   3.557 -0.1499 -0.3432 -0.6296
 4498SOL     H118436   2.421   1.789   3.597 -2.0594 -0.7513 -2.0936
 4498SOL     H218437   2.479   1.856   3.473 -0.4059  0.1437 -0.8766
 4498SOL    EPW18438   2.439   1.864   3.552 -0.3809 -0.3348 -0.8122
 4499SOL      O18439   4.715   2.944   0.472 -0.1937 -0.0899 -0.3071
 4499SOL     H118440   4.687   3.021   0.521 -1.3064  0.0759 -1.1532
 4499SOL     H218441   4.633   2.896   0.455  0.4152 -1.1761 -0.2581
 4499SOL    EPW18442   4.703   2.947   0.475 -0.2475 -0.1881 -0.3921
 4500SOL      O18443   4.894   0.309   1.170 -0.0325 -0.0410  0.0791
 4500SOL     H118444   4.864   0.220   1.188  2.1125 -1.0739 -1.0796
 4500SOL     H218445   4.869   0.359   1.248 -0.6478 -1.8119  1.0692
 4500SOL    EPW18446   4.888   0.305   1.180  0.1307 -0.3401  0.0611
 4501SOL      O18447   4.164   1.219   0.386  0.4897 -1.0248  0.0532
 4501SOL     H118448   4.170   1.132   0.346 -0.3150 -0.2299 -1.9058
 4501SOL     H218449   4.246   1.262   0.364 -0.5893 -0.0055 -2.3401
 4501SOL    EPW18450   4.173   1.214   0.380  0.2888 -0.8313 -0.4111
 4502SOL      O18451   5.690   3.994   4.097 -0.1423  0.3285 -0.2063
 4502SOL     H118452   5.717   3.927   4.035  1.6971 -0.6360  1.5338
 4502SOL     H218453   5.614   3.956   4.142 -0.2094  0.1735 -0.4511
 4502SOL    EPW18454   5.685   3.983   4.095  0.0467  0.2091 -0.0468
 4503SOL      O18455   0.264   0.255   0.983 -0.0584  0.0456  0.3148
 4503SOL     H118456   0.231   0.297   0.904  2.6913  1.2570 -0.3026
 4503SOL     H218457   0.289   0.327   1.040  2.3914 -0.7146  0.2944
 4503SOL    EPW18458   0.263   0.267   0.980  0.4963  0.0937  0.2468
 4504SOL      O18459   3.458   5.796   3.074 -0.0111 -0.8786 -0.0503
 4504SOL     H118460   3.450   5.887   3.046 -1.4129 -1.6700 -2.5409
 4504SOL     H218461   3.453   5.746   2.993  1.5803 -3.1806  1.1641
 4504SOL    EPW18462   3.457   5.800   3.063  0.0091 -1.2086 -0.1865
 4505SOL      O18463   0.074   5.241   0.302 -0.6711 -0.4017  0.0712
 4505SOL     H118464   0.094   5.179   0.232 -0.5442 -0.7561  0.4155
 4505SOL     H218465   0.071   5.187   0.381 -0.0738  0.1035  0.4455
 4505SOL    EPW18466   0.076   5.228   0.303 -0.5939 -0.3856  0.1479
 4506SOL      O18467   2.811   3.116   4.050 -0.2943  0.3454 -0.3564
 4506SOL     H118468   2.861   3.048   4.095 -0.8535  1.0100  1.3614
 4506SOL     H218469   2.877   3.174   4.012  0.2379  0.4694  0.7232
 4506SOL    EPW18470   2.823   3.115   4.051 -0.2971  0.4295 -0.0580
 4507SOL      O18471   1.680   5.238   1.365  0.0617  0.1028 -0.4838
 4507SOL     H118472   1.723   5.276   1.442 -0.6009  0.5602 -0.3275
 4507SOL     H218473   1.617   5.305   1.338 -2.0128 -1.3194  0.5255
 4507SOL    EPW18474   1.678   5.249   1.371 -0.2303 -0.0001 -0.3595
 4508SOL      O18475   4.671   2.678   3.880 -0.1700  0.2314 -0.0404
 4508SOL     H118476   4.702   2.721   3.800 -0.6213  0.4765 -0.0850
 4508SOL     H218477   4.751   2.644   3.921 -0.1764 -2.7153 -2.1757
 4508SOL    EPW18478   4.683   2.679   3.876 -0.2188 -0.0568 -0.2730
 4509SOL      O18479   0.544   4.219   0.708  0.2423  0.0480  0.4571
 4509SOL     H118480   0.544   4.159   0.633  4.2490 -0.1805  0.4160
 4509SOL     H218481   0.509   4.166   0.780 -0.8108 -0.7265 -0.5821
 4509SOL    EPW18482   0.541   4.207   0.707  0.5574 -0.0590  0.3419
 4510SOL      O18483   1.805   5.338   3.357  0.4294 -0.0831  0.2498
 4510SOL     H118484   1.882   5.383   3.322  0.8826  0.1409  1.4745
 4510SOL     H218485   1.808   5.251   3.318  0.3053  0.4893 -1.0910
 4510SOL    EPW18486   1.813   5.334   3.349  0.4645  0.0018  0.2374
 4511SOL      O18487   0.947   4.250   3.100 -0.4984  0.0868 -0.3616
 4511SOL     H118488   0.880   4.248   3.032 -0.3428  1.5737 -0.6017
 4511SOL     H218489   1.010   4.315   3.069  0.2921 -0.2139  0.5586
 4511SOL    EPW18490   0.947   4.257   3.090 -0.3974  0.2133 -0.2891
 4512SOL      O18491   2.705   1.678   0.142  0.0304  0.0531 -0.5900
 4512SOL     H118492   2.666   1.680   0.230  0.9862  1.8448 -0.1484
 4512SOL     H218493   2.634   1.650   0.085 -1.1301  0.5635  0.5444
 4512SOL    EPW18494   2.693   1.676   0.145  0.0086  0.2986 -0.4219
 4513SOL      O18495   1.016   2.719   1.312  0.3549 -0.2245  0.8049
 4513SOL     H118496   1.060   2.777   1.251  0.6504 -2.2509 -1.0255
 4513SOL     H218497   0.925   2.718   1.282  0.0799  0.2319  1.5993
 4513SOL    EPW18498   1.011   2.725   1.302  0.3571 -0.3920  0.6944
 4514SOL      O18499   2.373   0.879   2.399  0.3612  0.1679 -0.1256
 4514SOL     H118500   2.314   0.949   2.369  0.2736  0.1659  0.0397
 4514SOL     H218501   2.361   0.877   2.494 -1.6849 -1.8693 -0.3253
 4514SOL    EPW18502   2.365   0.886   2.406  0.1336 -0.0496 -0.1293
 4515SOL      O18503   3.609   0.681   3.606  0.0776 -0.2254  0.4538
 4515SOL     H118504   3.560   0.600   3.621 -0.3710 -0.2958 -1.1922
 4515SOL     H218505   3.672   0.658   3.537 -0.0229  0.8040  0.0047
 4515SOL    EPW18506   3.610   0.670   3.600  0.0190 -0.1231  0.2303
 4516SOL      O18507   1.036   0.855   3.650  0.7604  0.1036  0.2060
 4516SOL     H118508   1.007   0.779   3.700  0.3066 -0.3621 -0.7451
 4516SOL     H218509   1.131   0.854   3.660  0.7761 -0.6809  0.0913
 4516SOL    EPW18510   1.043   0.847   3.656  0.7137 -0.0298  0.0923
 4517SOL      O18511   2.648   2.549   1.134  0.5213 -0.6436 -0.1375
 4517SOL     H118512   2.656   2.511   1.222  0.4430 -3.0292 -1.0960
 4517SOL     H218513   2.563   2.592   1.135 -0.4095 -2.3857  0.3787
 4517SOL    EPW18514   2.640   2.549   1.144  0.4136 -1.0840 -0.1847
 4518SOL      O18515   5.495   4.817   3.812 -0.1219  0.9723 -0.0153
 4518SOL     H118516   5.569   4.765   3.781  0.7854  1.5448  1.1291
 4518SOL     H218517   5.469   4.869   3.735 -0.4709 -0.4680 -0.9162
 4518SOL    EPW18518   5.500   4.817   3.800 -0.0623  0.8798  0.0107
 4519SOL      O18519   2.349   0.583   2.837  0.5553  1.0483 -0.0771
 4519SOL     H118520   2.376   0.537   2.757 -3.3730  0.7589 -1.4293
 4519SOL     H218521   2.359   0.518   2.906  1.6739  0.4994 -0.7184
 4519SOL    EPW18522   2.353   0.571   2.836  0.2556  0.9588 -0.2897
 4520SOL      O18523   3.545   5.140   3.847 -0.0269  0.1292  0.2761
 4520SOL     H118524   3.507   5.228   3.843 -0.3045  0.0712  1.3082
 4520SOL     H218525   3.616   5.148   3.910  0.2558 -0.2757  0.0073
 4520SOL    EPW18526   3.548   5.151   3.854 -0.0263  0.0798  0.3575
 4521SOL      O18527   2.420   3.627   3.730  0.2368 -0.1004 -0.0804
 4521SOL     H118528   2.490   3.684   3.700  0.3005  0.5762  1.2847
 4521SOL     H218529   2.340   3.671   3.702  0.3235 -0.0686 -0.2769
 4521SOL    EPW18530   2.419   3.638   3.724  0.2529 -0.0248  0.0442
 4522SOL      O18531   0.089   3.206   2.605 -0.6677  0.1650 -0.9771
 4522SOL     H118532   0.077   3.223   2.698  2.6031  2.1608 -0.7994
 4522SOL     H218533   0.102   3.112   2.599  2.7896  0.3673  1.1953
 4522SOL    EPW18534   0.089   3.198   2.614  0.0500  0.3995 -0.7264
 4523SOL      O18535   5.131   3.099   2.656  0.2641  0.5549 -0.2894
 4523SOL     H118536   5.077   3.150   2.595 -0.8154  0.0982  0.2516
 4523SOL     H218537   5.069   3.039   2.698  1.2531 -0.1878  0.1534
 4523SOL    EPW18538   5.119   3.098   2.654  0.2545  0.4270 -0.1844
 4524SOL      O18539   3.235   3.289   1.203 -0.2726 -0.4540  0.5668
 4524SOL     H118540   3.272   3.205   1.229  0.1018  0.1801  2.1844
 4524SOL     H218541   3.170   3.308   1.270 -0.4078  0.5063  0.1736
 4524SOL    EPW18542   3.232   3.282   1.213 -0.2471 -0.2839  0.6974
 4525SOL      O18543   1.199   5.126   0.679  0.5093  0.2894 -0.2690
 4525SOL     H118544   1.164   5.097   0.595 -0.0712 -0.4177  0.2069
 4525SOL     H218545   1.280   5.173   0.656  1.0788 -1.0391 -1.1232
 4525SOL    EPW18546   1.204   5.128   0.668  0.5081  0.0722 -0.3094
 4526SOL      O18547   1.121   5.265   3.536  0.0082 -0.2646 -0.2847
 4526SOL     H118548   1.105   5.172   3.520  1.0091 -0.6506  0.8040
 4526SOL     H218549   1.132   5.303   3.449 -0.8538 -1.0696 -0.7638
 4526SOL    EPW18550   1.121   5.259   3.525  0.0230 -0.3916 -0.2197
 4527SOL      O18551   4.511   4.950   2.564  0.4108 -0.1142 -0.0897
 4527SOL     H118552   4.540   4.904   2.486 -0.7248 -2.3834  0.7439
 4527SOL     H218553   4.554   4.905   2.636 -0.0376  0.7175  0.7209
 4527SOL    EPW18554   4.518   4.940   2.563  0.2418 -0.2675  0.0857
 4528SOL      O18555   0.643   4.411   2.253  0.0113 -0.1010 -0.0865
 4528SOL     H118556   0.687   4.365   2.325 -0.1190  2.8066  2.0494
 4528SOL     H218557   0.555   4.374   2.252 -0.1477  0.1172  1.6530
 4528SOL    EPW18558   0.639   4.402   2.261 -0.0196  0.2324  0.3269
 4529SOL      O18559   0.769   2.289   2.672  0.1651 -0.0556 -0.5467
 4529SOL     H118560   0.852   2.322   2.707 -0.5754  1.6893 -0.3565
 4529SOL     H218561   0.749   2.347   2.599 -0.8687 -0.5023 -0.6337
 4529SOL    EPW18562   0.776   2.298   2.668 -0.0241  0.0829 -0.5357
 4530SOL      O18563   4.101   2.928   0.056  0.3623 -0.6777  0.3000
 4530SOL     H118564   4.150   2.994   0.008 -0.8027  0.0283  0.0423
 4530SOL     H218565   4.011   2.937   0.025  0.0321 -1.8619  0.8367
 4530SOL    EPW18566   4.096   2.936   0.048  0.2028 -0.7287  0.3297
 4531SOL      O18567   1.526   1.952   1.398 -0.0250 -0.3751  1.0927
 4531SOL     H118568   1.616   1.980   1.380  0.0708 -0.7525  0.9902
 4531SOL     H218569   1.521   1.952   1.494 -0.8169  2.5363  1.1407
 4531SOL    EPW18570   1.535   1.955   1.407 -0.0993 -0.1048  1.0869
 4532SOL      O18571   4.079   1.365   3.087 -0.6521 -0.8973  0.0214
 4532SOL     H118572   3.991   1.368   3.051  0.0597 -1.9715 -1.9776
 4532SOL     H218573   4.112   1.278   3.063  1.5687  0.1018 -0.9160
 4532SOL    EPW18574   4.073   1.356   3.081 -0.3393 -0.9053 -0.2918
 4533SOL      O18575   0.930   1.058   3.048  0.1770 -0.0894  0.9606
 4533SOL     H118576   0.983   1.125   3.004  0.5197 -1.0445 -0.0961
 4533SOL     H218577   0.994   0.993   3.077 -0.2901 -0.6057  0.8262
 4533SOL    EPW18578   0.943   1.058   3.046  0.1637 -0.2464  0.8335
 4534SOL      O18579   1.819   1.806   0.211 -0.0648 -0.0765  0.0421
 4534SOL     H118580   1.831   1.752   0.289  1.6987  1.7560  1.1202
 4534SOL     H218581   1.724   1.820   0.207 -0.2141 -0.3370  1.7560
 4534SOL    EPW18582   1.810   1.801   0.219  0.1074  0.0912  0.3399
 4535SOL      O18583   0.102   2.438   0.487  0.8352  0.2117  0.0499
 4535SOL     H118584   0.165   2.456   0.418 -0.2184 -1.4296 -1.4098
 4535SOL     H218585   0.093   2.343   0.489  0.1152  0.2661  1.8115
 4535SOL    EPW18586   0.107   2.430   0.480  0.6460  0.0424  0.0821
 4536SOL      O18587   2.610   3.888   1.914 -0.4051  0.2578 -0.2613
 4536SOL     H118588   2.521   3.903   1.944  0.2940 -0.2674  2.2851
 4536SOL     H218589   2.606   3.806   1.865 -1.1610 -0.3182  0.7402
 4536SOL    EPW18590   2.600   3.881   1.912 -0.4111  0.1403  0.1172
 4537SOL      O18591   3.303   0.939   0.560 -0.0850  0.0015 -0.0329
 4537SOL     H118592   3.225   0.893   0.529 -1.6514  2.7683 -0.5519
 4537SOL     H218593   3.370   0.919   0.494 -0.6192 -1.6566 -0.1008
 4537SOL    EPW18594   3.302   0.932   0.549 -0.3091  0.1197 -0.0955
 4538SOL      O18595   3.152   1.591   2.784 -0.3922  0.4253 -0.3310
 4538SOL     H118596   3.192   1.608   2.699 -1.0184  0.1138 -0.6917
 4538SOL     H218597   3.087   1.661   2.795  0.1314  0.8501  0.1933
 4538SOL    EPW18598   3.149   1.600   2.776 -0.4032  0.4374 -0.3136
 4539SOL      O18599   0.629   2.689   2.657  0.2348  0.1691  0.3143
 4539SOL     H118600   0.673   2.693   2.742  0.4374  1.9022  0.1640
 4539SOL     H218601   0.545   2.648   2.676  0.0552  1.0163  1.4800
 4539SOL    EPW18602   0.625   2.685   2.668  0.2373  0.4444  0.4226
 4540SOL      O18603   4.989   2.271   3.382  0.3853  0.0029 -0.6622
 4540SOL     H118604   5.059   2.294   3.442  0.2408  2.0917 -1.1950
 4540SOL     H218605   4.916   2.247   3.438  0.7890  0.2089 -0.0417
 4540SOL    EPW18606   4.988   2.271   3.394  0.4129  0.2477 -0.6528
 4541SOL      O18607   1.509   0.233   0.808 -0.5581 -0.3883 -0.6194
 4541SOL     H118608   1.519   0.263   0.718  0.0888 -1.2775 -0.8680
 4541SOL     H218609   1.422   0.262   0.834 -0.6144  0.1894 -1.4062
 4541SOL    EPW18610   1.501   0.239   0.801 -0.4951 -0.4215 -0.7299
 4542SOL      O18611   5.422   1.607   0.730  0.4171  0.2031  0.0439
 4542SOL     H118612   5.482   1.680   0.715  0.6721  1.1230  4.2812
 4542SOL     H218613   5.337   1.639   0.699  0.5482  2.3933  1.6797
 4542SOL    EPW18614   5.419   1.618   0.725  0.4583  0.5349  0.6704
 4543SOL      O18615   4.063   4.300   4.061 -0.5872  0.2958  0.2623
 4543SOL     H118616   4.021   4.238   4.002  1.5778 -2.5106  1.4291
 4543SOL     H218617   4.007   4.302   4.138 -1.1587  0.5896 -0.1487
 4543SOL    EPW18618   4.053   4.294   4.063 -0.4172  0.0278  0.3429
 4544SOL      O18619   3.761   1.490   3.360  0.0826  0.2944 -0.5792
 4544SOL     H118620   3.668   1.504   3.374  0.4910  1.3942  1.4680
 4544SOL     H218621   3.769   1.395   3.345 -1.2510 -0.0187  0.4907
 4544SOL    EPW18622   3.752   1.481   3.360 -0.0161  0.3783 -0.2467
 4545SOL      O18623   1.919   1.656   2.698  0.0250 -0.0504 -0.0230
 4545SOL     H118624   1.897   1.746   2.725 -1.4003  0.7233 -3.2155
 4545SOL     H218625   2.014   1.655   2.694  0.0499  1.6873 -0.8706
 4545SOL    EPW18626   1.927   1.666   2.701 -0.1244  0.2175 -0.4540
 4546SOL      O18627   2.673   5.871   0.621  0.4798 -0.2933  0.3351
 4546SOL     H118628   2.747   5.834   0.573  0.5369  1.1259 -0.7409
 4546SOL     H218629   2.643   5.944   0.566 -1.0411 -0.1651  1.2709
 4546SOL    EPW18630   2.678   5.875   0.610  0.3236 -0.1282  0.3201
 4547SOL      O18631   2.157   4.482   1.721 -0.3410 -0.2530 -0.0212
 4547SOL     H118632   2.127   4.506   1.809  0.0242 -1.3489  0.4153
 4547SOL     H218633   2.194   4.395   1.731  0.6472  0.0277 -1.0693
 4547SOL    EPW18634   2.157   4.475   1.731 -0.1967 -0.3400 -0.0864
 4548SOL      O18635   5.442   1.289   2.329  0.2760  0.0562  0.3130
 4548SOL     H118636   5.488   1.255   2.406 -2.0851 -1.3569  1.2043
 4548SOL     H218637   5.476   1.237   2.256  2.8457  1.6913  0.2195
 4548SOL    EPW18638   5.450   1.280   2.330  0.2982  0.0799  0.3981
 4549SOL      O18639   4.831   1.538   3.665  0.2945  1.0910 -0.5026
 4549SOL     H118640   4.901   1.595   3.632  1.2752  0.7042  0.8221
 4549SOL     H218641   4.874   1.481   3.729 -0.4845 -1.6581 -2.2370
 4549SOL    EPW18642   4.843   1.538   3.668  0.3161  0.7565 -0.5463
 4550SOL      O18643   4.755   3.807   1.847  0.4463  0.6242 -0.4770
 4550SOL     H118644   4.737   3.761   1.765 -1.6977  1.1667 -0.3528
 4550SOL     H218645   4.841   3.775   1.874 -0.9392 -3.4223 -0.3064
 4550SOL    EPW18646   4.762   3.799   1.841  0.0698  0.2504 -0.4456
 4551SOL      O18647   4.611   2.413   4.124 -0.2425  0.3564  0.6639
 4551SOL     H118648   4.549   2.417   4.051  0.6591  1.0549 -0.1046
 4551SOL     H218649   4.637   2.321   4.129 -0.9623  0.1515  0.6635
 4551SOL    EPW18650   4.607   2.404   4.116 -0.2231  0.4091  0.5819
 4552SOL      O18651   4.703   2.152   0.138 -0.6592 -0.1800  0.3460
 4552SOL     H118652   4.752   2.222   0.181 -1.5074  0.9224 -0.4172
 4552SOL     H218653   4.666   2.193   0.060  1.0189 -2.1624 -1.6383
 4552SOL    EPW18654   4.704   2.164   0.135 -0.5707 -0.2739  0.0529
 4553SOL      O18655   5.038   3.327   1.736 -0.2054  0.0866 -0.4201
 4553SOL     H118656   5.052   3.291   1.824 -1.3847 -1.2195 -0.7373
 4553SOL     H218657   4.951   3.366   1.740 -0.2584  0.0332 -1.0025
 4553SOL    EPW18658   5.031   3.327   1.746 -0.3369 -0.0585 -0.5161
 4554SOL      O18659   5.660   5.198   4.043 -0.1025 -0.4581 -0.7438
 4554SOL     H118660   5.565   5.181   4.043 -0.1693 -0.1013 -0.6625
 4554SOL     H218661   5.700   5.112   4.027 -0.2636 -1.6174  3.7404
 4554SOL    EPW18662   5.654   5.187   4.041 -0.1268 -0.5437 -0.2568
 4555SOL      O18663   5.592   1.161   2.522  0.0171 -0.6353  0.5881
 4555SOL     H118664   5.636   1.191   2.602 -0.0840  0.2771  0.3215
 4555SOL     H218665   5.650   1.094   2.486  0.8093 -0.0222  0.6743
 4555SOL    EPW18666   5.603   1.157   2.526  0.0908 -0.4726  0.5688
 4556SOL      O18667   4.006   4.956   0.927 -0.5730 -0.0401  0.4100
 4556SOL     H118668   4.089   5.002   0.940 -0.7000 -0.3559  3.0516
 4556SOL     H218669   4.031   4.868   0.901 -0.0996  0.0546  0.5388
 4556SOL    EPW18670   4.017   4.952   0.926 -0.5360 -0.0637  0.7056
 4557SOL      O18671   3.478   1.158   0.652 -0.1750  0.3264  0.0155
 4557SOL     H118672   3.535   1.182   0.579 -1.3938  0.5854 -0.8667
 4557SOL     H218673   3.539   1.133   0.722  1.0762  2.4251 -0.2461
 4557SOL    EPW18674   3.491   1.158   0.652 -0.1715  0.5779 -0.1065
 4558SOL      O18675   3.760   5.759   2.116 -0.1790  0.2258 -0.5712
 4558SOL     H118676   3.671   5.790   2.102  0.0579  1.3227  0.1728
 4558SOL     H218677   3.751   5.685   2.176 -0.5849  0.4143 -0.3960
 4558SOL    EPW18678   3.750   5.755   2.121 -0.1970  0.3629 -0.4732
 4559SOL      O18679   5.315   3.029   1.744 -0.1197 -0.7885  0.3993
 4559SOL     H118680   5.244   3.052   1.684  0.4142 -2.9544 -1.1957
 4559SOL     H218681   5.272   2.978   1.813 -0.2530 -1.4626 -0.1676
 4559SOL    EPW18682   5.303   3.026   1.745 -0.0770 -1.0914  0.1687
 4560SOL      O18683   2.636   2.211   1.110 -0.3513 -0.2986 -0.2823
 4560SOL     H118684   2.593   2.297   1.105 -0.2500 -0.3012 -1.4999
 4560SOL     H218685   2.729   2.230   1.100 -0.3985 -0.6029 -1.5614
 4560SOL    EPW18686   2.641   2.222   1.108 -0.3455 -0.3313 -0.5486
 4561SOL      O18687   0.839   0.349   0.857  0.3809 -0.1371 -0.5866
 4561SOL     H118688   0.864   0.286   0.790  0.0901 -0.6512 -0.2151
 4561SOL     H218689   0.870   0.311   0.940 -0.1954 -0.0180 -0.3078
 4561SOL    EPW18690   0.845   0.338   0.859  0.2884 -0.1792 -0.5173
 4562SOL      O18691   3.388   0.950   0.815 -0.3784 -0.2784 -0.2036
 4562SOL     H118692   3.355   0.931   0.903  2.6035  1.8813  1.6087
 4562SOL     H218693   3.439   0.873   0.792  0.4476 -0.1019  0.9261
 4562SOL    EPW18694   3.390   0.940   0.822  0.0278 -0.0292  0.1103
 4563SOL      O18695   5.550   1.377   3.554 -0.3394 -0.1800 -0.3441
 4563SOL     H118696   5.513   1.290   3.541  0.4050 -0.9504  2.1803
 4563SOL     H218697   5.535   1.397   3.646 -2.2763  3.2991 -1.1976
 4563SOL    EPW18698   5.545   1.370   3.562 -0.4666  0.1090 -0.1659
 4564SOL      O18699   3.152   5.177   3.727  0.3151 -0.1625  0.1597
 4564SOL     H118700   3.145   5.195   3.821 -0.4022  1.4321 -0.1766
 4564SOL     H218701   3.124   5.085   3.719 -3.0789  0.6429  1.1276
 4564SOL    EPW18702   3.148   5.169   3.736 -0.1235  0.0935  0.2270
 4565SOL      O18703   1.768   3.962   1.672 -0.4999 -0.2561 -0.0720
 4565SOL     H118704   1.786   3.894   1.737 -0.7959 -0.0857  0.1944
 4565SOL     H218705   1.747   4.040   1.723 -0.7421 -0.1194 -0.3705
 4565SOL    EPW18706   1.767   3.963   1.684 -0.5573 -0.2233 -0.0754
 4566SOL      O18707   4.713   3.960   3.107 -0.1957  0.1934 -0.5033
 4566SOL     H118708   4.782   3.907   3.068  1.2272  0.3103  1.6459
 4566SOL     H218709   4.676   3.905   3.175 -0.3805  1.0756  0.1350
 4566SOL    EPW18710   4.717   3.949   3.110 -0.0636  0.3000 -0.2060
 4567SOL      O18711   0.807   5.527   3.837  0.0239 -0.2585 -0.4389
 4567SOL     H118712   0.729   5.482   3.870 -1.9993  3.0941 -0.2193
 4567SOL     H218713   0.828   5.481   3.756 -1.1581 -2.2721  0.3144
 4567SOL    EPW18714   0.801   5.517   3.832 -0.3180 -0.1157 -0.3351
 4568SOL      O18715   1.049   4.229   2.502 -0.0308  0.6492  0.0171
 4568SOL     H118716   1.111   4.209   2.573  0.3689  0.5758 -0.3494
 4568SOL     H218717   1.101   4.222   2.422 -0.6054  0.1858 -0.3306
 4568SOL    EPW18718   1.061   4.226   2.501 -0.0495  0.5920 -0.0591
 4569SOL      O18719   0.308   3.168   4.102  0.1206 -0.6579 -0.1542
 4569SOL     H118720   0.327   3.243   4.159  0.6862 -2.2154  1.8116
 4569SOL     H218721   0.213   3.159   4.106  0.0269  0.0606 -0.5687
 4569SOL    EPW18722   0.300   3.175   4.108  0.1709 -0.7474  0.0113
 4570SOL      O18723   3.218   1.210   0.552  0.3155 -0.0277  0.3160
 4570SOL     H118724   3.206   1.172   0.465  1.8921  0.2403 -0.0482
 4570SOL     H218725   3.247   1.300   0.535 -1.2620  0.6820  1.1545
 4570SOL    EPW18726   3.220   1.216   0.541  0.3154  0.0766  0.3666
 4571SOL      O18727   0.619   2.390   2.077 -0.0659 -0.3814 -0.3418
 4571SOL     H118728   0.553   2.373   2.011 -0.3630  1.3208 -0.5273
 4571SOL     H218729   0.664   2.469   2.047  0.6969 -0.3535  0.7990
 4571SOL    EPW18730   0.617   2.397   2.067 -0.0162 -0.1968 -0.2399
 4572SOL      O18731   1.115   2.506   4.050  0.6258  0.1159 -0.4067
 4572SOL     H118732   1.059   2.429   4.043 -0.1908  0.8682 -4.6196
 4572SOL     H218733   1.204   2.473   4.036  0.2460 -0.1526 -2.5477
 4572SOL    EPW18734   1.119   2.494   4.048  0.4982  0.1675 -1.0845
 4573SOL      O18735   2.159   5.812   0.343  0.4201  0.0668 -0.0612
 4573SOL     H118736   2.238   5.764   0.368  0.0809  0.3720  1.7220
 4573SOL     H218737   2.104   5.811   0.421 -2.5637 -2.3798 -1.9400
 4573SOL    EPW18738   2.162   5.807   0.354  0.0656 -0.1616 -0.0714
 4574SOL      O18739   0.703   0.526   0.136 -0.2297 -0.6308  0.2125
 4574SOL     H118740   0.618   0.494   0.166 -0.7380 -0.0747 -0.6138
 4574SOL     H218741   0.764   0.502   0.207 -1.3857  0.5733  1.6773
 4574SOL    EPW18742   0.701   0.520   0.147 -0.4073 -0.4430  0.2806
 4575SOL      O18743   3.706   4.156   2.219  0.5967  0.2400  0.1632
 4575SOL     H118744   3.624   4.125   2.183  0.0997 -1.6246  2.6449
 4575SOL     H218745   3.693   4.250   2.232 -1.1759 -0.0335  0.5425
 4575SOL    EPW18746   3.696   4.163   2.217  0.3546  0.0119  0.4684
 4576SOL      O18747   5.020   2.977   3.623 -0.1938 -0.4161 -1.1440
 4576SOL     H118748   4.997   2.959   3.532  0.7045 -0.5780 -1.3420
 4576SOL     H218749   4.990   3.067   3.638  0.7532  0.0383 -1.9651
 4576SOL    EPW18750   5.014   2.985   3.615  0.0031 -0.3849 -1.2527
 4577SOL      O18751   0.065   4.730   1.701 -0.1016  0.1917 -0.3638
 4577SOL     H118752   0.127   4.785   1.652 -0.9558  0.1254 -1.5577
 4577SOL     H218753  -0.019   4.774   1.690  0.0595  1.9639  3.7034
 4577SOL    EPW18754   0.063   4.741   1.694 -0.1755  0.3737 -0.0573
 4578SOL      O18755   1.259   2.294   1.453  0.9061  0.7019  0.0256
 4578SOL     H118756   1.212   2.367   1.412  0.7766 -0.8596 -2.9128
 4578SOL     H218757   1.346   2.297   1.412  0.6839 -1.1077 -0.6484
 4578SOL    EPW18758   1.263   2.302   1.444  0.8686  0.3423 -0.3598
 4579SOL      O18759   2.671   3.523   2.991 -0.2927 -0.4298  0.1045
 4579SOL     H118760   2.688   3.430   2.976 -1.2801 -0.1775 -3.4937
 4579SOL     H218761   2.601   3.525   3.056 -0.2595 -2.1606  0.2419
 4579SOL    EPW18762   2.666   3.513   2.996 -0.3945 -0.5875 -0.2647
 4580SOL      O18763   3.830   0.647   3.762 -0.0338 -0.5205 -0.4956
 4580SOL     H118764   3.798   0.623   3.849  0.8686  1.9091  0.5964
 4580SOL     H218765   3.754   0.683   3.717  0.2404  1.7034  0.7072
 4580SOL    EPW18766   3.819   0.648   3.767  0.0917 -0.0241 -0.2508
 4581SOL      O18767   0.962   0.707   2.808  0.2481  0.2345  1.0357
 4581SOL     H118768   1.001   0.622   2.829  1.3415  0.6653  0.8231
 4581SOL     H218769   0.879   0.708   2.856 -0.3212 -1.3977  0.1615
 4581SOL    EPW18770   0.957   0.698   2.816  0.3040  0.1063  0.9198
 4582SOL      O18771   3.901   0.945   0.757 -0.1046  0.2847 -0.4291
 4582SOL     H118772   3.954   0.870   0.731 -0.1774 -0.3776  1.2160
 4582SOL     H218773   3.945   1.020   0.718 -0.1127 -0.6017 -2.2253
 4582SOL    EPW18774   3.911   0.945   0.750 -0.1133  0.1195 -0.4452
 4583SOL      O18775   2.595   4.254   1.572  0.1857 -0.0242 -0.2458
 4583SOL     H118776   2.665   4.304   1.614 -0.7321  0.2103  1.0701
 4583SOL     H218777   2.574   4.305   1.493  0.6180  0.6039  0.0321
 4583SOL    EPW18778   2.600   4.265   1.568  0.1339  0.0678 -0.0758
 4584SOL      O18779   0.683   0.630   2.673 -0.5606  0.0864 -0.4179
 4584SOL     H118780   0.759   0.617   2.617 -0.4939 -0.1608 -0.2721
 4584SOL     H218781   0.682   0.724   2.690  1.7701 -0.2530  2.4186
 4584SOL    EPW18782   0.691   0.638   2.669 -0.3049  0.0238 -0.0998
 4585SOL      O18783   3.483   0.181   3.008  0.7422 -0.0385  0.6385
 4585SOL     H118784   3.576   0.191   2.988  0.8286  0.8666  1.4146
 4585SOL     H218785   3.449   0.270   3.010 -0.1082 -0.3543  0.5422
 4585SOL    EPW18786   3.489   0.191   3.006  0.6607  0.0244  0.7110
 4586SOL      O18787   4.492   0.756   3.051  0.3405  0.5713  0.0923
 4586SOL     H118788   4.519   0.798   3.133 -1.4467 -0.2644  1.1960
 4586SOL     H218789   4.522   0.815   2.982 -1.3845  3.3199  1.4981
 4586SOL    EPW18790   4.498   0.767   3.053 -0.0342  0.7754  0.3600
 4587SOL      O18791   0.853   2.940   1.037 -0.0574 -0.2681  0.5907
 4587SOL     H118792   0.769   2.897   1.023  0.5299 -1.3997  0.4252
 4587SOL     H218793   0.850   3.017   0.981 -0.3259 -1.2010 -0.7358
 4587SOL    EPW18794   0.844   2.944   1.030 -0.0234 -0.4884  0.4315
 4588SOL      O18795   5.560   2.818   3.964  0.0377 -0.4746  0.0441
 4588SOL     H118796   5.583   2.890   3.905  1.5963 -1.4743 -0.6568
 4588SOL     H218797   5.604   2.839   4.046 -1.1544  0.3364  0.4854
 4588SOL    EPW18798   5.567   2.828   3.966  0.0768 -0.4947  0.0164
 4589SOL      O18799   5.141   2.814   1.505 -0.2814  0.5836 -0.7360
 4589SOL     H118800   5.228   2.830   1.469  0.7480  0.4155  1.5223
 4589SOL     H218801   5.116   2.897   1.545 -0.2452  0.0596  0.4067
 4589SOL    EPW18802   5.147   2.824   1.505 -0.1677  0.5097 -0.3732
 4590SOL      O18803   4.478   2.383   1.001  0.0015 -0.8752 -0.6527
 4590SOL     H118804   4.391   2.419   1.018  0.0936 -0.3854 -1.1815
 4590SOL     H218805   4.533   2.418   1.071  0.0237 -0.2245 -0.9916
 4590SOL    EPW18806   4.475   2.391   1.010  0.0137 -0.7535 -0.7453
 4591SOL      O18807   5.042   4.174   0.970  0.2518  0.0217 -0.2956
 4591SOL     H118808   5.120   4.120   0.957 -0.2180 -0.8100  0.3239
 4591SOL     H218809   4.969   4.113   0.966 -0.4063  0.8207 -1.0722
 4591SOL    EPW18810   5.042   4.162   0.968  0.1315  0.0182 -0.3123
 4592SOL      O18811   2.805   1.746   1.791  0.4451  1.1921  0.2075
 4592SOL     H118812   2.856   1.788   1.721  0.9601  0.4128  0.0938
 4592SOL     H218813   2.863   1.677   1.823 -1.1700 -0.9227 -1.1346
 4592SOL    EPW18814   2.817   1.743   1.787  0.3277  0.8833  0.0522
 4593SOL      O18815   2.121   2.509   3.621  0.2241 -0.2870 -0.4760
 4593SOL     H118816   2.053   2.567   3.657 -0.1170 -0.6672 -0.5030
 4593SOL     H218817   2.103   2.508   3.527 -0.7484 -1.6634 -0.3105
 4593SOL    EPW18818   2.112   2.515   3.615  0.0840 -0.4744 -0.4612
 4594SOL      O18819   2.477   5.432   2.032  0.6918 -0.2910 -0.2134
 4594SOL     H118820   2.411   5.441   1.964  1.0627 -1.1187 -0.7000
 4594SOL     H218821   2.473   5.515   2.080  0.1758  0.1645 -1.0128
 4594SOL    EPW18822   2.470   5.442   2.030  0.6763 -0.3307 -0.3506
 4595SOL      O18823   2.625   5.120   2.666 -0.2436  0.0406  0.2476
 4595SOL     H118824   2.625   5.140   2.573  4.1092 -0.0492  0.0362
 4595SOL     H218825   2.717   5.104   2.687 -0.9048  0.8407  4.7467
 4595SOL    EPW18826   2.635   5.120   2.659  0.1502  0.1163  0.7050
 4596SOL      O18827   4.627   4.440   0.225  0.3512 -0.3462 -0.1157
 4596SOL     H118828   4.697   4.495   0.259  0.0466 -0.3971  0.6180
 4596SOL     H218829   4.620   4.369   0.288 -0.0483 -0.5921 -0.4310
 4596SOL    EPW18830   4.634   4.438   0.235  0.2761 -0.3778 -0.0711
 4597SOL      O18831   3.674   1.770   3.572 -0.3019 -0.5473  0.3746
 4597SOL     H118832   3.603   1.713   3.544 -2.4614  1.7494  0.8167
 4597SOL     H218833   3.631   1.836   3.627  1.9748  1.6242 -0.2846
 4597SOL    EPW18834   3.662   1.771   3.575 -0.2894 -0.0706  0.3514
 4598SOL      O18835   2.811   2.773   2.833 -0.7263  0.7983 -0.1478
 4598SOL     H118836   2.851   2.779   2.746  0.0975  0.5676  0.2118
 4598SOL     H218837   2.884   2.759   2.893 -1.4384 -0.7165  0.4067
 4598SOL    EPW18838   2.823   2.772   2.830 -0.7144  0.6121 -0.0503
 4599SOL      O18839   4.399   2.053   3.063 -0.3052 -0.2985  0.7863
 4599SOL     H118840   4.440   2.066   2.977 -0.8080 -0.2920  0.5403
 4599SOL     H218841   4.348   2.133   3.077  0.1374 -0.1079  1.2987
 4599SOL    EPW18842   4.398   2.063   3.055 -0.3116 -0.2774  0.8147
 4600SOL      O18843   5.455   0.012   3.134  0.5428  0.2563  0.2448
 4600SOL     H118844   5.544   0.040   3.155  0.2093  1.1966  0.4932
 4600SOL     H218845   5.416   0.088   3.089 -0.2595  0.0217  0.5174
 4600SOL    EPW18846   5.460   0.023   3.131  0.4216  0.3316  0.3004
 4601SOL      O18847   4.081   5.203   1.187 -0.5449  0.0050  0.4987
 4601SOL     H118848   3.997   5.249   1.196 -0.4447  0.3290 -0.1653
 4601SOL     H218849   4.107   5.184   1.277 -0.7594  0.9593  0.7775
 4601SOL    EPW18850   4.075   5.206   1.198 -0.5571  0.1413  0.4576
 4602SOL      O18851   1.189   2.094   0.634 -0.3377  0.3672 -0.7106
 4602SOL     H118852   1.096   2.114   0.625 -0.0528  2.4617  0.4385
 4602SOL     H218853   1.192   1.999   0.643 -2.3461  0.2432 -0.8738
 4602SOL    EPW18854   1.179   2.086   0.634 -0.5216  0.5774 -0.6054
 4603SOL      O18855   0.564   0.650   3.110 -0.3226 -0.0404  0.1084
 4603SOL     H118856   0.527   0.738   3.106 -0.8628 -0.2920 -0.7393
 4603SOL     H218857   0.491   0.595   3.139 -0.1156 -0.2808  0.1717
 4603SOL    EPW18858   0.552   0.654   3.113 -0.3582 -0.0929  0.0248
 4604SOL      O18859   1.745   5.456   0.953 -0.0609  0.6430  0.4054
 4604SOL     H118860   1.765   5.367   0.980  0.2700  0.8111  0.7264
 4604SOL     H218861   1.664   5.449   0.902  1.0938 -0.1582 -1.4266
 4604SOL    EPW18862   1.739   5.446   0.950  0.0976  0.5754  0.2442
 4605SOL      O18863   4.811   0.013   3.055  0.1373  0.3305 -0.0128
 4605SOL     H118864   4.835   0.092   3.007 -0.8916  1.6872  1.5822
 4605SOL     H218865   4.829   0.035   3.147  0.8267 -1.6949  0.3807
 4605SOL    EPW18866   4.816   0.024   3.060  0.1011  0.2591  0.1993
 4606SOL      O18867   3.627   0.860   2.954 -0.5398 -0.6327  0.2511
 4606SOL     H118868   3.567   0.840   3.026 -0.2934  0.1877  0.6921
 4606SOL     H218869   3.698   0.796   2.963 -2.2708 -2.9424 -1.4661
 4606SOL    EPW18870   3.628   0.851   2.963 -0.6982 -0.7916  0.1149
 4607SOL      O18871   4.073   3.920   1.946  0.0461 -0.1930 -0.0199
 4607SOL     H118872   4.068   3.945   2.039 -1.1951 -1.8944  0.4161
 4607SOL     H218873   3.995   3.959   1.907 -0.7864 -1.5703  0.2212
 4607SOL    EPW18874   4.064   3.927   1.952 -0.1751 -0.5214  0.0523
 4608SOL      O18875   0.023   4.378   3.928  0.0725 -0.0901  0.0541
 4608SOL     H118876  -0.060   4.331   3.925  0.2676 -0.5667  1.4122
 4608SOL     H218877  -0.001   4.470   3.939 -0.2952 -0.2754  0.9214
 4608SOL    EPW18878   0.012   4.383   3.929  0.0541 -0.1607  0.2915
 4609SOL      O18879   0.557   2.511   1.235  0.5248  0.5269 -0.3136
 4609SOL     H118880   0.461   2.510   1.233  0.4537 -2.2101  0.5683
 4609SOL     H218881   0.580   2.508   1.327  1.4451 -0.2229 -0.5557
 4609SOL    EPW18882   0.549   2.511   1.244  0.6154  0.1549 -0.2453
 4610SOL      O18883   4.061   1.252   4.062  0.4035 -0.1403  0.1055
 4610SOL     H118884   4.122   1.246   3.989 -1.2602 -0.6139 -1.3286
 4610SOL     H218885   4.003   1.177   4.051 -1.2502  1.0079  0.5945
 4610SOL    EPW18886   4.061   1.244   4.053  0.0496 -0.0683  0.0047
 4611SOL      O18887   1.900   2.602   1.097  0.3976  0.3359  0.3131
 4611SOL     H118888   1.947   2.638   1.173  2.0849  0.6254 -0.8088
 4611SOL     H218889   1.912   2.507   1.104  0.7051  0.3738  0.3210
 4611SOL    EPW18890   1.907   2.596   1.106  0.6104  0.3708  0.1942
 4612SOL      O18891   4.785   3.468   1.400 -0.0331 -0.2158  0.2508
 4612SOL     H118892   4.720   3.404   1.428 -0.1675 -0.5486 -0.7606
 4612SOL     H218893   4.778   3.539   1.463 -0.3769 -0.8877  0.9800
 4612SOL    EPW18894   4.777   3.469   1.410 -0.0841 -0.3230  0.2207
 4613SOL      O18895   2.957   4.790   0.458 -0.2024  0.4757  0.6035
 4613SOL     H118896   2.894   4.850   0.497  0.7835  1.3402  0.9033
 4613SOL     H218897   2.994   4.742   0.532  0.1163  0.5884  0.5177
 4613SOL    EPW18898   2.954   4.791   0.470 -0.0632  0.5799  0.6263
 4614SOL      O18899   2.566   4.029   2.684 -0.6225 -0.2558  0.3627
 4614SOL     H118900   2.622   3.979   2.743 -1.3327  0.2945  1.5437
 4614SOL     H218901   2.616   4.036   2.603  0.5361 -0.7105  1.0209
 4614SOL    EPW18902   2.577   4.024   2.681 -0.5746 -0.2456  0.5589
 4615SOL      O18903   2.733   4.631   0.839 -0.5104  0.1818 -0.0328
 4615SOL     H118904   2.753   4.539   0.821 -1.4731 -0.0204 -0.1077
 4615SOL     H218905   2.687   4.661   0.760  1.4507  1.2851 -0.8419
 4615SOL    EPW18906   2.730   4.624   0.828 -0.4039  0.2779 -0.1271
 4616SOL      O18907   0.651   0.086   3.485  0.0975  0.5630 -0.0198
 4616SOL     H118908   0.687   0.174   3.474  0.3775  0.4463 -0.0421
 4616SOL     H218909   0.556   0.099   3.483  0.1369  0.8595 -0.0590
 4616SOL    EPW18910   0.644   0.097   3.484  0.1316  0.5822 -0.0264
 4617SOL      O18911   0.252   4.159   3.391  0.2048 -0.2151  0.2409
 4617SOL     H118912   0.256   4.248   3.426 -0.6378 -0.1578  0.2116
 4617SOL     H218913   0.192   4.165   3.317  0.0851 -0.8285  0.2849
 4617SOL    EPW18914   0.246   4.169   3.387  0.1021 -0.2745  0.2424
 4618SOL      O18915   1.768   1.688   1.859 -0.6406  0.7406 -0.4996
 4618SOL     H118916   1.861   1.708   1.865 -0.5749  0.1597  0.8310
 4618SOL     H218917   1.727   1.746   1.923 -0.9238 -0.4624  0.4435
 4618SOL    EPW18918   1.774   1.696   1.866 -0.6638  0.5503 -0.2571
 4619SOL      O18919   2.430   1.713   3.233  0.3239  0.1073  0.1694
 4619SOL     H118920   2.388   1.687   3.151  1.3650 -1.1200 -0.0198
 4619SOL     H218921   2.465   1.800   3.215  2.1461 -0.8635 -1.3802
 4619SOL    EPW18922   2.429   1.719   3.222  0.6294 -0.1271 -0.0161
 4620SOL      O18923   4.905   0.402   2.668 -0.2345 -0.2936 -0.6479
 4620SOL     H118924   4.876   0.334   2.608  0.4476  0.2987 -1.6628
 4620SOL     H218925   4.992   0.427   2.637  0.7985 -1.0137  1.4872
 4620SOL    EPW18926   4.911   0.398   2.659 -0.0515 -0.3072 -0.5284
 4621SOL      O18927   1.188   3.304   4.102  0.8551 -0.3573  0.4439
 4621SOL     H118928   1.260   3.249   4.132  0.6606 -1.6731 -1.3418
 4621SOL     H218929   1.126   3.243   4.062 -1.1022  0.7792  1.5622
 4621SOL    EPW18930   1.189   3.292   4.101  0.6255 -0.3764  0.3727
 4622SOL      O18931   1.442   3.448   2.416  0.3194 -0.0659  0.6139
 4622SOL     H118932   1.524   3.400   2.408  1.0466  1.1815  0.3472
 4622SOL     H218933   1.466   3.540   2.402 -0.9632  0.4307  1.4611
 4622SOL    EPW18934   1.453   3.453   2.414  0.2601  0.1201  0.6758
 4623SOL      O18935   0.274   1.702   1.474 -0.3446 -0.3295 -0.1740
 4623SOL     H118936   0.201   1.700   1.536  0.9739  0.3372  1.4924
 4623SOL     H218937   0.260   1.626   1.418 -1.3403 -1.2595  1.2718
 4623SOL    EPW18938   0.265   1.694   1.475 -0.3102 -0.3576  0.1580
 4624SOL      O18939   3.782   1.228   3.366 -0.1786  0.1064  0.2832
 4624SOL     H118940   3.718   1.218   3.296 -0.9167 -1.7383  1.1601
 4624SOL     H218941   3.853   1.168   3.343 -0.6595 -0.9007  1.3291
 4624SOL    EPW18942   3.783   1.221   3.356 -0.3086 -0.1978  0.4883
 4625SOL      O18943   5.707   0.910   3.216  0.1668 -0.0148 -0.3708
 4625SOL     H118944   5.796   0.924   3.249 -0.3875  2.4073  0.2561
 4625SOL     H218945   5.706   0.955   3.132 -1.2048  2.5413  0.9126
 4625SOL    EPW18946   5.717   0.916   3.211 -0.0387  0.5162 -0.1670
 4626SOL      O18947   0.300   5.805   1.129  0.0754 -0.0917  0.0068
 4626SOL     H118948   0.385   5.849   1.132  0.3601 -0.6780  0.5979
 4626SOL     H218949   0.237   5.875   1.146  0.4693  0.2518  0.0731
 4626SOL    EPW18950   0.302   5.817   1.131  0.1478 -0.1176  0.0769
 4627SOL      O18951   1.827   3.447   2.645  0.3515 -0.0166  0.5889
 4627SOL     H118952   1.868   3.533   2.637  0.6192 -0.2348 -0.5283
 4627SOL     H218953   1.808   3.421   2.555  0.4247 -1.1944  0.8992
 4627SOL    EPW18954   1.829   3.453   2.635  0.3879 -0.1655  0.5028
 4628SOL      O18955   4.617   3.127   3.759 -0.1713 -0.0005 -0.1208
 4628SOL     H118956   4.608   3.098   3.668  0.8204  0.8158 -0.4889
 4628SOL     H218957   4.542   3.086   3.804 -1.8623  1.2120 -1.6965
 4628SOL    EPW18958   4.608   3.119   3.754 -0.2459  0.2160 -0.3281
 4629SOL      O18959   3.274   4.874   1.002  0.4360 -0.4603 -0.1614
 4629SOL     H118960   3.328   4.910   1.073 -1.0913 -0.7554  1.2131
 4629SOL     H218961   3.193   4.847   1.045 -0.8925  0.1086 -2.1537
 4629SOL    EPW18962   3.271   4.875   1.014  0.1314 -0.4311 -0.2273
 4630SOL      O18963   1.444   1.651   2.165 -0.4178 -0.3835 -0.1324
 4630SOL     H118964   1.522   1.706   2.169  0.0572 -1.0313 -0.1856
 4630SOL     H218965   1.381   1.694   2.222  0.3276 -0.3609  0.6971
 4630SOL    EPW18966   1.446   1.661   2.172 -0.2876 -0.4502 -0.0495
 4631SOL      O18967   2.822   0.847   1.140 -0.7019  0.5649  0.2637
 4631SOL     H118968   2.764   0.922   1.127 -0.3598  0.5418 -1.9184
 4631SOL     H218969   2.869   0.839   1.057  0.9810 -0.6435  1.2673
 4631SOL    EPW18970   2.821   0.854   1.129 -0.4859  0.4335  0.1380
 4632SOL      O18971   3.459   3.794   1.995 -0.1069  0.0662 -0.0007
 4632SOL     H118972   3.532   3.782   1.934 -0.5697  0.5079 -0.6685
 4632SOL     H218973   3.474   3.730   2.064  0.0585 -0.9582 -0.9547
 4632SOL    EPW18974   3.468   3.786   1.996 -0.1386  0.0041 -0.1737
 4633SOL      O18975   5.770   0.181   0.963 -0.7698 -0.1789 -0.0331
 4633SOL     H118976   5.796   0.102   0.917 -1.8319 -0.0743 -0.8605
 4633SOL     H218977   5.785   0.251   0.900 -3.0097 -0.1200 -0.5737
 4633SOL    EPW18978   5.775   0.180   0.951 -1.1220 -0.1615 -0.1791
 4634SOL      O18979   0.098   4.489   3.373  0.3730 -0.6517  0.1307
 4634SOL     H118980   0.091   4.482   3.468  1.2118  0.4553  0.2904
 4634SOL     H218981   0.189   4.513   3.357  0.2689 -0.9154 -0.9714
 4634SOL    EPW18982   0.107   4.491   3.381  0.4514 -0.5618  0.0301
 4635SOL      O18983   4.467   0.737   0.099 -0.4003 -0.1527  0.0410
 4635SOL     H118984   4.483   0.669   0.034  0.0537  0.3057 -0.3325
 4635SOL     H218985   4.544   0.736   0.155 -0.6224 -0.2906  0.3498
 4635SOL    EPW18986   4.477   0.730   0.098 -0.3755 -0.1185  0.0341
 4636SOL      O18987   5.726   1.519   2.443  0.0318 -0.6117  0.7479
 4636SOL     H118988   5.684   1.567   2.371 -0.3039  0.5689  1.7047
 4636SOL     H218989   5.783   1.583   2.485 -2.4585 -0.1636  3.7707
 4636SOL    EPW18990   5.728   1.531   2.440 -0.2696 -0.4379  1.1724
 4637SOL      O18991   4.524   3.486   3.554 -0.1851  0.2864 -0.6404
 4637SOL     H118992   4.555   3.486   3.463  0.1810  0.6630 -0.5160
 4637SOL     H218993   4.432   3.458   3.548 -0.0138 -0.1928 -1.0734
 4637SOL    EPW18994   4.517   3.483   3.544 -0.1278  0.2755 -0.6733
 4638SOL      O18995   3.754   1.116   3.000  0.4741 -0.2615  0.3684
 4638SOL     H118996   3.690   1.112   3.071 -0.8371 -0.7978 -0.8065
 4638SOL     H218997   3.729   1.045   2.941  1.5209  0.1943 -0.6621
 4638SOL    EPW18998   3.745   1.108   3.002  0.4459 -0.2701  0.1331
 4639SOL      O18999   5.776   3.340   2.205  0.3629  0.9157 -0.7280
 4639SOL     H119000   5.697   3.302   2.168  0.2588  0.6849 -0.2694
 4639SOL     H219001   5.788   3.295   2.289  1.4347  0.3650 -1.1659
 4639SOL    EPW19002   5.769   3.332   2.210  0.4661  0.8323 -0.7258
 4640SOL      O19003   0.148   3.752   1.887 -0.2227  0.7031 -0.1463
 4640SOL     H119004   0.090   3.759   1.963  0.2256  2.6860  0.0638
 4640SOL     H219005   0.093   3.718   1.817 -0.9022 -0.1649  0.7875
 4640SOL    EPW19006   0.136   3.749   1.888 -0.2473  0.8220 -0.0243
 4641MG      MG19007   1.591   1.475   3.589 -0.1713 -0.5439  0.5504
 4642MG      MG19008   3.286   1.092   0.710  0.0337 -0.0938 -0.4269
 4643MG      MG19009   4.769   4.343   1.264  0.2793  0.0481 -0.3390
 4644MG      MG19010   0.110   3.747   2.618  0.2418 -0.4727  0.2312
 4645MG      MG19011   1.380   2.455   0.185 -0.0681  0.0636 -0.3685
 4646MG      MG19012   3.102   5.528   2.162 -0.4442  0.0908 -0.1024
 4647MG      MG19013   2.629   3.569   1.182 -0.1227 -0.0683 -0.1948
 4648MG      MG19014   5.651   5.042   2.451 -0.7961  0.2713 -0.1032
 4649MG      MG19015   5.370   5.032   1.566  0.0748 -0.3880 -0.1727
 4650MG      MG19016   3.360   4.320   2.688  0.0197 -0.0484  1.0874
 4651MG      MG19017   4.159   3.545   2.103 -0.1225  0.0518 -0.1515
 4652MG      MG19018   1.457   5.370   2.433  0.0471  0.3484  0.0862
 4653CL-    CL-19019   2.059   4.533   2.010  0.0513 -0.1407 -0.0266
 4654CL-    CL-19020   2.284   0.990   0.348 -0.1106 -0.5604 -0.0258
 4655CL-    CL-19021   3.738   1.432   1.123 -0.1408  0.6483  0.0374
 4656CL-    CL-19022   1.051   5.586   1.202  0.3740  0.3304  0.1446
 4657CL-    CL-19023   2.604   0.253   0.138 -0.4348  0.1510  0.2409
 4658CL-    CL-19024   2.046   2.332   2.889  0.0368  0.4321 -0.1150
 4659CL-    CL-19025   3.630   0.246   3.994  0.1266  0.3933 -0.0577
 4660CL-    CL-19026   1.994   0.130   2.634  0.4929  0.3905 -0.0906
 4661CL-    CL-19027   2.228   3.698   0.982  0.3446 -0.4116  0.2121
   5.87690   5.87690   4.15559   0.00000   0.00000   0.00000   0.00000   2.93845   2.93845
