exampleRNA-OH_solv_GMX.gro created by acpype (v: 2023.10.27) on Tue Apr  7 09:36:02 2026
  510
    1A5    HO5'    1   3.650   3.648   1.194
    1A5     O5'    2   3.650   3.737   1.158
    1A5     C5'    3   3.655   3.731   1.016
    1A5     H5'    4   3.577   3.683   0.985
    1A5    H5''    5   3.735   3.684   0.990
    1A5     C4'    6   3.654   3.869   0.955
    1A5     H4'    7   3.647   3.860   0.858
    1A5     O4'    8   3.540   3.943   1.003
    1A5     C1'    9   3.571   4.081   1.010
    1A5     H1'   10   3.514   4.129   0.948
    1A5      N9   11   3.546   4.130   1.147
    1A5      C8   12   3.526   4.055   1.260
    1A5      H8   13   3.529   3.962   1.261
    1A5      N7   14   3.502   4.126   1.368
    1A5      C5   15   3.506   4.257   1.322
    1A5      C6   16   3.488   4.380   1.388
    1A5      N6   17   3.462   4.390   1.518
    1A5     H61   18   3.450   4.468   1.553
    1A5     H62   19   3.459   4.320   1.567
    1A5      N1   20   3.498   4.493   1.315
    1A5      C2   21   3.523   4.482   1.183
    1A5      H2   22   3.529   4.563   1.137
    1A5      N3   23   3.542   4.372   1.110
    1A5      C4   24   3.532   4.261   1.186
    1A5     C3'   25   3.773   3.958   0.988
    1A5     H3'   26   3.797   3.947   1.081
    1A5     C2'   27   3.717   4.098   0.966
    1A5     H2'   28   3.763   4.163   1.021
    1A5     O2'   29   3.719   4.134   0.829
    1A5    HO2'   30   3.797   4.127   0.799
    1A5     O3'   31   3.887   3.930   0.908
    2G        P   32   4.033   3.968   0.963
    2G      OP1   33   4.133   3.923   0.862
    2G      OP2   34   4.044   3.923   1.104
    2G      O5'   35   4.035   4.127   0.961
    2G      C5'   36   4.054   4.198   0.839
    2G      H5'   37   3.988   4.167   0.776
    2G     H5''   38   4.142   4.176   0.806
    2G      C4'   39   4.040   4.346   0.859
    2G      H4'   40   4.040   4.389   0.772
    2G      O4'   41   3.915   4.375   0.925
    2G      C1'   42   3.928   4.489   1.006
    2G      H1'   43   3.868   4.558   0.973
    2G       N9   44   3.890   4.455   1.144
    2G       C8   45   3.872   4.331   1.199
    2G       H8   46   3.885   4.252   1.152
    2G       N7   47   3.836   4.336   1.324
    2G       C5   48   3.828   4.471   1.353
    2G       C6   49   3.794   4.539   1.472
    2G       O6   50   3.762   4.489   1.581
    2G       N1   51   3.799   4.677   1.456
    2G       H1   52   3.779   4.725   1.525
    2G       C2   53   3.833   4.743   1.341
    2G       N2   54   3.833   4.876   1.346
    2G      H21   55   3.812   4.915   1.419
    2G      H22   56   3.854   4.922   1.277
    2G       N3   57   3.866   4.680   1.229
    2G       C4   58   3.861   4.546   1.242
    2G      C3'   59   4.144   4.413   0.947
    2G      H3'   60   4.163   4.355   1.023
    2G      C2'   61   4.072   4.538   0.996
    2G      H2'   62   4.106   4.567   1.081
    2G      O2'   63   4.078   4.642   0.899
    2G     HO2'   64   4.158   4.658   0.879
    2G      O3'   65   4.265   4.440   0.879
    3C        P   66   4.402   4.456   0.962
    3C      OP1   67   4.512   4.479   0.865
    3C      OP2   68   4.409   4.345   1.060
    3C      O5'   69   4.381   4.592   1.043
    3C      C5'   70   4.398   4.717   0.979
    3C      H5'   71   4.340   4.721   0.902
    3C     H5''   72   4.490   4.723   0.948
    3C      C4'   73   4.367   4.832   1.072
    3C      H4'   74   4.365   4.913   1.020
    3C      O4'   75   4.237   4.812   1.134
    3C      C1'   76   4.235   4.873   1.262
    3C      H1'   77   4.171   4.945   1.260
    3C       N1   78   4.194   4.773   1.364
    3C       C6   79   4.195   4.640   1.333
    3C       H6   80   4.223   4.613   1.249
    3C       C5   81   4.157   4.547   1.422
    3C       H5   82   4.159   4.456   1.401
    3C       C4   83   4.115   4.591   1.551
    3C       N4   84   4.077   4.498   1.640
    3C      H41   85   4.081   4.415   1.618
    3C      H42   86   4.050   4.522   1.718
    3C       N3   87   4.113   4.720   1.582
    3C       C2   88   4.151   4.815   1.492
    3C       O2   89   4.148   4.935   1.523
    3C      C3'   90   4.461   4.851   1.190
    3C      H3'   91   4.482   4.764   1.228
    3C      C2'   92   4.375   4.931   1.288
    3C      H2'   93   4.403   4.916   1.379
    3C      O2'   94   4.374   5.069   1.254
    3C     HO2'   95   4.453   5.097   1.249
    3C      O3'   96   4.582   4.916   1.155
    4G        P   97   4.713   4.893   1.245
    4G      OP1   98   4.824   4.971   1.187
    4G      OP2   99   4.728   4.747   1.268
    4G      O5'  100   4.676   4.961   1.384
    4G      C5'  101   4.685   5.102   1.400
    4G      H5'  102   4.631   5.144   1.332
    4G     H5''  103   4.777   5.128   1.387
    4G      C4'  104   4.637   5.146   1.536
    4G      H4'  105   4.632   5.243   1.537
    4G      O4'  106   4.505   5.092   1.560
    4G      C1'  107   4.488   5.067   1.698
    4G      H1'  108   4.416   5.123   1.731
    4G       N9  109   4.450   4.926   1.717
    4G       C8  110   4.455   4.824   1.626
    4G       H8  111   4.485   4.834   1.539
    4G       N7  112   4.411   4.711   1.674
    4G       C5  113   4.376   4.741   1.805
    4G       C6  114   4.323   4.660   1.908
    4G       O6  115   4.296   4.539   1.902
    4G       N1  116   4.302   4.732   2.025
    4G       H1  117   4.270   4.689   2.092
    4G       C2  118   4.328   4.865   2.042
    4G       N2  119   4.302   4.916   2.163
    4G      H21  120   4.269   4.865   2.223
    4G      H22  121   4.317   4.999   2.179
    4G       N3  122   4.378   4.942   1.947
    4G       C4  123   4.399   4.874   1.833
    4G      C3'  124   4.719   5.099   1.655
    4G      H3'  125   4.746   5.007   1.641
    4G      C2'  126   4.618   5.104   1.769
    4G      H2'  127   4.639   5.040   1.838
    4G      O2'  128   4.605   5.236   1.821
    4G     HO2'  129   4.680   5.264   1.845
    4G      O3'  130   4.834   5.177   1.678
    5C        P  131   4.958   5.114   1.759
    5C      OP1  132   5.065   5.217   1.766
    5C      OP2  133   4.987   4.980   1.702
    5C      O5'  134   4.902   5.094   1.906
    5C      C5'  135   4.894   5.203   1.996
    5C      H5'  136   4.837   5.271   1.958
    5C     H5''  137   4.983   5.240   2.007
    5C      C4'  138   4.839   5.161   2.131
    5C      H4'  139   4.824   5.242   2.183
    5C      O4'  140   4.714   5.091   2.114
    5C      C1'  141   4.696   4.998   2.219
    5C      H1'  142   4.620   5.027   2.272
    5C       N1  143   4.667   4.864   2.163
    5C       C6  144   4.686   4.840   2.030
    5C       H6  145   4.719   4.908   1.976
    5C       C5  146   4.660   4.721   1.975
    5C       H5  147   4.673   4.705   1.885
    5C       C4  148   4.610   4.618   2.060
    5C       N4  149   4.584   4.499   2.006
    5C      H41  150   4.604   4.485   1.924
    5C      H42  151   4.548   4.436   2.054
    5C       N3  152   4.590   4.640   2.190
    5C       C2  153   4.617   4.761   2.246
    5C       O2  154   4.598   4.781   2.367
    5C      C3'  155   4.924   5.064   2.211
    5C      H3'  156   4.959   4.996   2.152
    5C      C2'  157   4.822   5.002   2.306
    5C      H2'  158   4.849   4.914   2.334
    5C      O2'  159   4.797   5.087   2.417
    5C     HO2'  160   4.869   5.105   2.456
    5C      O3'  161   5.032   5.126   2.278
    6U        P  162   5.163   5.040   2.311
    6U      OP1  163   5.260   5.128   2.382
    6U      OP2  164   5.203   4.968   2.187
    6U      O5'  165   5.112   4.932   2.416
    6U      C5'  166   5.095   4.967   2.553
    6U      H5'  167   5.034   5.041   2.558
    6U     H5''  168   5.181   4.995   2.587
    6U      C4'  169   5.042   4.852   2.634
    6U      H4'  170   5.021   4.884   2.723
    6U      O4'  171   4.920   4.801   2.575
    6U      C1'  172   4.906   4.664   2.607
    6U      H1'  173   4.829   4.654   2.665
    6U       N1  174   4.881   4.587   2.483
    6U       C6  175   4.906   4.636   2.357
    6U       H6  176   4.941   4.722   2.349
    6U       C5  177   4.882   4.565   2.246
    6U       H5  178   4.900   4.601   2.162
    6U       C4  179   4.828   4.432   2.259
    6U       O4  180   4.801   4.357   2.165
    6U       N3  181   4.805   4.389   2.388
    6U       H3  182   4.772   4.309   2.398
    6U       C2  183   4.829   4.460   2.502
    6U       O2  184   4.807   4.416   2.614
    6U      C3'  185   5.131   4.729   2.646
    6U      H3'  186   5.171   4.709   2.560
    6U      C2'  187   5.031   4.619   2.682
    6U      H2'  188   5.063   4.532   2.653
    6U      O2'  189   5.004   4.619   2.821
    6U     HO2'  190   4.942   4.565   2.837
    6U      O3'  191   5.234   4.744   2.741
    7U        P  192   5.370   4.661   2.724
    7U      OP1  193   5.449   4.676   2.849
    7U      OP2  194   5.429   4.698   2.593
    7U      O5'  195   5.322   4.510   2.716
    7U      C5'  196   5.298   4.435   2.834
    7U      H5'  197   5.231   4.481   2.886
    7U     H5''  198   5.380   4.432   2.885
    7U      C4'  199   5.249   4.295   2.805
    7U      H4'  200   5.223   4.254   2.888
    7U      O4'  201   5.133   4.301   2.719
    7U      C1'  202   5.128   4.186   2.637
    7U      H1'  203   5.047   4.137   2.657
    7U       N1  204   5.127   4.228   2.495
    7U       C6  205   5.182   4.347   2.454
    7U       H6  206   5.221   4.403   2.518
    7U       C5  207   5.183   4.386   2.326
    7U       H5  208   5.221   4.467   2.301
    7U       C4  209   5.124   4.300   2.227
    7U       O4  210   5.117   4.323   2.107
    7U       N3  211   5.070   4.182   2.275
    7U       H3  212   5.034   4.128   2.217
    7U       C2  213   5.068   4.140   2.406
    7U       O2  214   5.019   4.034   2.441
    7U      C3'  215   5.344   4.203   2.731
    7U      H3'  216   5.388   4.251   2.660
    7U      C2'  217   5.250   4.100   2.670
    7U      H2'  218   5.288   4.059   2.591
    7U      O2'  219   5.212   4.002   2.766
    7U     HO2'  220   5.138   3.969   2.745
    7U      O3'  221   5.443   4.145   2.814
    8U        P  222   5.585   4.103   2.752
    8U      OP1  223   5.692   4.178   2.822
    8U      OP2  224   5.572   4.113   2.605
    8U      O5'  225   5.598   3.947   2.786
    8U      C5'  226   5.526   3.850   2.711
    8U      H5'  227   5.563   3.844   2.622
    8U     H5''  228   5.434   3.878   2.706
    8U      C4'  229   5.532   3.714   2.776
    8U      H4'  230   5.620   3.676   2.762
    8U      O4'  231   5.510   3.729   2.919
    8U      C1'  232   5.393   3.659   2.957
    8U      H1'  233   5.418   3.573   2.993
    8U       N1  234   5.325   3.738   3.060
    8U       C6  235   5.326   3.876   3.054
    8U       H6  236   5.369   3.917   2.982
    8U       C5  237   5.266   3.953   3.146
    8U       H5  238   5.268   4.046   3.138
    8U       C4  239   5.200   3.890   3.257
    8U       O4  240   5.142   3.948   3.348
    8U       N3  241   5.204   3.752   3.258
    8U       H3  242   5.165   3.711   3.324
    8U       C2  243   5.265   3.671   3.165
    8U       O2  244   5.264   3.549   3.173
    8U      C3'  245   5.425   3.616   2.728
    8U      H3'  246   5.397   3.636   2.637
    8U      C2'  247   5.313   3.639   2.828
    8U      H2'  248   5.266   3.721   2.806
    8U      O2'  249   5.221   3.533   2.839
    8U     HO2'  250   5.178   3.526   2.767
    8U      O3'  251   5.473   3.482   2.740
    9C        P  252   5.552   3.413   2.619
    9C      OP1  253   5.559   3.267   2.647
    9C      OP2  254   5.678   3.489   2.594
    9C      O5'  255   5.456   3.436   2.494
    9C      C5'  256   5.328   3.376   2.489
    9C      H5'  257   5.281   3.394   2.573
    9C     H5''  258   5.339   3.280   2.480
    9C      C4'  259   5.245   3.428   2.374
    9C      H4'  260   5.156   3.391   2.382
    9C      O4'  261   5.237   3.573   2.383
    9C      C1'  262   5.274   3.629   2.259
    9C      H1'  263   5.195   3.636   2.202
    9C       N1  264   5.332   3.763   2.279
    9C       C6  265   5.453   3.785   2.339
    9C       H6  266   5.503   3.712   2.370
    9C       C5  267   5.502   3.909   2.353
    9C       H5  268   5.584   3.925   2.393
    9C       C4  269   5.423   4.017   2.303
    9C       N4  270   5.466   4.143   2.314
    9C      H41  271   5.419   4.208   2.284
    9C      H42  272   5.542   4.158   2.352
    9C       N3  273   5.305   3.997   2.245
    9C       C2  274   5.257   3.871   2.230
    9C       O2  275   5.147   3.851   2.176
    9C      C3'  276   5.300   3.397   2.235
    9C      H3'  277   5.362   3.324   2.235
    9C      C2'  278   5.368   3.528   2.196
    9C      H2'  279   5.455   3.533   2.238
    9C      O2'  280   5.382   3.548   2.056
    9C     HO2'  281   5.307   3.543   2.019
    9C      O3'  282   5.191   3.373   2.146
   10G        P  283   5.141   3.222   2.122
   10G      OP1  284   5.261   3.134   2.124
   10G      OP2  285   5.049   3.221   2.004
   10G      O5'  286   5.052   3.190   2.250
   10G      C5'  287   4.923   3.246   2.266
   10G      H5'  288   4.867   3.217   2.192
   10G     H5''  289   4.931   3.343   2.263
   10G      C4'  290   4.863   3.204   2.398
   10G      H4'  291   4.859   3.107   2.400
   10G      O4'  292   4.945   3.252   2.507
   10G      C1'  293   4.866   3.276   2.620
   10G      H1'  294   4.892   3.214   2.690
   10G       N9  295   4.889   3.413   2.670
   10G       C8  296   4.890   3.451   2.802
   10G       H8  297   4.876   3.391   2.872
   10G       N7  298   4.913   3.578   2.819
   10G       C5  299   4.928   3.627   2.690
   10G       C6  300   4.954   3.760   2.646
   10G       O6  301   4.970   3.862   2.715
   10G       N1  302   4.962   3.766   2.508
   10G       H1  303   4.977   3.843   2.473
   10G       C2  304   4.945   3.659   2.423
   10G       N2  305   4.957   3.687   2.293
   10G      H21  306   4.939   3.627   2.235
   10G      H22  307   4.983   3.765   2.269
   10G       N3  308   4.921   3.535   2.463
   10G       C4  309   4.913   3.527   2.597
   10G      C3'  310   4.724   3.260   2.430
   10G      H3'  311   4.720   3.353   2.402
   10G      C2'  312   4.720   3.251   2.582
   10G      H2'  313   4.662   3.318   2.620
   10G      O2'  314   4.684   3.120   2.625
   10G     HO2'  315   4.614   3.096   2.585
   10G      O3'  316   4.620   3.188   2.366
   11A        P  317   4.503   3.265   2.287
   11A      OP1  318   4.386   3.174   2.281
   11A      OP2  319   4.560   3.322   2.162
   11A      O5'  320   4.464   3.386   2.384
   11A      C5'  321   4.397   3.361   2.507
   11A      H5'  322   4.435   3.282   2.546
   11A     H5''  323   4.304   3.346   2.489
   11A      C4'  324   4.415   3.477   2.603
   11A      H4'  325   4.409   3.443   2.693
   11A      O4'  326   4.547   3.534   2.585
   11A      C1'  327   4.543   3.673   2.611
   11A      H1'  328   4.603   3.694   2.684
   11A       N9  329   4.587   3.746   2.490
   11A       C8  330   4.593   3.700   2.361
   11A       H8  331   4.569   3.613   2.336
   11A       N7  332   4.636   3.790   2.276
   11A       C5  333   4.660   3.902   2.356
   11A       C6  334   4.707   4.031   2.326
   11A       N6  335   4.740   4.070   2.203
   11A      H61  336   4.769   4.150   2.191
   11A      H62  337   4.733   4.015   2.137
   11A       N1  338   4.719   4.119   2.428
   11A       C2  339   4.686   4.080   2.552
   11A       H2  340   4.696   4.144   2.619
   11A       N3  341   4.640   3.961   2.592
   11A       C4  342   4.629   3.876   2.488
   11A      C3'  343   4.322   3.595   2.586
   11A      H3'  344   4.311   3.613   2.491
   11A      C2'  345   4.400   3.709   2.650
   11A      H2'  346   4.373   3.795   2.614
   11A      O2'  347   4.390   3.704   2.792
   11A     HO2'  348   4.310   3.714   2.815
   11A      O3'  349   4.194   3.575   2.643
   12G        P  350   4.070   3.665   2.593
   12G      OP1  351   3.949   3.621   2.666
   12G      OP2  352   4.072   3.667   2.444
   12G      O5'  353   4.105   3.812   2.644
   12G      C5'  354   4.083   3.848   2.780
   12G      H5'  355   4.129   3.784   2.836
   12G     H5''  356   3.988   3.843   2.798
   12G      C4'  357   4.135   3.986   2.810
   12G      H4'  358   4.143   3.997   2.906
   12G      O4'  359   4.267   4.002   2.752
   12G      C1'  360   4.288   4.136   2.714
   12G      H1'  361   4.361   4.173   2.767
   12G       N9  362   4.324   4.141   2.572
   12G       C8  363   4.316   4.042   2.478
   12G       H8  364   4.283   3.956   2.496
   12G       N7  365   4.358   4.080   2.360
   12G       C5  366   4.397   4.212   2.379
   12G       C6  367   4.451   4.307   2.289
   12G       O6  368   4.476   4.291   2.169
   12G       N1  369   4.475   4.429   2.351
   12G       H1  370   4.509   4.492   2.303
   12G       C2  371   4.452   4.458   2.483
   12G       N2  372   4.481   4.581   2.524
   12G      H21  373   4.513   4.637   2.468
   12G      H22  374   4.468   4.605   2.606
   12G       N3  375   4.401   4.370   2.568
   12G       C4  376   4.376   4.251   2.510
   12G      C3'  377   4.056   4.102   2.753
   12G      H3'  378   4.026   4.080   2.663
   12G      C2'  379   4.160   4.214   2.745
   12G      H2'  380   4.138   4.276   2.674
   12G      O2'  381   4.175   4.279   2.870
   12G     HO2'  382   4.102   4.312   2.894
   12G      O3'  383   3.943   4.136   2.831
   13C        P  384   3.818   4.212   2.764
   13C      OP1  385   3.713   4.229   2.868
   13C      OP2  386   3.787   4.144   2.636
   13C      O5'  387   3.875   4.357   2.730
   13C      C5'  388   3.887   4.455   2.832
   13C      H5'  389   3.941   4.419   2.904
   13C     H5''  390   3.798   4.474   2.867
   13C      C4'  391   3.950   4.582   2.780
   13C      H4'  392   3.973   4.637   2.856
   13C      O4'  393   4.071   4.550   2.706
   13C      C1'  394   4.093   4.648   2.606
   13C      H1'  395   4.173   4.697   2.629
   13C       N1  396   4.112   4.583   2.474
   13C       C6  397   4.075   4.452   2.457
   13C       H6  398   4.036   4.406   2.528
   13C       C5  399   4.092   4.390   2.339
   13C       H5  400   4.066   4.301   2.327
   13C       C4  401   4.152   4.462   2.233
   13C       N4  402   4.169   4.400   2.116
   13C      H41  403   4.146   4.318   2.108
   13C      H42  404   4.205   4.442   2.049
   13C       N3  405   4.190   4.589   2.249
   13C       C2  406   4.172   4.653   2.368
   13C       O2  407   4.208   4.771   2.382
   13C      C3'  408   3.868   4.663   2.682
   13C      H3'  409   3.824   4.603   2.620
   13C      C2'  410   3.974   4.745   2.608
   13C      H2'  411   3.945   4.767   2.519
   13C      O2'  412   4.010   4.860   2.683
   13C     HO2'  413   3.941   4.906   2.699
   13C      O3'  414   3.769   4.743   2.745
   14G        P  415   3.638   4.787   2.663
   14G      OP1  416   3.553   4.870   2.752
   14G      OP2  417   3.581   4.667   2.597
   14G      O5'  418   3.694   4.885   2.551
   14G      C5'  419   3.723   5.020   2.581
   14G      H5'  420   3.784   5.022   2.656
   14G     H5''  421   3.641   5.064   2.607
   14G      C4'  422   3.785   5.091   2.464
   14G      H4'  423   3.819   5.177   2.494
   14G      O4'  424   3.896   5.013   2.413
   14G      C1'  425   3.910   5.033   2.275
   14G      H1'  426   3.995   5.077   2.259
   14G       N9  427   3.910   4.903   2.206
   14G       C8  428   3.874   4.780   2.255
   14G       H8  429   3.843   4.767   2.342
   14G       N7  430   3.888   4.685   2.168
   14G       C5  431   3.937   4.749   2.055
   14G       C6  432   3.972   4.698   1.927
   14G       O6  433   3.966   4.581   1.888
   14G       N1  434   4.018   4.799   1.842
   14G       H1  435   4.041   4.776   1.763
   14G       C2  436   4.028   4.931   1.875
   14G       N2  437   4.073   5.013   1.779
   14G      H21  438   4.096   4.979   1.704
   14G      H22  439   4.079   5.097   1.793
   14G       N3  440   3.995   4.980   1.994
   14G       C4  441   3.951   4.884   2.077
   14G      C3'  442   3.696   5.112   2.342
   14G      H3'  443   3.642   5.032   2.328
   14G      C2'  444   3.797   5.125   2.228
   14G      H2'  445   3.760   5.094   2.145
   14G      O2'  446   3.847   5.257   2.218
   14G     HO2'  447   3.784   5.310   2.208
   14G      O3'  448   3.611   5.224   2.355
   15C        P  449   3.476   5.232   2.267
   15C      OP1  450   3.407   5.359   2.302
   15C      OP2  451   3.404   5.103   2.280
   15C      O5'  452   3.528   5.246   2.118
   15C      C5'  453   3.572   5.372   2.068
   15C      H5'  454   3.641   5.406   2.126
   15C     H5''  455   3.498   5.433   2.070
   15C      C4'  456   3.626   5.360   1.928
   15C      H4'  457   3.672   5.443   1.906
   15C      O4'  458   3.719   5.250   1.918
   15C      C1'  459   3.719   5.199   1.787
   15C      H1'  460   3.805   5.221   1.747
   15C       N1  461   3.705   5.051   1.789
   15C       C6  462   3.664   4.988   1.904
   15C       H6  463   3.643   5.040   1.979
   15C       C5  464   3.652   4.855   1.910
   15C       H5  465   3.623   4.813   1.988
   15C       C4  466   3.684   4.779   1.795
   15C       N4  467   3.673   4.646   1.800
   15C      H41  468   3.644   4.610   1.872
   15C      H42  469   3.693   4.598   1.732
   15C       N3  470   3.725   4.839   1.683
   15C       C2  471   3.738   4.974   1.676
   15C       O2  472   3.777   5.029   1.572
   15C      C3'  473   3.523   5.330   1.819
   15C      H3'  474   3.461   5.264   1.852
   15C      C2'  475   3.609   5.270   1.708
   15C      H2'  476   3.558   5.208   1.654
   15C      O2'  477   3.669   5.371   1.628
   15C     HO2'  478   3.610   5.425   1.603
   15C      O3'  479   3.451   5.445   1.779
   16U3       P  480   3.307   5.428   1.711
   16U3     OP1  481   3.258   5.562   1.670
   16U3     OP2  482   3.223   5.342   1.798
   16U3     O5'  483   3.338   5.348   1.577
   16U3     C5'  484   3.385   5.417   1.462
   16U3     H5'  485   3.467   5.463   1.484
   16U3    H5''  486   3.318   5.482   1.437
   16U3     C4'  487   3.410   5.323   1.347
   16U3     H4'  488   3.453   5.373   1.276
   16U3     O4'  489   3.499   5.216   1.388
   16U3     C1'  490   3.474   5.101   1.310
   16U3     H1'  491   3.551   5.085   1.254
   16U3      N1  492   3.454   4.984   1.398
   16U3      C6  493   3.417   4.999   1.530
   16U3      H6  494   3.405   5.085   1.564
   16U3      C5  495   3.399   4.894   1.611
   16U3      H5  496   3.374   4.907   1.699
   16U3      C4  497   3.418   4.762   1.559
   16U3      O4  498   3.403   4.658   1.624
   16U3      N3  499   3.454   4.754   1.426
   16U3      H3  500   3.467   4.675   1.392
   16U3      C2  501   3.474   4.860   1.341
   16U3      O2  502   3.507   4.846   1.225
   16U3     C3'  503   3.290   5.250   1.292
   16U3     H3'  504   3.234   5.218   1.365
   16U3     C2'  505   3.353   5.130   1.221
   16U3     H2'  506   3.293   5.055   1.219
   16U3     O2'  507   3.398   5.164   1.092
   16U3    HO2'  508   3.333   5.192   1.046
   16U3     O3'  509   3.211   5.330   1.206
   16U3    HO3'  510   3.136   5.279   1.174
   5.87690   5.87690   4.15559   0.00000   0.00000   0.00000   0.00000   2.93845   2.93845
