exampleRNA-OH in water
19027
    1A5    HO5'    1   3.650   3.648   1.194
    1A5     O5'    2   3.650   3.737   1.158
    1A5     C5'    3   3.655   3.731   1.016
    1A5     H5'    4   3.577   3.683   0.985
    1A5    H5''    5   3.735   3.684   0.990
    1A5     C4'    6   3.654   3.869   0.955
    1A5     H4'    7   3.647   3.860   0.858
    1A5     O4'    8   3.540   3.943   1.003
    1A5     C1'    9   3.571   4.081   1.010
    1A5     H1'   10   3.514   4.129   0.948
    1A5      N9   11   3.546   4.130   1.147
    1A5      C8   12   3.526   4.055   1.260
    1A5      H8   13   3.529   3.962   1.261
    1A5      N7   14   3.502   4.126   1.368
    1A5      C5   15   3.506   4.257   1.322
    1A5      C6   16   3.488   4.380   1.388
    1A5      N6   17   3.462   4.390   1.518
    1A5     H61   18   3.450   4.468   1.553
    1A5     H62   19   3.459   4.320   1.567
    1A5      N1   20   3.498   4.493   1.315
    1A5      C2   21   3.523   4.482   1.183
    1A5      H2   22   3.529   4.563   1.137
    1A5      N3   23   3.542   4.372   1.110
    1A5      C4   24   3.532   4.261   1.186
    1A5     C3'   25   3.773   3.958   0.988
    1A5     H3'   26   3.797   3.947   1.081
    1A5     C2'   27   3.717   4.098   0.966
    1A5     H2'   28   3.763   4.163   1.021
    1A5     O2'   29   3.719   4.134   0.829
    1A5    HO2'   30   3.797   4.127   0.799
    1A5     O3'   31   3.887   3.930   0.908
    2G        P   32   4.033   3.968   0.963
    2G      OP1   33   4.133   3.923   0.862
    2G      OP2   34   4.044   3.923   1.104
    2G      O5'   35   4.035   4.127   0.961
    2G      C5'   36   4.054   4.198   0.839
    2G      H5'   37   3.988   4.167   0.776
    2G     H5''   38   4.142   4.176   0.806
    2G      C4'   39   4.040   4.346   0.859
    2G      H4'   40   4.040   4.389   0.772
    2G      O4'   41   3.915   4.375   0.925
    2G      C1'   42   3.928   4.489   1.006
    2G      H1'   43   3.868   4.558   0.973
    2G       N9   44   3.890   4.455   1.144
    2G       C8   45   3.872   4.331   1.199
    2G       H8   46   3.885   4.252   1.152
    2G       N7   47   3.836   4.336   1.324
    2G       C5   48   3.828   4.471   1.353
    2G       C6   49   3.794   4.539   1.472
    2G       O6   50   3.762   4.489   1.581
    2G       N1   51   3.799   4.677   1.456
    2G       H1   52   3.779   4.725   1.525
    2G       C2   53   3.833   4.743   1.341
    2G       N2   54   3.833   4.876   1.346
    2G      H21   55   3.812   4.915   1.419
    2G      H22   56   3.854   4.922   1.277
    2G       N3   57   3.866   4.680   1.229
    2G       C4   58   3.861   4.546   1.242
    2G      C3'   59   4.144   4.413   0.947
    2G      H3'   60   4.163   4.355   1.023
    2G      C2'   61   4.072   4.538   0.996
    2G      H2'   62   4.106   4.567   1.081
    2G      O2'   63   4.078   4.642   0.899
    2G     HO2'   64   4.158   4.658   0.879
    2G      O3'   65   4.265   4.440   0.879
    3C        P   66   4.402   4.456   0.962
    3C      OP1   67   4.512   4.479   0.865
    3C      OP2   68   4.409   4.345   1.060
    3C      O5'   69   4.381   4.592   1.043
    3C      C5'   70   4.398   4.717   0.979
    3C      H5'   71   4.340   4.721   0.902
    3C     H5''   72   4.490   4.723   0.948
    3C      C4'   73   4.367   4.832   1.072
    3C      H4'   74   4.365   4.913   1.020
    3C      O4'   75   4.237   4.812   1.134
    3C      C1'   76   4.235   4.873   1.262
    3C      H1'   77   4.171   4.945   1.260
    3C       N1   78   4.194   4.773   1.364
    3C       C6   79   4.195   4.640   1.333
    3C       H6   80   4.223   4.613   1.249
    3C       C5   81   4.157   4.547   1.422
    3C       H5   82   4.159   4.456   1.401
    3C       C4   83   4.115   4.591   1.551
    3C       N4   84   4.077   4.498   1.640
    3C      H41   85   4.081   4.415   1.618
    3C      H42   86   4.050   4.522   1.718
    3C       N3   87   4.113   4.720   1.582
    3C       C2   88   4.151   4.815   1.492
    3C       O2   89   4.148   4.935   1.523
    3C      C3'   90   4.461   4.851   1.190
    3C      H3'   91   4.482   4.764   1.228
    3C      C2'   92   4.375   4.931   1.288
    3C      H2'   93   4.403   4.916   1.379
    3C      O2'   94   4.374   5.069   1.254
    3C     HO2'   95   4.453   5.097   1.249
    3C      O3'   96   4.582   4.916   1.155
    4G        P   97   4.713   4.893   1.245
    4G      OP1   98   4.824   4.971   1.187
    4G      OP2   99   4.728   4.747   1.268
    4G      O5'  100   4.676   4.961   1.384
    4G      C5'  101   4.685   5.102   1.400
    4G      H5'  102   4.631   5.144   1.332
    4G     H5''  103   4.777   5.128   1.387
    4G      C4'  104   4.637   5.146   1.536
    4G      H4'  105   4.632   5.243   1.537
    4G      O4'  106   4.505   5.092   1.560
    4G      C1'  107   4.488   5.067   1.698
    4G      H1'  108   4.416   5.123   1.731
    4G       N9  109   4.450   4.926   1.717
    4G       C8  110   4.455   4.824   1.626
    4G       H8  111   4.485   4.834   1.539
    4G       N7  112   4.411   4.711   1.674
    4G       C5  113   4.376   4.741   1.805
    4G       C6  114   4.323   4.660   1.908
    4G       O6  115   4.296   4.539   1.902
    4G       N1  116   4.302   4.732   2.025
    4G       H1  117   4.270   4.689   2.092
    4G       C2  118   4.328   4.865   2.042
    4G       N2  119   4.302   4.916   2.163
    4G      H21  120   4.269   4.865   2.223
    4G      H22  121   4.317   4.999   2.179
    4G       N3  122   4.378   4.942   1.947
    4G       C4  123   4.399   4.874   1.833
    4G      C3'  124   4.719   5.099   1.655
    4G      H3'  125   4.746   5.007   1.641
    4G      C2'  126   4.618   5.104   1.769
    4G      H2'  127   4.639   5.040   1.838
    4G      O2'  128   4.605   5.236   1.821
    4G     HO2'  129   4.680   5.264   1.845
    4G      O3'  130   4.834   5.177   1.678
    5C        P  131   4.958   5.114   1.759
    5C      OP1  132   5.065   5.217   1.766
    5C      OP2  133   4.987   4.980   1.702
    5C      O5'  134   4.902   5.094   1.906
    5C      C5'  135   4.894   5.203   1.996
    5C      H5'  136   4.837   5.271   1.958
    5C     H5''  137   4.983   5.240   2.007
    5C      C4'  138   4.839   5.161   2.131
    5C      H4'  139   4.824   5.242   2.183
    5C      O4'  140   4.714   5.091   2.114
    5C      C1'  141   4.696   4.998   2.219
    5C      H1'  142   4.620   5.027   2.272
    5C       N1  143   4.667   4.864   2.163
    5C       C6  144   4.686   4.840   2.030
    5C       H6  145   4.719   4.908   1.976
    5C       C5  146   4.660   4.721   1.975
    5C       H5  147   4.673   4.705   1.885
    5C       C4  148   4.610   4.618   2.060
    5C       N4  149   4.584   4.499   2.006
    5C      H41  150   4.604   4.485   1.924
    5C      H42  151   4.548   4.436   2.054
    5C       N3  152   4.590   4.640   2.190
    5C       C2  153   4.617   4.761   2.246
    5C       O2  154   4.598   4.781   2.367
    5C      C3'  155   4.924   5.064   2.211
    5C      H3'  156   4.959   4.996   2.152
    5C      C2'  157   4.822   5.002   2.306
    5C      H2'  158   4.849   4.914   2.334
    5C      O2'  159   4.797   5.087   2.417
    5C     HO2'  160   4.869   5.105   2.456
    5C      O3'  161   5.032   5.126   2.278
    6U        P  162   5.163   5.040   2.311
    6U      OP1  163   5.260   5.128   2.382
    6U      OP2  164   5.203   4.968   2.187
    6U      O5'  165   5.112   4.932   2.416
    6U      C5'  166   5.095   4.967   2.553
    6U      H5'  167   5.034   5.041   2.558
    6U     H5''  168   5.181   4.995   2.587
    6U      C4'  169   5.042   4.852   2.634
    6U      H4'  170   5.021   4.884   2.723
    6U      O4'  171   4.920   4.801   2.575
    6U      C1'  172   4.906   4.664   2.607
    6U      H1'  173   4.829   4.654   2.665
    6U       N1  174   4.881   4.587   2.483
    6U       C6  175   4.906   4.636   2.357
    6U       H6  176   4.941   4.722   2.349
    6U       C5  177   4.882   4.565   2.246
    6U       H5  178   4.900   4.601   2.162
    6U       C4  179   4.828   4.432   2.259
    6U       O4  180   4.801   4.357   2.165
    6U       N3  181   4.805   4.389   2.388
    6U       H3  182   4.772   4.309   2.398
    6U       C2  183   4.829   4.460   2.502
    6U       O2  184   4.807   4.416   2.614
    6U      C3'  185   5.131   4.729   2.646
    6U      H3'  186   5.171   4.709   2.560
    6U      C2'  187   5.031   4.619   2.682
    6U      H2'  188   5.063   4.532   2.653
    6U      O2'  189   5.004   4.619   2.821
    6U     HO2'  190   4.942   4.565   2.837
    6U      O3'  191   5.234   4.744   2.741
    7U        P  192   5.370   4.661   2.724
    7U      OP1  193   5.449   4.676   2.849
    7U      OP2  194   5.429   4.698   2.593
    7U      O5'  195   5.322   4.510   2.716
    7U      C5'  196   5.298   4.435   2.834
    7U      H5'  197   5.231   4.481   2.886
    7U     H5''  198   5.380   4.432   2.885
    7U      C4'  199   5.249   4.295   2.805
    7U      H4'  200   5.223   4.254   2.888
    7U      O4'  201   5.133   4.301   2.719
    7U      C1'  202   5.128   4.186   2.637
    7U      H1'  203   5.047   4.137   2.657
    7U       N1  204   5.127   4.228   2.495
    7U       C6  205   5.182   4.347   2.454
    7U       H6  206   5.221   4.403   2.518
    7U       C5  207   5.183   4.386   2.326
    7U       H5  208   5.221   4.467   2.301
    7U       C4  209   5.124   4.300   2.227
    7U       O4  210   5.117   4.323   2.107
    7U       N3  211   5.070   4.182   2.275
    7U       H3  212   5.034   4.128   2.217
    7U       C2  213   5.068   4.140   2.406
    7U       O2  214   5.019   4.034   2.441
    7U      C3'  215   5.344   4.203   2.731
    7U      H3'  216   5.388   4.251   2.660
    7U      C2'  217   5.250   4.100   2.670
    7U      H2'  218   5.288   4.059   2.591
    7U      O2'  219   5.212   4.002   2.766
    7U     HO2'  220   5.138   3.969   2.745
    7U      O3'  221   5.443   4.145   2.814
    8U        P  222   5.585   4.103   2.752
    8U      OP1  223   5.692   4.178   2.822
    8U      OP2  224   5.572   4.113   2.605
    8U      O5'  225   5.598   3.947   2.786
    8U      C5'  226   5.526   3.850   2.711
    8U      H5'  227   5.563   3.844   2.622
    8U     H5''  228   5.434   3.878   2.706
    8U      C4'  229   5.532   3.714   2.776
    8U      H4'  230   5.620   3.676   2.762
    8U      O4'  231   5.510   3.729   2.919
    8U      C1'  232   5.393   3.659   2.957
    8U      H1'  233   5.418   3.573   2.993
    8U       N1  234   5.325   3.738   3.060
    8U       C6  235   5.326   3.876   3.054
    8U       H6  236   5.369   3.917   2.982
    8U       C5  237   5.266   3.953   3.146
    8U       H5  238   5.268   4.046   3.138
    8U       C4  239   5.200   3.890   3.257
    8U       O4  240   5.142   3.948   3.348
    8U       N3  241   5.204   3.752   3.258
    8U       H3  242   5.165   3.711   3.324
    8U       C2  243   5.265   3.671   3.165
    8U       O2  244   5.264   3.549   3.173
    8U      C3'  245   5.425   3.616   2.728
    8U      H3'  246   5.397   3.636   2.637
    8U      C2'  247   5.313   3.639   2.828
    8U      H2'  248   5.266   3.721   2.806
    8U      O2'  249   5.221   3.533   2.839
    8U     HO2'  250   5.178   3.526   2.767
    8U      O3'  251   5.473   3.482   2.740
    9C        P  252   5.552   3.413   2.619
    9C      OP1  253   5.559   3.267   2.647
    9C      OP2  254   5.678   3.489   2.594
    9C      O5'  255   5.456   3.436   2.494
    9C      C5'  256   5.328   3.376   2.489
    9C      H5'  257   5.281   3.394   2.573
    9C     H5''  258   5.339   3.280   2.480
    9C      C4'  259   5.245   3.428   2.374
    9C      H4'  260   5.156   3.391   2.382
    9C      O4'  261   5.237   3.573   2.383
    9C      C1'  262   5.274   3.629   2.259
    9C      H1'  263   5.195   3.636   2.202
    9C       N1  264   5.332   3.763   2.279
    9C       C6  265   5.453   3.785   2.339
    9C       H6  266   5.503   3.712   2.370
    9C       C5  267   5.502   3.909   2.353
    9C       H5  268   5.584   3.925   2.393
    9C       C4  269   5.423   4.017   2.303
    9C       N4  270   5.466   4.143   2.314
    9C      H41  271   5.419   4.208   2.284
    9C      H42  272   5.542   4.158   2.352
    9C       N3  273   5.305   3.997   2.245
    9C       C2  274   5.257   3.871   2.230
    9C       O2  275   5.147   3.851   2.176
    9C      C3'  276   5.300   3.397   2.235
    9C      H3'  277   5.362   3.324   2.235
    9C      C2'  278   5.368   3.528   2.196
    9C      H2'  279   5.455   3.533   2.238
    9C      O2'  280   5.382   3.548   2.056
    9C     HO2'  281   5.307   3.543   2.019
    9C      O3'  282   5.191   3.373   2.146
   10G        P  283   5.141   3.222   2.122
   10G      OP1  284   5.261   3.134   2.124
   10G      OP2  285   5.049   3.221   2.004
   10G      O5'  286   5.052   3.190   2.250
   10G      C5'  287   4.923   3.246   2.266
   10G      H5'  288   4.867   3.217   2.192
   10G     H5''  289   4.931   3.343   2.263
   10G      C4'  290   4.863   3.204   2.398
   10G      H4'  291   4.859   3.107   2.400
   10G      O4'  292   4.945   3.252   2.507
   10G      C1'  293   4.866   3.276   2.620
   10G      H1'  294   4.892   3.214   2.690
   10G       N9  295   4.889   3.413   2.670
   10G       C8  296   4.890   3.451   2.802
   10G       H8  297   4.876   3.391   2.872
   10G       N7  298   4.913   3.578   2.819
   10G       C5  299   4.928   3.627   2.690
   10G       C6  300   4.954   3.760   2.646
   10G       O6  301   4.970   3.862   2.715
   10G       N1  302   4.962   3.766   2.508
   10G       H1  303   4.977   3.843   2.473
   10G       C2  304   4.945   3.659   2.423
   10G       N2  305   4.957   3.687   2.293
   10G      H21  306   4.939   3.627   2.235
   10G      H22  307   4.983   3.765   2.269
   10G       N3  308   4.921   3.535   2.463
   10G       C4  309   4.913   3.527   2.597
   10G      C3'  310   4.724   3.260   2.430
   10G      H3'  311   4.720   3.353   2.402
   10G      C2'  312   4.720   3.251   2.582
   10G      H2'  313   4.662   3.318   2.620
   10G      O2'  314   4.684   3.120   2.625
   10G     HO2'  315   4.614   3.096   2.585
   10G      O3'  316   4.620   3.188   2.366
   11A        P  317   4.503   3.265   2.287
   11A      OP1  318   4.386   3.174   2.281
   11A      OP2  319   4.560   3.322   2.162
   11A      O5'  320   4.464   3.386   2.384
   11A      C5'  321   4.397   3.361   2.507
   11A      H5'  322   4.435   3.282   2.546
   11A     H5''  323   4.304   3.346   2.489
   11A      C4'  324   4.415   3.477   2.603
   11A      H4'  325   4.409   3.443   2.693
   11A      O4'  326   4.547   3.534   2.585
   11A      C1'  327   4.543   3.673   2.611
   11A      H1'  328   4.603   3.694   2.684
   11A       N9  329   4.587   3.746   2.490
   11A       C8  330   4.593   3.700   2.361
   11A       H8  331   4.569   3.613   2.336
   11A       N7  332   4.636   3.790   2.276
   11A       C5  333   4.660   3.902   2.356
   11A       C6  334   4.707   4.031   2.326
   11A       N6  335   4.740   4.070   2.203
   11A      H61  336   4.769   4.150   2.191
   11A      H62  337   4.733   4.015   2.137
   11A       N1  338   4.719   4.119   2.428
   11A       C2  339   4.686   4.080   2.552
   11A       H2  340   4.696   4.144   2.619
   11A       N3  341   4.640   3.961   2.592
   11A       C4  342   4.629   3.876   2.488
   11A      C3'  343   4.322   3.595   2.586
   11A      H3'  344   4.311   3.613   2.491
   11A      C2'  345   4.400   3.709   2.650
   11A      H2'  346   4.373   3.795   2.614
   11A      O2'  347   4.390   3.704   2.792
   11A     HO2'  348   4.310   3.714   2.815
   11A      O3'  349   4.194   3.575   2.643
   12G        P  350   4.070   3.665   2.593
   12G      OP1  351   3.949   3.621   2.666
   12G      OP2  352   4.072   3.667   2.444
   12G      O5'  353   4.105   3.812   2.644
   12G      C5'  354   4.083   3.848   2.780
   12G      H5'  355   4.129   3.784   2.836
   12G     H5''  356   3.988   3.843   2.798
   12G      C4'  357   4.135   3.986   2.810
   12G      H4'  358   4.143   3.997   2.906
   12G      O4'  359   4.267   4.002   2.752
   12G      C1'  360   4.288   4.136   2.714
   12G      H1'  361   4.361   4.173   2.767
   12G       N9  362   4.324   4.141   2.572
   12G       C8  363   4.316   4.042   2.478
   12G       H8  364   4.283   3.956   2.496
   12G       N7  365   4.358   4.080   2.360
   12G       C5  366   4.397   4.212   2.379
   12G       C6  367   4.451   4.307   2.289
   12G       O6  368   4.476   4.291   2.169
   12G       N1  369   4.475   4.429   2.351
   12G       H1  370   4.509   4.492   2.303
   12G       C2  371   4.452   4.458   2.483
   12G       N2  372   4.481   4.581   2.524
   12G      H21  373   4.513   4.637   2.468
   12G      H22  374   4.468   4.605   2.606
   12G       N3  375   4.401   4.370   2.568
   12G       C4  376   4.376   4.251   2.510
   12G      C3'  377   4.056   4.102   2.753
   12G      H3'  378   4.026   4.080   2.663
   12G      C2'  379   4.160   4.214   2.745
   12G      H2'  380   4.138   4.276   2.674
   12G      O2'  381   4.175   4.279   2.870
   12G     HO2'  382   4.102   4.312   2.894
   12G      O3'  383   3.943   4.136   2.831
   13C        P  384   3.818   4.212   2.764
   13C      OP1  385   3.713   4.229   2.868
   13C      OP2  386   3.787   4.144   2.636
   13C      O5'  387   3.875   4.357   2.730
   13C      C5'  388   3.887   4.455   2.832
   13C      H5'  389   3.941   4.419   2.904
   13C     H5''  390   3.798   4.474   2.867
   13C      C4'  391   3.950   4.582   2.780
   13C      H4'  392   3.973   4.637   2.856
   13C      O4'  393   4.071   4.550   2.706
   13C      C1'  394   4.093   4.648   2.606
   13C      H1'  395   4.173   4.697   2.629
   13C       N1  396   4.112   4.583   2.474
   13C       C6  397   4.075   4.452   2.457
   13C       H6  398   4.036   4.406   2.528
   13C       C5  399   4.092   4.390   2.339
   13C       H5  400   4.066   4.301   2.327
   13C       C4  401   4.152   4.462   2.233
   13C       N4  402   4.169   4.400   2.116
   13C      H41  403   4.146   4.318   2.108
   13C      H42  404   4.205   4.442   2.049
   13C       N3  405   4.190   4.589   2.249
   13C       C2  406   4.172   4.653   2.368
   13C       O2  407   4.208   4.771   2.382
   13C      C3'  408   3.868   4.663   2.682
   13C      H3'  409   3.824   4.603   2.620
   13C      C2'  410   3.974   4.745   2.608
   13C      H2'  411   3.945   4.767   2.519
   13C      O2'  412   4.010   4.860   2.683
   13C     HO2'  413   3.941   4.906   2.699
   13C      O3'  414   3.769   4.743   2.745
   14G        P  415   3.638   4.787   2.663
   14G      OP1  416   3.553   4.870   2.752
   14G      OP2  417   3.581   4.667   2.597
   14G      O5'  418   3.694   4.885   2.551
   14G      C5'  419   3.723   5.020   2.581
   14G      H5'  420   3.784   5.022   2.656
   14G     H5''  421   3.641   5.064   2.607
   14G      C4'  422   3.785   5.091   2.464
   14G      H4'  423   3.819   5.177   2.494
   14G      O4'  424   3.896   5.013   2.413
   14G      C1'  425   3.910   5.033   2.275
   14G      H1'  426   3.995   5.077   2.259
   14G       N9  427   3.910   4.903   2.206
   14G       C8  428   3.874   4.780   2.255
   14G       H8  429   3.843   4.767   2.342
   14G       N7  430   3.888   4.685   2.168
   14G       C5  431   3.937   4.749   2.055
   14G       C6  432   3.972   4.698   1.927
   14G       O6  433   3.966   4.581   1.888
   14G       N1  434   4.018   4.799   1.842
   14G       H1  435   4.041   4.776   1.763
   14G       C2  436   4.028   4.931   1.875
   14G       N2  437   4.073   5.013   1.779
   14G      H21  438   4.096   4.979   1.704
   14G      H22  439   4.079   5.097   1.793
   14G       N3  440   3.995   4.980   1.994
   14G       C4  441   3.951   4.884   2.077
   14G      C3'  442   3.696   5.112   2.342
   14G      H3'  443   3.642   5.032   2.328
   14G      C2'  444   3.797   5.125   2.228
   14G      H2'  445   3.760   5.094   2.145
   14G      O2'  446   3.847   5.257   2.218
   14G     HO2'  447   3.784   5.310   2.208
   14G      O3'  448   3.611   5.224   2.355
   15C        P  449   3.476   5.232   2.267
   15C      OP1  450   3.407   5.359   2.302
   15C      OP2  451   3.404   5.103   2.280
   15C      O5'  452   3.528   5.246   2.118
   15C      C5'  453   3.572   5.372   2.068
   15C      H5'  454   3.641   5.406   2.126
   15C     H5''  455   3.498   5.433   2.070
   15C      C4'  456   3.626   5.360   1.928
   15C      H4'  457   3.672   5.443   1.906
   15C      O4'  458   3.719   5.250   1.918
   15C      C1'  459   3.719   5.199   1.787
   15C      H1'  460   3.805   5.221   1.747
   15C       N1  461   3.705   5.051   1.789
   15C       C6  462   3.664   4.988   1.904
   15C       H6  463   3.643   5.040   1.979
   15C       C5  464   3.652   4.855   1.910
   15C       H5  465   3.623   4.813   1.988
   15C       C4  466   3.684   4.779   1.795
   15C       N4  467   3.673   4.646   1.800
   15C      H41  468   3.644   4.610   1.872
   15C      H42  469   3.693   4.598   1.732
   15C       N3  470   3.725   4.839   1.683
   15C       C2  471   3.738   4.974   1.676
   15C       O2  472   3.777   5.029   1.572
   15C      C3'  473   3.523   5.330   1.819
   15C      H3'  474   3.461   5.264   1.852
   15C      C2'  475   3.609   5.270   1.708
   15C      H2'  476   3.558   5.208   1.654
   15C      O2'  477   3.669   5.371   1.628
   15C     HO2'  478   3.610   5.425   1.603
   15C      O3'  479   3.451   5.445   1.779
   16U3       P  480   3.307   5.428   1.711
   16U3     OP1  481   3.258   5.562   1.670
   16U3     OP2  482   3.223   5.342   1.798
   16U3     O5'  483   3.338   5.348   1.577
   16U3     C5'  484   3.385   5.417   1.462
   16U3     H5'  485   3.467   5.463   1.484
   16U3    H5''  486   3.318   5.482   1.437
   16U3     C4'  487   3.410   5.323   1.347
   16U3     H4'  488   3.453   5.373   1.276
   16U3     O4'  489   3.499   5.216   1.388
   16U3     C1'  490   3.474   5.101   1.310
   16U3     H1'  491   3.551   5.085   1.254
   16U3      N1  492   3.454   4.984   1.398
   16U3      C6  493   3.417   4.999   1.530
   16U3      H6  494   3.405   5.085   1.564
   16U3      C5  495   3.399   4.894   1.611
   16U3      H5  496   3.374   4.907   1.699
   16U3      C4  497   3.418   4.762   1.559
   16U3      O4  498   3.403   4.658   1.624
   16U3      N3  499   3.454   4.754   1.426
   16U3      H3  500   3.467   4.675   1.392
   16U3      C2  501   3.474   4.860   1.341
   16U3      O2  502   3.507   4.846   1.225
   16U3     C3'  503   3.290   5.250   1.292
   16U3     H3'  504   3.234   5.218   1.365
   16U3     C2'  505   3.353   5.130   1.221
   16U3     H2'  506   3.293   5.055   1.219
   16U3     O2'  507   3.398   5.164   1.092
   16U3    HO2'  508   3.333   5.192   1.046
   16U3     O3'  509   3.211   5.330   1.206
   16U3    HO3'  510   3.136   5.279   1.174
   17SOL      O  511   1.736   0.839   0.257
   17SOL     H1  512   1.777   0.781   0.322
   17SOL     H2  513   1.643   0.831   0.274
   17SOL    EPW  514   1.730   0.831   0.267
   18SOL      O  515   1.602   0.771   1.252
   18SOL     H1  516   1.557   0.838   1.303
   18SOL     H2  517   1.690   0.807   1.238
   18SOL    EPW  518   1.608   0.784   1.256
   19SOL      O  519   0.530   1.022   0.486
   19SOL     H1  520   0.620   0.997   0.470
   19SOL     H2  521   0.526   1.115   0.463
   19SOL    EPW  522   0.542   1.031   0.481
   20SOL      O  523   1.646   1.725   0.628
   20SOL     H1  524   1.658   1.671   0.706
   20SOL     H2  525   1.683   1.673   0.557
   20SOL    EPW  526   1.652   1.710   0.629
   21SOL      O  527   1.025   1.610   1.629
   21SOL     H1  528   1.066   1.646   1.550
   21SOL     H2  529   1.060   1.521   1.636
   21SOL    EPW  530   1.036   1.603   1.620
   22SOL      O  531   1.582   1.165   1.233
   22SOL     H1  532   1.503   1.130   1.191
   22SOL     H2  533   1.609   1.237   1.177
   22SOL    EPW  534   1.575   1.170   1.220
   23SOL      O  535   0.814   0.478   0.499
   23SOL     H1  536   0.789   0.566   0.527
   23SOL     H2  537   0.811   0.481   0.403
   23SOL    EPW  538   0.810   0.490   0.491
   24SOL      O  539   0.256   0.506   0.427
   24SOL     H1  540   0.288   0.594   0.409
   24SOL     H2  541   0.244   0.504   0.522
   24SOL    EPW  542   0.259   0.518   0.439
   25SOL      O  543   0.334   0.919   1.328
   25SOL     H1  544   0.397   0.866   1.279
   25SOL     H2  545   0.315   0.993   1.271
   25SOL    EPW  546   0.340   0.921   1.315
   26SOL      O  547   0.655   0.261   0.514
   26SOL     H1  548   0.713   0.337   0.516
   26SOL     H2  549   0.590   0.282   0.447
   26SOL    EPW  550   0.654   0.273   0.505
   27SOL      O  551   0.742   1.188   0.689
   27SOL     H1  552   0.822   1.191   0.741
   27SOL     H2  553   0.770   1.155   0.603
   27SOL    EPW  554   0.756   1.184   0.684
   28SOL      O  555   0.767   1.529   1.592
   28SOL     H1  556   0.851   1.555   1.631
   28SOL     H2  557   0.791   1.473   1.518
   28SOL    EPW  558   0.781   1.525   1.587
   29SOL      O  559   0.519   0.692   0.680
   29SOL     H1  560   0.504   0.612   0.731
   29SOL     H2  561   0.601   0.727   0.714
   29SOL    EPW  562   0.527   0.684   0.692
   30SOL      O  563   0.856   1.378   1.365
   30SOL     H1  564   0.820   1.444   1.305
   30SOL     H2  565   0.784   1.316   1.378
   30SOL    EPW  566   0.842   1.378   1.359
   31SOL      O  567   0.661   0.518   1.057
   31SOL     H1  568   0.567   0.514   1.075
   31SOL     H2  569   0.691   0.427   1.066
   31SOL    EPW  570   0.652   0.506   1.060
   32SOL      O  571   0.407   0.932   0.961
   32SOL     H1  572   0.362   0.939   0.877
   32SOL     H2  573   0.387   1.015   1.005
   32SOL    EPW  574   0.399   0.944   0.955
   33SOL      O  575   0.104   1.778   0.836
   33SOL     H1  576   0.193   1.770   0.871
   33SOL     H2  577   0.068   1.690   0.841
   33SOL    EPW  578   0.111   1.765   0.841
   34SOL      O  579   1.369   1.170   0.205
   34SOL     H1  580   1.287   1.206   0.171
   34SOL     H2  581   1.437   1.213   0.154
   34SOL    EPW  582   1.367   1.180   0.193
   35SOL      O  583   0.368   1.305   0.871
   35SOL     H1  584   0.344   1.358   0.947
   35SOL     H2  585   0.424   1.363   0.819
   35SOL    EPW  586   0.372   1.320   0.874
   36SOL      O  587   0.930   0.949   0.681
   36SOL     H1  588   0.844   0.936   0.721
   36SOL     H2  589   0.983   0.876   0.713
   36SOL    EPW  590   0.926   0.938   0.690
   37SOL      O  591   0.338   1.601   1.466
   37SOL     H1  592   0.246   1.577   1.451
   37SOL     H2  593   0.382   1.518   1.483
   37SOL    EPW  594   0.332   1.586   1.465
   38SOL      O  595   0.921   1.311   0.398
   38SOL     H1  596   0.898   1.373   0.466
   38SOL     H2  597   0.878   1.229   0.424
   38SOL    EPW  598   0.913   1.307   0.409
   39SOL      O  599   1.794   0.312   0.854
   39SOL     H1  600   1.731   0.292   0.923
   39SOL     H2  601   1.784   0.241   0.791
   39SOL    EPW  602   1.784   0.299   0.855
   40SOL      O  603   0.418   0.284   0.366
   40SOL     H1  604   0.392   0.246   0.282
   40SOL     H2  605   0.355   0.354   0.382
   40SOL    EPW  606   0.407   0.287   0.357
   41SOL      O  607   0.253   1.245   0.403
   41SOL     H1  608   0.201   1.313   0.359
   41SOL     H2  609   0.250   1.171   0.343
   41SOL    EPW  610   0.245   1.244   0.390
   42SOL      O  611   0.915   1.708   0.181
   42SOL     H1  612   0.870   1.724   0.264
   42SOL     H2  613   0.846   1.673   0.123
   42SOL    EPW  614   0.901   1.705   0.183
   43SOL      O  615   1.850   0.481   0.156
   43SOL     H1  616   1.759   0.483   0.184
   43SOL     H2  617   1.895   0.543   0.214
   43SOL    EPW  618   1.843   0.489   0.166
   44SOL      O  619   1.595   1.084   0.506
   44SOL     H1  620   1.505   1.084   0.541
   44SOL     H2  621   1.588   1.130   0.423
   44SOL    EPW  622   1.582   1.090   0.500
   45SOL      O  623   1.395   0.719   1.578
   45SOL     H1  624   1.464   0.657   1.555
   45SOL     H2  625   1.320   0.693   1.525
   45SOL    EPW  626   1.395   0.706   1.569
   46SOL      O  627   0.136   1.599   1.130
   46SOL     H1  628   0.119   1.545   1.207
   46SOL     H2  629   0.124   1.689   1.160
   46SOL    EPW  630   0.133   1.603   1.144
   47SOL      O  631   1.131   1.106   1.570
   47SOL     H1  632   1.116   1.199   1.555
   47SOL     H2  633   1.226   1.096   1.570
   47SOL    EPW  634   1.140   1.116   1.567
   48SOL      O  635   0.927   0.530   1.771
   48SOL     H1  636   1.017   0.531   1.738
   48SOL     H2  637   0.886   0.455   1.729
   48SOL    EPW  638   0.933   0.520   1.762
   49SOL      O  639   1.502   1.062   0.898
   49SOL     H1  640   1.505   0.996   0.829
   49SOL     H2  641   1.587   1.105   0.894
   49SOL    EPW  642   1.514   1.058   0.889
   50SOL      O  643   1.122   0.665   0.467
   50SOL     H1  644   1.148   0.689   0.378
   50SOL     H2  645   1.104   0.572   0.463
   50SOL    EPW  646   1.124   0.657   0.454
   51SOL      O  647   1.787   1.285   0.318
   51SOL     H1  648   1.743   1.326   0.393
   51SOL     H2  649   1.844   1.353   0.283
   51SOL    EPW  650   1.789   1.299   0.323
   52SOL      O  651   0.707   0.334   1.721
   52SOL     H1  652   0.717   0.260   1.661
   52SOL     H2  653   0.743   0.303   1.804
   52SOL    EPW  654   0.713   0.320   1.723
   53SOL      O  655   0.443   1.701   0.636
   53SOL     H1  656   0.475   1.789   0.614
   53SOL     H2  657   0.396   1.673   0.558
   53SOL    EPW  658   0.442   1.709   0.623
   54SOL      O  659   1.827   0.063   0.685
   54SOL     H1  660   1.881   0.014   0.747
   54SOL     H2  661   1.770  -0.003   0.646
   54SOL    EPW  662   1.827   0.047   0.687
   55SOL      O  663   0.159   1.761   0.213
   55SOL     H1  664   0.188   1.851   0.205
   55SOL     H2  665   0.109   1.744   0.134
   55SOL    EPW  666   0.157   1.769   0.202
   56SOL      O  667   0.946   0.016   1.098
   56SOL     H1  668   0.905   0.094   1.060
   56SOL     H2  669   1.040   0.034   1.093
   56SOL    EPW  670   0.952   0.028   1.093
   57SOL      O  671   1.563   1.569   0.184
   57SOL     H1  672   1.611   1.638   0.230
   57SOL     H2  673   1.484   1.613   0.153
   57SOL    EPW  674   1.558   1.583   0.187
   58SOL      O  675   0.961   0.694   0.128
   58SOL     H1  676   0.963   0.641   0.049
   58SOL     H2  677   1.049   0.731   0.134
   58SOL    EPW  678   0.973   0.693   0.117
   59SOL      O  679   1.575   0.620   0.464
   59SOL     H1  680   1.614   0.620   0.551
   59SOL     H2  681   1.516   0.696   0.464
   59SOL    EPW  682   1.572   0.631   0.475
   60SOL      O  683   0.892   0.987   1.593
   60SOL     H1  684   0.869   0.967   1.683
   60SOL     H2  685   0.977   1.031   1.598
   60SOL    EPW  686   0.899   0.990   1.605
   61SOL      O  687   0.972   0.124   1.353
   61SOL     H1  688   0.978   0.086   1.266
   61SOL     H2  689   0.961   0.218   1.338
   61SOL    EPW  690   0.973   0.132   1.341
   62SOL      O  691   1.061   0.613   1.187
   62SOL     H1  692   1.136   0.642   1.134
   62SOL     H2  693   0.993   0.678   1.171
   62SOL    EPW  694   1.062   0.625   1.177
   63SOL      O  695   1.611   0.581   1.464
   63SOL     H1  696   1.592   0.490   1.443
   63SOL     H2  697   1.589   0.630   1.385
   63SOL    EPW  698   1.606   0.574   1.451
   64SOL      O  699   1.753   1.675   1.368
   64SOL     H1  700   1.681   1.637   1.419
   64SOL     H2  701   1.770   1.760   1.409
   64SOL    EPW  702   1.747   1.680   1.380
   65SOL      O  703   1.058   0.319   1.570
   65SOL     H1  704   1.024   0.358   1.489
   65SOL     H2  705   1.036   0.227   1.563
   65SOL    EPW  706   1.051   0.312   1.560
   66SOL      O  707   1.467   1.133   1.646
   66SOL     H1  708   1.549   1.174   1.676
   66SOL     H2  709   1.430   1.095   1.726
   66SOL    EPW  710   1.473   1.134   1.661
   67SOL      O  711   1.762   0.506   0.630
   67SOL     H1  712   1.851   0.475   0.647
   67SOL     H2  713   1.705   0.446   0.678
   67SOL    EPW  714   1.765   0.494   0.639
   68SOL      O  715   0.188   0.220   0.659
   68SOL     H1  716   0.179   0.160   0.585
   68SOL     H2  717   0.121   0.191   0.722
   68SOL    EPW  718   0.178   0.207   0.657
   69SOL      O  719   1.131   1.313   0.220
   69SOL     H1  720   1.081   1.315   0.302
   69SOL     H2  721   1.065   1.331   0.152
   69SOL    EPW  722   1.117   1.315   0.222
   70SOL      O  723   0.135   0.393   1.022
   70SOL     H1  724   0.107   0.484   1.031
   70SOL     H2  725   0.072   0.354   0.961
   70SOL    EPW  726   0.122   0.399   1.016
   71SOL      O  727   0.594   1.731   0.328
   71SOL     H1  728   0.515   1.689   0.361
   71SOL     H2  729   0.660   1.714   0.395
   71SOL    EPW  730   0.593   1.723   0.341
   72SOL      O  731   1.722   1.251   1.725
   72SOL     H1  732   1.772   1.177   1.757
   72SOL     H2  733   1.668   1.278   1.800
   72SOL    EPW  734   1.722   1.245   1.738
   73SOL      O  735   0.730   1.146   0.035
   73SOL     H1  736   0.652   1.092   0.022
   73SOL     H2  737   0.701   1.219   0.088
   73SOL    EPW  738   0.716   1.148   0.040
   74SOL      O  739   1.856   0.886   1.227
   74SOL     H1  740   1.872   0.924   1.140
   74SOL     H2  741   1.890   0.952   1.288
   74SOL    EPW  742   1.863   0.899   1.223
   75SOL      O  743   1.648   1.595   0.896
   75SOL     H1  744   1.677   1.662   0.957
   75SOL     H2  745   1.629   1.519   0.951
   75SOL    EPW  746   1.650   1.595   0.911
   76SOL      O  747   1.311   1.662   0.103
   76SOL     H1  748   1.237   1.625   0.153
   76SOL     H2  749   1.319   1.752   0.136
   76SOL    EPW  750   1.302   1.669   0.115
   77SOL      O  751   0.119   0.668   1.192
   77SOL     H1  752   0.181   0.698   1.258
   77SOL     H2  753   0.053   0.737   1.186
   77SOL    EPW  754   0.118   0.681   1.199
   78SOL      O  755   1.535   1.336   0.045
   78SOL     H1  756   1.482   1.385  -0.019
   78SOL     H2  757   1.566   1.402   0.106
   78SOL    EPW  758   1.533   1.350   0.043
   79SOL      O  759   0.760   0.225   0.100
   79SOL     H1  760   0.708   0.145   0.088
   79SOL     H2  761   0.847   0.202   0.068
   79SOL    EPW  762   0.763   0.211   0.094
   80SOL      O  763   0.214   1.777   1.644
   80SOL     H1  764   0.188   1.845   1.582
   80SOL     H2  765   0.262   1.714   1.592
   80SOL    EPW  766   0.216   1.777   1.630
   81SOL      O  767   0.266   1.096   1.151
   81SOL     H1  768   0.319   1.171   1.176
   81SOL     H2  769   0.185   1.134   1.117
   81SOL    EPW  770   0.262   1.111   1.151
   82SOL      O  771   0.806   1.000   1.139
   82SOL     H1  772   0.834   0.909   1.151
   82SOL     H2  773   0.735   0.994   1.075
   82SOL    EPW  774   0.799   0.988   1.134
   83SOL      O  775   0.121   0.865   0.557
   83SOL     H1  776   0.212   0.880   0.584
   83SOL     H2  777   0.124   0.786   0.503
   83SOL    EPW  778   0.133   0.857   0.555
   84SOL      O  779   0.357   0.573   1.811
   84SOL     H1  780   0.304   0.653   1.818
   84SOL     H2  781   0.427   0.585   1.876
   84SOL    EPW  782   0.359   0.586   1.819
   85SOL      O  783   0.743   0.123   1.518
   85SOL     H1  784   0.720   0.031   1.520
   85SOL     H2  785   0.829   0.125   1.475
   85SOL    EPW  786   0.750   0.113   1.514
   86SOL      O  787   0.427   0.647   1.557
   86SOL     H1  788   0.507   0.697   1.543
   86SOL     H2  789   0.418   0.641   1.652
   86SOL    EPW  790   0.436   0.653   1.567
   87SOL      O  791   0.748   1.797   0.931
   87SOL     H1  792   0.837   1.812   0.961
   87SOL     H2  793   0.743   1.844   0.847
   87SOL    EPW  794   0.758   1.805   0.924
   88SOL      O  795   1.404   0.172   1.828
   88SOL     H1  796   1.460   0.099   1.854
   88SOL     H2  797   1.374   0.210   1.910
   88SOL    EPW  798   1.408   0.167   1.841
   89SOL      O  799   0.129   1.477   0.596
   89SOL     H1  800   0.101   1.516   0.678
   89SOL     H2  801   0.149   1.386   0.618
   89SOL    EPW  802   0.127   1.469   0.609
   90SOL      O  803   0.962   1.520   0.631
   90SOL     H1  804   1.045   1.474   0.615
   90SOL     H2  805   0.952   1.519   0.727
   90SOL    EPW  806   0.972   1.513   0.641
   91SOL      O  807   1.794   0.665   0.945
   91SOL     H1  808   1.883   0.695   0.927
   91SOL     H2  809   1.774   0.605   0.874
   91SOL    EPW  810   1.803   0.662   0.934
   92SOL      O  811   1.645   0.844   1.825
   92SOL     H1  812   1.700   0.768   1.806
   92SOL     H2  813   1.647   0.852   1.920
   92SOL    EPW  814   1.653   0.835   1.833
   93SOL      O  815   0.695   1.577   0.036
   93SOL     H1  816   0.635   1.646   0.006
   93SOL     H2  817   0.640   1.519   0.089
   93SOL    EPW  818   0.679   1.579   0.038
   94SOL      O  819   1.133   0.222   0.259
   94SOL     H1  820   1.066   0.198   0.196
   94SOL     H2  821   1.198   0.271   0.208
   94SOL    EPW  822   1.133   0.224   0.244
   95SOL      O  823   0.940   0.406   1.344
   95SOL     H1  824   0.859   0.447   1.372
   95SOL     H2  825   0.987   0.474   1.296
   95SOL    EPW  826   0.935   0.421   1.342
   96SOL      O  827   1.200   0.744   0.967
   96SOL     H1  828   1.213   0.838   0.977
   96SOL     H2  829   1.161   0.734   0.881
   96SOL    EPW  830   1.196   0.755   0.957
   97SOL      O  831   0.652   0.939   0.771
   97SOL     H1  832   0.563   0.930   0.804
   97SOL     H2  833   0.656   1.029   0.739
   97SOL    EPW  834   0.641   0.950   0.771
   98SOL      O  835   1.451   0.522   0.766
   98SOL     H1  836   1.396   0.443   0.765
   98SOL     H2  837   1.433   0.563   0.850
   98SOL    EPW  838   1.441   0.517   0.775
   99SOL      O  839   0.422   0.209   1.583
   99SOL     H1  840   0.343   0.227   1.635
   99SOL     H2  841   0.417   0.271   1.510
   99SOL    EPW  842   0.412   0.219   1.580
  100SOL      O  843   1.070   0.726   0.723
  100SOL     H1  844   1.007   0.658   0.747
  100SOL     H2  845   1.090   0.707   0.631
  100SOL    EPW  846   1.064   0.713   0.715
  101SOL      O  847   0.326   1.621   0.425
  101SOL     H1  848   0.287   1.668   0.351
  101SOL     H2  849   0.260   1.556   0.450
  101SOL    EPW  850   0.313   1.619   0.419
  102SOL      O  851   0.818   1.030   0.449
  102SOL     H1  852   0.820   1.004   0.356
  102SOL     H2  853   0.876   0.967   0.492
  102SOL    EPW  854   0.826   1.019   0.443
  103SOL      O  855   1.371   1.590   1.221
  103SOL     H1  856   1.296   1.636   1.259
  103SOL     H2  857   1.353   1.497   1.238
  103SOL    EPW  858   1.360   1.584   1.229
  104SOL      O  859   1.375   1.798   0.651
  104SOL     H1  860   1.318   1.751   0.590
  104SOL     H2  861   1.461   1.759   0.638
  104SOL    EPW  862   1.378   1.789   0.641
  105SOL      O  863   1.328   0.274   0.782
  105SOL     H1  864   1.356   0.206   0.843
  105SOL     H2  865   1.242   0.245   0.752
  105SOL    EPW  866   1.321   0.261   0.786
  106SOL      O  867   0.133   1.208   0.716
  106SOL     H1  868   0.197   1.240   0.779
  106SOL     H2  869   0.182   1.144   0.664
  106SOL    EPW  870   0.148   1.204   0.717
  107SOL      O  871   0.633   1.284   1.698
  107SOL     H1  872   0.681   1.367   1.685
  107SOL     H2  873   0.690   1.232   1.754
  107SOL    EPW  874   0.647   1.288   1.704
  108SOL      O  875   0.209   1.526   1.838
  108SOL     H1  876   0.265   1.450   1.853
  108SOL     H2  877   0.158   1.504   1.760
  108SOL    EPW  878   0.209   1.513   1.829
  109SOL      O  879   1.308   0.378   0.117
  109SOL     H1  880   1.281   0.444   0.053
  109SOL     H2  881   1.378   0.421   0.167
  109SOL    EPW  882   1.313   0.391   0.114
  110SOL      O  883   0.976   0.083   0.054
  110SOL     H1  884   1.032   0.075  -0.024
  110SOL     H2  885   0.953  -0.007   0.076
  110SOL    EPW  886   0.981   0.070   0.047
  111SOL      O  887   1.481   0.934   0.259
  111SOL     H1  888   1.448   1.023   0.249
  111SOL     H2  889   1.446   0.905   0.344
  111SOL    EPW  890   1.471   0.943   0.270
  112SOL      O  891   1.094   1.363   1.447
  112SOL     H1  892   1.005   1.369   1.415
  112SOL     H2  893   1.138   1.442   1.415
  112SOL    EPW  894   1.089   1.373   1.439
  113SOL      O  895   0.387   0.031   1.789
  113SOL     H1  896   0.315  -0.004   1.737
  113SOL     H2  897   0.445   0.072   1.724
  113SOL    EPW  898   0.385   0.032   1.774
  114SOL      O  899   0.411   1.521   1.088
  114SOL     H1  900   0.456   1.583   1.145
  114SOL     H2  901   0.318   1.540   1.101
  114SOL    EPW  902   0.404   1.531   1.095
  115SOL      O  903   1.851   1.050   1.442
  115SOL     H1  904   1.766   1.063   1.401
  115SOL     H2  905   1.831   1.014   1.529
  115SOL    EPW  906   1.838   1.046   1.447
  116SOL      O  907   0.833   1.589   1.196
  116SOL     H1  908   0.857   1.578   1.105
  116SOL     H2  909   0.756   1.646   1.194
  116SOL    EPW  910   0.825   1.594   1.185
  117SOL      O  911   0.475   0.972   0.051
  117SOL     H1  912   0.398   0.985   0.107
  117SOL     H2  913   0.439   0.936  -0.030
  117SOL    EPW  914   0.461   0.968   0.048
  118SOL      O  915   1.128   0.945   0.294
  118SOL     H1  916   1.038   0.966   0.269
  118SOL     H2  917   1.155   1.018   0.350
  118SOL    EPW  918   1.120   0.957   0.297
  119SOL      O  919   0.628   1.294   0.986
  119SOL     H1  920   0.621   1.273   1.080
  119SOL     H2  921   0.546   1.262   0.949
  119SOL    EPW  922   0.616   1.288   0.993
  120SOL      O  923   1.492   0.304   1.388
  120SOL     H1  924   1.439   0.306   1.468
  120SOL     H2  925   1.477   0.217   1.351
  120SOL    EPW  926   1.484   0.294   1.393
  121SOL      O  927   1.828   0.228   1.261
  121SOL     H1  928   1.809   0.295   1.196
  121SOL     H2  929   1.885   0.166   1.216
  121SOL    EPW  930   1.832   0.229   1.247
  122SOL      O  931   0.074   1.386   1.649
  122SOL     H1  932   0.118   1.319   1.595
  122SOL     H2  933  -0.011   1.348   1.669
  122SOL    EPW  934   0.069   1.372   1.645
  123SOL      O  935   0.757   0.061   0.701
  123SOL     H1  936   0.686   0.122   0.683
  123SOL     H2  937   0.808   0.058   0.620
  123SOL    EPW  938   0.753   0.067   0.688
  124SOL      O  939   0.515   1.301   0.450
  124SOL     H1  940   0.508   1.333   0.540
  124SOL     H2  941   0.425   1.285   0.422
  124SOL    EPW  942   0.503   1.303   0.457
  125SOL      O  943   1.110   1.694   1.359
  125SOL     H1  944   1.030   1.679   1.309
  125SOL     H2  945   1.117   1.789   1.366
  125SOL    EPW  946   1.101   1.705   1.353
  126SOL      O  947   1.224   1.659   0.849
  126SOL     H1  948   1.271   1.732   0.808
  126SOL     H2  949   1.145   1.698   0.885
  126SOL    EPW  950   1.219   1.674   0.848
  127SOL      O  951   1.632   1.754   1.124
  127SOL     H1  952   1.675   1.724   1.204
  127SOL     H2  953   1.551   1.702   1.121
  127SOL    EPW  954   1.627   1.743   1.134
  128SOL      O  955   0.717   0.718   1.831
  128SOL     H1  956   0.787   0.660   1.803
  128SOL     H2  957   0.660   0.663   1.886
  128SOL    EPW  958   0.719   0.705   1.835
  129SOL      O  959   1.504   0.930   1.464
  129SOL     H1  960   1.509   0.983   1.544
  129SOL     H2  961   1.466   0.847   1.492
  129SOL    EPW  962   1.500   0.925   1.479
  130SOL      O  963   1.144   0.065   1.710
  130SOL     H1  964   1.139  -0.028   1.691
  130SOL     H2  965   1.227   0.076   1.756
  130SOL    EPW  966   1.152   0.054   1.714
  131SOL      O  967   0.518   0.585   0.164
  131SOL     H1  968   0.484   0.641   0.234
  131SOL     H2  969   0.589   0.535   0.204
  131SOL    EPW  970   0.524   0.586   0.178
  132SOL      O  971   1.614   1.336   0.986
  132SOL     H1  972   1.649   1.318   0.899
  132SOL     H2  973   1.519   1.337   0.973
  132SOL    EPW  974   1.606   1.333   0.973
  133SOL      O  975   1.043   0.984   1.355
  133SOL     H1  976   1.086   1.019   1.433
  133SOL     H2  977   1.026   1.061   1.301
  133SOL    EPW  978   1.046   0.999   1.358
  134SOL      O  979   1.574   0.471   0.228
  134SOL     H1  980   1.566   0.542   0.165
  134SOL     H2  981   1.592   0.515   0.311
  134SOL    EPW  982   1.575   0.485   0.230
  135SOL      O  983   0.434   0.126   0.657
  135SOL     H1  984   0.484   0.169   0.588
  135SOL     H2  985   0.349   0.170   0.657
  135SOL    EPW  986   0.431   0.139   0.648
  136SOL      O  987   0.193   1.188   1.517
  136SOL     H1  988   0.221   1.141   1.595
  136SOL     H2  989   0.114   1.143   1.488
  136SOL    EPW  990   0.186   1.177   1.523
  137SOL      O  991   0.701   0.515   1.484
  137SOL     H1  992   0.673   0.603   1.508
  137SOL     H2  993   0.670   0.459   1.555
  137SOL    EPW  994   0.693   0.518   1.496
  138SOL      O  995   1.243   0.733   0.203
  138SOL     H1  996   1.290   0.751   0.122
  138SOL     H2  997   1.209   0.817   0.231
  138SOL    EPW  998   1.245   0.747   0.196
  139SOL      O  999   0.356   0.911   0.697
  139SOL     H1 1000   0.414   0.967   0.645
  139SOL     H2 1001   0.400   0.826   0.699
  139SOL    EPW 1002   0.369   0.908   0.690
  140SOL      O 1003   1.496   0.263   0.534
  140SOL     H1 1004   1.418   0.213   0.559
  140SOL     H2 1005   1.467   0.354   0.534
  140SOL    EPW 1006   1.482   0.267   0.537
  141SOL      O 1007   1.082   0.225   0.693
  141SOL     H1 1008   1.102   0.300   0.637
  141SOL     H2 1009   1.062   0.264   0.778
  141SOL    EPW 1010   1.083   0.241   0.697
  142SOL      O 1011   0.978   1.475   0.025
  142SOL     H1 1012   1.005   1.553  -0.023
  142SOL     H2 1013   0.885   1.490   0.044
  142SOL    EPW 1014   0.969   1.488   0.021
  143SOL      O 1015   1.842   0.998   1.712
  143SOL     H1 1016   1.755   0.978   1.748
  143SOL     H2 1017   1.896   0.924   1.737
  143SOL    EPW 1018   1.837   0.987   1.720
  144SOL      O 1019   0.063   1.511   0.869
  144SOL     H1 1020   0.095   1.515   0.960
  144SOL     H2 1021  -0.032   1.519   0.877
  144SOL    EPW 1022   0.055   1.514   0.882
  145SOL      O 1023   0.018   0.637   0.416
  145SOL     H1 1024  -0.042   0.609   0.486
  145SOL     H2 1025   0.092   0.577   0.422
  145SOL    EPW 1026   0.020   0.626   0.425
  146SOL      O 1027   1.586   1.849   1.850
  146SOL     H1 1028   1.631   1.773   1.815
  146SOL     H2 1029   1.624   1.862   1.937
  146SOL    EPW 1030   1.596   1.842   1.856
  147SOL      O 1031   1.186   1.368   0.576
  147SOL     H1 1032   1.209   1.319   0.654
  147SOL     H2 1033   1.267   1.410   0.548
  147SOL    EPW 1034   1.199   1.368   0.583
  148SOL      O 1035   0.444   0.376   1.305
  148SOL     H1 1036   0.477   0.457   1.345
  148SOL     H2 1037   0.417   0.402   1.217
  148SOL    EPW 1038   0.443   0.390   1.299
  149SOL      O 1039   0.398   0.343   1.041
  149SOL     H1 1040   0.428   0.257   1.012
  149SOL     H2 1041   0.303   0.336   1.044
  149SOL    EPW 1042   0.390   0.332   1.039
  150SOL      O 1043   1.227   0.552   1.732
  150SOL     H1 1044   1.279   0.487   1.685
  150SOL     H2 1045   1.185   0.603   1.662
  150SOL    EPW 1046   1.228   0.549   1.715
  151SOL      O 1047   1.326   0.347   1.593
  151SOL     H1 1048   1.233   0.331   1.580
  151SOL     H2 1049   1.352   0.285   1.661
  151SOL    EPW 1050   1.316   0.337   1.600
  152SOL      O 1051   0.541   0.121   0.932
  152SOL     H1 1052   0.551   0.030   0.958
  152SOL     H2 1053   0.497   0.117   0.847
  152SOL    EPW 1054   0.537   0.109   0.924
  153SOL      O 1055   0.635   1.736   1.478
  153SOL     H1 1056   0.552   1.721   1.523
  153SOL     H2 1057   0.694   1.669   1.513
  153SOL    EPW 1058   0.633   1.726   1.488
  154SOL      O 1059   1.692   0.443   1.103
  154SOL     H1 1060   1.625   0.476   1.163
  154SOL     H2 1061   1.735   0.521   1.069
  154SOL    EPW 1062   1.690   0.458   1.107
  155SOL      O 1063   1.870   1.163   1.073
  155SOL     H1 1064   1.863   1.103   0.998
  155SOL     H2 1065   1.796   1.223   1.062
  155SOL    EPW 1066   1.860   1.163   1.062
  156SOL      O 1067   1.252   1.025   0.991
  156SOL     H1 1068   1.266   0.997   1.082
  156SOL     H2 1069   1.338   1.056   0.963
  156SOL    EPW 1070   1.265   1.026   1.000
  157SOL      O 1071   1.335   0.520   1.270
  157SOL     H1 1072   1.356   0.521   1.177
  157SOL     H2 1073   1.380   0.442   1.303
  157SOL    EPW 1074   1.342   0.510   1.262
  158SOL      O 1075   1.828   0.651   1.812
  158SOL     H1 1076   1.865   0.596   1.881
  158SOL     H2 1077   1.853   0.608   1.730
  158SOL    EPW 1078   1.835   0.639   1.811
  159SOL      O 1079   1.375   0.949   1.863
  159SOL     H1 1080   1.441   0.897   1.817
  159SOL     H2 1081   1.395   0.936   1.956
  159SOL    EPW 1082   1.386   0.940   1.870
  160SOL      O 1083   1.326   0.035   0.212
  160SOL     H1 1084   1.400   0.079   0.255
  160SOL     H2 1085   1.250   0.089   0.234
  160SOL    EPW 1086   1.326   0.047   0.220
  161SOL      O 1087   1.386   0.810   0.490
  161SOL     H1 1088   1.301   0.780   0.460
  161SOL     H2 1089   1.378   0.817   0.585
  161SOL    EPW 1090   1.374   0.808   0.499
  162SOL      O 1091   0.462   1.273   1.221
  162SOL     H1 1092   0.474   1.300   1.312
  162SOL     H2 1093   0.443   1.354   1.174
  162SOL    EPW 1094   0.461   1.288   1.226
  163SOL      O 1095   0.746   0.253   1.044
  163SOL     H1 1096   0.719   0.255   1.135
  163SOL     H2 1097   0.676   0.205   0.999
  163SOL    EPW 1098   0.734   0.249   1.051
  164SOL      O 1099   0.600   1.745   1.206
  164SOL     H1 1100   0.652   1.822   1.183
  164SOL     H2 1101   0.609   1.737   1.301
  164SOL    EPW 1102   0.609   1.752   1.217
  165SOL      O 1103   1.502   1.330   1.438
  165SOL     H1 1104   1.487   1.259   1.501
  165SOL     H2 1105   1.548   1.288   1.366
  165SOL    EPW 1106   1.508   1.314   1.438
  166SOL      O 1107   0.576   1.061   1.555
  166SOL     H1 1108   0.613   1.066   1.467
  166SOL     H2 1109   0.615   1.134   1.602
  166SOL    EPW 1110   0.586   1.071   1.550
  167SOL      O 1111   0.756   1.104   1.367
  167SOL     H1 1112   0.815   1.050   1.420
  167SOL     H2 1113   0.771   1.076   1.277
  167SOL    EPW 1114   0.766   1.093   1.363
  168SOL      O 1115   0.759   0.476   0.216
  168SOL     H1 1116   0.832   0.525   0.179
  168SOL     H2 1117   0.775   0.385   0.190
  168SOL    EPW 1118   0.771   0.471   0.209
  169SOL      O 1119   1.567   1.593   1.539
  169SOL     H1 1120   1.609   1.578   1.624
  169SOL     H2 1121   1.558   1.506   1.501
  169SOL    EPW 1122   1.571   1.581   1.546
  170SOL      O 1123   1.227   0.072   1.130
  170SOL     H1 1124   1.282   0.081   1.052
  170SOL     H2 1125   1.282   0.106   1.201
  170SOL    EPW 1126   1.241   0.077   1.129
  171SOL      O 1127   0.234   0.985   0.314
  171SOL     H1 1128   0.171   1.001   0.243
  171SOL     H2 1129   0.181   0.948   0.385
  171SOL    EPW 1130   0.219   0.982   0.314
  172SOL      O 1131   0.590   1.339   0.173
  172SOL     H1 1132   0.605   1.315   0.265
  172SOL     H2 1133   0.498   1.317   0.157
  172SOL    EPW 1134   0.580   1.332   0.183
  173SOL      O 1135   1.129   1.570   0.325
  173SOL     H1 1136   1.137   1.488   0.276
  173SOL     H2 1137   1.048   1.609   0.292
  173SOL    EPW 1138   1.119   1.565   0.315
  174SOL      O 1139   0.388   1.728   0.894
  174SOL     H1 1140   0.392   1.639   0.929
  174SOL     H2 1141   0.414   1.719   0.803
  174SOL    EPW 1142   0.391   1.716   0.886
  175SOL      O 1143   1.005   1.206   1.137
  175SOL     H1 1144   0.937   1.140   1.153
  175SOL     H2 1145   1.023   1.200   1.044
  175SOL    EPW 1146   0.998   1.197   1.128
  176SOL      O 1147   0.094   1.481   1.388
  176SOL     H1 1148   0.084   1.439   1.474
  176SOL     H2 1149   0.015   1.534   1.378
  176SOL    EPW 1150   0.083   1.482   1.399
  177SOL      O 1151   0.998   0.345   0.958
  177SOL     H1 1152   0.928   0.297   1.003
  177SOL     H2 1153   1.030   0.408   1.022
  177SOL    EPW 1154   0.993   0.347   0.972
  178SOL      O 1155   0.649   0.781   1.578
  178SOL     H1 1156   0.642   0.876   1.566
  178SOL     H2 1157   0.658   0.770   1.673
  178SOL    EPW 1158   0.650   0.793   1.588
  179SOL      O 1159   0.370   1.296   1.836
  179SOL     H1 1160   0.442   1.298   1.773
  179SOL     H2 1161   0.340   1.205   1.835
  179SOL    EPW 1162   0.375   1.285   1.828
  180SOL      O 1163   1.454   0.059   1.303
  180SOL     H1 1164   1.525   0.005   1.267
  180SOL     H2 1165   1.453   0.038   1.396
  180SOL    EPW 1166   1.463   0.050   1.311
  181SOL      O 1167   1.654   1.589   1.787
  181SOL     H1 1168   1.627   1.586   1.878
  181SOL     H2 1169   1.750   1.593   1.790
  181SOL    EPW 1170   1.664   1.589   1.799
  182SOL      O 1171   0.465   0.451   0.771
  182SOL     H1 1172   0.536   0.399   0.734
  182SOL     H2 1173   0.451   0.416   0.858
  182SOL    EPW 1174   0.473   0.440   0.778
  183SOL      O 1175   0.020   1.786   1.843
  183SOL     H1 1176   0.070   1.764   1.765
  183SOL     H2 1177   0.028   1.881   1.851
  183SOL    EPW 1178   0.028   1.795   1.834
  184SOL      O 1179   0.781   1.544   0.847
  184SOL     H1 1180   0.709   1.481   0.860
  184SOL     H2 1181   0.742   1.629   0.865
  184SOL    EPW 1182   0.765   1.547   0.850
  185SOL      O 1183   1.101   0.392   0.495
  185SOL     H1 1184   1.123   0.329   0.427
  185SOL     H2 1185   1.006   0.384   0.506
  185SOL    EPW 1186   1.091   0.383   0.487
  186SOL      O 1187   0.186   0.082   0.427
  186SOL     H1 1188   0.257   0.103   0.366
  186SOL     H2 1189   0.140   0.010   0.385
  186SOL    EPW 1190   0.190   0.076   0.413
  187SOL      O 1191   0.017   0.549   1.570
  187SOL     H1 1192   0.081   0.615   1.545
  187SOL     H2 1193  -0.064   0.576   1.527
  187SOL    EPW 1194   0.015   0.561   1.562
  188SOL      O 1195   1.755   1.456   0.527
  188SOL     H1 1196   1.725   1.389   0.588
  188SOL     H2 1197   1.849   1.462   0.541
  188SOL    EPW 1198   1.763   1.448   0.537
  189SOL      O 1199   1.311   1.133   0.457
  189SOL     H1 1200   1.283   1.219   0.490
  189SOL     H2 1201   1.339   1.149   0.367
  189SOL    EPW 1202   1.311   1.147   0.449
  190SOL      O 1203   0.973   0.053   0.510
  190SOL     H1 1204   1.010   0.112   0.575
  190SOL     H2 1205   0.950   0.109   0.436
  190SOL    EPW 1206   0.974   0.068   0.509
  191SOL      O 1207   1.826   0.935   0.932
  191SOL     H1 1208   1.817   0.967   0.843
  191SOL     H2 1209   1.779   0.851   0.932
  191SOL    EPW 1210   1.819   0.928   0.922
  192SOL      O 1211   0.202   0.775   1.511
  192SOL     H1 1212   0.223   0.844   1.449
  192SOL     H2 1213   0.282   0.722   1.516
  192SOL    EPW 1214   0.215   0.776   1.505
  193SOL      O 1215   1.738   0.866   0.633
  193SOL     H1 1216   1.832   0.855   0.621
  193SOL     H2 1217   1.714   0.938   0.574
  193SOL    EPW 1218   1.748   0.874   0.624
  194SOL      O 1219   0.187   0.790   1.778
  194SOL     H1 1220   0.113   0.734   1.804
  194SOL     H2 1221   0.182   0.793   1.683
  194SOL    EPW 1222   0.176   0.783   1.768
  195SOL      O 1223   0.353   0.077   1.228
  195SOL     H1 1224   0.396   0.161   1.248
  195SOL     H2 1225   0.426   0.015   1.221
  195SOL    EPW 1226   0.368   0.080   1.229
  196SOL      O 1227   0.394   0.744   0.406
  196SOL     H1 1228   0.394   0.839   0.391
  196SOL     H2 1229   0.471   0.728   0.460
  196SOL    EPW 1230   0.404   0.755   0.411
  197SOL      O 1231   1.170   0.603   1.470
  197SOL     H1 1232   1.206   0.576   1.386
  197SOL     H2 1233   1.083   0.637   1.449
  197SOL    EPW 1234   1.164   0.604   1.457
  198SOL      O 1235   0.153   0.475   0.695
  198SOL     H1 1236   0.215   0.482   0.768
  198SOL     H2 1237   0.153   0.382   0.672
  198SOL    EPW 1238   0.161   0.464   0.702
  199SOL      O 1239   1.700   1.815   0.227
  199SOL     H1 1240   1.767   1.848   0.167
  199SOL     H2 1241   1.657   1.894   0.261
  199SOL    EPW 1242   1.702   1.830   0.223
  200SOL      O 1243   0.835   0.736   1.179
  200SOL     H1 1244   0.793   0.654   1.155
  200SOL     H2 1245   0.836   0.735   1.275
  200SOL    EPW 1246   0.828   0.725   1.188
  201SOL      O 1247   1.506   1.869   1.578
  201SOL     H1 1248   1.509   1.775   1.561
  201SOL     H2 1249   1.529   1.877   1.670
  201SOL    EPW 1250   1.509   1.857   1.588
  202SOL      O 1251   0.639   0.206   1.284
  202SOL     H1 1252   0.570   0.269   1.305
  202SOL     H2 1253   0.666   0.170   1.369
  202SOL    EPW 1254   0.633   0.209   1.297
  203SOL      O 1255   0.022   1.047   0.153
  203SOL     H1 1256  -0.009   1.112   0.216
  203SOL     H2 1257  -0.029   0.969   0.172
  203SOL    EPW 1258   0.012   1.044   0.163
  204SOL      O 1259   1.434   0.059   0.901
  204SOL     H1 1260   1.522   0.068   0.938
  204SOL     H2 1261   1.444   0.000   0.827
  204SOL    EPW 1262   1.448   0.053   0.895
  205SOL      O 1263   1.466   0.798   0.745
  205SOL     H1 1264   1.546   0.813   0.694
  205SOL     H2 1265   1.459   0.703   0.751
  205SOL    EPW 1266   1.475   0.787   0.740
  206SOL      O 1267   0.606   1.847   0.095
  206SOL     H1 1268   0.511   1.847   0.087
  206SOL     H2 1269   0.622   1.793   0.173
  206SOL    EPW 1270   0.596   1.841   0.104
  207SOL      O 1271   0.916   0.724   1.442
  207SOL     H1 1272   0.985   0.791   1.439
  207SOL     H2 1273   0.849   0.762   1.498
  207SOL    EPW 1274   0.917   0.737   1.449
  208SOL      O 1275   0.334   1.024   1.690
  208SOL     H1 1276   0.288   0.940   1.692
  208SOL     H2 1277   0.391   1.018   1.614
  208SOL    EPW 1278   0.336   1.012   1.682
  209SOL      O 1279   1.451   0.667   0.011
  209SOL     H1 1280   1.379   0.643  -0.047
  209SOL     H2 1281   1.517   0.704  -0.047
  209SOL    EPW 1282   1.450   0.669  -0.004
  210SOL      O 1283   0.585   1.399   0.691
  210SOL     H1 1284   0.650   1.332   0.712
  210SOL     H2 1285   0.637   1.476   0.668
  210SOL    EPW 1286   0.600   1.401   0.690
  211SOL      O 1287   0.846   0.564   0.821
  211SOL     H1 1288   0.786   0.582   0.893
  211SOL     H2 1289   0.880   0.476   0.840
  211SOL    EPW 1290   0.842   0.554   0.834
  212SOL      O 1291   1.787   0.063   1.490
  212SOL     H1 1292   1.708   0.109   1.518
  212SOL     H2 1293   1.822   0.117   1.419
  212SOL    EPW 1294   1.781   0.076   1.484
  213SOL      O 1295   1.071   1.147   0.840
  213SOL     H1 1296   1.163   1.128   0.858
  213SOL     H2 1297   1.044   1.077   0.780
  213SOL    EPW 1298   1.079   1.135   0.834
  214SOL      O 1299   0.864   0.967   0.195
  214SOL     H1 1300   0.850   0.879   0.160
  214SOL     H2 1301   0.815   1.024   0.136
  214SOL    EPW 1302   0.856   0.962   0.183
  215SOL      O 1303   1.345   1.385   0.936
  215SOL     H1 1304   1.318   1.469   0.901
  215SOL     H2 1305   1.305   1.380   1.023
  215SOL    EPW 1306   1.338   1.394   0.942
  216SOL      O 1307   1.264   1.333   1.204
  216SOL     H1 1308   1.275   1.300   1.293
  216SOL     H2 1309   1.183   1.292   1.173
  216SOL    EPW 1310   1.254   1.325   1.210
  217SOL      O 1311   0.277   0.691   0.974
  217SOL     H1 1312   0.227   0.690   1.055
  217SOL     H2 1313   0.297   0.783   0.958
  217SOL    EPW 1314   0.273   0.703   0.982
  218SOL      O 1315   1.344   1.455   1.736
  218SOL     H1 1316   1.344   1.549   1.752
  218SOL     H2 1317   1.389   1.445   1.652
  218SOL    EPW 1318   1.350   1.465   1.727
  219SOL      O 1319   1.583   0.173   0.297
  219SOL     H1 1320   1.576   0.177   0.392
  219SOL     H2 1321   1.595   0.264   0.270
  219SOL    EPW 1322   1.584   0.186   0.305
  220SOL      O 1323   0.872   0.736   0.411
  220SOL     H1 1324   0.852   0.722   0.318
  220SOL     H2 1325   0.965   0.715   0.418
  220SOL    EPW 1326   0.882   0.731   0.400
  221SOL      O 1327   0.199   0.359   1.715
  221SOL     H1 1328   0.156   0.418   1.652
  221SOL     H2 1329   0.267   0.414   1.755
  221SOL    EPW 1330   0.203   0.374   1.712
  222SOL      O 1331   1.311   0.979   1.260
  222SOL     H1 1332   1.374   0.976   1.333
  222SOL     H2 1333   1.227   0.997   1.302
  222SOL    EPW 1334   1.307   0.981   1.275
  223SOL      O 1335   0.855   1.694   0.449
  223SOL     H1 1336   0.913   1.765   0.476
  223SOL     H2 1337   0.878   1.622   0.507
  223SOL    EPW 1338   0.866   1.694   0.460
  224SOL      O 1339   1.650   0.156   1.039
  224SOL     H1 1340   1.695   0.074   1.058
  224SOL     H2 1341   1.670   0.212   1.115
  224SOL    EPW 1342   1.660   0.152   1.051
  225SOL      O 1343   0.098  -0.001   1.138
  225SOL     H1 1344   0.089   0.000   1.043
  225SOL     H2 1345   0.192   0.011   1.153
  225SOL    EPW 1346   0.110   0.002   1.129
  226SOL      O 1347   1.735   1.192   0.758
  226SOL     H1 1348   1.714   1.138   0.681
  226SOL     H2 1349   1.831   1.190   0.762
  226SOL    EPW 1350   1.744   1.185   0.747
  227SOL      O 1351   0.427   1.337   1.501
  227SOL     H1 1352   0.348   1.287   1.524
  227SOL     H2 1353   0.497   1.296   1.551
  227SOL    EPW 1354   0.425   1.325   1.511
  228SOL      O 1355   0.311   0.126   0.184
  228SOL     H1 1356   0.240   0.181   0.152
  228SOL     H2 1357   0.353   0.092   0.105
  228SOL    EPW 1358   0.307   0.128   0.170
  229SOL      O 1359   0.067   0.225   0.033
  229SOL     H1 1360   0.034   0.304   0.077
  229SOL     H2 1361   0.122   0.258  -0.038
  229SOL    EPW 1362   0.070   0.239   0.030
  230SOL      O 1363   0.101   1.482   0.222
  230SOL     H1 1364   0.118   1.566   0.264
  230SOL     H2 1365   0.136   1.491   0.134
  230SOL    EPW 1366   0.106   1.495   0.216
  231SOL      O 1367   1.373   1.571   0.439
  231SOL     H1 1368   1.436   1.561   0.368
  231SOL     H2 1369   1.290   1.591   0.394
  231SOL    EPW 1370   1.370   1.572   0.424
  232SOL      O 1371   1.736   0.839   2.125
  232SOL     H1 1372   1.777   0.781   2.190
  232SOL     H2 1373   1.643   0.831   2.142
  232SOL    EPW 1374   1.730   0.831   2.135
  233SOL      O 1375   1.602   0.771   3.120
  233SOL     H1 1376   1.557   0.838   3.171
  233SOL     H2 1377   1.690   0.807   3.106
  233SOL    EPW 1378   1.608   0.784   3.124
  234SOL      O 1379   0.530   1.022   2.354
  234SOL     H1 1380   0.620   0.997   2.338
  234SOL     H2 1381   0.526   1.115   2.331
  234SOL    EPW 1382   0.542   1.031   2.349
  235SOL      O 1383   1.646   1.725   2.496
  235SOL     H1 1384   1.658   1.671   2.574
  235SOL     H2 1385   1.683   1.673   2.425
  235SOL    EPW 1386   1.652   1.710   2.497
  236SOL      O 1387   1.025   1.610   3.497
  236SOL     H1 1388   1.066   1.646   3.418
  236SOL     H2 1389   1.060   1.521   3.504
  236SOL    EPW 1390   1.036   1.603   3.488
  237SOL      O 1391   1.582   1.165   3.101
  237SOL     H1 1392   1.503   1.130   3.059
  237SOL     H2 1393   1.609   1.237   3.045
  237SOL    EPW 1394   1.575   1.170   3.088
  238SOL      O 1395   0.814   0.478   2.367
  238SOL     H1 1396   0.789   0.566   2.395
  238SOL     H2 1397   0.811   0.481   2.271
  238SOL    EPW 1398   0.810   0.490   2.359
  239SOL      O 1399   0.256   0.506   2.295
  239SOL     H1 1400   0.288   0.594   2.277
  239SOL     H2 1401   0.244   0.504   2.390
  239SOL    EPW 1402   0.259   0.518   2.307
  240SOL      O 1403   0.334   0.919   3.196
  240SOL     H1 1404   0.397   0.866   3.147
  240SOL     H2 1405   0.315   0.993   3.139
  240SOL    EPW 1406   0.340   0.921   3.183
  241SOL      O 1407   0.655   0.261   2.382
  241SOL     H1 1408   0.713   0.337   2.384
  241SOL     H2 1409   0.590   0.282   2.315
  241SOL    EPW 1410   0.654   0.273   2.373
  242SOL      O 1411   0.742   1.188   2.557
  242SOL     H1 1412   0.822   1.191   2.609
  242SOL     H2 1413   0.770   1.155   2.471
  242SOL    EPW 1414   0.756   1.184   2.552
  243SOL      O 1415   0.767   1.529   3.460
  243SOL     H1 1416   0.851   1.555   3.499
  243SOL     H2 1417   0.791   1.473   3.386
  243SOL    EPW 1418   0.781   1.525   3.455
  244SOL      O 1419   0.519   0.692   2.548
  244SOL     H1 1420   0.504   0.612   2.599
  244SOL     H2 1421   0.601   0.727   2.582
  244SOL    EPW 1422   0.527   0.684   2.560
  245SOL      O 1423   0.856   1.378   3.233
  245SOL     H1 1424   0.820   1.444   3.173
  245SOL     H2 1425   0.784   1.316   3.246
  245SOL    EPW 1426   0.842   1.378   3.227
  246SOL      O 1427   0.661   0.518   2.925
  246SOL     H1 1428   0.567   0.514   2.943
  246SOL     H2 1429   0.691   0.427   2.934
  246SOL    EPW 1430   0.652   0.506   2.928
  247SOL      O 1431   0.407   0.932   2.829
  247SOL     H1 1432   0.362   0.939   2.745
  247SOL     H2 1433   0.387   1.015   2.873
  247SOL    EPW 1434   0.399   0.944   2.823
  248SOL      O 1435   0.104   1.778   2.704
  248SOL     H1 1436   0.193   1.770   2.739
  248SOL     H2 1437   0.068   1.690   2.709
  248SOL    EPW 1438   0.111   1.765   2.709
  249SOL      O 1439   1.369   1.170   2.073
  249SOL     H1 1440   1.287   1.206   2.039
  249SOL     H2 1441   1.437   1.213   2.022
  249SOL    EPW 1442   1.367   1.180   2.061
  250SOL      O 1443   0.368   1.305   2.739
  250SOL     H1 1444   0.344   1.358   2.815
  250SOL     H2 1445   0.424   1.363   2.687
  250SOL    EPW 1446   0.372   1.320   2.742
  251SOL      O 1447   0.930   0.949   2.549
  251SOL     H1 1448   0.844   0.936   2.589
  251SOL     H2 1449   0.983   0.876   2.581
  251SOL    EPW 1450   0.926   0.938   2.558
  252SOL      O 1451   0.338   1.601   3.334
  252SOL     H1 1452   0.246   1.577   3.319
  252SOL     H2 1453   0.382   1.518   3.351
  252SOL    EPW 1454   0.332   1.586   3.333
  253SOL      O 1455   0.921   1.311   2.266
  253SOL     H1 1456   0.898   1.373   2.334
  253SOL     H2 1457   0.878   1.229   2.292
  253SOL    EPW 1458   0.913   1.307   2.277
  254SOL      O 1459   1.794   0.312   2.722
  254SOL     H1 1460   1.731   0.292   2.791
  254SOL     H2 1461   1.784   0.241   2.659
  254SOL    EPW 1462   1.784   0.299   2.723
  255SOL      O 1463   0.418   0.284   2.234
  255SOL     H1 1464   0.392   0.246   2.150
  255SOL     H2 1465   0.355   0.354   2.250
  255SOL    EPW 1466   0.407   0.287   2.225
  256SOL      O 1467   0.253   1.245   2.271
  256SOL     H1 1468   0.201   1.313   2.227
  256SOL     H2 1469   0.250   1.171   2.211
  256SOL    EPW 1470   0.245   1.244   2.258
  257SOL      O 1471   0.915   1.708   2.049
  257SOL     H1 1472   0.870   1.724   2.132
  257SOL     H2 1473   0.846   1.673   1.991
  257SOL    EPW 1474   0.901   1.705   2.051
  258SOL      O 1475   1.850   0.481   2.024
  258SOL     H1 1476   1.759   0.483   2.052
  258SOL     H2 1477   1.895   0.543   2.082
  258SOL    EPW 1478   1.843   0.489   2.034
  259SOL      O 1479   1.595   1.084   2.374
  259SOL     H1 1480   1.505   1.084   2.409
  259SOL     H2 1481   1.588   1.130   2.291
  259SOL    EPW 1482   1.582   1.090   2.368
  260SOL      O 1483   1.395   0.719   3.446
  260SOL     H1 1484   1.464   0.657   3.423
  260SOL     H2 1485   1.320   0.693   3.393
  260SOL    EPW 1486   1.395   0.706   3.437
  261SOL      O 1487   0.136   1.599   2.998
  261SOL     H1 1488   0.119   1.545   3.075
  261SOL     H2 1489   0.124   1.689   3.028
  261SOL    EPW 1490   0.133   1.603   3.012
  262SOL      O 1491   1.131   1.106   3.438
  262SOL     H1 1492   1.116   1.199   3.423
  262SOL     H2 1493   1.226   1.096   3.438
  262SOL    EPW 1494   1.140   1.116   3.435
  263SOL      O 1495   0.927   0.530   3.639
  263SOL     H1 1496   1.017   0.531   3.606
  263SOL     H2 1497   0.886   0.455   3.597
  263SOL    EPW 1498   0.933   0.520   3.630
  264SOL      O 1499   1.502   1.062   2.766
  264SOL     H1 1500   1.505   0.996   2.697
  264SOL     H2 1501   1.587   1.105   2.762
  264SOL    EPW 1502   1.514   1.058   2.757
  265SOL      O 1503   1.122   0.665   2.335
  265SOL     H1 1504   1.148   0.689   2.246
  265SOL     H2 1505   1.104   0.572   2.331
  265SOL    EPW 1506   1.124   0.657   2.322
  266SOL      O 1507   1.787   1.285   2.186
  266SOL     H1 1508   1.743   1.326   2.261
  266SOL     H2 1509   1.844   1.353   2.151
  266SOL    EPW 1510   1.789   1.299   2.191
  267SOL      O 1511   0.707   0.334   3.589
  267SOL     H1 1512   0.717   0.260   3.529
  267SOL     H2 1513   0.743   0.303   3.672
  267SOL    EPW 1514   0.713   0.320   3.591
  268SOL      O 1515   0.443   1.701   2.504
  268SOL     H1 1516   0.475   1.789   2.482
  268SOL     H2 1517   0.396   1.673   2.426
  268SOL    EPW 1518   0.442   1.709   2.491
  269SOL      O 1519   1.827   0.063   2.553
  269SOL     H1 1520   1.881   0.014   2.615
  269SOL     H2 1521   1.770  -0.003   2.514
  269SOL    EPW 1522   1.827   0.047   2.555
  270SOL      O 1523   0.159   1.761   2.081
  270SOL     H1 1524   0.188   1.851   2.073
  270SOL     H2 1525   0.109   1.744   2.002
  270SOL    EPW 1526   0.157   1.769   2.070
  271SOL      O 1527   0.946   0.016   2.966
  271SOL     H1 1528   0.905   0.094   2.928
  271SOL     H2 1529   1.040   0.034   2.961
  271SOL    EPW 1530   0.952   0.028   2.961
  272SOL      O 1531   1.563   1.569   2.052
  272SOL     H1 1532   1.611   1.638   2.098
  272SOL     H2 1533   1.484   1.613   2.021
  272SOL    EPW 1534   1.558   1.583   2.055
  273SOL      O 1535   0.961   0.694   1.996
  273SOL     H1 1536   0.963   0.641   1.917
  273SOL     H2 1537   1.049   0.731   2.002
  273SOL    EPW 1538   0.973   0.693   1.985
  274SOL      O 1539   1.575   0.620   2.332
  274SOL     H1 1540   1.614   0.620   2.419
  274SOL     H2 1541   1.516   0.696   2.332
  274SOL    EPW 1542   1.572   0.631   2.343
  275SOL      O 1543   0.892   0.987   3.461
  275SOL     H1 1544   0.869   0.967   3.551
  275SOL     H2 1545   0.977   1.031   3.466
  275SOL    EPW 1546   0.899   0.990   3.473
  276SOL      O 1547   0.972   0.124   3.221
  276SOL     H1 1548   0.978   0.086   3.134
  276SOL     H2 1549   0.961   0.218   3.206
  276SOL    EPW 1550   0.973   0.132   3.209
  277SOL      O 1551   1.061   0.613   3.055
  277SOL     H1 1552   1.136   0.642   3.002
  277SOL     H2 1553   0.993   0.678   3.039
  277SOL    EPW 1554   1.062   0.625   3.045
  278SOL      O 1555   1.611   0.581   3.332
  278SOL     H1 1556   1.592   0.490   3.311
  278SOL     H2 1557   1.589   0.630   3.253
  278SOL    EPW 1558   1.606   0.574   3.319
  279SOL      O 1559   1.753   1.675   3.236
  279SOL     H1 1560   1.681   1.637   3.287
  279SOL     H2 1561   1.770   1.760   3.277
  279SOL    EPW 1562   1.747   1.680   3.248
  280SOL      O 1563   1.058   0.319   3.438
  280SOL     H1 1564   1.024   0.358   3.357
  280SOL     H2 1565   1.036   0.227   3.431
  280SOL    EPW 1566   1.051   0.312   3.428
  281SOL      O 1567   1.467   1.133   3.514
  281SOL     H1 1568   1.549   1.174   3.544
  281SOL     H2 1569   1.430   1.095   3.594
  281SOL    EPW 1570   1.473   1.134   3.529
  282SOL      O 1571   1.762   0.506   2.498
  282SOL     H1 1572   1.851   0.475   2.515
  282SOL     H2 1573   1.705   0.446   2.546
  282SOL    EPW 1574   1.765   0.494   2.507
  283SOL      O 1575   0.188   0.220   2.527
  283SOL     H1 1576   0.179   0.160   2.453
  283SOL     H2 1577   0.121   0.191   2.590
  283SOL    EPW 1578   0.178   0.207   2.525
  284SOL      O 1579   1.131   1.313   2.088
  284SOL     H1 1580   1.081   1.315   2.170
  284SOL     H2 1581   1.065   1.331   2.020
  284SOL    EPW 1582   1.117   1.315   2.090
  285SOL      O 1583   0.135   0.393   2.890
  285SOL     H1 1584   0.107   0.484   2.899
  285SOL     H2 1585   0.072   0.354   2.829
  285SOL    EPW 1586   0.122   0.399   2.884
  286SOL      O 1587   0.594   1.731   2.196
  286SOL     H1 1588   0.515   1.689   2.229
  286SOL     H2 1589   0.660   1.714   2.263
  286SOL    EPW 1590   0.593   1.723   2.209
  287SOL      O 1591   1.722   1.251   3.593
  287SOL     H1 1592   1.772   1.177   3.625
  287SOL     H2 1593   1.668   1.278   3.668
  287SOL    EPW 1594   1.722   1.245   3.606
  288SOL      O 1595   0.730   1.146   1.903
  288SOL     H1 1596   0.652   1.092   1.890
  288SOL     H2 1597   0.701   1.219   1.956
  288SOL    EPW 1598   0.716   1.148   1.908
  289SOL      O 1599   1.856   0.886   3.095
  289SOL     H1 1600   1.872   0.924   3.008
  289SOL     H2 1601   1.890   0.952   3.156
  289SOL    EPW 1602   1.863   0.899   3.091
  290SOL      O 1603   1.648   1.595   2.764
  290SOL     H1 1604   1.677   1.662   2.825
  290SOL     H2 1605   1.629   1.519   2.819
  290SOL    EPW 1606   1.650   1.595   2.779
  291SOL      O 1607   1.311   1.662   1.971
  291SOL     H1 1608   1.237   1.625   2.021
  291SOL     H2 1609   1.319   1.752   2.004
  291SOL    EPW 1610   1.302   1.669   1.983
  292SOL      O 1611   0.119   0.668   3.060
  292SOL     H1 1612   0.181   0.698   3.126
  292SOL     H2 1613   0.053   0.737   3.054
  292SOL    EPW 1614   0.118   0.681   3.067
  293SOL      O 1615   1.535   1.336   1.913
  293SOL     H1 1616   1.482   1.385   1.849
  293SOL     H2 1617   1.566   1.402   1.974
  293SOL    EPW 1618   1.533   1.350   1.911
  294SOL      O 1619   0.760   0.225   1.968
  294SOL     H1 1620   0.708   0.145   1.956
  294SOL     H2 1621   0.847   0.202   1.936
  294SOL    EPW 1622   0.763   0.211   1.962
  295SOL      O 1623   0.214   1.777   3.512
  295SOL     H1 1624   0.188   1.845   3.450
  295SOL     H2 1625   0.262   1.714   3.460
  295SOL    EPW 1626   0.216   1.777   3.498
  296SOL      O 1627   0.266   1.096   3.019
  296SOL     H1 1628   0.319   1.171   3.044
  296SOL     H2 1629   0.185   1.134   2.985
  296SOL    EPW 1630   0.262   1.111   3.019
  297SOL      O 1631   0.806   1.000   3.007
  297SOL     H1 1632   0.834   0.909   3.019
  297SOL     H2 1633   0.735   0.994   2.943
  297SOL    EPW 1634   0.799   0.988   3.002
  298SOL      O 1635   0.121   0.865   2.425
  298SOL     H1 1636   0.212   0.880   2.452
  298SOL     H2 1637   0.124   0.786   2.371
  298SOL    EPW 1638   0.133   0.857   2.423
  299SOL      O 1639   0.357   0.573   3.679
  299SOL     H1 1640   0.304   0.653   3.686
  299SOL     H2 1641   0.427   0.585   3.744
  299SOL    EPW 1642   0.359   0.586   3.687
  300SOL      O 1643   0.743   0.123   3.386
  300SOL     H1 1644   0.720   0.031   3.388
  300SOL     H2 1645   0.829   0.125   3.343
  300SOL    EPW 1646   0.750   0.113   3.382
  301SOL      O 1647   0.427   0.647   3.425
  301SOL     H1 1648   0.507   0.697   3.411
  301SOL     H2 1649   0.418   0.641   3.520
  301SOL    EPW 1650   0.436   0.653   3.435
  302SOL      O 1651   0.748   1.797   2.799
  302SOL     H1 1652   0.837   1.812   2.829
  302SOL     H2 1653   0.743   1.844   2.715
  302SOL    EPW 1654   0.758   1.805   2.792
  303SOL      O 1655   1.404   0.172   3.696
  303SOL     H1 1656   1.460   0.099   3.722
  303SOL     H2 1657   1.374   0.210   3.778
  303SOL    EPW 1658   1.408   0.167   3.709
  304SOL      O 1659   0.129   1.477   2.464
  304SOL     H1 1660   0.101   1.516   2.546
  304SOL     H2 1661   0.149   1.386   2.486
  304SOL    EPW 1662   0.127   1.469   2.477
  305SOL      O 1663   0.962   1.520   2.499
  305SOL     H1 1664   1.045   1.474   2.483
  305SOL     H2 1665   0.952   1.519   2.595
  305SOL    EPW 1666   0.972   1.513   2.509
  306SOL      O 1667   1.794   0.665   2.813
  306SOL     H1 1668   1.883   0.695   2.795
  306SOL     H2 1669   1.774   0.605   2.742
  306SOL    EPW 1670   1.803   0.662   2.802
  307SOL      O 1671   1.645   0.844   3.693
  307SOL     H1 1672   1.700   0.768   3.674
  307SOL     H2 1673   1.647   0.852   3.788
  307SOL    EPW 1674   1.653   0.835   3.701
  308SOL      O 1675   0.695   1.577   1.904
  308SOL     H1 1676   0.635   1.646   1.874
  308SOL     H2 1677   0.640   1.519   1.957
  308SOL    EPW 1678   0.679   1.579   1.906
  309SOL      O 1679   1.133   0.222   2.127
  309SOL     H1 1680   1.066   0.198   2.064
  309SOL     H2 1681   1.198   0.271   2.076
  309SOL    EPW 1682   1.133   0.224   2.112
  310SOL      O 1683   0.940   0.406   3.212
  310SOL     H1 1684   0.859   0.447   3.240
  310SOL     H2 1685   0.987   0.474   3.164
  310SOL    EPW 1686   0.935   0.421   3.210
  311SOL      O 1687   0.652   0.939   2.639
  311SOL     H1 1688   0.563   0.930   2.672
  311SOL     H2 1689   0.656   1.029   2.607
  311SOL    EPW 1690   0.641   0.950   2.639
  312SOL      O 1691   1.451   0.522   2.634
  312SOL     H1 1692   1.396   0.443   2.633
  312SOL     H2 1693   1.433   0.563   2.718
  312SOL    EPW 1694   1.441   0.517   2.643
  313SOL      O 1695   0.422   0.209   3.451
  313SOL     H1 1696   0.343   0.227   3.503
  313SOL     H2 1697   0.417   0.271   3.378
  313SOL    EPW 1698   0.412   0.219   3.448
  314SOL      O 1699   1.070   0.726   2.591
  314SOL     H1 1700   1.007   0.658   2.615
  314SOL     H2 1701   1.090   0.707   2.499
  314SOL    EPW 1702   1.064   0.713   2.583
  315SOL      O 1703   0.326   1.621   2.293
  315SOL     H1 1704   0.287   1.668   2.219
  315SOL     H2 1705   0.260   1.556   2.318
  315SOL    EPW 1706   0.313   1.619   2.287
  316SOL      O 1707   0.818   1.030   2.317
  316SOL     H1 1708   0.820   1.004   2.224
  316SOL     H2 1709   0.876   0.967   2.360
  316SOL    EPW 1710   0.826   1.019   2.311
  317SOL      O 1711   1.371   1.590   3.089
  317SOL     H1 1712   1.296   1.636   3.127
  317SOL     H2 1713   1.353   1.497   3.106
  317SOL    EPW 1714   1.360   1.584   3.097
  318SOL      O 1715   1.375   1.798   2.519
  318SOL     H1 1716   1.318   1.751   2.458
  318SOL     H2 1717   1.461   1.759   2.506
  318SOL    EPW 1718   1.378   1.789   2.509
  319SOL      O 1719   1.328   0.274   2.650
  319SOL     H1 1720   1.356   0.206   2.711
  319SOL     H2 1721   1.242   0.245   2.620
  319SOL    EPW 1722   1.321   0.261   2.654
  320SOL      O 1723   0.133   1.208   2.584
  320SOL     H1 1724   0.197   1.240   2.647
  320SOL     H2 1725   0.182   1.144   2.532
  320SOL    EPW 1726   0.148   1.204   2.585
  321SOL      O 1727   0.633   1.284   3.566
  321SOL     H1 1728   0.681   1.367   3.553
  321SOL     H2 1729   0.690   1.232   3.622
  321SOL    EPW 1730   0.647   1.288   3.572
  322SOL      O 1731   0.209   1.526   3.706
  322SOL     H1 1732   0.265   1.450   3.721
  322SOL     H2 1733   0.158   1.504   3.628
  322SOL    EPW 1734   0.209   1.513   3.697
  323SOL      O 1735   1.308   0.378   1.985
  323SOL     H1 1736   1.281   0.444   1.921
  323SOL     H2 1737   1.378   0.421   2.035
  323SOL    EPW 1738   1.313   0.391   1.982
  324SOL      O 1739   0.976   0.083   1.922
  324SOL     H1 1740   1.032   0.075   1.844
  324SOL     H2 1741   0.953  -0.007   1.944
  324SOL    EPW 1742   0.981   0.070   1.915
  325SOL      O 1743   1.481   0.934   2.127
  325SOL     H1 1744   1.448   1.023   2.117
  325SOL     H2 1745   1.446   0.905   2.212
  325SOL    EPW 1746   1.471   0.943   2.138
  326SOL      O 1747   1.094   1.363   3.315
  326SOL     H1 1748   1.005   1.369   3.283
  326SOL     H2 1749   1.138   1.442   3.283
  326SOL    EPW 1750   1.089   1.373   3.307
  327SOL      O 1751   0.387   0.031   3.657
  327SOL     H1 1752   0.315  -0.004   3.605
  327SOL     H2 1753   0.445   0.072   3.592
  327SOL    EPW 1754   0.385   0.032   3.642
  328SOL      O 1755   0.411   1.521   2.956
  328SOL     H1 1756   0.456   1.583   3.013
  328SOL     H2 1757   0.318   1.540   2.969
  328SOL    EPW 1758   0.404   1.531   2.963
  329SOL      O 1759   1.851   1.050   3.310
  329SOL     H1 1760   1.766   1.063   3.269
  329SOL     H2 1761   1.831   1.014   3.397
  329SOL    EPW 1762   1.838   1.046   3.315
  330SOL      O 1763   0.833   1.589   3.064
  330SOL     H1 1764   0.857   1.578   2.973
  330SOL     H2 1765   0.756   1.646   3.062
  330SOL    EPW 1766   0.825   1.594   3.053
  331SOL      O 1767   0.475   0.972   1.919
  331SOL     H1 1768   0.398   0.985   1.975
  331SOL     H2 1769   0.439   0.936   1.838
  331SOL    EPW 1770   0.461   0.968   1.916
  332SOL      O 1771   1.128   0.945   2.162
  332SOL     H1 1772   1.038   0.966   2.137
  332SOL     H2 1773   1.155   1.018   2.218
  332SOL    EPW 1774   1.120   0.957   2.165
  333SOL      O 1775   0.628   1.294   2.854
  333SOL     H1 1776   0.621   1.273   2.948
  333SOL     H2 1777   0.546   1.262   2.817
  333SOL    EPW 1778   0.616   1.288   2.861
  334SOL      O 1779   1.492   0.304   3.256
  334SOL     H1 1780   1.439   0.306   3.336
  334SOL     H2 1781   1.477   0.217   3.219
  334SOL    EPW 1782   1.484   0.294   3.261
  335SOL      O 1783   1.828   0.228   3.129
  335SOL     H1 1784   1.809   0.295   3.064
  335SOL     H2 1785   1.885   0.166   3.084
  335SOL    EPW 1786   1.832   0.229   3.115
  336SOL      O 1787   0.074   1.386   3.517
  336SOL     H1 1788   0.118   1.319   3.463
  336SOL     H2 1789  -0.011   1.348   3.537
  336SOL    EPW 1790   0.069   1.372   3.513
  337SOL      O 1791   0.757   0.061   2.569
  337SOL     H1 1792   0.686   0.122   2.551
  337SOL     H2 1793   0.808   0.058   2.488
  337SOL    EPW 1794   0.753   0.067   2.556
  338SOL      O 1795   0.515   1.301   2.318
  338SOL     H1 1796   0.508   1.333   2.408
  338SOL     H2 1797   0.425   1.285   2.290
  338SOL    EPW 1798   0.503   1.303   2.325
  339SOL      O 1799   1.110   1.694   3.227
  339SOL     H1 1800   1.030   1.679   3.177
  339SOL     H2 1801   1.117   1.789   3.234
  339SOL    EPW 1802   1.101   1.705   3.221
  340SOL      O 1803   1.224   1.659   2.717
  340SOL     H1 1804   1.271   1.732   2.676
  340SOL     H2 1805   1.145   1.698   2.753
  340SOL    EPW 1806   1.219   1.674   2.716
  341SOL      O 1807   1.632   1.754   2.992
  341SOL     H1 1808   1.675   1.724   3.072
  341SOL     H2 1809   1.551   1.702   2.989
  341SOL    EPW 1810   1.627   1.743   3.002
  342SOL      O 1811   0.717   0.718   3.699
  342SOL     H1 1812   0.787   0.660   3.671
  342SOL     H2 1813   0.660   0.663   3.754
  342SOL    EPW 1814   0.719   0.705   3.703
  343SOL      O 1815   1.504   0.930   3.332
  343SOL     H1 1816   1.509   0.983   3.412
  343SOL     H2 1817   1.466   0.847   3.360
  343SOL    EPW 1818   1.500   0.925   3.347
  344SOL      O 1819   1.144   0.065   3.578
  344SOL     H1 1820   1.139  -0.028   3.559
  344SOL     H2 1821   1.227   0.076   3.624
  344SOL    EPW 1822   1.152   0.054   3.582
  345SOL      O 1823   0.518   0.585   2.032
  345SOL     H1 1824   0.484   0.641   2.102
  345SOL     H2 1825   0.589   0.535   2.072
  345SOL    EPW 1826   0.524   0.586   2.046
  346SOL      O 1827   1.614   1.336   2.854
  346SOL     H1 1828   1.649   1.318   2.767
  346SOL     H2 1829   1.519   1.337   2.841
  346SOL    EPW 1830   1.606   1.333   2.841
  347SOL      O 1831   1.043   0.984   3.223
  347SOL     H1 1832   1.086   1.019   3.301
  347SOL     H2 1833   1.026   1.061   3.169
  347SOL    EPW 1834   1.046   0.999   3.226
  348SOL      O 1835   1.574   0.471   2.096
  348SOL     H1 1836   1.566   0.542   2.033
  348SOL     H2 1837   1.592   0.515   2.179
  348SOL    EPW 1838   1.575   0.485   2.098
  349SOL      O 1839   0.434   0.126   2.525
  349SOL     H1 1840   0.484   0.169   2.456
  349SOL     H2 1841   0.349   0.170   2.525
  349SOL    EPW 1842   0.431   0.139   2.516
  350SOL      O 1843   0.193   1.188   3.385
  350SOL     H1 1844   0.221   1.141   3.463
  350SOL     H2 1845   0.114   1.143   3.356
  350SOL    EPW 1846   0.186   1.177   3.391
  351SOL      O 1847   0.701   0.515   3.352
  351SOL     H1 1848   0.673   0.603   3.376
  351SOL     H2 1849   0.670   0.459   3.423
  351SOL    EPW 1850   0.693   0.518   3.364
  352SOL      O 1851   1.243   0.733   2.071
  352SOL     H1 1852   1.290   0.751   1.990
  352SOL     H2 1853   1.209   0.817   2.099
  352SOL    EPW 1854   1.245   0.747   2.064
  353SOL      O 1855   0.356   0.911   2.565
  353SOL     H1 1856   0.414   0.967   2.513
  353SOL     H2 1857   0.400   0.826   2.567
  353SOL    EPW 1858   0.369   0.908   2.558
  354SOL      O 1859   1.496   0.263   2.402
  354SOL     H1 1860   1.418   0.213   2.427
  354SOL     H2 1861   1.467   0.354   2.402
  354SOL    EPW 1862   1.482   0.267   2.405
  355SOL      O 1863   1.082   0.225   2.561
  355SOL     H1 1864   1.102   0.300   2.505
  355SOL     H2 1865   1.062   0.264   2.646
  355SOL    EPW 1866   1.083   0.241   2.565
  356SOL      O 1867   0.978   1.475   1.893
  356SOL     H1 1868   1.005   1.553   1.845
  356SOL     H2 1869   0.885   1.490   1.912
  356SOL    EPW 1870   0.969   1.488   1.889
  357SOL      O 1871   1.842   0.998   3.580
  357SOL     H1 1872   1.755   0.978   3.616
  357SOL     H2 1873   1.896   0.924   3.605
  357SOL    EPW 1874   1.837   0.987   3.588
  358SOL      O 1875   0.063   1.511   2.737
  358SOL     H1 1876   0.095   1.515   2.828
  358SOL     H2 1877  -0.032   1.519   2.745
  358SOL    EPW 1878   0.055   1.514   2.750
  359SOL      O 1879   0.018   0.637   2.284
  359SOL     H1 1880  -0.042   0.609   2.354
  359SOL     H2 1881   0.092   0.577   2.290
  359SOL    EPW 1882   0.020   0.626   2.293
  360SOL      O 1883   1.586   1.849   3.718
  360SOL     H1 1884   1.631   1.773   3.683
  360SOL     H2 1885   1.624   1.862   3.805
  360SOL    EPW 1886   1.596   1.842   3.724
  361SOL      O 1887   1.186   1.368   2.444
  361SOL     H1 1888   1.209   1.319   2.522
  361SOL     H2 1889   1.267   1.410   2.416
  361SOL    EPW 1890   1.199   1.368   2.451
  362SOL      O 1891   0.444   0.376   3.173
  362SOL     H1 1892   0.477   0.457   3.213
  362SOL     H2 1893   0.417   0.402   3.085
  362SOL    EPW 1894   0.443   0.390   3.167
  363SOL      O 1895   0.398   0.343   2.909
  363SOL     H1 1896   0.428   0.257   2.880
  363SOL     H2 1897   0.303   0.336   2.912
  363SOL    EPW 1898   0.390   0.332   2.907
  364SOL      O 1899   1.227   0.552   3.600
  364SOL     H1 1900   1.279   0.487   3.553
  364SOL     H2 1901   1.185   0.603   3.530
  364SOL    EPW 1902   1.228   0.549   3.583
  365SOL      O 1903   1.326   0.347   3.461
  365SOL     H1 1904   1.233   0.331   3.448
  365SOL     H2 1905   1.352   0.285   3.529
  365SOL    EPW 1906   1.316   0.337   3.468
  366SOL      O 1907   0.541   0.121   2.800
  366SOL     H1 1908   0.551   0.030   2.826
  366SOL     H2 1909   0.497   0.117   2.715
  366SOL    EPW 1910   0.537   0.109   2.792
  367SOL      O 1911   0.635   1.736   3.346
  367SOL     H1 1912   0.552   1.721   3.391
  367SOL     H2 1913   0.694   1.669   3.381
  367SOL    EPW 1914   0.633   1.726   3.356
  368SOL      O 1915   1.692   0.443   2.971
  368SOL     H1 1916   1.625   0.476   3.031
  368SOL     H2 1917   1.735   0.521   2.937
  368SOL    EPW 1918   1.690   0.458   2.975
  369SOL      O 1919   1.870   1.163   2.941
  369SOL     H1 1920   1.863   1.103   2.866
  369SOL     H2 1921   1.796   1.223   2.930
  369SOL    EPW 1922   1.860   1.163   2.930
  370SOL      O 1923   1.252   1.025   2.859
  370SOL     H1 1924   1.266   0.997   2.950
  370SOL     H2 1925   1.338   1.056   2.831
  370SOL    EPW 1926   1.265   1.026   2.868
  371SOL      O 1927   1.335   0.520   3.138
  371SOL     H1 1928   1.356   0.521   3.045
  371SOL     H2 1929   1.380   0.442   3.171
  371SOL    EPW 1930   1.342   0.510   3.130
  372SOL      O 1931   1.828   0.651   3.680
  372SOL     H1 1932   1.865   0.596   3.749
  372SOL     H2 1933   1.853   0.608   3.598
  372SOL    EPW 1934   1.835   0.639   3.679
  373SOL      O 1935   1.375   0.949   3.731
  373SOL     H1 1936   1.441   0.897   3.685
  373SOL     H2 1937   1.395   0.936   3.824
  373SOL    EPW 1938   1.386   0.940   3.738
  374SOL      O 1939   1.326   0.035   2.080
  374SOL     H1 1940   1.400   0.079   2.123
  374SOL     H2 1941   1.250   0.089   2.102
  374SOL    EPW 1942   1.326   0.047   2.088
  375SOL      O 1943   1.386   0.810   2.358
  375SOL     H1 1944   1.301   0.780   2.328
  375SOL     H2 1945   1.378   0.817   2.453
  375SOL    EPW 1946   1.374   0.808   2.367
  376SOL      O 1947   0.462   1.273   3.089
  376SOL     H1 1948   0.474   1.300   3.180
  376SOL     H2 1949   0.443   1.354   3.042
  376SOL    EPW 1950   0.461   1.288   3.094
  377SOL      O 1951   0.746   0.253   2.912
  377SOL     H1 1952   0.719   0.255   3.003
  377SOL     H2 1953   0.676   0.205   2.867
  377SOL    EPW 1954   0.734   0.249   2.919
  378SOL      O 1955   0.600   1.745   3.074
  378SOL     H1 1956   0.652   1.822   3.051
  378SOL     H2 1957   0.609   1.737   3.169
  378SOL    EPW 1958   0.609   1.752   3.085
  379SOL      O 1959   1.502   1.330   3.306
  379SOL     H1 1960   1.487   1.259   3.369
  379SOL     H2 1961   1.548   1.288   3.234
  379SOL    EPW 1962   1.508   1.314   3.306
  380SOL      O 1963   0.576   1.061   3.423
  380SOL     H1 1964   0.613   1.066   3.335
  380SOL     H2 1965   0.615   1.134   3.470
  380SOL    EPW 1966   0.586   1.071   3.418
  381SOL      O 1967   0.756   1.104   3.235
  381SOL     H1 1968   0.815   1.050   3.288
  381SOL     H2 1969   0.771   1.076   3.145
  381SOL    EPW 1970   0.766   1.093   3.231
  382SOL      O 1971   0.759   0.476   2.084
  382SOL     H1 1972   0.832   0.525   2.047
  382SOL     H2 1973   0.775   0.385   2.058
  382SOL    EPW 1974   0.771   0.471   2.077
  383SOL      O 1975   1.567   1.593   3.407
  383SOL     H1 1976   1.609   1.578   3.492
  383SOL     H2 1977   1.558   1.506   3.369
  383SOL    EPW 1978   1.571   1.581   3.414
  384SOL      O 1979   1.227   0.072   2.998
  384SOL     H1 1980   1.282   0.081   2.920
  384SOL     H2 1981   1.282   0.106   3.069
  384SOL    EPW 1982   1.241   0.077   2.997
  385SOL      O 1983   0.234   0.985   2.182
  385SOL     H1 1984   0.171   1.001   2.111
  385SOL     H2 1985   0.181   0.948   2.253
  385SOL    EPW 1986   0.219   0.982   2.182
  386SOL      O 1987   0.590   1.339   2.041
  386SOL     H1 1988   0.605   1.315   2.133
  386SOL     H2 1989   0.498   1.317   2.025
  386SOL    EPW 1990   0.580   1.332   2.051
  387SOL      O 1991   1.129   1.570   2.193
  387SOL     H1 1992   1.137   1.488   2.144
  387SOL     H2 1993   1.048   1.609   2.160
  387SOL    EPW 1994   1.119   1.565   2.183
  388SOL      O 1995   0.388   1.728   2.762
  388SOL     H1 1996   0.392   1.639   2.797
  388SOL     H2 1997   0.414   1.719   2.671
  388SOL    EPW 1998   0.391   1.716   2.754
  389SOL      O 1999   1.005   1.206   3.005
  389SOL     H1 2000   0.937   1.140   3.021
  389SOL     H2 2001   1.023   1.200   2.912
  389SOL    EPW 2002   0.998   1.197   2.996
  390SOL      O 2003   0.094   1.481   3.256
  390SOL     H1 2004   0.084   1.439   3.342
  390SOL     H2 2005   0.015   1.534   3.246
  390SOL    EPW 2006   0.083   1.482   3.267
  391SOL      O 2007   0.998   0.345   2.826
  391SOL     H1 2008   0.928   0.297   2.871
  391SOL     H2 2009   1.030   0.408   2.890
  391SOL    EPW 2010   0.993   0.347   2.840
  392SOL      O 2011   0.649   0.781   3.446
  392SOL     H1 2012   0.642   0.876   3.434
  392SOL     H2 2013   0.658   0.770   3.541
  392SOL    EPW 2014   0.650   0.793   3.456
  393SOL      O 2015   0.370   1.296   3.704
  393SOL     H1 2016   0.442   1.298   3.641
  393SOL     H2 2017   0.340   1.205   3.703
  393SOL    EPW 2018   0.375   1.285   3.696
  394SOL      O 2019   1.454   0.059   3.171
  394SOL     H1 2020   1.525   0.005   3.135
  394SOL     H2 2021   1.453   0.038   3.264
  394SOL    EPW 2022   1.463   0.050   3.179
  395SOL      O 2023   1.654   1.589   3.655
  395SOL     H1 2024   1.627   1.586   3.746
  395SOL     H2 2025   1.750   1.593   3.658
  395SOL    EPW 2026   1.664   1.589   3.667
  396SOL      O 2027   0.465   0.451   2.639
  396SOL     H1 2028   0.536   0.399   2.602
  396SOL     H2 2029   0.451   0.416   2.726
  396SOL    EPW 2030   0.473   0.440   2.646
  397SOL      O 2031   0.020   1.786   3.711
  397SOL     H1 2032   0.070   1.764   3.633
  397SOL     H2 2033   0.028   1.881   3.719
  397SOL    EPW 2034   0.028   1.795   3.702
  398SOL      O 2035   0.781   1.544   2.715
  398SOL     H1 2036   0.709   1.481   2.728
  398SOL     H2 2037   0.742   1.629   2.733
  398SOL    EPW 2038   0.765   1.547   2.718
  399SOL      O 2039   1.101   0.392   2.363
  399SOL     H1 2040   1.123   0.329   2.295
  399SOL     H2 2041   1.006   0.384   2.374
  399SOL    EPW 2042   1.091   0.383   2.355
  400SOL      O 2043   0.186   0.082   2.295
  400SOL     H1 2044   0.257   0.103   2.234
  400SOL     H2 2045   0.140   0.010   2.253
  400SOL    EPW 2046   0.190   0.076   2.281
  401SOL      O 2047   0.017   0.549   3.438
  401SOL     H1 2048   0.081   0.615   3.413
  401SOL     H2 2049  -0.064   0.576   3.395
  401SOL    EPW 2050   0.015   0.561   3.430
  402SOL      O 2051   1.755   1.456   2.395
  402SOL     H1 2052   1.725   1.389   2.456
  402SOL     H2 2053   1.849   1.462   2.409
  402SOL    EPW 2054   1.763   1.448   2.405
  403SOL      O 2055   1.311   1.133   2.325
  403SOL     H1 2056   1.283   1.219   2.358
  403SOL     H2 2057   1.339   1.149   2.235
  403SOL    EPW 2058   1.311   1.147   2.317
  404SOL      O 2059   0.973   0.053   2.378
  404SOL     H1 2060   1.010   0.112   2.443
  404SOL     H2 2061   0.950   0.109   2.304
  404SOL    EPW 2062   0.974   0.068   2.377
  405SOL      O 2063   1.826   0.935   2.800
  405SOL     H1 2064   1.817   0.967   2.711
  405SOL     H2 2065   1.779   0.851   2.800
  405SOL    EPW 2066   1.819   0.928   2.790
  406SOL      O 2067   0.202   0.775   3.379
  406SOL     H1 2068   0.223   0.844   3.317
  406SOL     H2 2069   0.282   0.722   3.384
  406SOL    EPW 2070   0.215   0.776   3.373
  407SOL      O 2071   1.738   0.866   2.501
  407SOL     H1 2072   1.832   0.855   2.489
  407SOL     H2 2073   1.714   0.938   2.442
  407SOL    EPW 2074   1.748   0.874   2.492
  408SOL      O 2075   0.187   0.790   3.646
  408SOL     H1 2076   0.113   0.734   3.672
  408SOL     H2 2077   0.182   0.793   3.551
  408SOL    EPW 2078   0.176   0.783   3.636
  409SOL      O 2079   0.353   0.077   3.096
  409SOL     H1 2080   0.396   0.161   3.116
  409SOL     H2 2081   0.426   0.015   3.089
  409SOL    EPW 2082   0.368   0.080   3.097
  410SOL      O 2083   0.394   0.744   2.274
  410SOL     H1 2084   0.394   0.839   2.259
  410SOL     H2 2085   0.471   0.728   2.328
  410SOL    EPW 2086   0.404   0.755   2.279
  411SOL      O 2087   1.170   0.603   3.338
  411SOL     H1 2088   1.206   0.576   3.254
  411SOL     H2 2089   1.083   0.637   3.317
  411SOL    EPW 2090   1.164   0.604   3.325
  412SOL      O 2091   0.153   0.475   2.563
  412SOL     H1 2092   0.215   0.482   2.636
  412SOL     H2 2093   0.153   0.382   2.540
  412SOL    EPW 2094   0.161   0.464   2.570
  413SOL      O 2095   1.700   1.815   2.095
  413SOL     H1 2096   1.767   1.848   2.035
  413SOL     H2 2097   1.657   1.894   2.129
  413SOL    EPW 2098   1.702   1.830   2.091
  414SOL      O 2099   0.835   0.736   3.047
  414SOL     H1 2100   0.793   0.654   3.023
  414SOL     H2 2101   0.836   0.735   3.143
  414SOL    EPW 2102   0.828   0.725   3.056
  415SOL      O 2103   1.506   1.869   3.446
  415SOL     H1 2104   1.509   1.775   3.429
  415SOL     H2 2105   1.529   1.877   3.538
  415SOL    EPW 2106   1.509   1.857   3.456
  416SOL      O 2107   0.639   0.206   3.152
  416SOL     H1 2108   0.570   0.269   3.173
  416SOL     H2 2109   0.666   0.170   3.237
  416SOL    EPW 2110   0.633   0.209   3.165
  417SOL      O 2111   0.022   1.047   2.021
  417SOL     H1 2112  -0.009   1.112   2.084
  417SOL     H2 2113  -0.029   0.969   2.040
  417SOL    EPW 2114   0.012   1.044   2.031
  418SOL      O 2115   1.434   0.059   2.769
  418SOL     H1 2116   1.522   0.068   2.806
  418SOL     H2 2117   1.444   0.000   2.695
  418SOL    EPW 2118   1.448   0.053   2.763
  419SOL      O 2119   1.466   0.798   2.613
  419SOL     H1 2120   1.546   0.813   2.562
  419SOL     H2 2121   1.459   0.703   2.619
  419SOL    EPW 2122   1.475   0.787   2.608
  420SOL      O 2123   0.606   1.847   1.963
  420SOL     H1 2124   0.511   1.847   1.955
  420SOL     H2 2125   0.622   1.793   2.041
  420SOL    EPW 2126   0.596   1.841   1.972
  421SOL      O 2127   0.916   0.724   3.310
  421SOL     H1 2128   0.985   0.791   3.307
  421SOL     H2 2129   0.849   0.762   3.366
  421SOL    EPW 2130   0.917   0.737   3.317
  422SOL      O 2131   0.334   1.024   3.558
  422SOL     H1 2132   0.288   0.940   3.560
  422SOL     H2 2133   0.391   1.018   3.482
  422SOL    EPW 2134   0.336   1.012   3.550
  423SOL      O 2135   1.451   0.667   1.879
  423SOL     H1 2136   1.379   0.643   1.821
  423SOL     H2 2137   1.517   0.704   1.821
  423SOL    EPW 2138   1.450   0.669   1.864
  424SOL      O 2139   0.585   1.399   2.559
  424SOL     H1 2140   0.650   1.332   2.580
  424SOL     H2 2141   0.637   1.476   2.536
  424SOL    EPW 2142   0.600   1.401   2.558
  425SOL      O 2143   0.846   0.564   2.689
  425SOL     H1 2144   0.786   0.582   2.761
  425SOL     H2 2145   0.880   0.476   2.708
  425SOL    EPW 2146   0.842   0.554   2.702
  426SOL      O 2147   1.787   0.063   3.358
  426SOL     H1 2148   1.708   0.109   3.386
  426SOL     H2 2149   1.822   0.117   3.287
  426SOL    EPW 2150   1.781   0.076   3.352
  427SOL      O 2151   1.071   1.147   2.708
  427SOL     H1 2152   1.163   1.128   2.726
  427SOL     H2 2153   1.044   1.077   2.648
  427SOL    EPW 2154   1.079   1.135   2.702
  428SOL      O 2155   0.864   0.967   2.063
  428SOL     H1 2156   0.850   0.879   2.028
  428SOL     H2 2157   0.815   1.024   2.004
  428SOL    EPW 2158   0.856   0.962   2.051
  429SOL      O 2159   1.345   1.385   2.804
  429SOL     H1 2160   1.318   1.469   2.769
  429SOL     H2 2161   1.305   1.380   2.891
  429SOL    EPW 2162   1.338   1.394   2.810
  430SOL      O 2163   1.264   1.333   3.072
  430SOL     H1 2164   1.275   1.300   3.161
  430SOL     H2 2165   1.183   1.292   3.041
  430SOL    EPW 2166   1.254   1.325   3.078
  431SOL      O 2167   0.277   0.691   2.842
  431SOL     H1 2168   0.227   0.690   2.923
  431SOL     H2 2169   0.297   0.783   2.826
  431SOL    EPW 2170   0.273   0.703   2.850
  432SOL      O 2171   1.344   1.455   3.604
  432SOL     H1 2172   1.344   1.549   3.620
  432SOL     H2 2173   1.389   1.445   3.520
  432SOL    EPW 2174   1.350   1.465   3.595
  433SOL      O 2175   1.583   0.173   2.165
  433SOL     H1 2176   1.576   0.177   2.260
  433SOL     H2 2177   1.595   0.264   2.138
  433SOL    EPW 2178   1.584   0.186   2.173
  434SOL      O 2179   0.872   0.736   2.279
  434SOL     H1 2180   0.852   0.722   2.186
  434SOL     H2 2181   0.965   0.715   2.286
  434SOL    EPW 2182   0.882   0.731   2.268
  435SOL      O 2183   0.199   0.359   3.583
  435SOL     H1 2184   0.156   0.418   3.520
  435SOL     H2 2185   0.267   0.414   3.623
  435SOL    EPW 2186   0.203   0.374   3.580
  436SOL      O 2187   1.311   0.979   3.128
  436SOL     H1 2188   1.374   0.976   3.201
  436SOL     H2 2189   1.227   0.997   3.170
  436SOL    EPW 2190   1.307   0.981   3.143
  437SOL      O 2191   0.855   1.694   2.317
  437SOL     H1 2192   0.913   1.765   2.344
  437SOL     H2 2193   0.878   1.622   2.375
  437SOL    EPW 2194   0.866   1.694   2.328
  438SOL      O 2195   1.650   0.156   2.907
  438SOL     H1 2196   1.695   0.074   2.926
  438SOL     H2 2197   1.670   0.212   2.983
  438SOL    EPW 2198   1.660   0.152   2.919
  439SOL      O 2199   0.098  -0.001   3.006
  439SOL     H1 2200   0.089   0.000   2.911
  439SOL     H2 2201   0.192   0.011   3.021
  439SOL    EPW 2202   0.110   0.002   2.997
  440SOL      O 2203   1.735   1.192   2.626
  440SOL     H1 2204   1.714   1.138   2.549
  440SOL     H2 2205   1.831   1.190   2.630
  440SOL    EPW 2206   1.744   1.185   2.615
  441SOL      O 2207   0.427   1.337   3.369
  441SOL     H1 2208   0.348   1.287   3.392
  441SOL     H2 2209   0.497   1.296   3.419
  441SOL    EPW 2210   0.425   1.325   3.379
  442SOL      O 2211   0.311   0.126   2.052
  442SOL     H1 2212   0.240   0.181   2.020
  442SOL     H2 2213   0.353   0.092   1.973
  442SOL    EPW 2214   0.307   0.128   2.038
  443SOL      O 2215   1.435   0.623   2.888
  443SOL     H1 2216   1.358   0.669   2.854
  443SOL     H2 2217   1.492   0.692   2.922
  443SOL    EPW 2218   1.432   0.638   2.888
  444SOL      O 2219   0.067   0.225   1.901
  444SOL     H1 2220   0.034   0.304   1.945
  444SOL     H2 2221   0.122   0.258   1.830
  444SOL    EPW 2222   0.070   0.239   1.898
  445SOL      O 2223   0.101   1.482   2.090
  445SOL     H1 2224   0.118   1.566   2.132
  445SOL     H2 2225   0.136   1.491   2.002
  445SOL    EPW 2226   0.106   1.495   2.084
  446SOL      O 2227   1.373   1.571   2.307
  446SOL     H1 2228   1.436   1.561   2.236
  446SOL     H2 2229   1.290   1.591   2.262
  446SOL    EPW 2230   1.370   1.572   2.292
  447SOL      O 2231   1.736   0.839   3.993
  447SOL     H1 2232   1.777   0.781   4.058
  447SOL     H2 2233   1.643   0.831   4.010
  447SOL    EPW 2234   1.730   0.831   4.003
  448SOL      O 2235   0.530   1.022   4.222
  448SOL     H1 2236   0.620   0.997   4.206
  448SOL     H2 2237   0.526   1.115   4.199
  448SOL    EPW 2238   0.542   1.031   4.217
  449SOL      O 2239   1.646   1.725   4.364
  449SOL     H1 2240   1.658   1.671   4.442
  449SOL     H2 2241   1.683   1.673   4.293
  449SOL    EPW 2242   1.652   1.710   4.365
  450SOL      O 2243   0.814   0.478   4.235
  450SOL     H1 2244   0.789   0.566   4.263
  450SOL     H2 2245   0.811   0.481   4.139
  450SOL    EPW 2246   0.810   0.490   4.227
  451SOL      O 2247   0.256   0.506   4.163
  451SOL     H1 2248   0.288   0.594   4.145
  451SOL     H2 2249   0.244   0.504   4.258
  451SOL    EPW 2250   0.259   0.518   4.175
  452SOL      O 2251   0.655   0.261   4.250
  452SOL     H1 2252   0.713   0.337   4.252
  452SOL     H2 2253   0.590   0.282   4.183
  452SOL    EPW 2254   0.654   0.273   4.241
  453SOL      O 2255   0.742   1.188   4.425
  453SOL     H1 2256   0.822   1.191   4.477
  453SOL     H2 2257   0.770   1.155   4.339
  453SOL    EPW 2258   0.756   1.184   4.420
  454SOL      O 2259   1.369   1.170   3.941
  454SOL     H1 2260   1.287   1.206   3.907
  454SOL     H2 2261   1.437   1.213   3.890
  454SOL    EPW 2262   1.367   1.180   3.929
  455SOL      O 2263   0.921   1.311   4.134
  455SOL     H1 2264   0.898   1.373   4.202
  455SOL     H2 2265   0.878   1.229   4.160
  455SOL    EPW 2266   0.913   1.307   4.145
  456SOL      O 2267   0.418   0.284   4.102
  456SOL     H1 2268   0.392   0.246   4.018
  456SOL     H2 2269   0.355   0.354   4.118
  456SOL    EPW 2270   0.407   0.287   4.093
  457SOL      O 2271   0.253   1.245   4.139
  457SOL     H1 2272   0.201   1.313   4.095
  457SOL     H2 2273   0.250   1.171   4.079
  457SOL    EPW 2274   0.245   1.244   4.126
  458SOL      O 2275   0.915   1.708   3.917
  458SOL     H1 2276   0.870   1.724   4.000
  458SOL     H2 2277   0.846   1.673   3.859
  458SOL    EPW 2278   0.901   1.705   3.919
  459SOL      O 2279   1.850   0.481   3.892
  459SOL     H1 2280   1.759   0.483   3.920
  459SOL     H2 2281   1.895   0.543   3.950
  459SOL    EPW 2282   1.843   0.489   3.902
  460SOL      O 2283   1.595   1.084   4.242
  460SOL     H1 2284   1.505   1.084   4.277
  460SOL     H2 2285   1.588   1.130   4.159
  460SOL    EPW 2286   1.582   1.090   4.236
  461SOL      O 2287   1.122   0.665   4.203
  461SOL     H1 2288   1.148   0.689   4.114
  461SOL     H2 2289   1.104   0.572   4.199
  461SOL    EPW 2290   1.124   0.657   4.190
  462SOL      O 2291   1.787   1.285   4.054
  462SOL     H1 2292   1.743   1.326   4.129
  462SOL     H2 2293   1.844   1.353   4.019
  462SOL    EPW 2294   1.789   1.299   4.059
  463SOL      O 2295   0.443   1.701   4.372
  463SOL     H1 2296   0.475   1.789   4.350
  463SOL     H2 2297   0.396   1.673   4.294
  463SOL    EPW 2298   0.442   1.709   4.359
  464SOL      O 2299   1.827   0.063   4.421
  464SOL     H1 2300   1.881   0.014   4.483
  464SOL     H2 2301   1.770  -0.003   4.382
  464SOL    EPW 2302   1.827   0.047   4.423
  465SOL      O 2303   0.159   1.761   3.949
  465SOL     H1 2304   0.188   1.851   3.941
  465SOL     H2 2305   0.109   1.744   3.870
  465SOL    EPW 2306   0.157   1.769   3.938
  466SOL      O 2307   1.563   1.569   3.920
  466SOL     H1 2308   1.611   1.638   3.966
  466SOL     H2 2309   1.484   1.613   3.889
  466SOL    EPW 2310   1.558   1.583   3.923
  467SOL      O 2311   0.961   0.694   3.864
  467SOL     H1 2312   0.963   0.641   3.785
  467SOL     H2 2313   1.049   0.731   3.870
  467SOL    EPW 2314   0.973   0.693   3.853
  468SOL      O 2315   1.575   0.620   4.200
  468SOL     H1 2316   1.614   0.620   4.287
  468SOL     H2 2317   1.516   0.696   4.200
  468SOL    EPW 2318   1.572   0.631   4.211
  469SOL      O 2319   1.762   0.506   4.366
  469SOL     H1 2320   1.851   0.475   4.383
  469SOL     H2 2321   1.705   0.446   4.414
  469SOL    EPW 2322   1.765   0.494   4.375
  470SOL      O 2323   0.188   0.220   4.395
  470SOL     H1 2324   0.179   0.160   4.321
  470SOL     H2 2325   0.121   0.191   4.458
  470SOL    EPW 2326   0.178   0.207   4.393
  471SOL      O 2327   1.131   1.313   3.956
  471SOL     H1 2328   1.081   1.315   4.038
  471SOL     H2 2329   1.065   1.331   3.888
  471SOL    EPW 2330   1.117   1.315   3.958
  472SOL      O 2331   0.594   1.731   4.064
  472SOL     H1 2332   0.515   1.689   4.097
  472SOL     H2 2333   0.660   1.714   4.131
  472SOL    EPW 2334   0.593   1.723   4.077
  473SOL      O 2335   0.730   1.146   3.771
  473SOL     H1 2336   0.652   1.092   3.758
  473SOL     H2 2337   0.701   1.219   3.824
  473SOL    EPW 2338   0.716   1.148   3.776
  474SOL      O 2339   1.311   1.662   3.839
  474SOL     H1 2340   1.237   1.625   3.889
  474SOL     H2 2341   1.319   1.752   3.872
  474SOL    EPW 2342   1.302   1.669   3.851
  475SOL      O 2343   1.535   1.336   3.781
  475SOL     H1 2344   1.482   1.385   3.717
  475SOL     H2 2345   1.566   1.402   3.842
  475SOL    EPW 2346   1.533   1.350   3.779
  476SOL      O 2347   0.760   0.225   3.836
  476SOL     H1 2348   0.708   0.145   3.824
  476SOL     H2 2349   0.847   0.202   3.804
  476SOL    EPW 2350   0.763   0.211   3.830
  477SOL      O 2351   0.121   0.865   4.293
  477SOL     H1 2352   0.212   0.880   4.320
  477SOL     H2 2353   0.124   0.786   4.239
  477SOL    EPW 2354   0.133   0.857   4.291
  478SOL      O 2355   0.129   1.477   4.332
  478SOL     H1 2356   0.101   1.516   4.414
  478SOL     H2 2357   0.149   1.386   4.354
  478SOL    EPW 2358   0.127   1.469   4.345
  479SOL      O 2359   0.962   1.520   4.367
  479SOL     H1 2360   1.045   1.474   4.351
  479SOL     H2 2361   0.952   1.519   4.463
  479SOL    EPW 2362   0.972   1.513   4.377
  480SOL      O 2363   0.695   1.577   3.772
  480SOL     H1 2364   0.635   1.646   3.742
  480SOL     H2 2365   0.640   1.519   3.825
  480SOL    EPW 2366   0.679   1.579   3.774
  481SOL      O 2367   1.133   0.222   3.995
  481SOL     H1 2368   1.066   0.198   3.932
  481SOL     H2 2369   1.198   0.271   3.944
  481SOL    EPW 2370   1.133   0.224   3.980
  482SOL      O 2371   1.070   0.726   4.459
  482SOL     H1 2372   1.007   0.658   4.483
  482SOL     H2 2373   1.090   0.707   4.367
  482SOL    EPW 2374   1.064   0.713   4.451
  483SOL      O 2375   0.326   1.621   4.161
  483SOL     H1 2376   0.287   1.668   4.087
  483SOL     H2 2377   0.260   1.556   4.186
  483SOL    EPW 2378   0.313   1.619   4.155
  484SOL      O 2379   0.818   1.030   4.185
  484SOL     H1 2380   0.820   1.004   4.092
  484SOL     H2 2381   0.876   0.967   4.228
  484SOL    EPW 2382   0.826   1.019   4.179
  485SOL      O 2383   1.375   1.798   4.387
  485SOL     H1 2384   1.318   1.751   4.326
  485SOL     H2 2385   1.461   1.759   4.374
  485SOL    EPW 2386   1.378   1.789   4.377
  486SOL      O 2387   0.133   1.208   4.452
  486SOL     H1 2388   0.197   1.240   4.515
  486SOL     H2 2389   0.182   1.144   4.400
  486SOL    EPW 2390   0.148   1.204   4.453
  487SOL      O 2391   1.308   0.378   3.853
  487SOL     H1 2392   1.281   0.444   3.789
  487SOL     H2 2393   1.378   0.421   3.903
  487SOL    EPW 2394   1.313   0.391   3.850
  488SOL      O 2395   0.976   0.083   3.790
  488SOL     H1 2396   1.032   0.075   3.712
  488SOL     H2 2397   0.953  -0.007   3.812
  488SOL    EPW 2398   0.981   0.070   3.783
  489SOL      O 2399   1.481   0.934   3.995
  489SOL     H1 2400   1.448   1.023   3.985
  489SOL     H2 2401   1.446   0.905   4.080
  489SOL    EPW 2402   1.471   0.943   4.006
  490SOL      O 2403   0.475   0.972   3.787
  490SOL     H1 2404   0.398   0.985   3.843
  490SOL     H2 2405   0.439   0.936   3.706
  490SOL    EPW 2406   0.461   0.968   3.784
  491SOL      O 2407   1.128   0.945   4.030
  491SOL     H1 2408   1.038   0.966   4.005
  491SOL     H2 2409   1.155   1.018   4.086
  491SOL    EPW 2410   1.120   0.957   4.033
  492SOL      O 2411   0.757   0.061   4.437
  492SOL     H1 2412   0.686   0.122   4.419
  492SOL     H2 2413   0.808   0.058   4.356
  492SOL    EPW 2414   0.753   0.067   4.424
  493SOL      O 2415   0.515   1.301   4.186
  493SOL     H1 2416   0.508   1.333   4.276
  493SOL     H2 2417   0.425   1.285   4.158
  493SOL    EPW 2418   0.503   1.303   4.193
  494SOL      O 2419   0.518   0.585   3.900
  494SOL     H1 2420   0.484   0.641   3.970
  494SOL     H2 2421   0.589   0.535   3.940
  494SOL    EPW 2422   0.524   0.586   3.914
  495SOL      O 2423   1.574   0.471   3.964
  495SOL     H1 2424   1.566   0.542   3.901
  495SOL     H2 2425   1.592   0.515   4.047
  495SOL    EPW 2426   1.575   0.485   3.966
  496SOL      O 2427   0.434   0.126   4.393
  496SOL     H1 2428   0.484   0.169   4.324
  496SOL     H2 2429   0.349   0.170   4.393
  496SOL    EPW 2430   0.431   0.139   4.384
  497SOL      O 2431   1.243   0.733   3.939
  497SOL     H1 2432   1.290   0.751   3.858
  497SOL     H2 2433   1.209   0.817   3.967
  497SOL    EPW 2434   1.245   0.747   3.932
  498SOL      O 2435   0.356   0.911   4.433
  498SOL     H1 2436   0.414   0.967   4.381
  498SOL     H2 2437   0.400   0.826   4.435
  498SOL    EPW 2438   0.369   0.908   4.426
  499SOL      O 2439   1.496   0.263   4.270
  499SOL     H1 2440   1.418   0.213   4.295
  499SOL     H2 2441   1.467   0.354   4.270
  499SOL    EPW 2442   1.482   0.267   4.273
  500SOL      O 2443   1.082   0.225   4.429
  500SOL     H1 2444   1.102   0.300   4.373
  500SOL     H2 2445   1.062   0.264   4.514
  500SOL    EPW 2446   1.083   0.241   4.433
  501SOL      O 2447   0.978   1.475   3.761
  501SOL     H1 2448   1.005   1.553   3.713
  501SOL     H2 2449   0.885   1.490   3.780
  501SOL    EPW 2450   0.969   1.488   3.757
  502SOL      O 2451   0.018   0.637   4.152
  502SOL     H1 2452  -0.042   0.609   4.222
  502SOL     H2 2453   0.092   0.577   4.158
  502SOL    EPW 2454   0.020   0.626   4.161
  503SOL      O 2455   1.186   1.368   4.312
  503SOL     H1 2456   1.209   1.319   4.390
  503SOL     H2 2457   1.267   1.410   4.284
  503SOL    EPW 2458   1.199   1.368   4.319
  504SOL      O 2459   1.326   0.035   3.948
  504SOL     H1 2460   1.400   0.079   3.991
  504SOL     H2 2461   1.250   0.089   3.970
  504SOL    EPW 2462   1.326   0.047   3.956
  505SOL      O 2463   1.386   0.810   4.226
  505SOL     H1 2464   1.301   0.780   4.196
  505SOL     H2 2465   1.378   0.817   4.321
  505SOL    EPW 2466   1.374   0.808   4.235
  506SOL      O 2467   0.759   0.476   3.952
  506SOL     H1 2468   0.832   0.525   3.915
  506SOL     H2 2469   0.775   0.385   3.926
  506SOL    EPW 2470   0.771   0.471   3.945
  507SOL      O 2471   0.234   0.985   4.050
  507SOL     H1 2472   0.171   1.001   3.979
  507SOL     H2 2473   0.181   0.948   4.121
  507SOL    EPW 2474   0.219   0.982   4.050
  508SOL      O 2475   0.590   1.339   3.909
  508SOL     H1 2476   0.605   1.315   4.001
  508SOL     H2 2477   0.498   1.317   3.893
  508SOL    EPW 2478   0.580   1.332   3.919
  509SOL      O 2479   1.129   1.570   4.061
  509SOL     H1 2480   1.137   1.488   4.012
  509SOL     H2 2481   1.048   1.609   4.028
  509SOL    EPW 2482   1.119   1.565   4.051
  510SOL      O 2483   1.101   0.392   4.231
  510SOL     H1 2484   1.123   0.329   4.163
  510SOL     H2 2485   1.006   0.384   4.242
  510SOL    EPW 2486   1.091   0.383   4.223
  511SOL      O 2487   0.186   0.082   4.163
  511SOL     H1 2488   0.257   0.103   4.102
  511SOL     H2 2489   0.140   0.010   4.121
  511SOL    EPW 2490   0.190   0.076   4.149
  512SOL      O 2491   1.755   1.456   4.263
  512SOL     H1 2492   1.725   1.389   4.324
  512SOL     H2 2493   1.849   1.462   4.277
  512SOL    EPW 2494   1.763   1.448   4.273
  513SOL      O 2495   1.311   1.133   4.193
  513SOL     H1 2496   1.283   1.219   4.226
  513SOL     H2 2497   1.339   1.149   4.103
  513SOL    EPW 2498   1.311   1.147   4.185
  514SOL      O 2499   0.973   0.053   4.246
  514SOL     H1 2500   1.010   0.112   4.311
  514SOL     H2 2501   0.950   0.109   4.172
  514SOL    EPW 2502   0.974   0.068   4.245
  515SOL      O 2503   1.738   0.866   4.369
  515SOL     H1 2504   1.832   0.855   4.357
  515SOL     H2 2505   1.714   0.938   4.310
  515SOL    EPW 2506   1.748   0.874   4.360
  516SOL      O 2507   0.394   0.744   4.142
  516SOL     H1 2508   0.394   0.839   4.127
  516SOL     H2 2509   0.471   0.728   4.196
  516SOL    EPW 2510   0.404   0.755   4.147
  517SOL      O 2511   0.153   0.475   4.431
  517SOL     H1 2512   0.215   0.482   4.504
  517SOL     H2 2513   0.153   0.382   4.408
  517SOL    EPW 2514   0.161   0.464   4.438
  518SOL      O 2515   1.700   1.815   3.963
  518SOL     H1 2516   1.767   1.848   3.903
  518SOL     H2 2517   1.657   1.894   3.997
  518SOL    EPW 2518   1.702   1.830   3.959
  519SOL      O 2519   0.022   1.047   3.889
  519SOL     H1 2520  -0.009   1.112   3.952
  519SOL     H2 2521  -0.029   0.969   3.908
  519SOL    EPW 2522   0.012   1.044   3.899
  520SOL      O 2523   0.606   1.847   3.831
  520SOL     H1 2524   0.511   1.847   3.823
  520SOL     H2 2525   0.622   1.793   3.909
  520SOL    EPW 2526   0.596   1.841   3.840
  521SOL      O 2527   1.451   0.667   3.747
  521SOL     H1 2528   1.379   0.643   3.689
  521SOL     H2 2529   1.517   0.704   3.689
  521SOL    EPW 2530   1.450   0.669   3.732
  522SOL      O 2531   0.585   1.399   4.427
  522SOL     H1 2532   0.650   1.332   4.448
  522SOL     H2 2533   0.637   1.476   4.404
  522SOL    EPW 2534   0.600   1.401   4.426
  523SOL      O 2535   0.864   0.967   3.931
  523SOL     H1 2536   0.850   0.879   3.896
  523SOL     H2 2537   0.815   1.024   3.872
  523SOL    EPW 2538   0.856   0.962   3.919
  524SOL      O 2539   1.583   0.173   4.033
  524SOL     H1 2540   1.576   0.177   4.128
  524SOL     H2 2541   1.595   0.264   4.006
  524SOL    EPW 2542   1.584   0.186   4.041
  525SOL      O 2543   0.872   0.736   4.147
  525SOL     H1 2544   0.852   0.722   4.054
  525SOL     H2 2545   0.965   0.715   4.154
  525SOL    EPW 2546   0.882   0.731   4.136
  526SOL      O 2547   0.855   1.694   4.185
  526SOL     H1 2548   0.913   1.765   4.212
  526SOL     H2 2549   0.878   1.622   4.243
  526SOL    EPW 2550   0.866   1.694   4.196
  527SOL      O 2551   0.311   0.126   3.920
  527SOL     H1 2552   0.240   0.181   3.888
  527SOL     H2 2553   0.353   0.092   3.841
  527SOL    EPW 2554   0.307   0.128   3.906
  528SOL      O 2555   0.067   0.225   3.769
  528SOL     H1 2556   0.034   0.304   3.813
  528SOL     H2 2557   0.122   0.258   3.698
  528SOL    EPW 2558   0.070   0.239   3.766
  529SOL      O 2559   0.101   1.482   3.958
  529SOL     H1 2560   0.118   1.566   4.000
  529SOL     H2 2561   0.136   1.491   3.870
  529SOL    EPW 2562   0.106   1.495   3.952
  530SOL      O 2563   1.373   1.571   4.175
  530SOL     H1 2564   1.436   1.561   4.104
  530SOL     H2 2565   1.290   1.591   4.130
  530SOL    EPW 2566   1.370   1.572   4.160
  531SOL      O 2567   1.736   2.707   0.257
  531SOL     H1 2568   1.777   2.649   0.322
  531SOL     H2 2569   1.643   2.699   0.274
  531SOL    EPW 2570   1.730   2.699   0.267
  532SOL      O 2571   1.602   2.639   1.252
  532SOL     H1 2572   1.557   2.706   1.303
  532SOL     H2 2573   1.690   2.675   1.238
  532SOL    EPW 2574   1.608   2.652   1.256
  533SOL      O 2575   0.530   2.890   0.486
  533SOL     H1 2576   0.620   2.865   0.470
  533SOL     H2 2577   0.526   2.983   0.463
  533SOL    EPW 2578   0.542   2.899   0.481
  534SOL      O 2579   1.646   3.593   0.628
  534SOL     H1 2580   1.658   3.539   0.706
  534SOL     H2 2581   1.683   3.541   0.557
  534SOL    EPW 2582   1.652   3.578   0.629
  535SOL      O 2583   1.025   3.478   1.629
  535SOL     H1 2584   1.066   3.514   1.550
  535SOL     H2 2585   1.060   3.389   1.636
  535SOL    EPW 2586   1.036   3.471   1.620
  536SOL      O 2587   1.582   3.033   1.233
  536SOL     H1 2588   1.503   2.998   1.191
  536SOL     H2 2589   1.609   3.105   1.177
  536SOL    EPW 2590   1.575   3.038   1.220
  537SOL      O 2591   0.814   2.346   0.499
  537SOL     H1 2592   0.789   2.434   0.527
  537SOL     H2 2593   0.811   2.349   0.403
  537SOL    EPW 2594   0.810   2.358   0.491
  538SOL      O 2595   0.256   2.374   0.427
  538SOL     H1 2596   0.288   2.462   0.409
  538SOL     H2 2597   0.244   2.372   0.522
  538SOL    EPW 2598   0.259   2.386   0.439
  539SOL      O 2599   0.334   2.787   1.328
  539SOL     H1 2600   0.397   2.734   1.279
  539SOL     H2 2601   0.315   2.861   1.271
  539SOL    EPW 2602   0.340   2.789   1.315
  540SOL      O 2603   0.655   2.129   0.514
  540SOL     H1 2604   0.713   2.205   0.516
  540SOL     H2 2605   0.590   2.150   0.447
  540SOL    EPW 2606   0.654   2.141   0.505
  541SOL      O 2607   0.742   3.056   0.689
  541SOL     H1 2608   0.822   3.059   0.741
  541SOL     H2 2609   0.770   3.023   0.603
  541SOL    EPW 2610   0.756   3.052   0.684
  542SOL      O 2611   0.767   3.397   1.592
  542SOL     H1 2612   0.851   3.423   1.631
  542SOL     H2 2613   0.791   3.341   1.518
  542SOL    EPW 2614   0.781   3.393   1.587
  543SOL      O 2615   0.519   2.560   0.680
  543SOL     H1 2616   0.504   2.480   0.731
  543SOL     H2 2617   0.601   2.595   0.714
  543SOL    EPW 2618   0.527   2.552   0.692
  544SOL      O 2619   0.856   3.246   1.365
  544SOL     H1 2620   0.820   3.312   1.305
  544SOL     H2 2621   0.784   3.184   1.378
  544SOL    EPW 2622   0.842   3.246   1.359
  545SOL      O 2623   0.661   2.386   1.057
  545SOL     H1 2624   0.567   2.382   1.075
  545SOL     H2 2625   0.691   2.295   1.066
  545SOL    EPW 2626   0.652   2.374   1.060
  546SOL      O 2627   0.407   2.800   0.961
  546SOL     H1 2628   0.362   2.807   0.877
  546SOL     H2 2629   0.387   2.883   1.005
  546SOL    EPW 2630   0.399   2.812   0.955
  547SOL      O 2631   0.104   3.646   0.836
  547SOL     H1 2632   0.193   3.638   0.871
  547SOL     H2 2633   0.068   3.558   0.841
  547SOL    EPW 2634   0.111   3.633   0.841
  548SOL      O 2635   1.369   3.038   0.205
  548SOL     H1 2636   1.287   3.074   0.171
  548SOL     H2 2637   1.437   3.081   0.154
  548SOL    EPW 2638   1.367   3.048   0.193
  549SOL      O 2639   0.368   3.173   0.871
  549SOL     H1 2640   0.344   3.226   0.947
  549SOL     H2 2641   0.424   3.231   0.819
  549SOL    EPW 2642   0.372   3.188   0.874
  550SOL      O 2643   0.930   2.817   0.681
  550SOL     H1 2644   0.844   2.804   0.721
  550SOL     H2 2645   0.983   2.744   0.713
  550SOL    EPW 2646   0.926   2.806   0.690
  551SOL      O 2647   0.338   3.469   1.466
  551SOL     H1 2648   0.246   3.445   1.451
  551SOL     H2 2649   0.382   3.386   1.483
  551SOL    EPW 2650   0.332   3.454   1.465
  552SOL      O 2651   0.921   3.179   0.398
  552SOL     H1 2652   0.898   3.241   0.466
  552SOL     H2 2653   0.878   3.097   0.424
  552SOL    EPW 2654   0.913   3.175   0.409
  553SOL      O 2655   1.794   2.180   0.854
  553SOL     H1 2656   1.731   2.160   0.923
  553SOL     H2 2657   1.784   2.109   0.791
  553SOL    EPW 2658   1.784   2.167   0.855
  554SOL      O 2659   0.418   2.152   0.366
  554SOL     H1 2660   0.392   2.114   0.282
  554SOL     H2 2661   0.355   2.222   0.382
  554SOL    EPW 2662   0.407   2.155   0.357
  555SOL      O 2663   0.253   3.113   0.403
  555SOL     H1 2664   0.201   3.181   0.359
  555SOL     H2 2665   0.250   3.039   0.343
  555SOL    EPW 2666   0.245   3.112   0.390
  556SOL      O 2667   0.915   3.576   0.181
  556SOL     H1 2668   0.870   3.592   0.264
  556SOL     H2 2669   0.846   3.541   0.123
  556SOL    EPW 2670   0.901   3.573   0.183
  557SOL      O 2671   1.850   2.349   0.156
  557SOL     H1 2672   1.759   2.351   0.184
  557SOL     H2 2673   1.895   2.411   0.214
  557SOL    EPW 2674   1.843   2.357   0.166
  558SOL      O 2675   1.595   2.952   0.506
  558SOL     H1 2676   1.505   2.952   0.541
  558SOL     H2 2677   1.588   2.998   0.423
  558SOL    EPW 2678   1.582   2.958   0.500
  559SOL      O 2679   1.395   2.587   1.578
  559SOL     H1 2680   1.464   2.525   1.555
  559SOL     H2 2681   1.320   2.561   1.525
  559SOL    EPW 2682   1.395   2.574   1.569
  560SOL      O 2683   0.136   3.467   1.130
  560SOL     H1 2684   0.119   3.413   1.207
  560SOL     H2 2685   0.124   3.557   1.160
  560SOL    EPW 2686   0.133   3.471   1.144
  561SOL      O 2687   1.131   2.974   1.570
  561SOL     H1 2688   1.116   3.067   1.555
  561SOL     H2 2689   1.226   2.964   1.570
  561SOL    EPW 2690   1.140   2.984   1.567
  562SOL      O 2691   0.927   2.398   1.771
  562SOL     H1 2692   1.017   2.399   1.738
  562SOL     H2 2693   0.886   2.323   1.729
  562SOL    EPW 2694   0.933   2.388   1.762
  563SOL      O 2695   1.502   2.930   0.898
  563SOL     H1 2696   1.505   2.864   0.829
  563SOL     H2 2697   1.587   2.973   0.894
  563SOL    EPW 2698   1.514   2.926   0.889
  564SOL      O 2699   1.122   2.533   0.467
  564SOL     H1 2700   1.148   2.557   0.378
  564SOL     H2 2701   1.104   2.440   0.463
  564SOL    EPW 2702   1.124   2.525   0.454
  565SOL      O 2703   1.787   3.153   0.318
  565SOL     H1 2704   1.743   3.194   0.393
  565SOL     H2 2705   1.844   3.221   0.283
  565SOL    EPW 2706   1.789   3.167   0.323
  566SOL      O 2707   0.707   2.202   1.721
  566SOL     H1 2708   0.717   2.128   1.661
  566SOL     H2 2709   0.743   2.171   1.804
  566SOL    EPW 2710   0.713   2.188   1.723
  567SOL      O 2711   0.443   3.569   0.636
  567SOL     H1 2712   0.475   3.657   0.614
  567SOL     H2 2713   0.396   3.541   0.558
  567SOL    EPW 2714   0.442   3.577   0.623
  568SOL      O 2715   1.827   1.931   0.685
  568SOL     H1 2716   1.881   1.882   0.747
  568SOL     H2 2717   1.770   1.865   0.646
  568SOL    EPW 2718   1.827   1.915   0.687
  569SOL      O 2719   0.159   3.629   0.213
  569SOL     H1 2720   0.188   3.719   0.205
  569SOL     H2 2721   0.109   3.612   0.134
  569SOL    EPW 2722   0.157   3.637   0.202
  570SOL      O 2723   0.946   1.884   1.098
  570SOL     H1 2724   0.905   1.962   1.060
  570SOL     H2 2725   1.040   1.902   1.093
  570SOL    EPW 2726   0.952   1.896   1.093
  571SOL      O 2727   1.563   3.437   0.184
  571SOL     H1 2728   1.611   3.506   0.230
  571SOL     H2 2729   1.484   3.481   0.153
  571SOL    EPW 2730   1.558   3.451   0.187
  572SOL      O 2731   0.961   2.562   0.128
  572SOL     H1 2732   0.963   2.509   0.049
  572SOL     H2 2733   1.049   2.599   0.134
  572SOL    EPW 2734   0.973   2.561   0.117
  573SOL      O 2735   1.575   2.488   0.464
  573SOL     H1 2736   1.614   2.488   0.551
  573SOL     H2 2737   1.516   2.564   0.464
  573SOL    EPW 2738   1.572   2.499   0.475
  574SOL      O 2739   0.892   2.855   1.593
  574SOL     H1 2740   0.869   2.835   1.683
  574SOL     H2 2741   0.977   2.899   1.598
  574SOL    EPW 2742   0.899   2.858   1.605
  575SOL      O 2743   0.972   1.992   1.353
  575SOL     H1 2744   0.978   1.954   1.266
  575SOL     H2 2745   0.961   2.086   1.338
  575SOL    EPW 2746   0.973   2.000   1.341
  576SOL      O 2747   1.061   2.481   1.187
  576SOL     H1 2748   1.136   2.510   1.134
  576SOL     H2 2749   0.993   2.546   1.171
  576SOL    EPW 2750   1.062   2.493   1.177
  577SOL      O 2751   1.611   2.449   1.464
  577SOL     H1 2752   1.592   2.358   1.443
  577SOL     H2 2753   1.589   2.498   1.385
  577SOL    EPW 2754   1.606   2.442   1.451
  578SOL      O 2755   1.753   3.543   1.368
  578SOL     H1 2756   1.681   3.505   1.419
  578SOL     H2 2757   1.770   3.628   1.409
  578SOL    EPW 2758   1.747   3.548   1.380
  579SOL      O 2759   1.058   2.187   1.570
  579SOL     H1 2760   1.024   2.226   1.489
  579SOL     H2 2761   1.036   2.095   1.563
  579SOL    EPW 2762   1.051   2.180   1.560
  580SOL      O 2763   1.467   3.001   1.646
  580SOL     H1 2764   1.549   3.042   1.676
  580SOL     H2 2765   1.430   2.963   1.726
  580SOL    EPW 2766   1.473   3.002   1.661
  581SOL      O 2767   1.762   2.374   0.630
  581SOL     H1 2768   1.851   2.343   0.647
  581SOL     H2 2769   1.705   2.314   0.678
  581SOL    EPW 2770   1.765   2.362   0.639
  582SOL      O 2771   0.188   2.088   0.659
  582SOL     H1 2772   0.179   2.028   0.585
  582SOL     H2 2773   0.121   2.059   0.722
  582SOL    EPW 2774   0.178   2.075   0.657
  583SOL      O 2775   1.131   3.181   0.220
  583SOL     H1 2776   1.081   3.183   0.302
  583SOL     H2 2777   1.065   3.199   0.152
  583SOL    EPW 2778   1.117   3.183   0.222
  584SOL      O 2779   0.135   2.261   1.022
  584SOL     H1 2780   0.107   2.352   1.031
  584SOL     H2 2781   0.072   2.222   0.961
  584SOL    EPW 2782   0.122   2.267   1.016
  585SOL      O 2783   0.594   3.599   0.328
  585SOL     H1 2784   0.515   3.557   0.361
  585SOL     H2 2785   0.660   3.582   0.395
  585SOL    EPW 2786   0.593   3.591   0.341
  586SOL      O 2787   1.722   3.119   1.725
  586SOL     H1 2788   1.772   3.045   1.757
  586SOL     H2 2789   1.668   3.146   1.800
  586SOL    EPW 2790   1.722   3.113   1.738
  587SOL      O 2791   0.730   3.014   0.035
  587SOL     H1 2792   0.652   2.960   0.022
  587SOL     H2 2793   0.701   3.087   0.088
  587SOL    EPW 2794   0.716   3.016   0.040
  588SOL      O 2795   1.856   2.754   1.227
  588SOL     H1 2796   1.872   2.792   1.140
  588SOL     H2 2797   1.890   2.820   1.288
  588SOL    EPW 2798   1.863   2.767   1.223
  589SOL      O 2799   1.648   3.463   0.896
  589SOL     H1 2800   1.677   3.530   0.957
  589SOL     H2 2801   1.629   3.387   0.951
  589SOL    EPW 2802   1.650   3.463   0.911
  590SOL      O 2803   1.311   3.530   0.103
  590SOL     H1 2804   1.237   3.493   0.153
  590SOL     H2 2805   1.319   3.620   0.136
  590SOL    EPW 2806   1.302   3.537   0.115
  591SOL      O 2807   0.119   2.536   1.192
  591SOL     H1 2808   0.181   2.566   1.258
  591SOL     H2 2809   0.053   2.605   1.186
  591SOL    EPW 2810   0.118   2.549   1.199
  592SOL      O 2811   1.535   3.204   0.045
  592SOL     H1 2812   1.482   3.253  -0.019
  592SOL     H2 2813   1.566   3.270   0.106
  592SOL    EPW 2814   1.533   3.218   0.043
  593SOL      O 2815   0.760   2.093   0.100
  593SOL     H1 2816   0.708   2.013   0.088
  593SOL     H2 2817   0.847   2.070   0.068
  593SOL    EPW 2818   0.763   2.079   0.094
  594SOL      O 2819   0.214   3.645   1.644
  594SOL     H1 2820   0.188   3.713   1.582
  594SOL     H2 2821   0.262   3.582   1.592
  594SOL    EPW 2822   0.216   3.645   1.630
  595SOL      O 2823   0.266   2.964   1.151
  595SOL     H1 2824   0.319   3.039   1.176
  595SOL     H2 2825   0.185   3.002   1.117
  595SOL    EPW 2826   0.262   2.979   1.151
  596SOL      O 2827   0.806   2.868   1.139
  596SOL     H1 2828   0.834   2.777   1.151
  596SOL     H2 2829   0.735   2.862   1.075
  596SOL    EPW 2830   0.799   2.856   1.134
  597SOL      O 2831   0.121   2.733   0.557
  597SOL     H1 2832   0.212   2.748   0.584
  597SOL     H2 2833   0.124   2.654   0.503
  597SOL    EPW 2834   0.133   2.725   0.555
  598SOL      O 2835   0.357   2.441   1.811
  598SOL     H1 2836   0.304   2.521   1.818
  598SOL     H2 2837   0.427   2.453   1.876
  598SOL    EPW 2838   0.359   2.454   1.819
  599SOL      O 2839   0.743   1.991   1.518
  599SOL     H1 2840   0.720   1.899   1.520
  599SOL     H2 2841   0.829   1.993   1.475
  599SOL    EPW 2842   0.750   1.981   1.514
  600SOL      O 2843   0.427   2.515   1.557
  600SOL     H1 2844   0.507   2.565   1.543
  600SOL     H2 2845   0.418   2.509   1.652
  600SOL    EPW 2846   0.436   2.521   1.567
  601SOL      O 2847   0.748   3.665   0.931
  601SOL     H1 2848   0.837   3.680   0.961
  601SOL     H2 2849   0.743   3.712   0.847
  601SOL    EPW 2850   0.758   3.673   0.924
  602SOL      O 2851   1.404   2.040   1.828
  602SOL     H1 2852   1.460   1.967   1.854
  602SOL     H2 2853   1.374   2.078   1.910
  602SOL    EPW 2854   1.408   2.035   1.841
  603SOL      O 2855   0.129   3.345   0.596
  603SOL     H1 2856   0.101   3.384   0.678
  603SOL     H2 2857   0.149   3.254   0.618
  603SOL    EPW 2858   0.127   3.337   0.609
  604SOL      O 2859   0.962   3.388   0.631
  604SOL     H1 2860   1.045   3.342   0.615
  604SOL     H2 2861   0.952   3.387   0.727
  604SOL    EPW 2862   0.972   3.381   0.641
  605SOL      O 2863   1.794   2.533   0.945
  605SOL     H1 2864   1.883   2.563   0.927
  605SOL     H2 2865   1.774   2.473   0.874
  605SOL    EPW 2866   1.803   2.530   0.934
  606SOL      O 2867   1.645   2.712   1.825
  606SOL     H1 2868   1.700   2.636   1.806
  606SOL     H2 2869   1.647   2.720   1.920
  606SOL    EPW 2870   1.653   2.703   1.833
  607SOL      O 2871   0.695   3.445   0.036
  607SOL     H1 2872   0.635   3.514   0.006
  607SOL     H2 2873   0.640   3.387   0.089
  607SOL    EPW 2874   0.679   3.447   0.038
  608SOL      O 2875   1.133   2.090   0.259
  608SOL     H1 2876   1.066   2.066   0.196
  608SOL     H2 2877   1.198   2.139   0.208
  608SOL    EPW 2878   1.133   2.092   0.244
  609SOL      O 2879   0.940   2.274   1.344
  609SOL     H1 2880   0.859   2.315   1.372
  609SOL     H2 2881   0.987   2.342   1.296
  609SOL    EPW 2882   0.935   2.289   1.342
  610SOL      O 2883   1.200   2.612   0.967
  610SOL     H1 2884   1.213   2.706   0.977
  610SOL     H2 2885   1.161   2.602   0.881
  610SOL    EPW 2886   1.196   2.623   0.957
  611SOL      O 2887   0.652   2.807   0.771
  611SOL     H1 2888   0.563   2.798   0.804
  611SOL     H2 2889   0.656   2.897   0.739
  611SOL    EPW 2890   0.641   2.818   0.771
  612SOL      O 2891   1.451   2.390   0.766
  612SOL     H1 2892   1.396   2.311   0.765
  612SOL     H2 2893   1.433   2.431   0.850
  612SOL    EPW 2894   1.441   2.385   0.775
  613SOL      O 2895   0.422   2.077   1.583
  613SOL     H1 2896   0.343   2.095   1.635
  613SOL     H2 2897   0.417   2.139   1.510
  613SOL    EPW 2898   0.412   2.087   1.580
  614SOL      O 2899   1.070   2.594   0.723
  614SOL     H1 2900   1.007   2.526   0.747
  614SOL     H2 2901   1.090   2.575   0.631
  614SOL    EPW 2902   1.064   2.581   0.715
  615SOL      O 2903   0.326   3.489   0.425
  615SOL     H1 2904   0.287   3.536   0.351
  615SOL     H2 2905   0.260   3.424   0.450
  615SOL    EPW 2906   0.313   3.487   0.419
  616SOL      O 2907   0.818   2.898   0.449
  616SOL     H1 2908   0.820   2.872   0.356
  616SOL     H2 2909   0.876   2.835   0.492
  616SOL    EPW 2910   0.826   2.887   0.443
  617SOL      O 2911   1.371   3.458   1.221
  617SOL     H1 2912   1.296   3.504   1.259
  617SOL     H2 2913   1.353   3.365   1.238
  617SOL    EPW 2914   1.360   3.452   1.229
  618SOL      O 2915   1.375   3.666   0.651
  618SOL     H1 2916   1.318   3.619   0.590
  618SOL     H2 2917   1.461   3.627   0.638
  618SOL    EPW 2918   1.378   3.657   0.641
  619SOL      O 2919   1.328   2.142   0.782
  619SOL     H1 2920   1.356   2.074   0.843
  619SOL     H2 2921   1.242   2.113   0.752
  619SOL    EPW 2922   1.321   2.129   0.786
  620SOL      O 2923   0.133   3.076   0.716
  620SOL     H1 2924   0.197   3.108   0.779
  620SOL     H2 2925   0.182   3.012   0.664
  620SOL    EPW 2926   0.148   3.072   0.717
  621SOL      O 2927   0.633   3.152   1.698
  621SOL     H1 2928   0.681   3.235   1.685
  621SOL     H2 2929   0.690   3.100   1.754
  621SOL    EPW 2930   0.647   3.156   1.704
  622SOL      O 2931   0.209   3.394   1.838
  622SOL     H1 2932   0.265   3.318   1.853
  622SOL     H2 2933   0.158   3.372   1.760
  622SOL    EPW 2934   0.209   3.381   1.829
  623SOL      O 2935   1.308   2.246   0.117
  623SOL     H1 2936   1.281   2.312   0.053
  623SOL     H2 2937   1.378   2.289   0.167
  623SOL    EPW 2938   1.313   2.259   0.114
  624SOL      O 2939   0.976   1.951   0.054
  624SOL     H1 2940   1.032   1.943  -0.024
  624SOL     H2 2941   0.953   1.861   0.076
  624SOL    EPW 2942   0.981   1.938   0.047
  625SOL      O 2943   1.481   2.802   0.259
  625SOL     H1 2944   1.448   2.891   0.249
  625SOL     H2 2945   1.446   2.773   0.344
  625SOL    EPW 2946   1.471   2.811   0.270
  626SOL      O 2947   1.094   3.231   1.447
  626SOL     H1 2948   1.005   3.237   1.415
  626SOL     H2 2949   1.138   3.310   1.415
  626SOL    EPW 2950   1.089   3.241   1.439
  627SOL      O 2951   0.387   1.899   1.789
  627SOL     H1 2952   0.315   1.864   1.737
  627SOL     H2 2953   0.445   1.940   1.724
  627SOL    EPW 2954   0.385   1.900   1.774
  628SOL      O 2955   0.411   3.389   1.088
  628SOL     H1 2956   0.456   3.451   1.145
  628SOL     H2 2957   0.318   3.408   1.101
  628SOL    EPW 2958   0.404   3.399   1.095
  629SOL      O 2959   1.851   2.918   1.442
  629SOL     H1 2960   1.766   2.931   1.401
  629SOL     H2 2961   1.831   2.882   1.529
  629SOL    EPW 2962   1.838   2.914   1.447
  630SOL      O 2963   0.833   3.457   1.196
  630SOL     H1 2964   0.857   3.446   1.105
  630SOL     H2 2965   0.756   3.514   1.194
  630SOL    EPW 2966   0.825   3.462   1.185
  631SOL      O 2967   0.475   2.840   0.051
  631SOL     H1 2968   0.398   2.853   0.107
  631SOL     H2 2969   0.439   2.804  -0.030
  631SOL    EPW 2970   0.461   2.836   0.048
  632SOL      O 2971   1.128   2.813   0.294
  632SOL     H1 2972   1.038   2.834   0.269
  632SOL     H2 2973   1.155   2.886   0.350
  632SOL    EPW 2974   1.120   2.825   0.297
  633SOL      O 2975   0.628   3.162   0.986
  633SOL     H1 2976   0.621   3.141   1.080
  633SOL     H2 2977   0.546   3.130   0.949
  633SOL    EPW 2978   0.616   3.156   0.993
  634SOL      O 2979   1.492   2.172   1.388
  634SOL     H1 2980   1.439   2.174   1.468
  634SOL     H2 2981   1.477   2.085   1.351
  634SOL    EPW 2982   1.484   2.162   1.393
  635SOL      O 2983   1.828   2.096   1.261
  635SOL     H1 2984   1.809   2.163   1.196
  635SOL     H2 2985   1.885   2.034   1.216
  635SOL    EPW 2986   1.832   2.097   1.247
  636SOL      O 2987   0.074   3.254   1.649
  636SOL     H1 2988   0.118   3.187   1.595
  636SOL     H2 2989  -0.011   3.216   1.669
  636SOL    EPW 2990   0.069   3.240   1.645
  637SOL      O 2991   0.757   1.929   0.701
  637SOL     H1 2992   0.686   1.990   0.683
  637SOL     H2 2993   0.808   1.926   0.620
  637SOL    EPW 2994   0.753   1.935   0.688
  638SOL      O 2995   0.515   3.169   0.450
  638SOL     H1 2996   0.508   3.201   0.540
  638SOL     H2 2997   0.425   3.153   0.422
  638SOL    EPW 2998   0.503   3.171   0.457
  639SOL      O 2999   1.110   3.562   1.359
  639SOL     H1 3000   1.030   3.547   1.309
  639SOL     H2 3001   1.117   3.657   1.366
  639SOL    EPW 3002   1.101   3.573   1.353
  640SOL      O 3003   1.224   3.527   0.849
  640SOL     H1 3004   1.271   3.600   0.808
  640SOL     H2 3005   1.145   3.566   0.885
  640SOL    EPW 3006   1.219   3.542   0.848
  641SOL      O 3007   1.632   3.622   1.124
  641SOL     H1 3008   1.675   3.592   1.204
  641SOL     H2 3009   1.551   3.570   1.121
  641SOL    EPW 3010   1.627   3.611   1.134
  642SOL      O 3011   0.717   2.586   1.831
  642SOL     H1 3012   0.787   2.528   1.803
  642SOL     H2 3013   0.660   2.531   1.886
  642SOL    EPW 3014   0.719   2.573   1.835
  643SOL      O 3015   1.504   2.798   1.464
  643SOL     H1 3016   1.509   2.851   1.544
  643SOL     H2 3017   1.466   2.715   1.492
  643SOL    EPW 3018   1.500   2.793   1.479
  644SOL      O 3019   1.144   1.933   1.710
  644SOL     H1 3020   1.139   1.840   1.691
  644SOL     H2 3021   1.227   1.944   1.756
  644SOL    EPW 3022   1.152   1.922   1.714
  645SOL      O 3023   0.518   2.453   0.164
  645SOL     H1 3024   0.484   2.509   0.234
  645SOL     H2 3025   0.589   2.403   0.204
  645SOL    EPW 3026   0.524   2.454   0.178
  646SOL      O 3027   1.614   3.204   0.986
  646SOL     H1 3028   1.649   3.186   0.899
  646SOL     H2 3029   1.519   3.205   0.973
  646SOL    EPW 3030   1.606   3.201   0.973
  647SOL      O 3031   1.043   2.852   1.355
  647SOL     H1 3032   1.086   2.887   1.433
  647SOL     H2 3033   1.026   2.929   1.301
  647SOL    EPW 3034   1.046   2.867   1.358
  648SOL      O 3035   1.574   2.339   0.228
  648SOL     H1 3036   1.566   2.410   0.165
  648SOL     H2 3037   1.592   2.383   0.311
  648SOL    EPW 3038   1.575   2.353   0.230
  649SOL      O 3039   0.434   1.994   0.657
  649SOL     H1 3040   0.484   2.037   0.588
  649SOL     H2 3041   0.349   2.038   0.657
  649SOL    EPW 3042   0.431   2.007   0.648
  650SOL      O 3043   0.193   3.056   1.517
  650SOL     H1 3044   0.221   3.009   1.595
  650SOL     H2 3045   0.114   3.011   1.488
  650SOL    EPW 3046   0.186   3.045   1.523
  651SOL      O 3047   0.701   2.383   1.484
  651SOL     H1 3048   0.673   2.471   1.508
  651SOL     H2 3049   0.670   2.327   1.555
  651SOL    EPW 3050   0.693   2.386   1.496
  652SOL      O 3051   1.243   2.601   0.203
  652SOL     H1 3052   1.290   2.619   0.122
  652SOL     H2 3053   1.209   2.685   0.231
  652SOL    EPW 3054   1.245   2.615   0.196
  653SOL      O 3055   0.356   2.779   0.697
  653SOL     H1 3056   0.414   2.835   0.645
  653SOL     H2 3057   0.400   2.694   0.699
  653SOL    EPW 3058   0.369   2.776   0.690
  654SOL      O 3059   1.496   2.131   0.534
  654SOL     H1 3060   1.418   2.081   0.559
  654SOL     H2 3061   1.467   2.222   0.534
  654SOL    EPW 3062   1.482   2.135   0.537
  655SOL      O 3063   1.082   2.093   0.693
  655SOL     H1 3064   1.102   2.168   0.637
  655SOL     H2 3065   1.062   2.132   0.778
  655SOL    EPW 3066   1.083   2.109   0.697
  656SOL      O 3067   0.978   3.343   0.025
  656SOL     H1 3068   1.005   3.421  -0.023
  656SOL     H2 3069   0.885   3.358   0.044
  656SOL    EPW 3070   0.969   3.356   0.021
  657SOL      O 3071   1.842   2.866   1.712
  657SOL     H1 3072   1.755   2.846   1.748
  657SOL     H2 3073   1.896   2.792   1.737
  657SOL    EPW 3074   1.837   2.855   1.720
  658SOL      O 3075   0.063   3.379   0.869
  658SOL     H1 3076   0.095   3.383   0.960
  658SOL     H2 3077  -0.032   3.387   0.877
  658SOL    EPW 3078   0.055   3.382   0.882
  659SOL      O 3079   0.018   2.505   0.416
  659SOL     H1 3080  -0.042   2.477   0.486
  659SOL     H2 3081   0.092   2.445   0.422
  659SOL    EPW 3082   0.020   2.494   0.425
  660SOL      O 3083   1.586   3.717   1.850
  660SOL     H1 3084   1.631   3.641   1.815
  660SOL     H2 3085   1.624   3.730   1.937
  660SOL    EPW 3086   1.596   3.710   1.856
  661SOL      O 3087   1.186   3.236   0.576
  661SOL     H1 3088   1.209   3.187   0.654
  661SOL     H2 3089   1.267   3.278   0.548
  661SOL    EPW 3090   1.199   3.236   0.583
  662SOL      O 3091   0.444   2.244   1.305
  662SOL     H1 3092   0.477   2.325   1.345
  662SOL     H2 3093   0.417   2.270   1.217
  662SOL    EPW 3094   0.443   2.258   1.299
  663SOL      O 3095   0.398   2.211   1.041
  663SOL     H1 3096   0.428   2.125   1.012
  663SOL     H2 3097   0.303   2.204   1.044
  663SOL    EPW 3098   0.390   2.200   1.039
  664SOL      O 3099   1.227   2.420   1.732
  664SOL     H1 3100   1.279   2.355   1.685
  664SOL     H2 3101   1.185   2.471   1.662
  664SOL    EPW 3102   1.228   2.417   1.715
  665SOL      O 3103   1.326   2.215   1.593
  665SOL     H1 3104   1.233   2.199   1.580
  665SOL     H2 3105   1.352   2.153   1.661
  665SOL    EPW 3106   1.316   2.205   1.600
  666SOL      O 3107   0.541   1.989   0.932
  666SOL     H1 3108   0.551   1.898   0.958
  666SOL     H2 3109   0.497   1.985   0.847
  666SOL    EPW 3110   0.537   1.977   0.924
  667SOL      O 3111   0.635   3.604   1.478
  667SOL     H1 3112   0.552   3.589   1.523
  667SOL     H2 3113   0.694   3.537   1.513
  667SOL    EPW 3114   0.633   3.594   1.488
  668SOL      O 3115   1.692   2.311   1.103
  668SOL     H1 3116   1.625   2.344   1.163
  668SOL     H2 3117   1.735   2.389   1.069
  668SOL    EPW 3118   1.690   2.326   1.107
  669SOL      O 3119   1.870   3.031   1.073
  669SOL     H1 3120   1.863   2.971   0.998
  669SOL     H2 3121   1.796   3.091   1.062
  669SOL    EPW 3122   1.860   3.031   1.062
  670SOL      O 3123   1.252   2.893   0.991
  670SOL     H1 3124   1.266   2.865   1.082
  670SOL     H2 3125   1.338   2.924   0.963
  670SOL    EPW 3126   1.265   2.894   1.000
  671SOL      O 3127   1.335   2.388   1.270
  671SOL     H1 3128   1.356   2.389   1.177
  671SOL     H2 3129   1.380   2.310   1.303
  671SOL    EPW 3130   1.342   2.378   1.262
  672SOL      O 3131   1.828   2.519   1.812
  672SOL     H1 3132   1.865   2.464   1.881
  672SOL     H2 3133   1.853   2.476   1.730
  672SOL    EPW 3134   1.835   2.507   1.811
  673SOL      O 3135   1.375   2.817   1.863
  673SOL     H1 3136   1.441   2.765   1.817
  673SOL     H2 3137   1.395   2.804   1.956
  673SOL    EPW 3138   1.386   2.808   1.870
  674SOL      O 3139   1.326   1.903   0.212
  674SOL     H1 3140   1.400   1.947   0.255
  674SOL     H2 3141   1.250   1.957   0.234
  674SOL    EPW 3142   1.326   1.915   0.220
  675SOL      O 3143   1.386   2.678   0.490
  675SOL     H1 3144   1.301   2.648   0.460
  675SOL     H2 3145   1.378   2.685   0.585
  675SOL    EPW 3146   1.374   2.676   0.499
  676SOL      O 3147   0.462   3.141   1.221
  676SOL     H1 3148   0.474   3.168   1.312
  676SOL     H2 3149   0.443   3.222   1.174
  676SOL    EPW 3150   0.461   3.156   1.226
  677SOL      O 3151   0.746   2.121   1.044
  677SOL     H1 3152   0.719   2.123   1.135
  677SOL     H2 3153   0.676   2.073   0.999
  677SOL    EPW 3154   0.734   2.117   1.051
  678SOL      O 3155   0.600   3.613   1.206
  678SOL     H1 3156   0.652   3.690   1.183
  678SOL     H2 3157   0.609   3.605   1.301
  678SOL    EPW 3158   0.609   3.620   1.217
  679SOL      O 3159   1.502   3.198   1.438
  679SOL     H1 3160   1.487   3.127   1.501
  679SOL     H2 3161   1.548   3.156   1.366
  679SOL    EPW 3162   1.508   3.182   1.438
  680SOL      O 3163   0.576   2.929   1.555
  680SOL     H1 3164   0.613   2.934   1.467
  680SOL     H2 3165   0.615   3.002   1.602
  680SOL    EPW 3166   0.586   2.939   1.550
  681SOL      O 3167   0.756   2.972   1.367
  681SOL     H1 3168   0.815   2.918   1.420
  681SOL     H2 3169   0.771   2.944   1.277
  681SOL    EPW 3170   0.766   2.961   1.363
  682SOL      O 3171   0.759   2.344   0.216
  682SOL     H1 3172   0.832   2.393   0.179
  682SOL     H2 3173   0.775   2.253   0.190
  682SOL    EPW 3174   0.771   2.339   0.209
  683SOL      O 3175   1.567   3.461   1.539
  683SOL     H1 3176   1.609   3.446   1.624
  683SOL     H2 3177   1.558   3.374   1.501
  683SOL    EPW 3178   1.571   3.449   1.546
  684SOL      O 3179   1.227   1.940   1.130
  684SOL     H1 3180   1.282   1.949   1.052
  684SOL     H2 3181   1.282   1.974   1.201
  684SOL    EPW 3182   1.241   1.945   1.129
  685SOL      O 3183   0.234   2.853   0.314
  685SOL     H1 3184   0.171   2.869   0.243
  685SOL     H2 3185   0.181   2.816   0.385
  685SOL    EPW 3186   0.219   2.850   0.314
  686SOL      O 3187   0.590   3.207   0.173
  686SOL     H1 3188   0.605   3.183   0.265
  686SOL     H2 3189   0.498   3.185   0.157
  686SOL    EPW 3190   0.580   3.200   0.183
  687SOL      O 3191   1.129   3.438   0.325
  687SOL     H1 3192   1.137   3.356   0.276
  687SOL     H2 3193   1.048   3.477   0.292
  687SOL    EPW 3194   1.119   3.433   0.315
  688SOL      O 3195   0.388   3.596   0.894
  688SOL     H1 3196   0.392   3.507   0.929
  688SOL     H2 3197   0.414   3.587   0.803
  688SOL    EPW 3198   0.391   3.584   0.886
  689SOL      O 3199   1.005   3.074   1.137
  689SOL     H1 3200   0.937   3.008   1.153
  689SOL     H2 3201   1.023   3.068   1.044
  689SOL    EPW 3202   0.998   3.065   1.128
  690SOL      O 3203   0.094   3.349   1.388
  690SOL     H1 3204   0.084   3.307   1.474
  690SOL     H2 3205   0.015   3.402   1.378
  690SOL    EPW 3206   0.083   3.350   1.399
  691SOL      O 3207   0.998   2.213   0.958
  691SOL     H1 3208   0.928   2.165   1.003
  691SOL     H2 3209   1.030   2.276   1.022
  691SOL    EPW 3210   0.993   2.215   0.972
  692SOL      O 3211   0.649   2.649   1.578
  692SOL     H1 3212   0.642   2.744   1.566
  692SOL     H2 3213   0.658   2.638   1.673
  692SOL    EPW 3214   0.650   2.661   1.588
  693SOL      O 3215   0.370   3.164   1.836
  693SOL     H1 3216   0.442   3.166   1.773
  693SOL     H2 3217   0.340   3.073   1.835
  693SOL    EPW 3218   0.375   3.153   1.828
  694SOL      O 3219   1.454   1.927   1.303
  694SOL     H1 3220   1.525   1.873   1.267
  694SOL     H2 3221   1.453   1.906   1.396
  694SOL    EPW 3222   1.463   1.918   1.311
  695SOL      O 3223   1.654   3.457   1.787
  695SOL     H1 3224   1.627   3.454   1.878
  695SOL     H2 3225   1.750   3.461   1.790
  695SOL    EPW 3226   1.664   3.457   1.799
  696SOL      O 3227   0.465   2.319   0.771
  696SOL     H1 3228   0.536   2.267   0.734
  696SOL     H2 3229   0.451   2.284   0.858
  696SOL    EPW 3230   0.473   2.308   0.778
  697SOL      O 3231   0.020   3.654   1.843
  697SOL     H1 3232   0.070   3.632   1.765
  697SOL     H2 3233   0.028   3.749   1.851
  697SOL    EPW 3234   0.028   3.663   1.834
  698SOL      O 3235   0.781   3.412   0.847
  698SOL     H1 3236   0.709   3.349   0.860
  698SOL     H2 3237   0.742   3.497   0.865
  698SOL    EPW 3238   0.765   3.415   0.850
  699SOL      O 3239   1.101   2.260   0.495
  699SOL     H1 3240   1.123   2.197   0.427
  699SOL     H2 3241   1.006   2.252   0.506
  699SOL    EPW 3242   1.091   2.251   0.487
  700SOL      O 3243   0.186   1.950   0.427
  700SOL     H1 3244   0.257   1.971   0.366
  700SOL     H2 3245   0.140   1.878   0.385
  700SOL    EPW 3246   0.190   1.944   0.413
  701SOL      O 3247   0.017   2.417   1.570
  701SOL     H1 3248   0.081   2.483   1.545
  701SOL     H2 3249  -0.064   2.444   1.527
  701SOL    EPW 3250   0.015   2.429   1.562
  702SOL      O 3251   1.755   3.324   0.527
  702SOL     H1 3252   1.725   3.257   0.588
  702SOL     H2 3253   1.849   3.330   0.541
  702SOL    EPW 3254   1.763   3.316   0.537
  703SOL      O 3255   1.311   3.001   0.457
  703SOL     H1 3256   1.283   3.087   0.490
  703SOL     H2 3257   1.339   3.017   0.367
  703SOL    EPW 3258   1.311   3.015   0.449
  704SOL      O 3259   0.973   1.921   0.510
  704SOL     H1 3260   1.010   1.980   0.575
  704SOL     H2 3261   0.950   1.977   0.436
  704SOL    EPW 3262   0.974   1.936   0.509
  705SOL      O 3263   1.826   2.803   0.932
  705SOL     H1 3264   1.817   2.835   0.843
  705SOL     H2 3265   1.779   2.719   0.932
  705SOL    EPW 3266   1.819   2.796   0.922
  706SOL      O 3267   0.202   2.643   1.511
  706SOL     H1 3268   0.223   2.712   1.449
  706SOL     H2 3269   0.282   2.590   1.516
  706SOL    EPW 3270   0.215   2.644   1.505
  707SOL      O 3271   1.738   2.734   0.633
  707SOL     H1 3272   1.832   2.723   0.621
  707SOL     H2 3273   1.714   2.806   0.574
  707SOL    EPW 3274   1.748   2.742   0.624
  708SOL      O 3275   0.187   2.658   1.778
  708SOL     H1 3276   0.113   2.602   1.804
  708SOL     H2 3277   0.182   2.661   1.683
  708SOL    EPW 3278   0.176   2.651   1.768
  709SOL      O 3279   0.353   1.945   1.228
  709SOL     H1 3280   0.396   2.029   1.248
  709SOL     H2 3281   0.426   1.883   1.221
  709SOL    EPW 3282   0.368   1.948   1.229
  710SOL      O 3283   0.394   2.612   0.406
  710SOL     H1 3284   0.394   2.707   0.391
  710SOL     H2 3285   0.471   2.596   0.460
  710SOL    EPW 3286   0.404   2.623   0.411
  711SOL      O 3287   1.170   2.471   1.470
  711SOL     H1 3288   1.206   2.444   1.386
  711SOL     H2 3289   1.083   2.505   1.449
  711SOL    EPW 3290   1.164   2.472   1.457
  712SOL      O 3291   0.153   2.343   0.695
  712SOL     H1 3292   0.215   2.350   0.768
  712SOL     H2 3293   0.153   2.250   0.672
  712SOL    EPW 3294   0.161   2.332   0.702
  713SOL      O 3295   1.700   3.683   0.227
  713SOL     H1 3296   1.767   3.716   0.167
  713SOL     H2 3297   1.657   3.762   0.261
  713SOL    EPW 3298   1.702   3.698   0.223
  714SOL      O 3299   0.835   2.604   1.179
  714SOL     H1 3300   0.793   2.522   1.155
  714SOL     H2 3301   0.836   2.603   1.275
  714SOL    EPW 3302   0.828   2.593   1.188
  715SOL      O 3303   1.506   3.737   1.578
  715SOL     H1 3304   1.509   3.643   1.561
  715SOL     H2 3305   1.529   3.745   1.670
  715SOL    EPW 3306   1.509   3.725   1.588
  716SOL      O 3307   0.639   2.074   1.284
  716SOL     H1 3308   0.570   2.137   1.305
  716SOL     H2 3309   0.666   2.038   1.369
  716SOL    EPW 3310   0.633   2.077   1.297
  717SOL      O 3311   0.022   2.915   0.153
  717SOL     H1 3312  -0.009   2.980   0.216
  717SOL     H2 3313  -0.029   2.837   0.172
  717SOL    EPW 3314   0.012   2.912   0.163
  718SOL      O 3315   1.434   1.927   0.901
  718SOL     H1 3316   1.522   1.936   0.938
  718SOL     H2 3317   1.444   1.868   0.827
  718SOL    EPW 3318   1.448   1.921   0.895
  719SOL      O 3319   1.466   2.666   0.745
  719SOL     H1 3320   1.546   2.681   0.694
  719SOL     H2 3321   1.459   2.571   0.751
  719SOL    EPW 3322   1.475   2.655   0.740
  720SOL      O 3323   0.606   3.715   0.095
  720SOL     H1 3324   0.511   3.715   0.087
  720SOL     H2 3325   0.622   3.661   0.173
  720SOL    EPW 3326   0.596   3.709   0.104
  721SOL      O 3327   0.916   2.592   1.442
  721SOL     H1 3328   0.985   2.659   1.439
  721SOL     H2 3329   0.849   2.630   1.498
  721SOL    EPW 3330   0.917   2.605   1.449
  722SOL      O 3331   0.334   2.892   1.690
  722SOL     H1 3332   0.288   2.808   1.692
  722SOL     H2 3333   0.391   2.886   1.614
  722SOL    EPW 3334   0.336   2.880   1.682
  723SOL      O 3335   1.451   2.535   0.011
  723SOL     H1 3336   1.379   2.511  -0.047
  723SOL     H2 3337   1.517   2.572  -0.047
  723SOL    EPW 3338   1.450   2.537  -0.004
  724SOL      O 3339   0.585   3.267   0.691
  724SOL     H1 3340   0.650   3.200   0.712
  724SOL     H2 3341   0.637   3.344   0.668
  724SOL    EPW 3342   0.600   3.269   0.690
  725SOL      O 3343   0.846   2.432   0.821
  725SOL     H1 3344   0.786   2.450   0.893
  725SOL     H2 3345   0.880   2.344   0.840
  725SOL    EPW 3346   0.842   2.422   0.834
  726SOL      O 3347   1.787   1.931   1.490
  726SOL     H1 3348   1.708   1.977   1.518
  726SOL     H2 3349   1.822   1.985   1.419
  726SOL    EPW 3350   1.781   1.944   1.484
  727SOL      O 3351   1.071   3.015   0.840
  727SOL     H1 3352   1.163   2.996   0.858
  727SOL     H2 3353   1.044   2.945   0.780
  727SOL    EPW 3354   1.079   3.003   0.834
  728SOL      O 3355   0.864   2.835   0.195
  728SOL     H1 3356   0.850   2.747   0.160
  728SOL     H2 3357   0.815   2.892   0.136
  728SOL    EPW 3358   0.856   2.830   0.183
  729SOL      O 3359   1.345   3.253   0.936
  729SOL     H1 3360   1.318   3.337   0.901
  729SOL     H2 3361   1.305   3.248   1.023
  729SOL    EPW 3362   1.338   3.262   0.942
  730SOL      O 3363   1.264   3.201   1.204
  730SOL     H1 3364   1.275   3.168   1.293
  730SOL     H2 3365   1.183   3.160   1.173
  730SOL    EPW 3366   1.254   3.193   1.210
  731SOL      O 3367   0.277   2.559   0.974
  731SOL     H1 3368   0.227   2.558   1.055
  731SOL     H2 3369   0.297   2.651   0.958
  731SOL    EPW 3370   0.273   2.571   0.982
  732SOL      O 3371   1.344   3.323   1.736
  732SOL     H1 3372   1.344   3.417   1.752
  732SOL     H2 3373   1.389   3.313   1.652
  732SOL    EPW 3374   1.350   3.333   1.727
  733SOL      O 3375   1.583   2.041   0.297
  733SOL     H1 3376   1.576   2.045   0.392
  733SOL     H2 3377   1.595   2.132   0.270
  733SOL    EPW 3378   1.584   2.054   0.305
  734SOL      O 3379   0.872   2.604   0.411
  734SOL     H1 3380   0.852   2.590   0.318
  734SOL     H2 3381   0.965   2.583   0.418
  734SOL    EPW 3382   0.882   2.599   0.400
  735SOL      O 3383   0.199   2.227   1.715
  735SOL     H1 3384   0.156   2.286   1.652
  735SOL     H2 3385   0.267   2.282   1.755
  735SOL    EPW 3386   0.203   2.242   1.712
  736SOL      O 3387   1.311   2.847   1.260
  736SOL     H1 3388   1.374   2.844   1.333
  736SOL     H2 3389   1.227   2.865   1.302
  736SOL    EPW 3390   1.307   2.849   1.275
  737SOL      O 3391   0.855   3.562   0.449
  737SOL     H1 3392   0.913   3.633   0.476
  737SOL     H2 3393   0.878   3.490   0.507
  737SOL    EPW 3394   0.866   3.562   0.460
  738SOL      O 3395   1.650   2.024   1.039
  738SOL     H1 3396   1.695   1.942   1.058
  738SOL     H2 3397   1.670   2.080   1.115
  738SOL    EPW 3398   1.660   2.020   1.051
  739SOL      O 3399   0.098   1.867   1.138
  739SOL     H1 3400   0.089   1.868   1.043
  739SOL     H2 3401   0.192   1.879   1.153
  739SOL    EPW 3402   0.110   1.870   1.129
  740SOL      O 3403   1.735   3.060   0.758
  740SOL     H1 3404   1.714   3.006   0.681
  740SOL     H2 3405   1.831   3.058   0.762
  740SOL    EPW 3406   1.744   3.053   0.747
  741SOL      O 3407   0.427   3.205   1.501
  741SOL     H1 3408   0.348   3.155   1.524
  741SOL     H2 3409   0.497   3.164   1.551
  741SOL    EPW 3410   0.425   3.193   1.511
  742SOL      O 3411   0.311   1.994   0.184
  742SOL     H1 3412   0.240   2.049   0.152
  742SOL     H2 3413   0.353   1.960   0.105
  742SOL    EPW 3414   0.307   1.996   0.170
  743SOL      O 3415   1.435   2.491   1.020
  743SOL     H1 3416   1.358   2.537   0.986
  743SOL     H2 3417   1.492   2.560   1.054
  743SOL    EPW 3418   1.432   2.506   1.020
  744SOL      O 3419   0.067   2.093   0.033
  744SOL     H1 3420   0.034   2.172   0.077
  744SOL     H2 3421   0.122   2.126  -0.038
  744SOL    EPW 3422   0.070   2.107   0.030
  745SOL      O 3423   0.101   3.350   0.222
  745SOL     H1 3424   0.118   3.434   0.264
  745SOL     H2 3425   0.136   3.359   0.134
  745SOL    EPW 3426   0.106   3.363   0.216
  746SOL      O 3427   1.373   3.439   0.439
  746SOL     H1 3428   1.436   3.429   0.368
  746SOL     H2 3429   1.290   3.459   0.394
  746SOL    EPW 3430   1.370   3.440   0.424
  747SOL      O 3431   1.736   2.707   2.125
  747SOL     H1 3432   1.777   2.649   2.190
  747SOL     H2 3433   1.643   2.699   2.142
  747SOL    EPW 3434   1.730   2.699   2.135
  748SOL      O 3435   1.602   2.639   3.120
  748SOL     H1 3436   1.557   2.706   3.171
  748SOL     H2 3437   1.690   2.675   3.106
  748SOL    EPW 3438   1.608   2.652   3.124
  749SOL      O 3439   0.530   2.890   2.354
  749SOL     H1 3440   0.620   2.865   2.338
  749SOL     H2 3441   0.526   2.983   2.331
  749SOL    EPW 3442   0.542   2.899   2.349
  750SOL      O 3443   1.646   3.593   2.496
  750SOL     H1 3444   1.658   3.539   2.574
  750SOL     H2 3445   1.683   3.541   2.425
  750SOL    EPW 3446   1.652   3.578   2.497
  751SOL      O 3447   1.025   3.478   3.497
  751SOL     H1 3448   1.066   3.514   3.418
  751SOL     H2 3449   1.060   3.389   3.504
  751SOL    EPW 3450   1.036   3.471   3.488
  752SOL      O 3451   1.582   3.033   3.101
  752SOL     H1 3452   1.503   2.998   3.059
  752SOL     H2 3453   1.609   3.105   3.045
  752SOL    EPW 3454   1.575   3.038   3.088
  753SOL      O 3455   0.814   2.346   2.367
  753SOL     H1 3456   0.789   2.434   2.395
  753SOL     H2 3457   0.811   2.349   2.271
  753SOL    EPW 3458   0.810   2.358   2.359
  754SOL      O 3459   0.256   2.374   2.295
  754SOL     H1 3460   0.288   2.462   2.277
  754SOL     H2 3461   0.244   2.372   2.390
  754SOL    EPW 3462   0.259   2.386   2.307
  755SOL      O 3463   0.334   2.787   3.196
  755SOL     H1 3464   0.397   2.734   3.147
  755SOL     H2 3465   0.315   2.861   3.139
  755SOL    EPW 3466   0.340   2.789   3.183
  756SOL      O 3467   0.655   2.129   2.382
  756SOL     H1 3468   0.713   2.205   2.384
  756SOL     H2 3469   0.590   2.150   2.315
  756SOL    EPW 3470   0.654   2.141   2.373
  757SOL      O 3471   0.742   3.056   2.557
  757SOL     H1 3472   0.822   3.059   2.609
  757SOL     H2 3473   0.770   3.023   2.471
  757SOL    EPW 3474   0.756   3.052   2.552
  758SOL      O 3475   0.767   3.397   3.460
  758SOL     H1 3476   0.851   3.423   3.499
  758SOL     H2 3477   0.791   3.341   3.386
  758SOL    EPW 3478   0.781   3.393   3.455
  759SOL      O 3479   0.519   2.560   2.548
  759SOL     H1 3480   0.504   2.480   2.599
  759SOL     H2 3481   0.601   2.595   2.582
  759SOL    EPW 3482   0.527   2.552   2.560
  760SOL      O 3483   0.856   3.246   3.233
  760SOL     H1 3484   0.820   3.312   3.173
  760SOL     H2 3485   0.784   3.184   3.246
  760SOL    EPW 3486   0.842   3.246   3.227
  761SOL      O 3487   0.661   2.386   2.925
  761SOL     H1 3488   0.567   2.382   2.943
  761SOL     H2 3489   0.691   2.295   2.934
  761SOL    EPW 3490   0.652   2.374   2.928
  762SOL      O 3491   0.407   2.800   2.829
  762SOL     H1 3492   0.362   2.807   2.745
  762SOL     H2 3493   0.387   2.883   2.873
  762SOL    EPW 3494   0.399   2.812   2.823
  763SOL      O 3495   0.104   3.646   2.704
  763SOL     H1 3496   0.193   3.638   2.739
  763SOL     H2 3497   0.068   3.558   2.709
  763SOL    EPW 3498   0.111   3.633   2.709
  764SOL      O 3499   1.369   3.038   2.073
  764SOL     H1 3500   1.287   3.074   2.039
  764SOL     H2 3501   1.437   3.081   2.022
  764SOL    EPW 3502   1.367   3.048   2.061
  765SOL      O 3503   0.368   3.173   2.739
  765SOL     H1 3504   0.344   3.226   2.815
  765SOL     H2 3505   0.424   3.231   2.687
  765SOL    EPW 3506   0.372   3.188   2.742
  766SOL      O 3507   0.930   2.817   2.549
  766SOL     H1 3508   0.844   2.804   2.589
  766SOL     H2 3509   0.983   2.744   2.581
  766SOL    EPW 3510   0.926   2.806   2.558
  767SOL      O 3511   0.338   3.469   3.334
  767SOL     H1 3512   0.246   3.445   3.319
  767SOL     H2 3513   0.382   3.386   3.351
  767SOL    EPW 3514   0.332   3.454   3.333
  768SOL      O 3515   0.921   3.179   2.266
  768SOL     H1 3516   0.898   3.241   2.334
  768SOL     H2 3517   0.878   3.097   2.292
  768SOL    EPW 3518   0.913   3.175   2.277
  769SOL      O 3519   1.794   2.180   2.722
  769SOL     H1 3520   1.731   2.160   2.791
  769SOL     H2 3521   1.784   2.109   2.659
  769SOL    EPW 3522   1.784   2.167   2.723
  770SOL      O 3523   0.418   2.152   2.234
  770SOL     H1 3524   0.392   2.114   2.150
  770SOL     H2 3525   0.355   2.222   2.250
  770SOL    EPW 3526   0.407   2.155   2.225
  771SOL      O 3527   0.253   3.113   2.271
  771SOL     H1 3528   0.201   3.181   2.227
  771SOL     H2 3529   0.250   3.039   2.211
  771SOL    EPW 3530   0.245   3.112   2.258
  772SOL      O 3531   0.915   3.576   2.049
  772SOL     H1 3532   0.870   3.592   2.132
  772SOL     H2 3533   0.846   3.541   1.991
  772SOL    EPW 3534   0.901   3.573   2.051
  773SOL      O 3535   1.850   2.349   2.024
  773SOL     H1 3536   1.759   2.351   2.052
  773SOL     H2 3537   1.895   2.411   2.082
  773SOL    EPW 3538   1.843   2.357   2.034
  774SOL      O 3539   1.595   2.952   2.374
  774SOL     H1 3540   1.505   2.952   2.409
  774SOL     H2 3541   1.588   2.998   2.291
  774SOL    EPW 3542   1.582   2.958   2.368
  775SOL      O 3543   1.395   2.587   3.446
  775SOL     H1 3544   1.464   2.525   3.423
  775SOL     H2 3545   1.320   2.561   3.393
  775SOL    EPW 3546   1.395   2.574   3.437
  776SOL      O 3547   0.136   3.467   2.998
  776SOL     H1 3548   0.119   3.413   3.075
  776SOL     H2 3549   0.124   3.557   3.028
  776SOL    EPW 3550   0.133   3.471   3.012
  777SOL      O 3551   1.131   2.974   3.438
  777SOL     H1 3552   1.116   3.067   3.423
  777SOL     H2 3553   1.226   2.964   3.438
  777SOL    EPW 3554   1.140   2.984   3.435
  778SOL      O 3555   0.927   2.398   3.639
  778SOL     H1 3556   1.017   2.399   3.606
  778SOL     H2 3557   0.886   2.323   3.597
  778SOL    EPW 3558   0.933   2.388   3.630
  779SOL      O 3559   1.502   2.930   2.766
  779SOL     H1 3560   1.505   2.864   2.697
  779SOL     H2 3561   1.587   2.973   2.762
  779SOL    EPW 3562   1.514   2.926   2.757
  780SOL      O 3563   1.122   2.533   2.335
  780SOL     H1 3564   1.148   2.557   2.246
  780SOL     H2 3565   1.104   2.440   2.331
  780SOL    EPW 3566   1.124   2.525   2.322
  781SOL      O 3567   1.787   3.153   2.186
  781SOL     H1 3568   1.743   3.194   2.261
  781SOL     H2 3569   1.844   3.221   2.151
  781SOL    EPW 3570   1.789   3.167   2.191
  782SOL      O 3571   0.707   2.202   3.589
  782SOL     H1 3572   0.717   2.128   3.529
  782SOL     H2 3573   0.743   2.171   3.672
  782SOL    EPW 3574   0.713   2.188   3.591
  783SOL      O 3575   0.443   3.569   2.504
  783SOL     H1 3576   0.475   3.657   2.482
  783SOL     H2 3577   0.396   3.541   2.426
  783SOL    EPW 3578   0.442   3.577   2.491
  784SOL      O 3579   1.827   1.931   2.553
  784SOL     H1 3580   1.881   1.882   2.615
  784SOL     H2 3581   1.770   1.865   2.514
  784SOL    EPW 3582   1.827   1.915   2.555
  785SOL      O 3583   0.159   3.629   2.081
  785SOL     H1 3584   0.188   3.719   2.073
  785SOL     H2 3585   0.109   3.612   2.002
  785SOL    EPW 3586   0.157   3.637   2.070
  786SOL      O 3587   0.946   1.884   2.966
  786SOL     H1 3588   0.905   1.962   2.928
  786SOL     H2 3589   1.040   1.902   2.961
  786SOL    EPW 3590   0.952   1.896   2.961
  787SOL      O 3591   1.563   3.437   2.052
  787SOL     H1 3592   1.611   3.506   2.098
  787SOL     H2 3593   1.484   3.481   2.021
  787SOL    EPW 3594   1.558   3.451   2.055
  788SOL      O 3595   0.961   2.562   1.996
  788SOL     H1 3596   0.963   2.509   1.917
  788SOL     H2 3597   1.049   2.599   2.002
  788SOL    EPW 3598   0.973   2.561   1.985
  789SOL      O 3599   1.575   2.488   2.332
  789SOL     H1 3600   1.614   2.488   2.419
  789SOL     H2 3601   1.516   2.564   2.332
  789SOL    EPW 3602   1.572   2.499   2.343
  790SOL      O 3603   0.892   2.855   3.461
  790SOL     H1 3604   0.869   2.835   3.551
  790SOL     H2 3605   0.977   2.899   3.466
  790SOL    EPW 3606   0.899   2.858   3.473
  791SOL      O 3607   0.972   1.992   3.221
  791SOL     H1 3608   0.978   1.954   3.134
  791SOL     H2 3609   0.961   2.086   3.206
  791SOL    EPW 3610   0.973   2.000   3.209
  792SOL      O 3611   1.061   2.481   3.055
  792SOL     H1 3612   1.136   2.510   3.002
  792SOL     H2 3613   0.993   2.546   3.039
  792SOL    EPW 3614   1.062   2.493   3.045
  793SOL      O 3615   1.611   2.449   3.332
  793SOL     H1 3616   1.592   2.358   3.311
  793SOL     H2 3617   1.589   2.498   3.253
  793SOL    EPW 3618   1.606   2.442   3.319
  794SOL      O 3619   1.753   3.543   3.236
  794SOL     H1 3620   1.681   3.505   3.287
  794SOL     H2 3621   1.770   3.628   3.277
  794SOL    EPW 3622   1.747   3.548   3.248
  795SOL      O 3623   1.058   2.187   3.438
  795SOL     H1 3624   1.024   2.226   3.357
  795SOL     H2 3625   1.036   2.095   3.431
  795SOL    EPW 3626   1.051   2.180   3.428
  796SOL      O 3627   1.467   3.001   3.514
  796SOL     H1 3628   1.549   3.042   3.544
  796SOL     H2 3629   1.430   2.963   3.594
  796SOL    EPW 3630   1.473   3.002   3.529
  797SOL      O 3631   1.762   2.374   2.498
  797SOL     H1 3632   1.851   2.343   2.515
  797SOL     H2 3633   1.705   2.314   2.546
  797SOL    EPW 3634   1.765   2.362   2.507
  798SOL      O 3635   0.188   2.088   2.527
  798SOL     H1 3636   0.179   2.028   2.453
  798SOL     H2 3637   0.121   2.059   2.590
  798SOL    EPW 3638   0.178   2.075   2.525
  799SOL      O 3639   1.131   3.181   2.088
  799SOL     H1 3640   1.081   3.183   2.170
  799SOL     H2 3641   1.065   3.199   2.020
  799SOL    EPW 3642   1.117   3.183   2.090
  800SOL      O 3643   0.135   2.261   2.890
  800SOL     H1 3644   0.107   2.352   2.899
  800SOL     H2 3645   0.072   2.222   2.829
  800SOL    EPW 3646   0.122   2.267   2.884
  801SOL      O 3647   0.594   3.599   2.196
  801SOL     H1 3648   0.515   3.557   2.229
  801SOL     H2 3649   0.660   3.582   2.263
  801SOL    EPW 3650   0.593   3.591   2.209
  802SOL      O 3651   1.722   3.119   3.593
  802SOL     H1 3652   1.772   3.045   3.625
  802SOL     H2 3653   1.668   3.146   3.668
  802SOL    EPW 3654   1.722   3.113   3.606
  803SOL      O 3655   0.730   3.014   1.903
  803SOL     H1 3656   0.652   2.960   1.890
  803SOL     H2 3657   0.701   3.087   1.956
  803SOL    EPW 3658   0.716   3.016   1.908
  804SOL      O 3659   1.856   2.754   3.095
  804SOL     H1 3660   1.872   2.792   3.008
  804SOL     H2 3661   1.890   2.820   3.156
  804SOL    EPW 3662   1.863   2.767   3.091
  805SOL      O 3663   1.648   3.463   2.764
  805SOL     H1 3664   1.677   3.530   2.825
  805SOL     H2 3665   1.629   3.387   2.819
  805SOL    EPW 3666   1.650   3.463   2.779
  806SOL      O 3667   1.311   3.530   1.971
  806SOL     H1 3668   1.237   3.493   2.021
  806SOL     H2 3669   1.319   3.620   2.004
  806SOL    EPW 3670   1.302   3.537   1.983
  807SOL      O 3671   0.119   2.536   3.060
  807SOL     H1 3672   0.181   2.566   3.126
  807SOL     H2 3673   0.053   2.605   3.054
  807SOL    EPW 3674   0.118   2.549   3.067
  808SOL      O 3675   1.535   3.204   1.913
  808SOL     H1 3676   1.482   3.253   1.849
  808SOL     H2 3677   1.566   3.270   1.974
  808SOL    EPW 3678   1.533   3.218   1.911
  809SOL      O 3679   0.760   2.093   1.968
  809SOL     H1 3680   0.708   2.013   1.956
  809SOL     H2 3681   0.847   2.070   1.936
  809SOL    EPW 3682   0.763   2.079   1.962
  810SOL      O 3683   0.214   3.645   3.512
  810SOL     H1 3684   0.188   3.713   3.450
  810SOL     H2 3685   0.262   3.582   3.460
  810SOL    EPW 3686   0.216   3.645   3.498
  811SOL      O 3687   0.266   2.964   3.019
  811SOL     H1 3688   0.319   3.039   3.044
  811SOL     H2 3689   0.185   3.002   2.985
  811SOL    EPW 3690   0.262   2.979   3.019
  812SOL      O 3691   0.806   2.868   3.007
  812SOL     H1 3692   0.834   2.777   3.019
  812SOL     H2 3693   0.735   2.862   2.943
  812SOL    EPW 3694   0.799   2.856   3.002
  813SOL      O 3695   0.121   2.733   2.425
  813SOL     H1 3696   0.212   2.748   2.452
  813SOL     H2 3697   0.124   2.654   2.371
  813SOL    EPW 3698   0.133   2.725   2.423
  814SOL      O 3699   0.357   2.441   3.679
  814SOL     H1 3700   0.304   2.521   3.686
  814SOL     H2 3701   0.427   2.453   3.744
  814SOL    EPW 3702   0.359   2.454   3.687
  815SOL      O 3703   0.743   1.991   3.386
  815SOL     H1 3704   0.720   1.899   3.388
  815SOL     H2 3705   0.829   1.993   3.343
  815SOL    EPW 3706   0.750   1.981   3.382
  816SOL      O 3707   0.427   2.515   3.425
  816SOL     H1 3708   0.507   2.565   3.411
  816SOL     H2 3709   0.418   2.509   3.520
  816SOL    EPW 3710   0.436   2.521   3.435
  817SOL      O 3711   0.748   3.665   2.799
  817SOL     H1 3712   0.837   3.680   2.829
  817SOL     H2 3713   0.743   3.712   2.715
  817SOL    EPW 3714   0.758   3.673   2.792
  818SOL      O 3715   1.404   2.040   3.696
  818SOL     H1 3716   1.460   1.967   3.722
  818SOL     H2 3717   1.374   2.078   3.778
  818SOL    EPW 3718   1.408   2.035   3.709
  819SOL      O 3719   0.129   3.345   2.464
  819SOL     H1 3720   0.101   3.384   2.546
  819SOL     H2 3721   0.149   3.254   2.486
  819SOL    EPW 3722   0.127   3.337   2.477
  820SOL      O 3723   0.962   3.388   2.499
  820SOL     H1 3724   1.045   3.342   2.483
  820SOL     H2 3725   0.952   3.387   2.595
  820SOL    EPW 3726   0.972   3.381   2.509
  821SOL      O 3727   1.794   2.533   2.813
  821SOL     H1 3728   1.883   2.563   2.795
  821SOL     H2 3729   1.774   2.473   2.742
  821SOL    EPW 3730   1.803   2.530   2.802
  822SOL      O 3731   1.645   2.712   3.693
  822SOL     H1 3732   1.700   2.636   3.674
  822SOL     H2 3733   1.647   2.720   3.788
  822SOL    EPW 3734   1.653   2.703   3.701
  823SOL      O 3735   0.695   3.445   1.904
  823SOL     H1 3736   0.635   3.514   1.874
  823SOL     H2 3737   0.640   3.387   1.957
  823SOL    EPW 3738   0.679   3.447   1.906
  824SOL      O 3739   1.133   2.090   2.127
  824SOL     H1 3740   1.066   2.066   2.064
  824SOL     H2 3741   1.198   2.139   2.076
  824SOL    EPW 3742   1.133   2.092   2.112
  825SOL      O 3743   0.940   2.274   3.212
  825SOL     H1 3744   0.859   2.315   3.240
  825SOL     H2 3745   0.987   2.342   3.164
  825SOL    EPW 3746   0.935   2.289   3.210
  826SOL      O 3747   1.200   2.612   2.835
  826SOL     H1 3748   1.213   2.706   2.845
  826SOL     H2 3749   1.161   2.602   2.749
  826SOL    EPW 3750   1.196   2.623   2.825
  827SOL      O 3751   0.652   2.807   2.639
  827SOL     H1 3752   0.563   2.798   2.672
  827SOL     H2 3753   0.656   2.897   2.607
  827SOL    EPW 3754   0.641   2.818   2.639
  828SOL      O 3755   1.451   2.390   2.634
  828SOL     H1 3756   1.396   2.311   2.633
  828SOL     H2 3757   1.433   2.431   2.718
  828SOL    EPW 3758   1.441   2.385   2.643
  829SOL      O 3759   0.422   2.077   3.451
  829SOL     H1 3760   0.343   2.095   3.503
  829SOL     H2 3761   0.417   2.139   3.378
  829SOL    EPW 3762   0.412   2.087   3.448
  830SOL      O 3763   1.070   2.594   2.591
  830SOL     H1 3764   1.007   2.526   2.615
  830SOL     H2 3765   1.090   2.575   2.499
  830SOL    EPW 3766   1.064   2.581   2.583
  831SOL      O 3767   0.326   3.489   2.293
  831SOL     H1 3768   0.287   3.536   2.219
  831SOL     H2 3769   0.260   3.424   2.318
  831SOL    EPW 3770   0.313   3.487   2.287
  832SOL      O 3771   0.818   2.898   2.317
  832SOL     H1 3772   0.820   2.872   2.224
  832SOL     H2 3773   0.876   2.835   2.360
  832SOL    EPW 3774   0.826   2.887   2.311
  833SOL      O 3775   1.371   3.458   3.089
  833SOL     H1 3776   1.296   3.504   3.127
  833SOL     H2 3777   1.353   3.365   3.106
  833SOL    EPW 3778   1.360   3.452   3.097
  834SOL      O 3779   1.375   3.666   2.519
  834SOL     H1 3780   1.318   3.619   2.458
  834SOL     H2 3781   1.461   3.627   2.506
  834SOL    EPW 3782   1.378   3.657   2.509
  835SOL      O 3783   1.328   2.142   2.650
  835SOL     H1 3784   1.356   2.074   2.711
  835SOL     H2 3785   1.242   2.113   2.620
  835SOL    EPW 3786   1.321   2.129   2.654
  836SOL      O 3787   0.133   3.076   2.584
  836SOL     H1 3788   0.197   3.108   2.647
  836SOL     H2 3789   0.182   3.012   2.532
  836SOL    EPW 3790   0.148   3.072   2.585
  837SOL      O 3791   0.633   3.152   3.566
  837SOL     H1 3792   0.681   3.235   3.553
  837SOL     H2 3793   0.690   3.100   3.622
  837SOL    EPW 3794   0.647   3.156   3.572
  838SOL      O 3795   0.209   3.394   3.706
  838SOL     H1 3796   0.265   3.318   3.721
  838SOL     H2 3797   0.158   3.372   3.628
  838SOL    EPW 3798   0.209   3.381   3.697
  839SOL      O 3799   1.308   2.246   1.985
  839SOL     H1 3800   1.281   2.312   1.921
  839SOL     H2 3801   1.378   2.289   2.035
  839SOL    EPW 3802   1.313   2.259   1.982
  840SOL      O 3803   0.976   1.951   1.922
  840SOL     H1 3804   1.032   1.943   1.844
  840SOL     H2 3805   0.953   1.861   1.944
  840SOL    EPW 3806   0.981   1.938   1.915
  841SOL      O 3807   1.481   2.802   2.127
  841SOL     H1 3808   1.448   2.891   2.117
  841SOL     H2 3809   1.446   2.773   2.212
  841SOL    EPW 3810   1.471   2.811   2.138
  842SOL      O 3811   1.094   3.231   3.315
  842SOL     H1 3812   1.005   3.237   3.283
  842SOL     H2 3813   1.138   3.310   3.283
  842SOL    EPW 3814   1.089   3.241   3.307
  843SOL      O 3815   0.387   1.899   3.657
  843SOL     H1 3816   0.315   1.864   3.605
  843SOL     H2 3817   0.445   1.940   3.592
  843SOL    EPW 3818   0.385   1.900   3.642
  844SOL      O 3819   0.411   3.389   2.956
  844SOL     H1 3820   0.456   3.451   3.013
  844SOL     H2 3821   0.318   3.408   2.969
  844SOL    EPW 3822   0.404   3.399   2.963
  845SOL      O 3823   1.851   2.918   3.310
  845SOL     H1 3824   1.766   2.931   3.269
  845SOL     H2 3825   1.831   2.882   3.397
  845SOL    EPW 3826   1.838   2.914   3.315
  846SOL      O 3827   0.833   3.457   3.064
  846SOL     H1 3828   0.857   3.446   2.973
  846SOL     H2 3829   0.756   3.514   3.062
  846SOL    EPW 3830   0.825   3.462   3.053
  847SOL      O 3831   0.475   2.840   1.919
  847SOL     H1 3832   0.398   2.853   1.975
  847SOL     H2 3833   0.439   2.804   1.838
  847SOL    EPW 3834   0.461   2.836   1.916
  848SOL      O 3835   1.128   2.813   2.162
  848SOL     H1 3836   1.038   2.834   2.137
  848SOL     H2 3837   1.155   2.886   2.218
  848SOL    EPW 3838   1.120   2.825   2.165
  849SOL      O 3839   0.628   3.162   2.854
  849SOL     H1 3840   0.621   3.141   2.948
  849SOL     H2 3841   0.546   3.130   2.817
  849SOL    EPW 3842   0.616   3.156   2.861
  850SOL      O 3843   1.492   2.172   3.256
  850SOL     H1 3844   1.439   2.174   3.336
  850SOL     H2 3845   1.477   2.085   3.219
  850SOL    EPW 3846   1.484   2.162   3.261
  851SOL      O 3847   1.828   2.096   3.129
  851SOL     H1 3848   1.809   2.163   3.064
  851SOL     H2 3849   1.885   2.034   3.084
  851SOL    EPW 3850   1.832   2.097   3.115
  852SOL      O 3851   0.074   3.254   3.517
  852SOL     H1 3852   0.118   3.187   3.463
  852SOL     H2 3853  -0.011   3.216   3.537
  852SOL    EPW 3854   0.069   3.240   3.513
  853SOL      O 3855   0.757   1.929   2.569
  853SOL     H1 3856   0.686   1.990   2.551
  853SOL     H2 3857   0.808   1.926   2.488
  853SOL    EPW 3858   0.753   1.935   2.556
  854SOL      O 3859   0.515   3.169   2.318
  854SOL     H1 3860   0.508   3.201   2.408
  854SOL     H2 3861   0.425   3.153   2.290
  854SOL    EPW 3862   0.503   3.171   2.325
  855SOL      O 3863   1.110   3.562   3.227
  855SOL     H1 3864   1.030   3.547   3.177
  855SOL     H2 3865   1.117   3.657   3.234
  855SOL    EPW 3866   1.101   3.573   3.221
  856SOL      O 3867   1.224   3.527   2.717
  856SOL     H1 3868   1.271   3.600   2.676
  856SOL     H2 3869   1.145   3.566   2.753
  856SOL    EPW 3870   1.219   3.542   2.716
  857SOL      O 3871   1.632   3.622   2.992
  857SOL     H1 3872   1.675   3.592   3.072
  857SOL     H2 3873   1.551   3.570   2.989
  857SOL    EPW 3874   1.627   3.611   3.002
  858SOL      O 3875   0.717   2.586   3.699
  858SOL     H1 3876   0.787   2.528   3.671
  858SOL     H2 3877   0.660   2.531   3.754
  858SOL    EPW 3878   0.719   2.573   3.703
  859SOL      O 3879   1.504   2.798   3.332
  859SOL     H1 3880   1.509   2.851   3.412
  859SOL     H2 3881   1.466   2.715   3.360
  859SOL    EPW 3882   1.500   2.793   3.347
  860SOL      O 3883   1.144   1.933   3.578
  860SOL     H1 3884   1.139   1.840   3.559
  860SOL     H2 3885   1.227   1.944   3.624
  860SOL    EPW 3886   1.152   1.922   3.582
  861SOL      O 3887   0.518   2.453   2.032
  861SOL     H1 3888   0.484   2.509   2.102
  861SOL     H2 3889   0.589   2.403   2.072
  861SOL    EPW 3890   0.524   2.454   2.046
  862SOL      O 3891   1.614   3.204   2.854
  862SOL     H1 3892   1.649   3.186   2.767
  862SOL     H2 3893   1.519   3.205   2.841
  862SOL    EPW 3894   1.606   3.201   2.841
  863SOL      O 3895   1.043   2.852   3.223
  863SOL     H1 3896   1.086   2.887   3.301
  863SOL     H2 3897   1.026   2.929   3.169
  863SOL    EPW 3898   1.046   2.867   3.226
  864SOL      O 3899   1.574   2.339   2.096
  864SOL     H1 3900   1.566   2.410   2.033
  864SOL     H2 3901   1.592   2.383   2.179
  864SOL    EPW 3902   1.575   2.353   2.098
  865SOL      O 3903   0.434   1.994   2.525
  865SOL     H1 3904   0.484   2.037   2.456
  865SOL     H2 3905   0.349   2.038   2.525
  865SOL    EPW 3906   0.431   2.007   2.516
  866SOL      O 3907   0.193   3.056   3.385
  866SOL     H1 3908   0.221   3.009   3.463
  866SOL     H2 3909   0.114   3.011   3.356
  866SOL    EPW 3910   0.186   3.045   3.391
  867SOL      O 3911   0.701   2.383   3.352
  867SOL     H1 3912   0.673   2.471   3.376
  867SOL     H2 3913   0.670   2.327   3.423
  867SOL    EPW 3914   0.693   2.386   3.364
  868SOL      O 3915   1.243   2.601   2.071
  868SOL     H1 3916   1.290   2.619   1.990
  868SOL     H2 3917   1.209   2.685   2.099
  868SOL    EPW 3918   1.245   2.615   2.064
  869SOL      O 3919   0.356   2.779   2.565
  869SOL     H1 3920   0.414   2.835   2.513
  869SOL     H2 3921   0.400   2.694   2.567
  869SOL    EPW 3922   0.369   2.776   2.558
  870SOL      O 3923   1.496   2.131   2.402
  870SOL     H1 3924   1.418   2.081   2.427
  870SOL     H2 3925   1.467   2.222   2.402
  870SOL    EPW 3926   1.482   2.135   2.405
  871SOL      O 3927   1.082   2.093   2.561
  871SOL     H1 3928   1.102   2.168   2.505
  871SOL     H2 3929   1.062   2.132   2.646
  871SOL    EPW 3930   1.083   2.109   2.565
  872SOL      O 3931   0.978   3.343   1.893
  872SOL     H1 3932   1.005   3.421   1.845
  872SOL     H2 3933   0.885   3.358   1.912
  872SOL    EPW 3934   0.969   3.356   1.889
  873SOL      O 3935   1.842   2.866   3.580
  873SOL     H1 3936   1.755   2.846   3.616
  873SOL     H2 3937   1.896   2.792   3.605
  873SOL    EPW 3938   1.837   2.855   3.588
  874SOL      O 3939   0.063   3.379   2.737
  874SOL     H1 3940   0.095   3.383   2.828
  874SOL     H2 3941  -0.032   3.387   2.745
  874SOL    EPW 3942   0.055   3.382   2.750
  875SOL      O 3943   0.018   2.505   2.284
  875SOL     H1 3944  -0.042   2.477   2.354
  875SOL     H2 3945   0.092   2.445   2.290
  875SOL    EPW 3946   0.020   2.494   2.293
  876SOL      O 3947   1.586   3.717   3.718
  876SOL     H1 3948   1.631   3.641   3.683
  876SOL     H2 3949   1.624   3.730   3.805
  876SOL    EPW 3950   1.596   3.710   3.724
  877SOL      O 3951   1.186   3.236   2.444
  877SOL     H1 3952   1.209   3.187   2.522
  877SOL     H2 3953   1.267   3.278   2.416
  877SOL    EPW 3954   1.199   3.236   2.451
  878SOL      O 3955   0.444   2.244   3.173
  878SOL     H1 3956   0.477   2.325   3.213
  878SOL     H2 3957   0.417   2.270   3.085
  878SOL    EPW 3958   0.443   2.258   3.167
  879SOL      O 3959   0.398   2.211   2.909
  879SOL     H1 3960   0.428   2.125   2.880
  879SOL     H2 3961   0.303   2.204   2.912
  879SOL    EPW 3962   0.390   2.200   2.907
  880SOL      O 3963   1.227   2.420   3.600
  880SOL     H1 3964   1.279   2.355   3.553
  880SOL     H2 3965   1.185   2.471   3.530
  880SOL    EPW 3966   1.228   2.417   3.583
  881SOL      O 3967   1.326   2.215   3.461
  881SOL     H1 3968   1.233   2.199   3.448
  881SOL     H2 3969   1.352   2.153   3.529
  881SOL    EPW 3970   1.316   2.205   3.468
  882SOL      O 3971   0.541   1.989   2.800
  882SOL     H1 3972   0.551   1.898   2.826
  882SOL     H2 3973   0.497   1.985   2.715
  882SOL    EPW 3974   0.537   1.977   2.792
  883SOL      O 3975   0.635   3.604   3.346
  883SOL     H1 3976   0.552   3.589   3.391
  883SOL     H2 3977   0.694   3.537   3.381
  883SOL    EPW 3978   0.633   3.594   3.356
  884SOL      O 3979   1.692   2.311   2.971
  884SOL     H1 3980   1.625   2.344   3.031
  884SOL     H2 3981   1.735   2.389   2.937
  884SOL    EPW 3982   1.690   2.326   2.975
  885SOL      O 3983   1.870   3.031   2.941
  885SOL     H1 3984   1.863   2.971   2.866
  885SOL     H2 3985   1.796   3.091   2.930
  885SOL    EPW 3986   1.860   3.031   2.930
  886SOL      O 3987   1.252   2.893   2.859
  886SOL     H1 3988   1.266   2.865   2.950
  886SOL     H2 3989   1.338   2.924   2.831
  886SOL    EPW 3990   1.265   2.894   2.868
  887SOL      O 3991   1.335   2.388   3.138
  887SOL     H1 3992   1.356   2.389   3.045
  887SOL     H2 3993   1.380   2.310   3.171
  887SOL    EPW 3994   1.342   2.378   3.130
  888SOL      O 3995   1.828   2.519   3.680
  888SOL     H1 3996   1.865   2.464   3.749
  888SOL     H2 3997   1.853   2.476   3.598
  888SOL    EPW 3998   1.835   2.507   3.679
  889SOL      O 3999   1.375   2.817   3.731
  889SOL     H1 4000   1.441   2.765   3.685
  889SOL     H2 4001   1.395   2.804   3.824
  889SOL    EPW 4002   1.386   2.808   3.738
  890SOL      O 4003   1.326   1.903   2.080
  890SOL     H1 4004   1.400   1.947   2.123
  890SOL     H2 4005   1.250   1.957   2.102
  890SOL    EPW 4006   1.326   1.915   2.088
  891SOL      O 4007   1.386   2.678   2.358
  891SOL     H1 4008   1.301   2.648   2.328
  891SOL     H2 4009   1.378   2.685   2.453
  891SOL    EPW 4010   1.374   2.676   2.367
  892SOL      O 4011   0.462   3.141   3.089
  892SOL     H1 4012   0.474   3.168   3.180
  892SOL     H2 4013   0.443   3.222   3.042
  892SOL    EPW 4014   0.461   3.156   3.094
  893SOL      O 4015   0.746   2.121   2.912
  893SOL     H1 4016   0.719   2.123   3.003
  893SOL     H2 4017   0.676   2.073   2.867
  893SOL    EPW 4018   0.734   2.117   2.919
  894SOL      O 4019   0.600   3.613   3.074
  894SOL     H1 4020   0.652   3.690   3.051
  894SOL     H2 4021   0.609   3.605   3.169
  894SOL    EPW 4022   0.609   3.620   3.085
  895SOL      O 4023   1.502   3.198   3.306
  895SOL     H1 4024   1.487   3.127   3.369
  895SOL     H2 4025   1.548   3.156   3.234
  895SOL    EPW 4026   1.508   3.182   3.306
  896SOL      O 4027   0.576   2.929   3.423
  896SOL     H1 4028   0.613   2.934   3.335
  896SOL     H2 4029   0.615   3.002   3.470
  896SOL    EPW 4030   0.586   2.939   3.418
  897SOL      O 4031   0.756   2.972   3.235
  897SOL     H1 4032   0.815   2.918   3.288
  897SOL     H2 4033   0.771   2.944   3.145
  897SOL    EPW 4034   0.766   2.961   3.231
  898SOL      O 4035   0.759   2.344   2.084
  898SOL     H1 4036   0.832   2.393   2.047
  898SOL     H2 4037   0.775   2.253   2.058
  898SOL    EPW 4038   0.771   2.339   2.077
  899SOL      O 4039   1.567   3.461   3.407
  899SOL     H1 4040   1.609   3.446   3.492
  899SOL     H2 4041   1.558   3.374   3.369
  899SOL    EPW 4042   1.571   3.449   3.414
  900SOL      O 4043   1.227   1.940   2.998
  900SOL     H1 4044   1.282   1.949   2.920
  900SOL     H2 4045   1.282   1.974   3.069
  900SOL    EPW 4046   1.241   1.945   2.997
  901SOL      O 4047   0.234   2.853   2.182
  901SOL     H1 4048   0.171   2.869   2.111
  901SOL     H2 4049   0.181   2.816   2.253
  901SOL    EPW 4050   0.219   2.850   2.182
  902SOL      O 4051   0.590   3.207   2.041
  902SOL     H1 4052   0.605   3.183   2.133
  902SOL     H2 4053   0.498   3.185   2.025
  902SOL    EPW 4054   0.580   3.200   2.051
  903SOL      O 4055   1.129   3.438   2.193
  903SOL     H1 4056   1.137   3.356   2.144
  903SOL     H2 4057   1.048   3.477   2.160
  903SOL    EPW 4058   1.119   3.433   2.183
  904SOL      O 4059   0.388   3.596   2.762
  904SOL     H1 4060   0.392   3.507   2.797
  904SOL     H2 4061   0.414   3.587   2.671
  904SOL    EPW 4062   0.391   3.584   2.754
  905SOL      O 4063   1.005   3.074   3.005
  905SOL     H1 4064   0.937   3.008   3.021
  905SOL     H2 4065   1.023   3.068   2.912
  905SOL    EPW 4066   0.998   3.065   2.996
  906SOL      O 4067   0.094   3.349   3.256
  906SOL     H1 4068   0.084   3.307   3.342
  906SOL     H2 4069   0.015   3.402   3.246
  906SOL    EPW 4070   0.083   3.350   3.267
  907SOL      O 4071   0.998   2.213   2.826
  907SOL     H1 4072   0.928   2.165   2.871
  907SOL     H2 4073   1.030   2.276   2.890
  907SOL    EPW 4074   0.993   2.215   2.840
  908SOL      O 4075   0.649   2.649   3.446
  908SOL     H1 4076   0.642   2.744   3.434
  908SOL     H2 4077   0.658   2.638   3.541
  908SOL    EPW 4078   0.650   2.661   3.456
  909SOL      O 4079   0.370   3.164   3.704
  909SOL     H1 4080   0.442   3.166   3.641
  909SOL     H2 4081   0.340   3.073   3.703
  909SOL    EPW 4082   0.375   3.153   3.696
  910SOL      O 4083   1.454   1.927   3.171
  910SOL     H1 4084   1.525   1.873   3.135
  910SOL     H2 4085   1.453   1.906   3.264
  910SOL    EPW 4086   1.463   1.918   3.179
  911SOL      O 4087   1.654   3.457   3.655
  911SOL     H1 4088   1.627   3.454   3.746
  911SOL     H2 4089   1.750   3.461   3.658
  911SOL    EPW 4090   1.664   3.457   3.667
  912SOL      O 4091   0.465   2.319   2.639
  912SOL     H1 4092   0.536   2.267   2.602
  912SOL     H2 4093   0.451   2.284   2.726
  912SOL    EPW 4094   0.473   2.308   2.646
  913SOL      O 4095   0.020   3.654   3.711
  913SOL     H1 4096   0.070   3.632   3.633
  913SOL     H2 4097   0.028   3.749   3.719
  913SOL    EPW 4098   0.028   3.663   3.702
  914SOL      O 4099   0.781   3.412   2.715
  914SOL     H1 4100   0.709   3.349   2.728
  914SOL     H2 4101   0.742   3.497   2.733
  914SOL    EPW 4102   0.765   3.415   2.718
  915SOL      O 4103   1.101   2.260   2.363
  915SOL     H1 4104   1.123   2.197   2.295
  915SOL     H2 4105   1.006   2.252   2.374
  915SOL    EPW 4106   1.091   2.251   2.355
  916SOL      O 4107   0.186   1.950   2.295
  916SOL     H1 4108   0.257   1.971   2.234
  916SOL     H2 4109   0.140   1.878   2.253
  916SOL    EPW 4110   0.190   1.944   2.281
  917SOL      O 4111   0.017   2.417   3.438
  917SOL     H1 4112   0.081   2.483   3.413
  917SOL     H2 4113  -0.064   2.444   3.395
  917SOL    EPW 4114   0.015   2.429   3.430
  918SOL      O 4115   1.755   3.324   2.395
  918SOL     H1 4116   1.725   3.257   2.456
  918SOL     H2 4117   1.849   3.330   2.409
  918SOL    EPW 4118   1.763   3.316   2.405
  919SOL      O 4119   1.311   3.001   2.325
  919SOL     H1 4120   1.283   3.087   2.358
  919SOL     H2 4121   1.339   3.017   2.235
  919SOL    EPW 4122   1.311   3.015   2.317
  920SOL      O 4123   0.973   1.921   2.378
  920SOL     H1 4124   1.010   1.980   2.443
  920SOL     H2 4125   0.950   1.977   2.304
  920SOL    EPW 4126   0.974   1.936   2.377
  921SOL      O 4127   1.826   2.803   2.800
  921SOL     H1 4128   1.817   2.835   2.711
  921SOL     H2 4129   1.779   2.719   2.800
  921SOL    EPW 4130   1.819   2.796   2.790
  922SOL      O 4131   0.202   2.643   3.379
  922SOL     H1 4132   0.223   2.712   3.317
  922SOL     H2 4133   0.282   2.590   3.384
  922SOL    EPW 4134   0.215   2.644   3.373
  923SOL      O 4135   1.738   2.734   2.501
  923SOL     H1 4136   1.832   2.723   2.489
  923SOL     H2 4137   1.714   2.806   2.442
  923SOL    EPW 4138   1.748   2.742   2.492
  924SOL      O 4139   0.187   2.658   3.646
  924SOL     H1 4140   0.113   2.602   3.672
  924SOL     H2 4141   0.182   2.661   3.551
  924SOL    EPW 4142   0.176   2.651   3.636
  925SOL      O 4143   0.353   1.945   3.096
  925SOL     H1 4144   0.396   2.029   3.116
  925SOL     H2 4145   0.426   1.883   3.089
  925SOL    EPW 4146   0.368   1.948   3.097
  926SOL      O 4147   0.394   2.612   2.274
  926SOL     H1 4148   0.394   2.707   2.259
  926SOL     H2 4149   0.471   2.596   2.328
  926SOL    EPW 4150   0.404   2.623   2.279
  927SOL      O 4151   1.170   2.471   3.338
  927SOL     H1 4152   1.206   2.444   3.254
  927SOL     H2 4153   1.083   2.505   3.317
  927SOL    EPW 4154   1.164   2.472   3.325
  928SOL      O 4155   0.153   2.343   2.563
  928SOL     H1 4156   0.215   2.350   2.636
  928SOL     H2 4157   0.153   2.250   2.540
  928SOL    EPW 4158   0.161   2.332   2.570
  929SOL      O 4159   1.700   3.683   2.095
  929SOL     H1 4160   1.767   3.716   2.035
  929SOL     H2 4161   1.657   3.762   2.129
  929SOL    EPW 4162   1.702   3.698   2.091
  930SOL      O 4163   0.835   2.604   3.047
  930SOL     H1 4164   0.793   2.522   3.023
  930SOL     H2 4165   0.836   2.603   3.143
  930SOL    EPW 4166   0.828   2.593   3.056
  931SOL      O 4167   1.506   3.737   3.446
  931SOL     H1 4168   1.509   3.643   3.429
  931SOL     H2 4169   1.529   3.745   3.538
  931SOL    EPW 4170   1.509   3.725   3.456
  932SOL      O 4171   0.639   2.074   3.152
  932SOL     H1 4172   0.570   2.137   3.173
  932SOL     H2 4173   0.666   2.038   3.237
  932SOL    EPW 4174   0.633   2.077   3.165
  933SOL      O 4175   0.022   2.915   2.021
  933SOL     H1 4176  -0.009   2.980   2.084
  933SOL     H2 4177  -0.029   2.837   2.040
  933SOL    EPW 4178   0.012   2.912   2.031
  934SOL      O 4179   1.434   1.927   2.769
  934SOL     H1 4180   1.522   1.936   2.806
  934SOL     H2 4181   1.444   1.868   2.695
  934SOL    EPW 4182   1.448   1.921   2.763
  935SOL      O 4183   1.466   2.666   2.613
  935SOL     H1 4184   1.546   2.681   2.562
  935SOL     H2 4185   1.459   2.571   2.619
  935SOL    EPW 4186   1.475   2.655   2.608
  936SOL      O 4187   0.606   3.715   1.963
  936SOL     H1 4188   0.511   3.715   1.955
  936SOL     H2 4189   0.622   3.661   2.041
  936SOL    EPW 4190   0.596   3.709   1.972
  937SOL      O 4191   0.916   2.592   3.310
  937SOL     H1 4192   0.985   2.659   3.307
  937SOL     H2 4193   0.849   2.630   3.366
  937SOL    EPW 4194   0.917   2.605   3.317
  938SOL      O 4195   0.334   2.892   3.558
  938SOL     H1 4196   0.288   2.808   3.560
  938SOL     H2 4197   0.391   2.886   3.482
  938SOL    EPW 4198   0.336   2.880   3.550
  939SOL      O 4199   1.451   2.535   1.879
  939SOL     H1 4200   1.379   2.511   1.821
  939SOL     H2 4201   1.517   2.572   1.821
  939SOL    EPW 4202   1.450   2.537   1.864
  940SOL      O 4203   0.585   3.267   2.559
  940SOL     H1 4204   0.650   3.200   2.580
  940SOL     H2 4205   0.637   3.344   2.536
  940SOL    EPW 4206   0.600   3.269   2.558
  941SOL      O 4207   0.846   2.432   2.689
  941SOL     H1 4208   0.786   2.450   2.761
  941SOL     H2 4209   0.880   2.344   2.708
  941SOL    EPW 4210   0.842   2.422   2.702
  942SOL      O 4211   1.787   1.931   3.358
  942SOL     H1 4212   1.708   1.977   3.386
  942SOL     H2 4213   1.822   1.985   3.287
  942SOL    EPW 4214   1.781   1.944   3.352
  943SOL      O 4215   1.071   3.015   2.708
  943SOL     H1 4216   1.163   2.996   2.726
  943SOL     H2 4217   1.044   2.945   2.648
  943SOL    EPW 4218   1.079   3.003   2.702
  944SOL      O 4219   0.864   2.835   2.063
  944SOL     H1 4220   0.850   2.747   2.028
  944SOL     H2 4221   0.815   2.892   2.004
  944SOL    EPW 4222   0.856   2.830   2.051
  945SOL      O 4223   1.345   3.253   2.804
  945SOL     H1 4224   1.318   3.337   2.769
  945SOL     H2 4225   1.305   3.248   2.891
  945SOL    EPW 4226   1.338   3.262   2.810
  946SOL      O 4227   1.264   3.201   3.072
  946SOL     H1 4228   1.275   3.168   3.161
  946SOL     H2 4229   1.183   3.160   3.041
  946SOL    EPW 4230   1.254   3.193   3.078
  947SOL      O 4231   0.277   2.559   2.842
  947SOL     H1 4232   0.227   2.558   2.923
  947SOL     H2 4233   0.297   2.651   2.826
  947SOL    EPW 4234   0.273   2.571   2.850
  948SOL      O 4235   1.344   3.323   3.604
  948SOL     H1 4236   1.344   3.417   3.620
  948SOL     H2 4237   1.389   3.313   3.520
  948SOL    EPW 4238   1.350   3.333   3.595
  949SOL      O 4239   1.583   2.041   2.165
  949SOL     H1 4240   1.576   2.045   2.260
  949SOL     H2 4241   1.595   2.132   2.138
  949SOL    EPW 4242   1.584   2.054   2.173
  950SOL      O 4243   0.872   2.604   2.279
  950SOL     H1 4244   0.852   2.590   2.186
  950SOL     H2 4245   0.965   2.583   2.286
  950SOL    EPW 4246   0.882   2.599   2.268
  951SOL      O 4247   0.199   2.227   3.583
  951SOL     H1 4248   0.156   2.286   3.520
  951SOL     H2 4249   0.267   2.282   3.623
  951SOL    EPW 4250   0.203   2.242   3.580
  952SOL      O 4251   1.311   2.847   3.128
  952SOL     H1 4252   1.374   2.844   3.201
  952SOL     H2 4253   1.227   2.865   3.170
  952SOL    EPW 4254   1.307   2.849   3.143
  953SOL      O 4255   0.855   3.562   2.317
  953SOL     H1 4256   0.913   3.633   2.344
  953SOL     H2 4257   0.878   3.490   2.375
  953SOL    EPW 4258   0.866   3.562   2.328
  954SOL      O 4259   1.650   2.024   2.907
  954SOL     H1 4260   1.695   1.942   2.926
  954SOL     H2 4261   1.670   2.080   2.983
  954SOL    EPW 4262   1.660   2.020   2.919
  955SOL      O 4263   0.098   1.867   3.006
  955SOL     H1 4264   0.089   1.868   2.911
  955SOL     H2 4265   0.192   1.879   3.021
  955SOL    EPW 4266   0.110   1.870   2.997
  956SOL      O 4267   1.735   3.060   2.626
  956SOL     H1 4268   1.714   3.006   2.549
  956SOL     H2 4269   1.831   3.058   2.630
  956SOL    EPW 4270   1.744   3.053   2.615
  957SOL      O 4271   0.427   3.205   3.369
  957SOL     H1 4272   0.348   3.155   3.392
  957SOL     H2 4273   0.497   3.164   3.419
  957SOL    EPW 4274   0.425   3.193   3.379
  958SOL      O 4275   0.311   1.994   2.052
  958SOL     H1 4276   0.240   2.049   2.020
  958SOL     H2 4277   0.353   1.960   1.973
  958SOL    EPW 4278   0.307   1.996   2.038
  959SOL      O 4279   1.435   2.491   2.888
  959SOL     H1 4280   1.358   2.537   2.854
  959SOL     H2 4281   1.492   2.560   2.922
  959SOL    EPW 4282   1.432   2.506   2.888
  960SOL      O 4283   0.067   2.093   1.901
  960SOL     H1 4284   0.034   2.172   1.945
  960SOL     H2 4285   0.122   2.126   1.830
  960SOL    EPW 4286   0.070   2.107   1.898
  961SOL      O 4287   0.101   3.350   2.090
  961SOL     H1 4288   0.118   3.434   2.132
  961SOL     H2 4289   0.136   3.359   2.002
  961SOL    EPW 4290   0.106   3.363   2.084
  962SOL      O 4291   1.373   3.439   2.307
  962SOL     H1 4292   1.436   3.429   2.236
  962SOL     H2 4293   1.290   3.459   2.262
  962SOL    EPW 4294   1.370   3.440   2.292
  963SOL      O 4295   1.736   2.707   3.993
  963SOL     H1 4296   1.777   2.649   4.058
  963SOL     H2 4297   1.643   2.699   4.010
  963SOL    EPW 4298   1.730   2.699   4.003
  964SOL      O 4299   0.530   2.890   4.222
  964SOL     H1 4300   0.620   2.865   4.206
  964SOL     H2 4301   0.526   2.983   4.199
  964SOL    EPW 4302   0.542   2.899   4.217
  965SOL      O 4303   1.646   3.593   4.364
  965SOL     H1 4304   1.658   3.539   4.442
  965SOL     H2 4305   1.683   3.541   4.293
  965SOL    EPW 4306   1.652   3.578   4.365
  966SOL      O 4307   0.814   2.346   4.235
  966SOL     H1 4308   0.789   2.434   4.263
  966SOL     H2 4309   0.811   2.349   4.139
  966SOL    EPW 4310   0.810   2.358   4.227
  967SOL      O 4311   0.256   2.374   4.163
  967SOL     H1 4312   0.288   2.462   4.145
  967SOL     H2 4313   0.244   2.372   4.258
  967SOL    EPW 4314   0.259   2.386   4.175
  968SOL      O 4315   0.655   2.129   4.250
  968SOL     H1 4316   0.713   2.205   4.252
  968SOL     H2 4317   0.590   2.150   4.183
  968SOL    EPW 4318   0.654   2.141   4.241
  969SOL      O 4319   0.742   3.056   4.425
  969SOL     H1 4320   0.822   3.059   4.477
  969SOL     H2 4321   0.770   3.023   4.339
  969SOL    EPW 4322   0.756   3.052   4.420
  970SOL      O 4323   1.369   3.038   3.941
  970SOL     H1 4324   1.287   3.074   3.907
  970SOL     H2 4325   1.437   3.081   3.890
  970SOL    EPW 4326   1.367   3.048   3.929
  971SOL      O 4327   0.921   3.179   4.134
  971SOL     H1 4328   0.898   3.241   4.202
  971SOL     H2 4329   0.878   3.097   4.160
  971SOL    EPW 4330   0.913   3.175   4.145
  972SOL      O 4331   0.418   2.152   4.102
  972SOL     H1 4332   0.392   2.114   4.018
  972SOL     H2 4333   0.355   2.222   4.118
  972SOL    EPW 4334   0.407   2.155   4.093
  973SOL      O 4335   0.253   3.113   4.139
  973SOL     H1 4336   0.201   3.181   4.095
  973SOL     H2 4337   0.250   3.039   4.079
  973SOL    EPW 4338   0.245   3.112   4.126
  974SOL      O 4339   0.915   3.576   3.917
  974SOL     H1 4340   0.870   3.592   4.000
  974SOL     H2 4341   0.846   3.541   3.859
  974SOL    EPW 4342   0.901   3.573   3.919
  975SOL      O 4343   1.850   2.349   3.892
  975SOL     H1 4344   1.759   2.351   3.920
  975SOL     H2 4345   1.895   2.411   3.950
  975SOL    EPW 4346   1.843   2.357   3.902
  976SOL      O 4347   1.595   2.952   4.242
  976SOL     H1 4348   1.505   2.952   4.277
  976SOL     H2 4349   1.588   2.998   4.159
  976SOL    EPW 4350   1.582   2.958   4.236
  977SOL      O 4351   1.122   2.533   4.203
  977SOL     H1 4352   1.148   2.557   4.114
  977SOL     H2 4353   1.104   2.440   4.199
  977SOL    EPW 4354   1.124   2.525   4.190
  978SOL      O 4355   1.787   3.153   4.054
  978SOL     H1 4356   1.743   3.194   4.129
  978SOL     H2 4357   1.844   3.221   4.019
  978SOL    EPW 4358   1.789   3.167   4.059
  979SOL      O 4359   0.443   3.569   4.372
  979SOL     H1 4360   0.475   3.657   4.350
  979SOL     H2 4361   0.396   3.541   4.294
  979SOL    EPW 4362   0.442   3.577   4.359
  980SOL      O 4363   1.827   1.931   4.421
  980SOL     H1 4364   1.881   1.882   4.483
  980SOL     H2 4365   1.770   1.865   4.382
  980SOL    EPW 4366   1.827   1.915   4.423
  981SOL      O 4367   0.159   3.629   3.949
  981SOL     H1 4368   0.188   3.719   3.941
  981SOL     H2 4369   0.109   3.612   3.870
  981SOL    EPW 4370   0.157   3.637   3.938
  982SOL      O 4371   1.563   3.437   3.920
  982SOL     H1 4372   1.611   3.506   3.966
  982SOL     H2 4373   1.484   3.481   3.889
  982SOL    EPW 4374   1.558   3.451   3.923
  983SOL      O 4375   0.961   2.562   3.864
  983SOL     H1 4376   0.963   2.509   3.785
  983SOL     H2 4377   1.049   2.599   3.870
  983SOL    EPW 4378   0.973   2.561   3.853
  984SOL      O 4379   1.575   2.488   4.200
  984SOL     H1 4380   1.614   2.488   4.287
  984SOL     H2 4381   1.516   2.564   4.200
  984SOL    EPW 4382   1.572   2.499   4.211
  985SOL      O 4383   1.762   2.374   4.366
  985SOL     H1 4384   1.851   2.343   4.383
  985SOL     H2 4385   1.705   2.314   4.414
  985SOL    EPW 4386   1.765   2.362   4.375
  986SOL      O 4387   0.188   2.088   4.395
  986SOL     H1 4388   0.179   2.028   4.321
  986SOL     H2 4389   0.121   2.059   4.458
  986SOL    EPW 4390   0.178   2.075   4.393
  987SOL      O 4391   1.131   3.181   3.956
  987SOL     H1 4392   1.081   3.183   4.038
  987SOL     H2 4393   1.065   3.199   3.888
  987SOL    EPW 4394   1.117   3.183   3.958
  988SOL      O 4395   0.594   3.599   4.064
  988SOL     H1 4396   0.515   3.557   4.097
  988SOL     H2 4397   0.660   3.582   4.131
  988SOL    EPW 4398   0.593   3.591   4.077
  989SOL      O 4399   0.730   3.014   3.771
  989SOL     H1 4400   0.652   2.960   3.758
  989SOL     H2 4401   0.701   3.087   3.824
  989SOL    EPW 4402   0.716   3.016   3.776
  990SOL      O 4403   1.311   3.530   3.839
  990SOL     H1 4404   1.237   3.493   3.889
  990SOL     H2 4405   1.319   3.620   3.872
  990SOL    EPW 4406   1.302   3.537   3.851
  991SOL      O 4407   1.535   3.204   3.781
  991SOL     H1 4408   1.482   3.253   3.717
  991SOL     H2 4409   1.566   3.270   3.842
  991SOL    EPW 4410   1.533   3.218   3.779
  992SOL      O 4411   0.760   2.093   3.836
  992SOL     H1 4412   0.708   2.013   3.824
  992SOL     H2 4413   0.847   2.070   3.804
  992SOL    EPW 4414   0.763   2.079   3.830
  993SOL      O 4415   0.121   2.733   4.293
  993SOL     H1 4416   0.212   2.748   4.320
  993SOL     H2 4417   0.124   2.654   4.239
  993SOL    EPW 4418   0.133   2.725   4.291
  994SOL      O 4419   0.129   3.345   4.332
  994SOL     H1 4420   0.101   3.384   4.414
  994SOL     H2 4421   0.149   3.254   4.354
  994SOL    EPW 4422   0.127   3.337   4.345
  995SOL      O 4423   0.962   3.388   4.367
  995SOL     H1 4424   1.045   3.342   4.351
  995SOL     H2 4425   0.952   3.387   4.463
  995SOL    EPW 4426   0.972   3.381   4.377
  996SOL      O 4427   0.695   3.445   3.772
  996SOL     H1 4428   0.635   3.514   3.742
  996SOL     H2 4429   0.640   3.387   3.825
  996SOL    EPW 4430   0.679   3.447   3.774
  997SOL      O 4431   1.133   2.090   3.995
  997SOL     H1 4432   1.066   2.066   3.932
  997SOL     H2 4433   1.198   2.139   3.944
  997SOL    EPW 4434   1.133   2.092   3.980
  998SOL      O 4435   1.070   2.594   4.459
  998SOL     H1 4436   1.007   2.526   4.483
  998SOL     H2 4437   1.090   2.575   4.367
  998SOL    EPW 4438   1.064   2.581   4.451
  999SOL      O 4439   0.326   3.489   4.161
  999SOL     H1 4440   0.287   3.536   4.087
  999SOL     H2 4441   0.260   3.424   4.186
  999SOL    EPW 4442   0.313   3.487   4.155
 1000SOL      O 4443   0.818   2.898   4.185
 1000SOL     H1 4444   0.820   2.872   4.092
 1000SOL     H2 4445   0.876   2.835   4.228
 1000SOL    EPW 4446   0.826   2.887   4.179
 1001SOL      O 4447   1.375   3.666   4.387
 1001SOL     H1 4448   1.318   3.619   4.326
 1001SOL     H2 4449   1.461   3.627   4.374
 1001SOL    EPW 4450   1.378   3.657   4.377
 1002SOL      O 4451   0.133   3.076   4.452
 1002SOL     H1 4452   0.197   3.108   4.515
 1002SOL     H2 4453   0.182   3.012   4.400
 1002SOL    EPW 4454   0.148   3.072   4.453
 1003SOL      O 4455   1.308   2.246   3.853
 1003SOL     H1 4456   1.281   2.312   3.789
 1003SOL     H2 4457   1.378   2.289   3.903
 1003SOL    EPW 4458   1.313   2.259   3.850
 1004SOL      O 4459   0.976   1.951   3.790
 1004SOL     H1 4460   1.032   1.943   3.712
 1004SOL     H2 4461   0.953   1.861   3.812
 1004SOL    EPW 4462   0.981   1.938   3.783
 1005SOL      O 4463   1.481   2.802   3.995
 1005SOL     H1 4464   1.448   2.891   3.985
 1005SOL     H2 4465   1.446   2.773   4.080
 1005SOL    EPW 4466   1.471   2.811   4.006
 1006SOL      O 4467   0.475   2.840   3.787
 1006SOL     H1 4468   0.398   2.853   3.843
 1006SOL     H2 4469   0.439   2.804   3.706
 1006SOL    EPW 4470   0.461   2.836   3.784
 1007SOL      O 4471   1.128   2.813   4.030
 1007SOL     H1 4472   1.038   2.834   4.005
 1007SOL     H2 4473   1.155   2.886   4.086
 1007SOL    EPW 4474   1.120   2.825   4.033
 1008SOL      O 4475   0.757   1.929   4.437
 1008SOL     H1 4476   0.686   1.990   4.419
 1008SOL     H2 4477   0.808   1.926   4.356
 1008SOL    EPW 4478   0.753   1.935   4.424
 1009SOL      O 4479   0.515   3.169   4.186
 1009SOL     H1 4480   0.508   3.201   4.276
 1009SOL     H2 4481   0.425   3.153   4.158
 1009SOL    EPW 4482   0.503   3.171   4.193
 1010SOL      O 4483   0.518   2.453   3.900
 1010SOL     H1 4484   0.484   2.509   3.970
 1010SOL     H2 4485   0.589   2.403   3.940
 1010SOL    EPW 4486   0.524   2.454   3.914
 1011SOL      O 4487   1.574   2.339   3.964
 1011SOL     H1 4488   1.566   2.410   3.901
 1011SOL     H2 4489   1.592   2.383   4.047
 1011SOL    EPW 4490   1.575   2.353   3.966
 1012SOL      O 4491   0.434   1.994   4.393
 1012SOL     H1 4492   0.484   2.037   4.324
 1012SOL     H2 4493   0.349   2.038   4.393
 1012SOL    EPW 4494   0.431   2.007   4.384
 1013SOL      O 4495   1.243   2.601   3.939
 1013SOL     H1 4496   1.290   2.619   3.858
 1013SOL     H2 4497   1.209   2.685   3.967
 1013SOL    EPW 4498   1.245   2.615   3.932
 1014SOL      O 4499   0.356   2.779   4.433
 1014SOL     H1 4500   0.414   2.835   4.381
 1014SOL     H2 4501   0.400   2.694   4.435
 1014SOL    EPW 4502   0.369   2.776   4.426
 1015SOL      O 4503   1.496   2.131   4.270
 1015SOL     H1 4504   1.418   2.081   4.295
 1015SOL     H2 4505   1.467   2.222   4.270
 1015SOL    EPW 4506   1.482   2.135   4.273
 1016SOL      O 4507   1.082   2.093   4.429
 1016SOL     H1 4508   1.102   2.168   4.373
 1016SOL     H2 4509   1.062   2.132   4.514
 1016SOL    EPW 4510   1.083   2.109   4.433
 1017SOL      O 4511   0.978   3.343   3.761
 1017SOL     H1 4512   1.005   3.421   3.713
 1017SOL     H2 4513   0.885   3.358   3.780
 1017SOL    EPW 4514   0.969   3.356   3.757
 1018SOL      O 4515   0.018   2.505   4.152
 1018SOL     H1 4516  -0.042   2.477   4.222
 1018SOL     H2 4517   0.092   2.445   4.158
 1018SOL    EPW 4518   0.020   2.494   4.161
 1019SOL      O 4519   1.186   3.236   4.312
 1019SOL     H1 4520   1.209   3.187   4.390
 1019SOL     H2 4521   1.267   3.278   4.284
 1019SOL    EPW 4522   1.199   3.236   4.319
 1020SOL      O 4523   1.326   1.903   3.948
 1020SOL     H1 4524   1.400   1.947   3.991
 1020SOL     H2 4525   1.250   1.957   3.970
 1020SOL    EPW 4526   1.326   1.915   3.956
 1021SOL      O 4527   1.386   2.678   4.226
 1021SOL     H1 4528   1.301   2.648   4.196
 1021SOL     H2 4529   1.378   2.685   4.321
 1021SOL    EPW 4530   1.374   2.676   4.235
 1022SOL      O 4531   0.759   2.344   3.952
 1022SOL     H1 4532   0.832   2.393   3.915
 1022SOL     H2 4533   0.775   2.253   3.926
 1022SOL    EPW 4534   0.771   2.339   3.945
 1023SOL      O 4535   0.234   2.853   4.050
 1023SOL     H1 4536   0.171   2.869   3.979
 1023SOL     H2 4537   0.181   2.816   4.121
 1023SOL    EPW 4538   0.219   2.850   4.050
 1024SOL      O 4539   0.590   3.207   3.909
 1024SOL     H1 4540   0.605   3.183   4.001
 1024SOL     H2 4541   0.498   3.185   3.893
 1024SOL    EPW 4542   0.580   3.200   3.919
 1025SOL      O 4543   1.129   3.438   4.061
 1025SOL     H1 4544   1.137   3.356   4.012
 1025SOL     H2 4545   1.048   3.477   4.028
 1025SOL    EPW 4546   1.119   3.433   4.051
 1026SOL      O 4547   1.101   2.260   4.231
 1026SOL     H1 4548   1.123   2.197   4.163
 1026SOL     H2 4549   1.006   2.252   4.242
 1026SOL    EPW 4550   1.091   2.251   4.223
 1027SOL      O 4551   0.186   1.950   4.163
 1027SOL     H1 4552   0.257   1.971   4.102
 1027SOL     H2 4553   0.140   1.878   4.121
 1027SOL    EPW 4554   0.190   1.944   4.149
 1028SOL      O 4555   1.755   3.324   4.263
 1028SOL     H1 4556   1.725   3.257   4.324
 1028SOL     H2 4557   1.849   3.330   4.277
 1028SOL    EPW 4558   1.763   3.316   4.273
 1029SOL      O 4559   1.311   3.001   4.193
 1029SOL     H1 4560   1.283   3.087   4.226
 1029SOL     H2 4561   1.339   3.017   4.103
 1029SOL    EPW 4562   1.311   3.015   4.185
 1030SOL      O 4563   0.973   1.921   4.246
 1030SOL     H1 4564   1.010   1.980   4.311
 1030SOL     H2 4565   0.950   1.977   4.172
 1030SOL    EPW 4566   0.974   1.936   4.245
 1031SOL      O 4567   1.738   2.734   4.369
 1031SOL     H1 4568   1.832   2.723   4.357
 1031SOL     H2 4569   1.714   2.806   4.310
 1031SOL    EPW 4570   1.748   2.742   4.360
 1032SOL      O 4571   0.394   2.612   4.142
 1032SOL     H1 4572   0.394   2.707   4.127
 1032SOL     H2 4573   0.471   2.596   4.196
 1032SOL    EPW 4574   0.404   2.623   4.147
 1033SOL      O 4575   0.153   2.343   4.431
 1033SOL     H1 4576   0.215   2.350   4.504
 1033SOL     H2 4577   0.153   2.250   4.408
 1033SOL    EPW 4578   0.161   2.332   4.438
 1034SOL      O 4579   1.700   3.683   3.963
 1034SOL     H1 4580   1.767   3.716   3.903
 1034SOL     H2 4581   1.657   3.762   3.997
 1034SOL    EPW 4582   1.702   3.698   3.959
 1035SOL      O 4583   0.022   2.915   3.889
 1035SOL     H1 4584  -0.009   2.980   3.952
 1035SOL     H2 4585  -0.029   2.837   3.908
 1035SOL    EPW 4586   0.012   2.912   3.899
 1036SOL      O 4587   0.606   3.715   3.831
 1036SOL     H1 4588   0.511   3.715   3.823
 1036SOL     H2 4589   0.622   3.661   3.909
 1036SOL    EPW 4590   0.596   3.709   3.840
 1037SOL      O 4591   1.451   2.535   3.747
 1037SOL     H1 4592   1.379   2.511   3.689
 1037SOL     H2 4593   1.517   2.572   3.689
 1037SOL    EPW 4594   1.450   2.537   3.732
 1038SOL      O 4595   0.585   3.267   4.427
 1038SOL     H1 4596   0.650   3.200   4.448
 1038SOL     H2 4597   0.637   3.344   4.404
 1038SOL    EPW 4598   0.600   3.269   4.426
 1039SOL      O 4599   0.864   2.835   3.931
 1039SOL     H1 4600   0.850   2.747   3.896
 1039SOL     H2 4601   0.815   2.892   3.872
 1039SOL    EPW 4602   0.856   2.830   3.919
 1040SOL      O 4603   1.583   2.041   4.033
 1040SOL     H1 4604   1.576   2.045   4.128
 1040SOL     H2 4605   1.595   2.132   4.006
 1040SOL    EPW 4606   1.584   2.054   4.041
 1041SOL      O 4607   0.872   2.604   4.147
 1041SOL     H1 4608   0.852   2.590   4.054
 1041SOL     H2 4609   0.965   2.583   4.154
 1041SOL    EPW 4610   0.882   2.599   4.136
 1042SOL      O 4611   0.855   3.562   4.185
 1042SOL     H1 4612   0.913   3.633   4.212
 1042SOL     H2 4613   0.878   3.490   4.243
 1042SOL    EPW 4614   0.866   3.562   4.196
 1043SOL      O 4615   0.067   2.093   3.769
 1043SOL     H1 4616   0.034   2.172   3.813
 1043SOL     H2 4617   0.122   2.126   3.698
 1043SOL    EPW 4618   0.070   2.107   3.766
 1044SOL      O 4619   0.101   3.350   3.958
 1044SOL     H1 4620   0.118   3.434   4.000
 1044SOL     H2 4621   0.136   3.359   3.870
 1044SOL    EPW 4622   0.106   3.363   3.952
 1045SOL      O 4623   1.373   3.439   4.175
 1045SOL     H1 4624   1.436   3.429   4.104
 1045SOL     H2 4625   1.290   3.459   4.130
 1045SOL    EPW 4626   1.370   3.440   4.160
 1046SOL      O 4627   1.736   4.575   0.257
 1046SOL     H1 4628   1.777   4.517   0.322
 1046SOL     H2 4629   1.643   4.567   0.274
 1046SOL    EPW 4630   1.730   4.567   0.267
 1047SOL      O 4631   1.602   4.507   1.252
 1047SOL     H1 4632   1.557   4.574   1.303
 1047SOL     H2 4633   1.690   4.543   1.238
 1047SOL    EPW 4634   1.608   4.520   1.256
 1048SOL      O 4635   0.530   4.758   0.486
 1048SOL     H1 4636   0.620   4.733   0.470
 1048SOL     H2 4637   0.526   4.851   0.463
 1048SOL    EPW 4638   0.542   4.767   0.481
 1049SOL      O 4639   1.646   5.461   0.628
 1049SOL     H1 4640   1.658   5.407   0.706
 1049SOL     H2 4641   1.683   5.409   0.557
 1049SOL    EPW 4642   1.652   5.446   0.629
 1050SOL      O 4643   1.025   5.346   1.629
 1050SOL     H1 4644   1.066   5.382   1.550
 1050SOL     H2 4645   1.060   5.257   1.636
 1050SOL    EPW 4646   1.036   5.339   1.620
 1051SOL      O 4647   1.582   4.901   1.233
 1051SOL     H1 4648   1.503   4.866   1.191
 1051SOL     H2 4649   1.609   4.973   1.177
 1051SOL    EPW 4650   1.575   4.906   1.220
 1052SOL      O 4651   0.814   4.214   0.499
 1052SOL     H1 4652   0.789   4.302   0.527
 1052SOL     H2 4653   0.811   4.217   0.403
 1052SOL    EPW 4654   0.810   4.226   0.491
 1053SOL      O 4655   0.256   4.242   0.427
 1053SOL     H1 4656   0.288   4.330   0.409
 1053SOL     H2 4657   0.244   4.240   0.522
 1053SOL    EPW 4658   0.259   4.254   0.439
 1054SOL      O 4659   0.334   4.655   1.328
 1054SOL     H1 4660   0.397   4.602   1.279
 1054SOL     H2 4661   0.315   4.729   1.271
 1054SOL    EPW 4662   0.340   4.657   1.315
 1055SOL      O 4663   0.655   3.997   0.514
 1055SOL     H1 4664   0.713   4.073   0.516
 1055SOL     H2 4665   0.590   4.018   0.447
 1055SOL    EPW 4666   0.654   4.009   0.505
 1056SOL      O 4667   0.742   4.924   0.689
 1056SOL     H1 4668   0.822   4.927   0.741
 1056SOL     H2 4669   0.770   4.891   0.603
 1056SOL    EPW 4670   0.756   4.920   0.684
 1057SOL      O 4671   0.767   5.265   1.592
 1057SOL     H1 4672   0.851   5.291   1.631
 1057SOL     H2 4673   0.791   5.209   1.518
 1057SOL    EPW 4674   0.781   5.261   1.587
 1058SOL      O 4675   0.519   4.428   0.680
 1058SOL     H1 4676   0.504   4.348   0.731
 1058SOL     H2 4677   0.601   4.463   0.714
 1058SOL    EPW 4678   0.527   4.420   0.692
 1059SOL      O 4679   0.856   5.114   1.365
 1059SOL     H1 4680   0.820   5.180   1.305
 1059SOL     H2 4681   0.784   5.052   1.378
 1059SOL    EPW 4682   0.842   5.114   1.359
 1060SOL      O 4683   0.661   4.254   1.057
 1060SOL     H1 4684   0.567   4.250   1.075
 1060SOL     H2 4685   0.691   4.163   1.066
 1060SOL    EPW 4686   0.652   4.242   1.060
 1061SOL      O 4687   0.407   4.668   0.961
 1061SOL     H1 4688   0.362   4.675   0.877
 1061SOL     H2 4689   0.387   4.751   1.005
 1061SOL    EPW 4690   0.399   4.680   0.955
 1062SOL      O 4691   0.104   5.514   0.836
 1062SOL     H1 4692   0.193   5.506   0.871
 1062SOL     H2 4693   0.068   5.426   0.841
 1062SOL    EPW 4694   0.111   5.501   0.841
 1063SOL      O 4695   1.369   4.906   0.205
 1063SOL     H1 4696   1.287   4.942   0.171
 1063SOL     H2 4697   1.437   4.949   0.154
 1063SOL    EPW 4698   1.367   4.916   0.193
 1064SOL      O 4699   0.368   5.041   0.871
 1064SOL     H1 4700   0.344   5.094   0.947
 1064SOL     H2 4701   0.424   5.099   0.819
 1064SOL    EPW 4702   0.372   5.056   0.874
 1065SOL      O 4703   0.930   4.685   0.681
 1065SOL     H1 4704   0.844   4.672   0.721
 1065SOL     H2 4705   0.983   4.612   0.713
 1065SOL    EPW 4706   0.926   4.674   0.690
 1066SOL      O 4707   0.338   5.337   1.466
 1066SOL     H1 4708   0.246   5.313   1.451
 1066SOL     H2 4709   0.382   5.254   1.483
 1066SOL    EPW 4710   0.332   5.322   1.465
 1067SOL      O 4711   0.921   5.047   0.398
 1067SOL     H1 4712   0.898   5.109   0.466
 1067SOL     H2 4713   0.878   4.965   0.424
 1067SOL    EPW 4714   0.913   5.043   0.409
 1068SOL      O 4715   1.794   4.048   0.854
 1068SOL     H1 4716   1.731   4.028   0.923
 1068SOL     H2 4717   1.784   3.977   0.791
 1068SOL    EPW 4718   1.784   4.035   0.855
 1069SOL      O 4719   0.418   4.020   0.366
 1069SOL     H1 4720   0.392   3.982   0.282
 1069SOL     H2 4721   0.355   4.090   0.382
 1069SOL    EPW 4722   0.407   4.023   0.357
 1070SOL      O 4723   0.253   4.981   0.403
 1070SOL     H1 4724   0.201   5.049   0.359
 1070SOL     H2 4725   0.250   4.907   0.343
 1070SOL    EPW 4726   0.245   4.980   0.390
 1071SOL      O 4727   0.915   5.444   0.181
 1071SOL     H1 4728   0.870   5.460   0.264
 1071SOL     H2 4729   0.846   5.409   0.123
 1071SOL    EPW 4730   0.901   5.441   0.183
 1072SOL      O 4731   1.850   4.217   0.156
 1072SOL     H1 4732   1.759   4.219   0.184
 1072SOL     H2 4733   1.895   4.279   0.214
 1072SOL    EPW 4734   1.843   4.225   0.166
 1073SOL      O 4735   1.595   4.820   0.506
 1073SOL     H1 4736   1.505   4.820   0.541
 1073SOL     H2 4737   1.588   4.866   0.423
 1073SOL    EPW 4738   1.582   4.826   0.500
 1074SOL      O 4739   1.395   4.455   1.578
 1074SOL     H1 4740   1.464   4.393   1.555
 1074SOL     H2 4741   1.320   4.429   1.525
 1074SOL    EPW 4742   1.395   4.442   1.569
 1075SOL      O 4743   0.136   5.335   1.130
 1075SOL     H1 4744   0.119   5.281   1.207
 1075SOL     H2 4745   0.124   5.425   1.160
 1075SOL    EPW 4746   0.133   5.339   1.144
 1076SOL      O 4747   1.131   4.842   1.570
 1076SOL     H1 4748   1.116   4.935   1.555
 1076SOL     H2 4749   1.226   4.832   1.570
 1076SOL    EPW 4750   1.140   4.852   1.567
 1077SOL      O 4751   0.927   4.266   1.771
 1077SOL     H1 4752   1.017   4.267   1.738
 1077SOL     H2 4753   0.886   4.191   1.729
 1077SOL    EPW 4754   0.933   4.256   1.762
 1078SOL      O 4755   1.502   4.798   0.898
 1078SOL     H1 4756   1.505   4.732   0.829
 1078SOL     H2 4757   1.587   4.841   0.894
 1078SOL    EPW 4758   1.514   4.794   0.889
 1079SOL      O 4759   1.122   4.401   0.467
 1079SOL     H1 4760   1.148   4.425   0.378
 1079SOL     H2 4761   1.104   4.308   0.463
 1079SOL    EPW 4762   1.124   4.393   0.454
 1080SOL      O 4763   1.787   5.021   0.318
 1080SOL     H1 4764   1.743   5.062   0.393
 1080SOL     H2 4765   1.844   5.089   0.283
 1080SOL    EPW 4766   1.789   5.035   0.323
 1081SOL      O 4767   0.707   4.070   1.721
 1081SOL     H1 4768   0.717   3.996   1.661
 1081SOL     H2 4769   0.743   4.039   1.804
 1081SOL    EPW 4770   0.713   4.056   1.723
 1082SOL      O 4771   0.443   5.437   0.636
 1082SOL     H1 4772   0.475   5.525   0.614
 1082SOL     H2 4773   0.396   5.409   0.558
 1082SOL    EPW 4774   0.442   5.445   0.623
 1083SOL      O 4775   1.827   3.799   0.685
 1083SOL     H1 4776   1.881   3.750   0.747
 1083SOL     H2 4777   1.770   3.733   0.646
 1083SOL    EPW 4778   1.827   3.783   0.687
 1084SOL      O 4779   0.159   5.497   0.213
 1084SOL     H1 4780   0.188   5.587   0.205
 1084SOL     H2 4781   0.109   5.480   0.134
 1084SOL    EPW 4782   0.157   5.505   0.202
 1085SOL      O 4783   0.946   3.752   1.098
 1085SOL     H1 4784   0.905   3.830   1.060
 1085SOL     H2 4785   1.040   3.770   1.093
 1085SOL    EPW 4786   0.952   3.764   1.093
 1086SOL      O 4787   1.563   5.305   0.184
 1086SOL     H1 4788   1.611   5.374   0.230
 1086SOL     H2 4789   1.484   5.349   0.153
 1086SOL    EPW 4790   1.558   5.319   0.187
 1087SOL      O 4791   0.961   4.430   0.128
 1087SOL     H1 4792   0.963   4.377   0.049
 1087SOL     H2 4793   1.049   4.467   0.134
 1087SOL    EPW 4794   0.973   4.429   0.117
 1088SOL      O 4795   1.575   4.356   0.464
 1088SOL     H1 4796   1.614   4.356   0.551
 1088SOL     H2 4797   1.516   4.432   0.464
 1088SOL    EPW 4798   1.572   4.367   0.475
 1089SOL      O 4799   0.892   4.723   1.593
 1089SOL     H1 4800   0.869   4.703   1.683
 1089SOL     H2 4801   0.977   4.767   1.598
 1089SOL    EPW 4802   0.899   4.726   1.605
 1090SOL      O 4803   0.972   3.860   1.353
 1090SOL     H1 4804   0.978   3.822   1.266
 1090SOL     H2 4805   0.961   3.954   1.338
 1090SOL    EPW 4806   0.973   3.868   1.341
 1091SOL      O 4807   1.061   4.349   1.187
 1091SOL     H1 4808   1.136   4.378   1.134
 1091SOL     H2 4809   0.993   4.414   1.171
 1091SOL    EPW 4810   1.062   4.361   1.177
 1092SOL      O 4811   1.611   4.317   1.464
 1092SOL     H1 4812   1.592   4.226   1.443
 1092SOL     H2 4813   1.589   4.366   1.385
 1092SOL    EPW 4814   1.606   4.310   1.451
 1093SOL      O 4815   1.753   5.411   1.368
 1093SOL     H1 4816   1.681   5.373   1.419
 1093SOL     H2 4817   1.770   5.496   1.409
 1093SOL    EPW 4818   1.747   5.416   1.380
 1094SOL      O 4819   1.058   4.055   1.570
 1094SOL     H1 4820   1.024   4.094   1.489
 1094SOL     H2 4821   1.036   3.963   1.563
 1094SOL    EPW 4822   1.051   4.048   1.560
 1095SOL      O 4823   1.467   4.869   1.646
 1095SOL     H1 4824   1.549   4.910   1.676
 1095SOL     H2 4825   1.430   4.831   1.726
 1095SOL    EPW 4826   1.473   4.870   1.661
 1096SOL      O 4827   1.762   4.242   0.630
 1096SOL     H1 4828   1.851   4.211   0.647
 1096SOL     H2 4829   1.705   4.182   0.678
 1096SOL    EPW 4830   1.765   4.230   0.639
 1097SOL      O 4831   0.188   3.956   0.659
 1097SOL     H1 4832   0.179   3.896   0.585
 1097SOL     H2 4833   0.121   3.927   0.722
 1097SOL    EPW 4834   0.178   3.943   0.657
 1098SOL      O 4835   1.131   5.049   0.220
 1098SOL     H1 4836   1.081   5.051   0.302
 1098SOL     H2 4837   1.065   5.067   0.152
 1098SOL    EPW 4838   1.117   5.051   0.222
 1099SOL      O 4839   0.135   4.129   1.022
 1099SOL     H1 4840   0.107   4.220   1.031
 1099SOL     H2 4841   0.072   4.090   0.961
 1099SOL    EPW 4842   0.122   4.135   1.016
 1100SOL      O 4843   0.594   5.467   0.328
 1100SOL     H1 4844   0.515   5.425   0.361
 1100SOL     H2 4845   0.660   5.450   0.395
 1100SOL    EPW 4846   0.593   5.459   0.341
 1101SOL      O 4847   1.722   4.987   1.725
 1101SOL     H1 4848   1.772   4.913   1.757
 1101SOL     H2 4849   1.668   5.014   1.800
 1101SOL    EPW 4850   1.722   4.981   1.738
 1102SOL      O 4851   0.730   4.882   0.035
 1102SOL     H1 4852   0.652   4.828   0.022
 1102SOL     H2 4853   0.701   4.955   0.088
 1102SOL    EPW 4854   0.716   4.884   0.040
 1103SOL      O 4855   1.856   4.622   1.227
 1103SOL     H1 4856   1.872   4.660   1.140
 1103SOL     H2 4857   1.890   4.688   1.288
 1103SOL    EPW 4858   1.863   4.635   1.223
 1104SOL      O 4859   1.648   5.331   0.896
 1104SOL     H1 4860   1.677   5.398   0.957
 1104SOL     H2 4861   1.629   5.255   0.951
 1104SOL    EPW 4862   1.650   5.331   0.911
 1105SOL      O 4863   1.311   5.398   0.103
 1105SOL     H1 4864   1.237   5.361   0.153
 1105SOL     H2 4865   1.319   5.488   0.136
 1105SOL    EPW 4866   1.302   5.405   0.115
 1106SOL      O 4867   0.119   4.404   1.192
 1106SOL     H1 4868   0.181   4.434   1.258
 1106SOL     H2 4869   0.053   4.473   1.186
 1106SOL    EPW 4870   0.118   4.417   1.199
 1107SOL      O 4871   1.535   5.072   0.045
 1107SOL     H1 4872   1.482   5.121  -0.019
 1107SOL     H2 4873   1.566   5.138   0.106
 1107SOL    EPW 4874   1.533   5.086   0.043
 1108SOL      O 4875   0.760   3.961   0.100
 1108SOL     H1 4876   0.708   3.881   0.088
 1108SOL     H2 4877   0.847   3.938   0.068
 1108SOL    EPW 4878   0.763   3.947   0.094
 1109SOL      O 4879   0.214   5.513   1.644
 1109SOL     H1 4880   0.188   5.581   1.582
 1109SOL     H2 4881   0.262   5.450   1.592
 1109SOL    EPW 4882   0.216   5.513   1.630
 1110SOL      O 4883   0.266   4.832   1.151
 1110SOL     H1 4884   0.319   4.907   1.176
 1110SOL     H2 4885   0.185   4.870   1.117
 1110SOL    EPW 4886   0.262   4.847   1.151
 1111SOL      O 4887   0.806   4.736   1.139
 1111SOL     H1 4888   0.834   4.645   1.151
 1111SOL     H2 4889   0.735   4.730   1.075
 1111SOL    EPW 4890   0.799   4.724   1.134
 1112SOL      O 4891   0.121   4.601   0.557
 1112SOL     H1 4892   0.212   4.616   0.584
 1112SOL     H2 4893   0.124   4.522   0.503
 1112SOL    EPW 4894   0.133   4.593   0.555
 1113SOL      O 4895   0.357   4.309   1.811
 1113SOL     H1 4896   0.304   4.389   1.818
 1113SOL     H2 4897   0.427   4.321   1.876
 1113SOL    EPW 4898   0.359   4.322   1.819
 1114SOL      O 4899   0.743   3.859   1.518
 1114SOL     H1 4900   0.720   3.767   1.520
 1114SOL     H2 4901   0.829   3.861   1.475
 1114SOL    EPW 4902   0.750   3.849   1.514
 1115SOL      O 4903   0.427   4.383   1.557
 1115SOL     H1 4904   0.507   4.433   1.543
 1115SOL     H2 4905   0.418   4.377   1.652
 1115SOL    EPW 4906   0.436   4.389   1.567
 1116SOL      O 4907   0.748   5.533   0.931
 1116SOL     H1 4908   0.837   5.548   0.961
 1116SOL     H2 4909   0.743   5.580   0.847
 1116SOL    EPW 4910   0.758   5.541   0.924
 1117SOL      O 4911   1.404   3.908   1.828
 1117SOL     H1 4912   1.460   3.835   1.854
 1117SOL     H2 4913   1.374   3.946   1.910
 1117SOL    EPW 4914   1.408   3.903   1.841
 1118SOL      O 4915   0.129   5.213   0.596
 1118SOL     H1 4916   0.101   5.252   0.678
 1118SOL     H2 4917   0.149   5.122   0.618
 1118SOL    EPW 4918   0.127   5.205   0.609
 1119SOL      O 4919   0.962   5.256   0.631
 1119SOL     H1 4920   1.045   5.210   0.615
 1119SOL     H2 4921   0.952   5.255   0.727
 1119SOL    EPW 4922   0.972   5.249   0.641
 1120SOL      O 4923   1.794   4.401   0.945
 1120SOL     H1 4924   1.883   4.431   0.927
 1120SOL     H2 4925   1.774   4.341   0.874
 1120SOL    EPW 4926   1.803   4.398   0.934
 1121SOL      O 4927   1.645   4.580   1.825
 1121SOL     H1 4928   1.700   4.504   1.806
 1121SOL     H2 4929   1.647   4.588   1.920
 1121SOL    EPW 4930   1.653   4.571   1.833
 1122SOL      O 4931   0.695   5.313   0.036
 1122SOL     H1 4932   0.635   5.382   0.006
 1122SOL     H2 4933   0.640   5.255   0.089
 1122SOL    EPW 4934   0.679   5.315   0.038
 1123SOL      O 4935   1.133   3.958   0.259
 1123SOL     H1 4936   1.066   3.934   0.196
 1123SOL     H2 4937   1.198   4.007   0.208
 1123SOL    EPW 4938   1.133   3.960   0.244
 1124SOL      O 4939   0.940   4.142   1.344
 1124SOL     H1 4940   0.859   4.183   1.372
 1124SOL     H2 4941   0.987   4.210   1.296
 1124SOL    EPW 4942   0.935   4.157   1.342
 1125SOL      O 4943   1.200   4.480   0.967
 1125SOL     H1 4944   1.213   4.574   0.977
 1125SOL     H2 4945   1.161   4.470   0.881
 1125SOL    EPW 4946   1.196   4.491   0.957
 1126SOL      O 4947   0.652   4.675   0.771
 1126SOL     H1 4948   0.563   4.666   0.804
 1126SOL     H2 4949   0.656   4.765   0.739
 1126SOL    EPW 4950   0.641   4.686   0.771
 1127SOL      O 4951   1.451   4.258   0.766
 1127SOL     H1 4952   1.396   4.179   0.765
 1127SOL     H2 4953   1.433   4.299   0.850
 1127SOL    EPW 4954   1.441   4.253   0.775
 1128SOL      O 4955   0.422   3.945   1.583
 1128SOL     H1 4956   0.343   3.963   1.635
 1128SOL     H2 4957   0.417   4.007   1.510
 1128SOL    EPW 4958   0.412   3.955   1.580
 1129SOL      O 4959   1.070   4.462   0.723
 1129SOL     H1 4960   1.007   4.394   0.747
 1129SOL     H2 4961   1.090   4.443   0.631
 1129SOL    EPW 4962   1.064   4.449   0.715
 1130SOL      O 4963   0.326   5.357   0.425
 1130SOL     H1 4964   0.287   5.404   0.351
 1130SOL     H2 4965   0.260   5.292   0.450
 1130SOL    EPW 4966   0.313   5.355   0.419
 1131SOL      O 4967   0.818   4.766   0.449
 1131SOL     H1 4968   0.820   4.740   0.356
 1131SOL     H2 4969   0.876   4.703   0.492
 1131SOL    EPW 4970   0.826   4.755   0.443
 1132SOL      O 4971   1.371   5.326   1.221
 1132SOL     H1 4972   1.296   5.372   1.259
 1132SOL     H2 4973   1.353   5.233   1.238
 1132SOL    EPW 4974   1.360   5.320   1.229
 1133SOL      O 4975   1.375   5.534   0.651
 1133SOL     H1 4976   1.318   5.487   0.590
 1133SOL     H2 4977   1.461   5.495   0.638
 1133SOL    EPW 4978   1.378   5.525   0.641
 1134SOL      O 4979   1.328   4.010   0.782
 1134SOL     H1 4980   1.356   3.942   0.843
 1134SOL     H2 4981   1.242   3.981   0.752
 1134SOL    EPW 4982   1.321   3.997   0.786
 1135SOL      O 4983   0.133   4.944   0.716
 1135SOL     H1 4984   0.197   4.976   0.779
 1135SOL     H2 4985   0.182   4.880   0.664
 1135SOL    EPW 4986   0.148   4.940   0.717
 1136SOL      O 4987   0.633   5.020   1.698
 1136SOL     H1 4988   0.681   5.103   1.685
 1136SOL     H2 4989   0.690   4.968   1.754
 1136SOL    EPW 4990   0.647   5.024   1.704
 1137SOL      O 4991   0.209   5.262   1.838
 1137SOL     H1 4992   0.265   5.186   1.853
 1137SOL     H2 4993   0.158   5.240   1.760
 1137SOL    EPW 4994   0.209   5.249   1.829
 1138SOL      O 4995   1.308   4.114   0.117
 1138SOL     H1 4996   1.281   4.180   0.053
 1138SOL     H2 4997   1.378   4.157   0.167
 1138SOL    EPW 4998   1.313   4.127   0.114
 1139SOL      O 4999   0.976   3.819   0.054
 1139SOL     H1 5000   1.032   3.811  -0.024
 1139SOL     H2 5001   0.953   3.729   0.076
 1139SOL    EPW 5002   0.981   3.806   0.047
 1140SOL      O 5003   1.481   4.670   0.259
 1140SOL     H1 5004   1.448   4.759   0.249
 1140SOL     H2 5005   1.446   4.641   0.344
 1140SOL    EPW 5006   1.471   4.679   0.270
 1141SOL      O 5007   1.094   5.099   1.447
 1141SOL     H1 5008   1.005   5.105   1.415
 1141SOL     H2 5009   1.138   5.178   1.415
 1141SOL    EPW 5010   1.089   5.109   1.439
 1142SOL      O 5011   0.387   3.767   1.789
 1142SOL     H1 5012   0.315   3.732   1.737
 1142SOL     H2 5013   0.445   3.808   1.724
 1142SOL    EPW 5014   0.385   3.768   1.774
 1143SOL      O 5015   0.411   5.257   1.088
 1143SOL     H1 5016   0.456   5.319   1.145
 1143SOL     H2 5017   0.318   5.276   1.101
 1143SOL    EPW 5018   0.404   5.267   1.095
 1144SOL      O 5019   1.851   4.786   1.442
 1144SOL     H1 5020   1.766   4.799   1.401
 1144SOL     H2 5021   1.831   4.750   1.529
 1144SOL    EPW 5022   1.838   4.782   1.447
 1145SOL      O 5023   0.833   5.325   1.196
 1145SOL     H1 5024   0.857   5.314   1.105
 1145SOL     H2 5025   0.756   5.382   1.194
 1145SOL    EPW 5026   0.825   5.330   1.185
 1146SOL      O 5027   0.475   4.708   0.051
 1146SOL     H1 5028   0.398   4.721   0.107
 1146SOL     H2 5029   0.439   4.672  -0.030
 1146SOL    EPW 5030   0.461   4.704   0.048
 1147SOL      O 5031   1.128   4.681   0.294
 1147SOL     H1 5032   1.038   4.702   0.269
 1147SOL     H2 5033   1.155   4.754   0.350
 1147SOL    EPW 5034   1.120   4.693   0.297
 1148SOL      O 5035   0.628   5.030   0.986
 1148SOL     H1 5036   0.621   5.009   1.080
 1148SOL     H2 5037   0.546   4.998   0.949
 1148SOL    EPW 5038   0.616   5.024   0.993
 1149SOL      O 5039   1.492   4.040   1.388
 1149SOL     H1 5040   1.439   4.042   1.468
 1149SOL     H2 5041   1.477   3.953   1.351
 1149SOL    EPW 5042   1.484   4.030   1.393
 1150SOL      O 5043   1.828   3.964   1.261
 1150SOL     H1 5044   1.809   4.031   1.196
 1150SOL     H2 5045   1.885   3.902   1.216
 1150SOL    EPW 5046   1.832   3.965   1.247
 1151SOL      O 5047   0.074   5.122   1.649
 1151SOL     H1 5048   0.118   5.055   1.595
 1151SOL     H2 5049  -0.011   5.084   1.669
 1151SOL    EPW 5050   0.069   5.108   1.645
 1152SOL      O 5051   0.757   3.797   0.701
 1152SOL     H1 5052   0.686   3.858   0.683
 1152SOL     H2 5053   0.808   3.794   0.620
 1152SOL    EPW 5054   0.753   3.803   0.688
 1153SOL      O 5055   0.515   5.037   0.450
 1153SOL     H1 5056   0.508   5.069   0.540
 1153SOL     H2 5057   0.425   5.021   0.422
 1153SOL    EPW 5058   0.503   5.039   0.457
 1154SOL      O 5059   1.110   5.430   1.359
 1154SOL     H1 5060   1.030   5.415   1.309
 1154SOL     H2 5061   1.117   5.525   1.366
 1154SOL    EPW 5062   1.101   5.441   1.353
 1155SOL      O 5063   1.224   5.395   0.849
 1155SOL     H1 5064   1.271   5.468   0.808
 1155SOL     H2 5065   1.145   5.434   0.885
 1155SOL    EPW 5066   1.219   5.410   0.848
 1156SOL      O 5067   1.632   5.490   1.124
 1156SOL     H1 5068   1.675   5.460   1.204
 1156SOL     H2 5069   1.551   5.438   1.121
 1156SOL    EPW 5070   1.627   5.479   1.134
 1157SOL      O 5071   0.717   4.454   1.831
 1157SOL     H1 5072   0.787   4.396   1.803
 1157SOL     H2 5073   0.660   4.399   1.886
 1157SOL    EPW 5074   0.719   4.441   1.835
 1158SOL      O 5075   1.504   4.666   1.464
 1158SOL     H1 5076   1.509   4.719   1.544
 1158SOL     H2 5077   1.466   4.583   1.492
 1158SOL    EPW 5078   1.500   4.661   1.479
 1159SOL      O 5079   1.144   3.801   1.710
 1159SOL     H1 5080   1.139   3.708   1.691
 1159SOL     H2 5081   1.227   3.812   1.756
 1159SOL    EPW 5082   1.152   3.790   1.714
 1160SOL      O 5083   0.518   4.321   0.164
 1160SOL     H1 5084   0.484   4.377   0.234
 1160SOL     H2 5085   0.589   4.271   0.204
 1160SOL    EPW 5086   0.524   4.322   0.178
 1161SOL      O 5087   1.614   5.072   0.986
 1161SOL     H1 5088   1.649   5.054   0.899
 1161SOL     H2 5089   1.519   5.073   0.973
 1161SOL    EPW 5090   1.606   5.069   0.973
 1162SOL      O 5091   1.043   4.720   1.355
 1162SOL     H1 5092   1.086   4.755   1.433
 1162SOL     H2 5093   1.026   4.797   1.301
 1162SOL    EPW 5094   1.046   4.735   1.358
 1163SOL      O 5095   1.574   4.207   0.228
 1163SOL     H1 5096   1.566   4.278   0.165
 1163SOL     H2 5097   1.592   4.251   0.311
 1163SOL    EPW 5098   1.575   4.221   0.230
 1164SOL      O 5099   0.434   3.862   0.657
 1164SOL     H1 5100   0.484   3.905   0.588
 1164SOL     H2 5101   0.349   3.906   0.657
 1164SOL    EPW 5102   0.431   3.875   0.648
 1165SOL      O 5103   0.701   4.251   1.484
 1165SOL     H1 5104   0.673   4.339   1.508
 1165SOL     H2 5105   0.670   4.195   1.555
 1165SOL    EPW 5106   0.693   4.254   1.496
 1166SOL      O 5107   1.243   4.469   0.203
 1166SOL     H1 5108   1.290   4.487   0.122
 1166SOL     H2 5109   1.209   4.553   0.231
 1166SOL    EPW 5110   1.245   4.483   0.196
 1167SOL      O 5111   0.356   4.647   0.697
 1167SOL     H1 5112   0.414   4.703   0.645
 1167SOL     H2 5113   0.400   4.562   0.699
 1167SOL    EPW 5114   0.369   4.644   0.690
 1168SOL      O 5115   1.496   3.999   0.534
 1168SOL     H1 5116   1.418   3.949   0.559
 1168SOL     H2 5117   1.467   4.090   0.534
 1168SOL    EPW 5118   1.482   4.003   0.537
 1169SOL      O 5119   1.082   3.961   0.693
 1169SOL     H1 5120   1.102   4.036   0.637
 1169SOL     H2 5121   1.062   4.000   0.778
 1169SOL    EPW 5122   1.083   3.977   0.697
 1170SOL      O 5123   0.978   5.211   0.025
 1170SOL     H1 5124   1.005   5.289  -0.023
 1170SOL     H2 5125   0.885   5.226   0.044
 1170SOL    EPW 5126   0.969   5.224   0.021
 1171SOL      O 5127   1.842   4.734   1.712
 1171SOL     H1 5128   1.755   4.714   1.748
 1171SOL     H2 5129   1.896   4.660   1.737
 1171SOL    EPW 5130   1.837   4.723   1.720
 1172SOL      O 5131   0.063   5.247   0.869
 1172SOL     H1 5132   0.095   5.251   0.960
 1172SOL     H2 5133  -0.032   5.255   0.877
 1172SOL    EPW 5134   0.055   5.250   0.882
 1173SOL      O 5135   0.018   4.373   0.416
 1173SOL     H1 5136  -0.042   4.345   0.486
 1173SOL     H2 5137   0.092   4.313   0.422
 1173SOL    EPW 5138   0.020   4.362   0.425
 1174SOL      O 5139   1.586   5.585   1.850
 1174SOL     H1 5140   1.631   5.509   1.815
 1174SOL     H2 5141   1.624   5.598   1.937
 1174SOL    EPW 5142   1.596   5.578   1.856
 1175SOL      O 5143   1.186   5.104   0.576
 1175SOL     H1 5144   1.209   5.055   0.654
 1175SOL     H2 5145   1.267   5.146   0.548
 1175SOL    EPW 5146   1.199   5.104   0.583
 1176SOL      O 5147   0.444   4.112   1.305
 1176SOL     H1 5148   0.477   4.193   1.345
 1176SOL     H2 5149   0.417   4.138   1.217
 1176SOL    EPW 5150   0.443   4.126   1.299
 1177SOL      O 5151   0.398   4.079   1.041
 1177SOL     H1 5152   0.428   3.993   1.012
 1177SOL     H2 5153   0.303   4.072   1.044
 1177SOL    EPW 5154   0.390   4.068   1.039
 1178SOL      O 5155   1.227   4.288   1.732
 1178SOL     H1 5156   1.279   4.223   1.685
 1178SOL     H2 5157   1.185   4.339   1.662
 1178SOL    EPW 5158   1.228   4.285   1.715
 1179SOL      O 5159   1.326   4.083   1.593
 1179SOL     H1 5160   1.233   4.067   1.580
 1179SOL     H2 5161   1.352   4.021   1.661
 1179SOL    EPW 5162   1.316   4.073   1.600
 1180SOL      O 5163   0.541   3.857   0.932
 1180SOL     H1 5164   0.551   3.766   0.958
 1180SOL     H2 5165   0.497   3.853   0.847
 1180SOL    EPW 5166   0.537   3.845   0.924
 1181SOL      O 5167   0.635   5.472   1.478
 1181SOL     H1 5168   0.552   5.457   1.523
 1181SOL     H2 5169   0.694   5.405   1.513
 1181SOL    EPW 5170   0.633   5.462   1.488
 1182SOL      O 5171   1.692   4.179   1.103
 1182SOL     H1 5172   1.625   4.212   1.163
 1182SOL     H2 5173   1.735   4.257   1.069
 1182SOL    EPW 5174   1.690   4.194   1.107
 1183SOL      O 5175   1.252   4.761   0.991
 1183SOL     H1 5176   1.266   4.733   1.082
 1183SOL     H2 5177   1.338   4.792   0.963
 1183SOL    EPW 5178   1.265   4.762   1.000
 1184SOL      O 5179   1.335   4.256   1.270
 1184SOL     H1 5180   1.356   4.257   1.177
 1184SOL     H2 5181   1.380   4.178   1.303
 1184SOL    EPW 5182   1.342   4.246   1.262
 1185SOL      O 5183   1.828   4.387   1.812
 1185SOL     H1 5184   1.865   4.332   1.881
 1185SOL     H2 5185   1.853   4.344   1.730
 1185SOL    EPW 5186   1.835   4.375   1.811
 1186SOL      O 5187   1.375   4.685   1.863
 1186SOL     H1 5188   1.441   4.633   1.817
 1186SOL     H2 5189   1.395   4.672   1.956
 1186SOL    EPW 5190   1.386   4.676   1.870
 1187SOL      O 5191   1.326   3.771   0.212
 1187SOL     H1 5192   1.400   3.815   0.255
 1187SOL     H2 5193   1.250   3.825   0.234
 1187SOL    EPW 5194   1.326   3.783   0.220
 1188SOL      O 5195   1.386   4.546   0.490
 1188SOL     H1 5196   1.301   4.516   0.460
 1188SOL     H2 5197   1.378   4.553   0.585
 1188SOL    EPW 5198   1.374   4.544   0.499
 1189SOL      O 5199   0.462   5.009   1.221
 1189SOL     H1 5200   0.474   5.036   1.312
 1189SOL     H2 5201   0.443   5.090   1.174
 1189SOL    EPW 5202   0.461   5.024   1.226
 1190SOL      O 5203   0.746   3.989   1.044
 1190SOL     H1 5204   0.719   3.991   1.135
 1190SOL     H2 5205   0.676   3.941   0.999
 1190SOL    EPW 5206   0.734   3.985   1.051
 1191SOL      O 5207   0.600   5.481   1.206
 1191SOL     H1 5208   0.652   5.558   1.183
 1191SOL     H2 5209   0.609   5.473   1.301
 1191SOL    EPW 5210   0.609   5.488   1.217
 1192SOL      O 5211   1.502   5.066   1.438
 1192SOL     H1 5212   1.487   4.995   1.501
 1192SOL     H2 5213   1.548   5.024   1.366
 1192SOL    EPW 5214   1.508   5.050   1.438
 1193SOL      O 5215   0.576   4.797   1.555
 1193SOL     H1 5216   0.613   4.802   1.467
 1193SOL     H2 5217   0.615   4.870   1.602
 1193SOL    EPW 5218   0.586   4.807   1.550
 1194SOL      O 5219   0.756   4.840   1.367
 1194SOL     H1 5220   0.815   4.786   1.420
 1194SOL     H2 5221   0.771   4.812   1.277
 1194SOL    EPW 5222   0.766   4.829   1.363
 1195SOL      O 5223   0.759   4.212   0.216
 1195SOL     H1 5224   0.832   4.261   0.179
 1195SOL     H2 5225   0.775   4.121   0.190
 1195SOL    EPW 5226   0.771   4.207   0.209
 1196SOL      O 5227   1.567   5.329   1.539
 1196SOL     H1 5228   1.609   5.314   1.624
 1196SOL     H2 5229   1.558   5.242   1.501
 1196SOL    EPW 5230   1.571   5.317   1.546
 1197SOL      O 5231   1.227   3.808   1.130
 1197SOL     H1 5232   1.282   3.817   1.052
 1197SOL     H2 5233   1.282   3.842   1.201
 1197SOL    EPW 5234   1.241   3.813   1.129
 1198SOL      O 5235   0.234   4.721   0.314
 1198SOL     H1 5236   0.171   4.737   0.243
 1198SOL     H2 5237   0.181   4.684   0.385
 1198SOL    EPW 5238   0.219   4.718   0.314
 1199SOL      O 5239   0.590   5.075   0.173
 1199SOL     H1 5240   0.605   5.051   0.265
 1199SOL     H2 5241   0.498   5.053   0.157
 1199SOL    EPW 5242   0.580   5.068   0.183
 1200SOL      O 5243   1.129   5.306   0.325
 1200SOL     H1 5244   1.137   5.224   0.276
 1200SOL     H2 5245   1.048   5.345   0.292
 1200SOL    EPW 5246   1.119   5.301   0.315
 1201SOL      O 5247   0.388   5.464   0.894
 1201SOL     H1 5248   0.392   5.375   0.929
 1201SOL     H2 5249   0.414   5.455   0.803
 1201SOL    EPW 5250   0.391   5.452   0.886
 1202SOL      O 5251   1.005   4.942   1.137
 1202SOL     H1 5252   0.937   4.876   1.153
 1202SOL     H2 5253   1.023   4.936   1.044
 1202SOL    EPW 5254   0.998   4.933   1.128
 1203SOL      O 5255   0.094   5.217   1.388
 1203SOL     H1 5256   0.084   5.175   1.474
 1203SOL     H2 5257   0.015   5.270   1.378
 1203SOL    EPW 5258   0.083   5.218   1.399
 1204SOL      O 5259   0.998   4.081   0.958
 1204SOL     H1 5260   0.928   4.033   1.003
 1204SOL     H2 5261   1.030   4.144   1.022
 1204SOL    EPW 5262   0.993   4.083   0.972
 1205SOL      O 5263   0.649   4.517   1.578
 1205SOL     H1 5264   0.642   4.612   1.566
 1205SOL     H2 5265   0.658   4.506   1.673
 1205SOL    EPW 5266   0.650   4.529   1.588
 1206SOL      O 5267   0.370   5.032   1.836
 1206SOL     H1 5268   0.442   5.034   1.773
 1206SOL     H2 5269   0.340   4.941   1.835
 1206SOL    EPW 5270   0.375   5.021   1.828
 1207SOL      O 5271   1.454   3.795   1.303
 1207SOL     H1 5272   1.525   3.741   1.267
 1207SOL     H2 5273   1.453   3.774   1.396
 1207SOL    EPW 5274   1.463   3.786   1.311
 1208SOL      O 5275   1.654   5.325   1.787
 1208SOL     H1 5276   1.627   5.322   1.878
 1208SOL     H2 5277   1.750   5.329   1.790
 1208SOL    EPW 5278   1.664   5.325   1.799
 1209SOL      O 5279   0.465   4.187   0.771
 1209SOL     H1 5280   0.536   4.135   0.734
 1209SOL     H2 5281   0.451   4.152   0.858
 1209SOL    EPW 5282   0.473   4.176   0.778
 1210SOL      O 5283   0.020   5.522   1.843
 1210SOL     H1 5284   0.070   5.500   1.765
 1210SOL     H2 5285   0.028   5.617   1.851
 1210SOL    EPW 5286   0.028   5.531   1.834
 1211SOL      O 5287   0.781   5.280   0.847
 1211SOL     H1 5288   0.709   5.217   0.860
 1211SOL     H2 5289   0.742   5.365   0.865
 1211SOL    EPW 5290   0.765   5.283   0.850
 1212SOL      O 5291   1.101   4.128   0.495
 1212SOL     H1 5292   1.123   4.065   0.427
 1212SOL     H2 5293   1.006   4.120   0.506
 1212SOL    EPW 5294   1.091   4.119   0.487
 1213SOL      O 5295   0.186   3.818   0.427
 1213SOL     H1 5296   0.257   3.839   0.366
 1213SOL     H2 5297   0.140   3.746   0.385
 1213SOL    EPW 5298   0.190   3.812   0.413
 1214SOL      O 5299   0.017   4.285   1.570
 1214SOL     H1 5300   0.081   4.351   1.545
 1214SOL     H2 5301  -0.064   4.312   1.527
 1214SOL    EPW 5302   0.015   4.297   1.562
 1215SOL      O 5303   1.755   5.192   0.527
 1215SOL     H1 5304   1.725   5.125   0.588
 1215SOL     H2 5305   1.849   5.198   0.541
 1215SOL    EPW 5306   1.763   5.184   0.537
 1216SOL      O 5307   1.311   4.869   0.457
 1216SOL     H1 5308   1.283   4.955   0.490
 1216SOL     H2 5309   1.339   4.885   0.367
 1216SOL    EPW 5310   1.311   4.883   0.449
 1217SOL      O 5311   0.973   3.789   0.510
 1217SOL     H1 5312   1.010   3.848   0.575
 1217SOL     H2 5313   0.950   3.845   0.436
 1217SOL    EPW 5314   0.974   3.804   0.509
 1218SOL      O 5315   1.826   4.671   0.932
 1218SOL     H1 5316   1.817   4.703   0.843
 1218SOL     H2 5317   1.779   4.587   0.932
 1218SOL    EPW 5318   1.819   4.664   0.922
 1219SOL      O 5319   0.202   4.511   1.511
 1219SOL     H1 5320   0.223   4.580   1.449
 1219SOL     H2 5321   0.282   4.458   1.516
 1219SOL    EPW 5322   0.215   4.512   1.505
 1220SOL      O 5323   1.738   4.602   0.633
 1220SOL     H1 5324   1.832   4.591   0.621
 1220SOL     H2 5325   1.714   4.674   0.574
 1220SOL    EPW 5326   1.748   4.610   0.624
 1221SOL      O 5327   0.187   4.526   1.778
 1221SOL     H1 5328   0.113   4.470   1.804
 1221SOL     H2 5329   0.182   4.529   1.683
 1221SOL    EPW 5330   0.176   4.519   1.768
 1222SOL      O 5331   0.353   3.813   1.228
 1222SOL     H1 5332   0.396   3.897   1.248
 1222SOL     H2 5333   0.426   3.751   1.221
 1222SOL    EPW 5334   0.368   3.816   1.229
 1223SOL      O 5335   0.394   4.480   0.406
 1223SOL     H1 5336   0.394   4.575   0.391
 1223SOL     H2 5337   0.471   4.464   0.460
 1223SOL    EPW 5338   0.404   4.491   0.411
 1224SOL      O 5339   1.170   4.339   1.470
 1224SOL     H1 5340   1.206   4.312   1.386
 1224SOL     H2 5341   1.083   4.373   1.449
 1224SOL    EPW 5342   1.164   4.340   1.457
 1225SOL      O 5343   0.153   4.211   0.695
 1225SOL     H1 5344   0.215   4.218   0.768
 1225SOL     H2 5345   0.153   4.118   0.672
 1225SOL    EPW 5346   0.161   4.200   0.702
 1226SOL      O 5347   1.700   5.551   0.227
 1226SOL     H1 5348   1.767   5.584   0.167
 1226SOL     H2 5349   1.657   5.630   0.261
 1226SOL    EPW 5350   1.702   5.566   0.223
 1227SOL      O 5351   0.835   4.472   1.179
 1227SOL     H1 5352   0.793   4.390   1.155
 1227SOL     H2 5353   0.836   4.471   1.275
 1227SOL    EPW 5354   0.828   4.461   1.188
 1228SOL      O 5355   1.506   5.605   1.578
 1228SOL     H1 5356   1.509   5.511   1.561
 1228SOL     H2 5357   1.529   5.613   1.670
 1228SOL    EPW 5358   1.509   5.593   1.588
 1229SOL      O 5359   0.639   3.942   1.284
 1229SOL     H1 5360   0.570   4.005   1.305
 1229SOL     H2 5361   0.666   3.906   1.369
 1229SOL    EPW 5362   0.633   3.945   1.297
 1230SOL      O 5363   0.022   4.783   0.153
 1230SOL     H1 5364  -0.009   4.848   0.216
 1230SOL     H2 5365  -0.029   4.705   0.172
 1230SOL    EPW 5366   0.012   4.780   0.163
 1231SOL      O 5367   1.434   3.795   0.901
 1231SOL     H1 5368   1.522   3.804   0.938
 1231SOL     H2 5369   1.444   3.736   0.827
 1231SOL    EPW 5370   1.448   3.789   0.895
 1232SOL      O 5371   1.466   4.534   0.745
 1232SOL     H1 5372   1.546   4.549   0.694
 1232SOL     H2 5373   1.459   4.439   0.751
 1232SOL    EPW 5374   1.475   4.523   0.740
 1233SOL      O 5375   0.606   5.583   0.095
 1233SOL     H1 5376   0.511   5.583   0.087
 1233SOL     H2 5377   0.622   5.529   0.173
 1233SOL    EPW 5378   0.596   5.577   0.104
 1234SOL      O 5379   0.916   4.460   1.442
 1234SOL     H1 5380   0.985   4.527   1.439
 1234SOL     H2 5381   0.849   4.498   1.498
 1234SOL    EPW 5382   0.917   4.473   1.449
 1235SOL      O 5383   0.334   4.760   1.690
 1235SOL     H1 5384   0.288   4.676   1.692
 1235SOL     H2 5385   0.391   4.754   1.614
 1235SOL    EPW 5386   0.336   4.748   1.682
 1236SOL      O 5387   1.451   4.403   0.011
 1236SOL     H1 5388   1.379   4.379  -0.047
 1236SOL     H2 5389   1.517   4.440  -0.047
 1236SOL    EPW 5390   1.450   4.405  -0.004
 1237SOL      O 5391   0.585   5.135   0.691
 1237SOL     H1 5392   0.650   5.068   0.712
 1237SOL     H2 5393   0.637   5.212   0.668
 1237SOL    EPW 5394   0.600   5.137   0.690
 1238SOL      O 5395   0.846   4.300   0.821
 1238SOL     H1 5396   0.786   4.318   0.893
 1238SOL     H2 5397   0.880   4.212   0.840
 1238SOL    EPW 5398   0.842   4.290   0.834
 1239SOL      O 5399   1.787   3.799   1.490
 1239SOL     H1 5400   1.708   3.845   1.518
 1239SOL     H2 5401   1.822   3.853   1.419
 1239SOL    EPW 5402   1.781   3.812   1.484
 1240SOL      O 5403   1.071   4.883   0.840
 1240SOL     H1 5404   1.163   4.864   0.858
 1240SOL     H2 5405   1.044   4.813   0.780
 1240SOL    EPW 5406   1.079   4.871   0.834
 1241SOL      O 5407   0.864   4.703   0.195
 1241SOL     H1 5408   0.850   4.615   0.160
 1241SOL     H2 5409   0.815   4.760   0.136
 1241SOL    EPW 5410   0.856   4.698   0.183
 1242SOL      O 5411   1.345   5.121   0.936
 1242SOL     H1 5412   1.318   5.205   0.901
 1242SOL     H2 5413   1.305   5.116   1.023
 1242SOL    EPW 5414   1.338   5.130   0.942
 1243SOL      O 5415   1.264   5.069   1.204
 1243SOL     H1 5416   1.275   5.036   1.293
 1243SOL     H2 5417   1.183   5.028   1.173
 1243SOL    EPW 5418   1.254   5.061   1.210
 1244SOL      O 5419   0.277   4.427   0.974
 1244SOL     H1 5420   0.227   4.426   1.055
 1244SOL     H2 5421   0.297   4.519   0.958
 1244SOL    EPW 5422   0.273   4.439   0.982
 1245SOL      O 5423   1.344   5.191   1.736
 1245SOL     H1 5424   1.344   5.285   1.752
 1245SOL     H2 5425   1.389   5.181   1.652
 1245SOL    EPW 5426   1.350   5.201   1.727
 1246SOL      O 5427   1.583   3.909   0.297
 1246SOL     H1 5428   1.576   3.913   0.392
 1246SOL     H2 5429   1.595   4.000   0.270
 1246SOL    EPW 5430   1.584   3.922   0.305
 1247SOL      O 5431   0.872   4.472   0.411
 1247SOL     H1 5432   0.852   4.458   0.318
 1247SOL     H2 5433   0.965   4.451   0.418
 1247SOL    EPW 5434   0.882   4.467   0.400
 1248SOL      O 5435   0.199   4.095   1.715
 1248SOL     H1 5436   0.156   4.154   1.652
 1248SOL     H2 5437   0.267   4.150   1.755
 1248SOL    EPW 5438   0.203   4.110   1.712
 1249SOL      O 5439   1.311   4.715   1.260
 1249SOL     H1 5440   1.374   4.712   1.333
 1249SOL     H2 5441   1.227   4.733   1.302
 1249SOL    EPW 5442   1.307   4.717   1.275
 1250SOL      O 5443   0.855   5.430   0.449
 1250SOL     H1 5444   0.913   5.501   0.476
 1250SOL     H2 5445   0.878   5.358   0.507
 1250SOL    EPW 5446   0.866   5.430   0.460
 1251SOL      O 5447   1.650   3.892   1.039
 1251SOL     H1 5448   1.695   3.810   1.058
 1251SOL     H2 5449   1.670   3.948   1.115
 1251SOL    EPW 5450   1.660   3.888   1.051
 1252SOL      O 5451   0.098   3.735   1.138
 1252SOL     H1 5452   0.089   3.736   1.043
 1252SOL     H2 5453   0.192   3.747   1.153
 1252SOL    EPW 5454   0.110   3.738   1.129
 1253SOL      O 5455   1.735   4.928   0.758
 1253SOL     H1 5456   1.714   4.874   0.681
 1253SOL     H2 5457   1.831   4.926   0.762
 1253SOL    EPW 5458   1.744   4.921   0.747
 1254SOL      O 5459   0.427   5.073   1.501
 1254SOL     H1 5460   0.348   5.023   1.524
 1254SOL     H2 5461   0.497   5.032   1.551
 1254SOL    EPW 5462   0.425   5.061   1.511
 1255SOL      O 5463   0.311   3.862   0.184
 1255SOL     H1 5464   0.240   3.917   0.152
 1255SOL     H2 5465   0.353   3.828   0.105
 1255SOL    EPW 5466   0.307   3.864   0.170
 1256SOL      O 5467   1.435   4.359   1.020
 1256SOL     H1 5468   1.358   4.405   0.986
 1256SOL     H2 5469   1.492   4.428   1.054
 1256SOL    EPW 5470   1.432   4.374   1.020
 1257SOL      O 5471   0.067   3.961   0.033
 1257SOL     H1 5472   0.034   4.040   0.077
 1257SOL     H2 5473   0.122   3.994  -0.038
 1257SOL    EPW 5474   0.070   3.975   0.030
 1258SOL      O 5475   0.101   5.218   0.222
 1258SOL     H1 5476   0.118   5.302   0.264
 1258SOL     H2 5477   0.136   5.227   0.134
 1258SOL    EPW 5478   0.106   5.231   0.216
 1259SOL      O 5479   1.373   5.307   0.439
 1259SOL     H1 5480   1.436   5.297   0.368
 1259SOL     H2 5481   1.290   5.327   0.394
 1259SOL    EPW 5482   1.370   5.308   0.424
 1260SOL      O 5483   1.736   4.575   2.125
 1260SOL     H1 5484   1.777   4.517   2.190
 1260SOL     H2 5485   1.643   4.567   2.142
 1260SOL    EPW 5486   1.730   4.567   2.135
 1261SOL      O 5487   1.602   4.507   3.120
 1261SOL     H1 5488   1.557   4.574   3.171
 1261SOL     H2 5489   1.690   4.543   3.106
 1261SOL    EPW 5490   1.608   4.520   3.124
 1262SOL      O 5491   0.530   4.758   2.354
 1262SOL     H1 5492   0.620   4.733   2.338
 1262SOL     H2 5493   0.526   4.851   2.331
 1262SOL    EPW 5494   0.542   4.767   2.349
 1263SOL      O 5495   1.646   5.461   2.496
 1263SOL     H1 5496   1.658   5.407   2.574
 1263SOL     H2 5497   1.683   5.409   2.425
 1263SOL    EPW 5498   1.652   5.446   2.497
 1264SOL      O 5499   1.025   5.346   3.497
 1264SOL     H1 5500   1.066   5.382   3.418
 1264SOL     H2 5501   1.060   5.257   3.504
 1264SOL    EPW 5502   1.036   5.339   3.488
 1265SOL      O 5503   1.582   4.901   3.101
 1265SOL     H1 5504   1.503   4.866   3.059
 1265SOL     H2 5505   1.609   4.973   3.045
 1265SOL    EPW 5506   1.575   4.906   3.088
 1266SOL      O 5507   0.814   4.214   2.367
 1266SOL     H1 5508   0.789   4.302   2.395
 1266SOL     H2 5509   0.811   4.217   2.271
 1266SOL    EPW 5510   0.810   4.226   2.359
 1267SOL      O 5511   0.256   4.242   2.295
 1267SOL     H1 5512   0.288   4.330   2.277
 1267SOL     H2 5513   0.244   4.240   2.390
 1267SOL    EPW 5514   0.259   4.254   2.307
 1268SOL      O 5515   0.334   4.655   3.196
 1268SOL     H1 5516   0.397   4.602   3.147
 1268SOL     H2 5517   0.315   4.729   3.139
 1268SOL    EPW 5518   0.340   4.657   3.183
 1269SOL      O 5519   0.655   3.997   2.382
 1269SOL     H1 5520   0.713   4.073   2.384
 1269SOL     H2 5521   0.590   4.018   2.315
 1269SOL    EPW 5522   0.654   4.009   2.373
 1270SOL      O 5523   0.742   4.924   2.557
 1270SOL     H1 5524   0.822   4.927   2.609
 1270SOL     H2 5525   0.770   4.891   2.471
 1270SOL    EPW 5526   0.756   4.920   2.552
 1271SOL      O 5527   0.767   5.265   3.460
 1271SOL     H1 5528   0.851   5.291   3.499
 1271SOL     H2 5529   0.791   5.209   3.386
 1271SOL    EPW 5530   0.781   5.261   3.455
 1272SOL      O 5531   0.519   4.428   2.548
 1272SOL     H1 5532   0.504   4.348   2.599
 1272SOL     H2 5533   0.601   4.463   2.582
 1272SOL    EPW 5534   0.527   4.420   2.560
 1273SOL      O 5535   0.856   5.114   3.233
 1273SOL     H1 5536   0.820   5.180   3.173
 1273SOL     H2 5537   0.784   5.052   3.246
 1273SOL    EPW 5538   0.842   5.114   3.227
 1274SOL      O 5539   0.661   4.254   2.925
 1274SOL     H1 5540   0.567   4.250   2.943
 1274SOL     H2 5541   0.691   4.163   2.934
 1274SOL    EPW 5542   0.652   4.242   2.928
 1275SOL      O 5543   0.407   4.668   2.829
 1275SOL     H1 5544   0.362   4.675   2.745
 1275SOL     H2 5545   0.387   4.751   2.873
 1275SOL    EPW 5546   0.399   4.680   2.823
 1276SOL      O 5547   0.104   5.514   2.704
 1276SOL     H1 5548   0.193   5.506   2.739
 1276SOL     H2 5549   0.068   5.426   2.709
 1276SOL    EPW 5550   0.111   5.501   2.709
 1277SOL      O 5551   1.369   4.906   2.073
 1277SOL     H1 5552   1.287   4.942   2.039
 1277SOL     H2 5553   1.437   4.949   2.022
 1277SOL    EPW 5554   1.367   4.916   2.061
 1278SOL      O 5555   0.368   5.041   2.739
 1278SOL     H1 5556   0.344   5.094   2.815
 1278SOL     H2 5557   0.424   5.099   2.687
 1278SOL    EPW 5558   0.372   5.056   2.742
 1279SOL      O 5559   0.930   4.685   2.549
 1279SOL     H1 5560   0.844   4.672   2.589
 1279SOL     H2 5561   0.983   4.612   2.581
 1279SOL    EPW 5562   0.926   4.674   2.558
 1280SOL      O 5563   0.338   5.337   3.334
 1280SOL     H1 5564   0.246   5.313   3.319
 1280SOL     H2 5565   0.382   5.254   3.351
 1280SOL    EPW 5566   0.332   5.322   3.333
 1281SOL      O 5567   0.921   5.047   2.266
 1281SOL     H1 5568   0.898   5.109   2.334
 1281SOL     H2 5569   0.878   4.965   2.292
 1281SOL    EPW 5570   0.913   5.043   2.277
 1282SOL      O 5571   1.794   4.048   2.722
 1282SOL     H1 5572   1.731   4.028   2.791
 1282SOL     H2 5573   1.784   3.977   2.659
 1282SOL    EPW 5574   1.784   4.035   2.723
 1283SOL      O 5575   0.418   4.020   2.234
 1283SOL     H1 5576   0.392   3.982   2.150
 1283SOL     H2 5577   0.355   4.090   2.250
 1283SOL    EPW 5578   0.407   4.023   2.225
 1284SOL      O 5579   0.253   4.981   2.271
 1284SOL     H1 5580   0.201   5.049   2.227
 1284SOL     H2 5581   0.250   4.907   2.211
 1284SOL    EPW 5582   0.245   4.980   2.258
 1285SOL      O 5583   0.915   5.444   2.049
 1285SOL     H1 5584   0.870   5.460   2.132
 1285SOL     H2 5585   0.846   5.409   1.991
 1285SOL    EPW 5586   0.901   5.441   2.051
 1286SOL      O 5587   1.850   4.217   2.024
 1286SOL     H1 5588   1.759   4.219   2.052
 1286SOL     H2 5589   1.895   4.279   2.082
 1286SOL    EPW 5590   1.843   4.225   2.034
 1287SOL      O 5591   1.595   4.820   2.374
 1287SOL     H1 5592   1.505   4.820   2.409
 1287SOL     H2 5593   1.588   4.866   2.291
 1287SOL    EPW 5594   1.582   4.826   2.368
 1288SOL      O 5595   1.395   4.455   3.446
 1288SOL     H1 5596   1.464   4.393   3.423
 1288SOL     H2 5597   1.320   4.429   3.393
 1288SOL    EPW 5598   1.395   4.442   3.437
 1289SOL      O 5599   0.136   5.335   2.998
 1289SOL     H1 5600   0.119   5.281   3.075
 1289SOL     H2 5601   0.124   5.425   3.028
 1289SOL    EPW 5602   0.133   5.339   3.012
 1290SOL      O 5603   1.131   4.842   3.438
 1290SOL     H1 5604   1.116   4.935   3.423
 1290SOL     H2 5605   1.226   4.832   3.438
 1290SOL    EPW 5606   1.140   4.852   3.435
 1291SOL      O 5607   0.927   4.266   3.639
 1291SOL     H1 5608   1.017   4.267   3.606
 1291SOL     H2 5609   0.886   4.191   3.597
 1291SOL    EPW 5610   0.933   4.256   3.630
 1292SOL      O 5611   1.502   4.798   2.766
 1292SOL     H1 5612   1.505   4.732   2.697
 1292SOL     H2 5613   1.587   4.841   2.762
 1292SOL    EPW 5614   1.514   4.794   2.757
 1293SOL      O 5615   1.122   4.401   2.335
 1293SOL     H1 5616   1.148   4.425   2.246
 1293SOL     H2 5617   1.104   4.308   2.331
 1293SOL    EPW 5618   1.124   4.393   2.322
 1294SOL      O 5619   1.787   5.021   2.186
 1294SOL     H1 5620   1.743   5.062   2.261
 1294SOL     H2 5621   1.844   5.089   2.151
 1294SOL    EPW 5622   1.789   5.035   2.191
 1295SOL      O 5623   0.707   4.070   3.589
 1295SOL     H1 5624   0.717   3.996   3.529
 1295SOL     H2 5625   0.743   4.039   3.672
 1295SOL    EPW 5626   0.713   4.056   3.591
 1296SOL      O 5627   0.443   5.437   2.504
 1296SOL     H1 5628   0.475   5.525   2.482
 1296SOL     H2 5629   0.396   5.409   2.426
 1296SOL    EPW 5630   0.442   5.445   2.491
 1297SOL      O 5631   1.827   3.799   2.553
 1297SOL     H1 5632   1.881   3.750   2.615
 1297SOL     H2 5633   1.770   3.733   2.514
 1297SOL    EPW 5634   1.827   3.783   2.555
 1298SOL      O 5635   0.159   5.497   2.081
 1298SOL     H1 5636   0.188   5.587   2.073
 1298SOL     H2 5637   0.109   5.480   2.002
 1298SOL    EPW 5638   0.157   5.505   2.070
 1299SOL      O 5639   0.946   3.752   2.966
 1299SOL     H1 5640   0.905   3.830   2.928
 1299SOL     H2 5641   1.040   3.770   2.961
 1299SOL    EPW 5642   0.952   3.764   2.961
 1300SOL      O 5643   1.563   5.305   2.052
 1300SOL     H1 5644   1.611   5.374   2.098
 1300SOL     H2 5645   1.484   5.349   2.021
 1300SOL    EPW 5646   1.558   5.319   2.055
 1301SOL      O 5647   0.961   4.430   1.996
 1301SOL     H1 5648   0.963   4.377   1.917
 1301SOL     H2 5649   1.049   4.467   2.002
 1301SOL    EPW 5650   0.973   4.429   1.985
 1302SOL      O 5651   1.575   4.356   2.332
 1302SOL     H1 5652   1.614   4.356   2.419
 1302SOL     H2 5653   1.516   4.432   2.332
 1302SOL    EPW 5654   1.572   4.367   2.343
 1303SOL      O 5655   0.892   4.723   3.461
 1303SOL     H1 5656   0.869   4.703   3.551
 1303SOL     H2 5657   0.977   4.767   3.466
 1303SOL    EPW 5658   0.899   4.726   3.473
 1304SOL      O 5659   0.972   3.860   3.221
 1304SOL     H1 5660   0.978   3.822   3.134
 1304SOL     H2 5661   0.961   3.954   3.206
 1304SOL    EPW 5662   0.973   3.868   3.209
 1305SOL      O 5663   1.061   4.349   3.055
 1305SOL     H1 5664   1.136   4.378   3.002
 1305SOL     H2 5665   0.993   4.414   3.039
 1305SOL    EPW 5666   1.062   4.361   3.045
 1306SOL      O 5667   1.611   4.317   3.332
 1306SOL     H1 5668   1.592   4.226   3.311
 1306SOL     H2 5669   1.589   4.366   3.253
 1306SOL    EPW 5670   1.606   4.310   3.319
 1307SOL      O 5671   1.753   5.411   3.236
 1307SOL     H1 5672   1.681   5.373   3.287
 1307SOL     H2 5673   1.770   5.496   3.277
 1307SOL    EPW 5674   1.747   5.416   3.248
 1308SOL      O 5675   1.058   4.055   3.438
 1308SOL     H1 5676   1.024   4.094   3.357
 1308SOL     H2 5677   1.036   3.963   3.431
 1308SOL    EPW 5678   1.051   4.048   3.428
 1309SOL      O 5679   1.467   4.869   3.514
 1309SOL     H1 5680   1.549   4.910   3.544
 1309SOL     H2 5681   1.430   4.831   3.594
 1309SOL    EPW 5682   1.473   4.870   3.529
 1310SOL      O 5683   1.762   4.242   2.498
 1310SOL     H1 5684   1.851   4.211   2.515
 1310SOL     H2 5685   1.705   4.182   2.546
 1310SOL    EPW 5686   1.765   4.230   2.507
 1311SOL      O 5687   0.188   3.956   2.527
 1311SOL     H1 5688   0.179   3.896   2.453
 1311SOL     H2 5689   0.121   3.927   2.590
 1311SOL    EPW 5690   0.178   3.943   2.525
 1312SOL      O 5691   1.131   5.049   2.088
 1312SOL     H1 5692   1.081   5.051   2.170
 1312SOL     H2 5693   1.065   5.067   2.020
 1312SOL    EPW 5694   1.117   5.051   2.090
 1313SOL      O 5695   0.135   4.129   2.890
 1313SOL     H1 5696   0.107   4.220   2.899
 1313SOL     H2 5697   0.072   4.090   2.829
 1313SOL    EPW 5698   0.122   4.135   2.884
 1314SOL      O 5699   0.594   5.467   2.196
 1314SOL     H1 5700   0.515   5.425   2.229
 1314SOL     H2 5701   0.660   5.450   2.263
 1314SOL    EPW 5702   0.593   5.459   2.209
 1315SOL      O 5703   1.722   4.987   3.593
 1315SOL     H1 5704   1.772   4.913   3.625
 1315SOL     H2 5705   1.668   5.014   3.668
 1315SOL    EPW 5706   1.722   4.981   3.606
 1316SOL      O 5707   0.730   4.882   1.903
 1316SOL     H1 5708   0.652   4.828   1.890
 1316SOL     H2 5709   0.701   4.955   1.956
 1316SOL    EPW 5710   0.716   4.884   1.908
 1317SOL      O 5711   1.856   4.622   3.095
 1317SOL     H1 5712   1.872   4.660   3.008
 1317SOL     H2 5713   1.890   4.688   3.156
 1317SOL    EPW 5714   1.863   4.635   3.091
 1318SOL      O 5715   1.648   5.331   2.764
 1318SOL     H1 5716   1.677   5.398   2.825
 1318SOL     H2 5717   1.629   5.255   2.819
 1318SOL    EPW 5718   1.650   5.331   2.779
 1319SOL      O 5719   1.311   5.398   1.971
 1319SOL     H1 5720   1.237   5.361   2.021
 1319SOL     H2 5721   1.319   5.488   2.004
 1319SOL    EPW 5722   1.302   5.405   1.983
 1320SOL      O 5723   0.119   4.404   3.060
 1320SOL     H1 5724   0.181   4.434   3.126
 1320SOL     H2 5725   0.053   4.473   3.054
 1320SOL    EPW 5726   0.118   4.417   3.067
 1321SOL      O 5727   1.535   5.072   1.913
 1321SOL     H1 5728   1.482   5.121   1.849
 1321SOL     H2 5729   1.566   5.138   1.974
 1321SOL    EPW 5730   1.533   5.086   1.911
 1322SOL      O 5731   0.760   3.961   1.968
 1322SOL     H1 5732   0.708   3.881   1.956
 1322SOL     H2 5733   0.847   3.938   1.936
 1322SOL    EPW 5734   0.763   3.947   1.962
 1323SOL      O 5735   0.214   5.513   3.512
 1323SOL     H1 5736   0.188   5.581   3.450
 1323SOL     H2 5737   0.262   5.450   3.460
 1323SOL    EPW 5738   0.216   5.513   3.498
 1324SOL      O 5739   0.806   4.736   3.007
 1324SOL     H1 5740   0.834   4.645   3.019
 1324SOL     H2 5741   0.735   4.730   2.943
 1324SOL    EPW 5742   0.799   4.724   3.002
 1325SOL      O 5743   0.121   4.601   2.425
 1325SOL     H1 5744   0.212   4.616   2.452
 1325SOL     H2 5745   0.124   4.522   2.371
 1325SOL    EPW 5746   0.133   4.593   2.423
 1326SOL      O 5747   0.357   4.309   3.679
 1326SOL     H1 5748   0.304   4.389   3.686
 1326SOL     H2 5749   0.427   4.321   3.744
 1326SOL    EPW 5750   0.359   4.322   3.687
 1327SOL      O 5751   0.743   3.859   3.386
 1327SOL     H1 5752   0.720   3.767   3.388
 1327SOL     H2 5753   0.829   3.861   3.343
 1327SOL    EPW 5754   0.750   3.849   3.382
 1328SOL      O 5755   0.427   4.383   3.425
 1328SOL     H1 5756   0.507   4.433   3.411
 1328SOL     H2 5757   0.418   4.377   3.520
 1328SOL    EPW 5758   0.436   4.389   3.435
 1329SOL      O 5759   0.748   5.533   2.799
 1329SOL     H1 5760   0.837   5.548   2.829
 1329SOL     H2 5761   0.743   5.580   2.715
 1329SOL    EPW 5762   0.758   5.541   2.792
 1330SOL      O 5763   1.404   3.908   3.696
 1330SOL     H1 5764   1.460   3.835   3.722
 1330SOL     H2 5765   1.374   3.946   3.778
 1330SOL    EPW 5766   1.408   3.903   3.709
 1331SOL      O 5767   0.129   5.213   2.464
 1331SOL     H1 5768   0.101   5.252   2.546
 1331SOL     H2 5769   0.149   5.122   2.486
 1331SOL    EPW 5770   0.127   5.205   2.477
 1332SOL      O 5771   0.962   5.256   2.499
 1332SOL     H1 5772   1.045   5.210   2.483
 1332SOL     H2 5773   0.952   5.255   2.595
 1332SOL    EPW 5774   0.972   5.249   2.509
 1333SOL      O 5775   1.794   4.401   2.813
 1333SOL     H1 5776   1.883   4.431   2.795
 1333SOL     H2 5777   1.774   4.341   2.742
 1333SOL    EPW 5778   1.803   4.398   2.802
 1334SOL      O 5779   1.645   4.580   3.693
 1334SOL     H1 5780   1.700   4.504   3.674
 1334SOL     H2 5781   1.647   4.588   3.788
 1334SOL    EPW 5782   1.653   4.571   3.701
 1335SOL      O 5783   0.695   5.313   1.904
 1335SOL     H1 5784   0.635   5.382   1.874
 1335SOL     H2 5785   0.640   5.255   1.957
 1335SOL    EPW 5786   0.679   5.315   1.906
 1336SOL      O 5787   1.133   3.958   2.127
 1336SOL     H1 5788   1.066   3.934   2.064
 1336SOL     H2 5789   1.198   4.007   2.076
 1336SOL    EPW 5790   1.133   3.960   2.112
 1337SOL      O 5791   0.940   4.142   3.212
 1337SOL     H1 5792   0.859   4.183   3.240
 1337SOL     H2 5793   0.987   4.210   3.164
 1337SOL    EPW 5794   0.935   4.157   3.210
 1338SOL      O 5795   1.200   4.480   2.835
 1338SOL     H1 5796   1.213   4.574   2.845
 1338SOL     H2 5797   1.161   4.470   2.749
 1338SOL    EPW 5798   1.196   4.491   2.825
 1339SOL      O 5799   0.652   4.675   2.639
 1339SOL     H1 5800   0.563   4.666   2.672
 1339SOL     H2 5801   0.656   4.765   2.607
 1339SOL    EPW 5802   0.641   4.686   2.639
 1340SOL      O 5803   1.451   4.258   2.634
 1340SOL     H1 5804   1.396   4.179   2.633
 1340SOL     H2 5805   1.433   4.299   2.718
 1340SOL    EPW 5806   1.441   4.253   2.643
 1341SOL      O 5807   0.422   3.945   3.451
 1341SOL     H1 5808   0.343   3.963   3.503
 1341SOL     H2 5809   0.417   4.007   3.378
 1341SOL    EPW 5810   0.412   3.955   3.448
 1342SOL      O 5811   1.070   4.462   2.591
 1342SOL     H1 5812   1.007   4.394   2.615
 1342SOL     H2 5813   1.090   4.443   2.499
 1342SOL    EPW 5814   1.064   4.449   2.583
 1343SOL      O 5815   0.326   5.357   2.293
 1343SOL     H1 5816   0.287   5.404   2.219
 1343SOL     H2 5817   0.260   5.292   2.318
 1343SOL    EPW 5818   0.313   5.355   2.287
 1344SOL      O 5819   0.818   4.766   2.317
 1344SOL     H1 5820   0.820   4.740   2.224
 1344SOL     H2 5821   0.876   4.703   2.360
 1344SOL    EPW 5822   0.826   4.755   2.311
 1345SOL      O 5823   1.371   5.326   3.089
 1345SOL     H1 5824   1.296   5.372   3.127
 1345SOL     H2 5825   1.353   5.233   3.106
 1345SOL    EPW 5826   1.360   5.320   3.097
 1346SOL      O 5827   1.375   5.534   2.519
 1346SOL     H1 5828   1.318   5.487   2.458
 1346SOL     H2 5829   1.461   5.495   2.506
 1346SOL    EPW 5830   1.378   5.525   2.509
 1347SOL      O 5831   1.328   4.010   2.650
 1347SOL     H1 5832   1.356   3.942   2.711
 1347SOL     H2 5833   1.242   3.981   2.620
 1347SOL    EPW 5834   1.321   3.997   2.654
 1348SOL      O 5835   0.133   4.944   2.584
 1348SOL     H1 5836   0.197   4.976   2.647
 1348SOL     H2 5837   0.182   4.880   2.532
 1348SOL    EPW 5838   0.148   4.940   2.585
 1349SOL      O 5839   0.633   5.020   3.566
 1349SOL     H1 5840   0.681   5.103   3.553
 1349SOL     H2 5841   0.690   4.968   3.622
 1349SOL    EPW 5842   0.647   5.024   3.572
 1350SOL      O 5843   0.209   5.262   3.706
 1350SOL     H1 5844   0.265   5.186   3.721
 1350SOL     H2 5845   0.158   5.240   3.628
 1350SOL    EPW 5846   0.209   5.249   3.697
 1351SOL      O 5847   1.308   4.114   1.985
 1351SOL     H1 5848   1.281   4.180   1.921
 1351SOL     H2 5849   1.378   4.157   2.035
 1351SOL    EPW 5850   1.313   4.127   1.982
 1352SOL      O 5851   0.976   3.819   1.922
 1352SOL     H1 5852   1.032   3.811   1.844
 1352SOL     H2 5853   0.953   3.729   1.944
 1352SOL    EPW 5854   0.981   3.806   1.915
 1353SOL      O 5855   1.481   4.670   2.127
 1353SOL     H1 5856   1.448   4.759   2.117
 1353SOL     H2 5857   1.446   4.641   2.212
 1353SOL    EPW 5858   1.471   4.679   2.138
 1354SOL      O 5859   1.094   5.099   3.315
 1354SOL     H1 5860   1.005   5.105   3.283
 1354SOL     H2 5861   1.138   5.178   3.283
 1354SOL    EPW 5862   1.089   5.109   3.307
 1355SOL      O 5863   0.387   3.767   3.657
 1355SOL     H1 5864   0.315   3.732   3.605
 1355SOL     H2 5865   0.445   3.808   3.592
 1355SOL    EPW 5866   0.385   3.768   3.642
 1356SOL      O 5867   0.411   5.257   2.956
 1356SOL     H1 5868   0.456   5.319   3.013
 1356SOL     H2 5869   0.318   5.276   2.969
 1356SOL    EPW 5870   0.404   5.267   2.963
 1357SOL      O 5871   1.851   4.786   3.310
 1357SOL     H1 5872   1.766   4.799   3.269
 1357SOL     H2 5873   1.831   4.750   3.397
 1357SOL    EPW 5874   1.838   4.782   3.315
 1358SOL      O 5875   0.833   5.325   3.064
 1358SOL     H1 5876   0.857   5.314   2.973
 1358SOL     H2 5877   0.756   5.382   3.062
 1358SOL    EPW 5878   0.825   5.330   3.053
 1359SOL      O 5879   0.475   4.708   1.919
 1359SOL     H1 5880   0.398   4.721   1.975
 1359SOL     H2 5881   0.439   4.672   1.838
 1359SOL    EPW 5882   0.461   4.704   1.916
 1360SOL      O 5883   1.128   4.681   2.162
 1360SOL     H1 5884   1.038   4.702   2.137
 1360SOL     H2 5885   1.155   4.754   2.218
 1360SOL    EPW 5886   1.120   4.693   2.165
 1361SOL      O 5887   0.628   5.030   2.854
 1361SOL     H1 5888   0.621   5.009   2.948
 1361SOL     H2 5889   0.546   4.998   2.817
 1361SOL    EPW 5890   0.616   5.024   2.861
 1362SOL      O 5891   1.492   4.040   3.256
 1362SOL     H1 5892   1.439   4.042   3.336
 1362SOL     H2 5893   1.477   3.953   3.219
 1362SOL    EPW 5894   1.484   4.030   3.261
 1363SOL      O 5895   1.828   3.964   3.129
 1363SOL     H1 5896   1.809   4.031   3.064
 1363SOL     H2 5897   1.885   3.902   3.084
 1363SOL    EPW 5898   1.832   3.965   3.115
 1364SOL      O 5899   0.074   5.122   3.517
 1364SOL     H1 5900   0.118   5.055   3.463
 1364SOL     H2 5901  -0.011   5.084   3.537
 1364SOL    EPW 5902   0.069   5.108   3.513
 1365SOL      O 5903   0.757   3.797   2.569
 1365SOL     H1 5904   0.686   3.858   2.551
 1365SOL     H2 5905   0.808   3.794   2.488
 1365SOL    EPW 5906   0.753   3.803   2.556
 1366SOL      O 5907   0.515   5.037   2.318
 1366SOL     H1 5908   0.508   5.069   2.408
 1366SOL     H2 5909   0.425   5.021   2.290
 1366SOL    EPW 5910   0.503   5.039   2.325
 1367SOL      O 5911   1.110   5.430   3.227
 1367SOL     H1 5912   1.030   5.415   3.177
 1367SOL     H2 5913   1.117   5.525   3.234
 1367SOL    EPW 5914   1.101   5.441   3.221
 1368SOL      O 5915   1.224   5.395   2.717
 1368SOL     H1 5916   1.271   5.468   2.676
 1368SOL     H2 5917   1.145   5.434   2.753
 1368SOL    EPW 5918   1.219   5.410   2.716
 1369SOL      O 5919   1.632   5.490   2.992
 1369SOL     H1 5920   1.675   5.460   3.072
 1369SOL     H2 5921   1.551   5.438   2.989
 1369SOL    EPW 5922   1.627   5.479   3.002
 1370SOL      O 5923   0.717   4.454   3.699
 1370SOL     H1 5924   0.787   4.396   3.671
 1370SOL     H2 5925   0.660   4.399   3.754
 1370SOL    EPW 5926   0.719   4.441   3.703
 1371SOL      O 5927   1.504   4.666   3.332
 1371SOL     H1 5928   1.509   4.719   3.412
 1371SOL     H2 5929   1.466   4.583   3.360
 1371SOL    EPW 5930   1.500   4.661   3.347
 1372SOL      O 5931   1.144   3.801   3.578
 1372SOL     H1 5932   1.139   3.708   3.559
 1372SOL     H2 5933   1.227   3.812   3.624
 1372SOL    EPW 5934   1.152   3.790   3.582
 1373SOL      O 5935   0.518   4.321   2.032
 1373SOL     H1 5936   0.484   4.377   2.102
 1373SOL     H2 5937   0.589   4.271   2.072
 1373SOL    EPW 5938   0.524   4.322   2.046
 1374SOL      O 5939   1.614   5.072   2.854
 1374SOL     H1 5940   1.649   5.054   2.767
 1374SOL     H2 5941   1.519   5.073   2.841
 1374SOL    EPW 5942   1.606   5.069   2.841
 1375SOL      O 5943   1.043   4.720   3.223
 1375SOL     H1 5944   1.086   4.755   3.301
 1375SOL     H2 5945   1.026   4.797   3.169
 1375SOL    EPW 5946   1.046   4.735   3.226
 1376SOL      O 5947   1.574   4.207   2.096
 1376SOL     H1 5948   1.566   4.278   2.033
 1376SOL     H2 5949   1.592   4.251   2.179
 1376SOL    EPW 5950   1.575   4.221   2.098
 1377SOL      O 5951   0.434   3.862   2.525
 1377SOL     H1 5952   0.484   3.905   2.456
 1377SOL     H2 5953   0.349   3.906   2.525
 1377SOL    EPW 5954   0.431   3.875   2.516
 1378SOL      O 5955   0.193   4.924   3.385
 1378SOL     H1 5956   0.221   4.877   3.463
 1378SOL     H2 5957   0.114   4.879   3.356
 1378SOL    EPW 5958   0.186   4.913   3.391
 1379SOL      O 5959   0.701   4.251   3.352
 1379SOL     H1 5960   0.673   4.339   3.376
 1379SOL     H2 5961   0.670   4.195   3.423
 1379SOL    EPW 5962   0.693   4.254   3.364
 1380SOL      O 5963   1.243   4.469   2.071
 1380SOL     H1 5964   1.290   4.487   1.990
 1380SOL     H2 5965   1.209   4.553   2.099
 1380SOL    EPW 5966   1.245   4.483   2.064
 1381SOL      O 5967   0.356   4.647   2.565
 1381SOL     H1 5968   0.414   4.703   2.513
 1381SOL     H2 5969   0.400   4.562   2.567
 1381SOL    EPW 5970   0.369   4.644   2.558
 1382SOL      O 5971   1.496   3.999   2.402
 1382SOL     H1 5972   1.418   3.949   2.427
 1382SOL     H2 5973   1.467   4.090   2.402
 1382SOL    EPW 5974   1.482   4.003   2.405
 1383SOL      O 5975   1.082   3.961   2.561
 1383SOL     H1 5976   1.102   4.036   2.505
 1383SOL     H2 5977   1.062   4.000   2.646
 1383SOL    EPW 5978   1.083   3.977   2.565
 1384SOL      O 5979   0.978   5.211   1.893
 1384SOL     H1 5980   1.005   5.289   1.845
 1384SOL     H2 5981   0.885   5.226   1.912
 1384SOL    EPW 5982   0.969   5.224   1.889
 1385SOL      O 5983   1.842   4.734   3.580
 1385SOL     H1 5984   1.755   4.714   3.616
 1385SOL     H2 5985   1.896   4.660   3.605
 1385SOL    EPW 5986   1.837   4.723   3.588
 1386SOL      O 5987   0.063   5.247   2.737
 1386SOL     H1 5988   0.095   5.251   2.828
 1386SOL     H2 5989  -0.032   5.255   2.745
 1386SOL    EPW 5990   0.055   5.250   2.750
 1387SOL      O 5991   0.018   4.373   2.284
 1387SOL     H1 5992  -0.042   4.345   2.354
 1387SOL     H2 5993   0.092   4.313   2.290
 1387SOL    EPW 5994   0.020   4.362   2.293
 1388SOL      O 5995   1.586   5.585   3.718
 1388SOL     H1 5996   1.631   5.509   3.683
 1388SOL     H2 5997   1.624   5.598   3.805
 1388SOL    EPW 5998   1.596   5.578   3.724
 1389SOL      O 5999   1.186   5.104   2.444
 1389SOL     H1 6000   1.209   5.055   2.522
 1389SOL     H2 6001   1.267   5.146   2.416
 1389SOL    EPW 6002   1.199   5.104   2.451
 1390SOL      O 6003   0.444   4.112   3.173
 1390SOL     H1 6004   0.477   4.193   3.213
 1390SOL     H2 6005   0.417   4.138   3.085
 1390SOL    EPW 6006   0.443   4.126   3.167
 1391SOL      O 6007   0.398   4.079   2.909
 1391SOL     H1 6008   0.428   3.993   2.880
 1391SOL     H2 6009   0.303   4.072   2.912
 1391SOL    EPW 6010   0.390   4.068   2.907
 1392SOL      O 6011   1.227   4.288   3.600
 1392SOL     H1 6012   1.279   4.223   3.553
 1392SOL     H2 6013   1.185   4.339   3.530
 1392SOL    EPW 6014   1.228   4.285   3.583
 1393SOL      O 6015   1.326   4.083   3.461
 1393SOL     H1 6016   1.233   4.067   3.448
 1393SOL     H2 6017   1.352   4.021   3.529
 1393SOL    EPW 6018   1.316   4.073   3.468
 1394SOL      O 6019   0.541   3.857   2.800
 1394SOL     H1 6020   0.551   3.766   2.826
 1394SOL     H2 6021   0.497   3.853   2.715
 1394SOL    EPW 6022   0.537   3.845   2.792
 1395SOL      O 6023   0.635   5.472   3.346
 1395SOL     H1 6024   0.552   5.457   3.391
 1395SOL     H2 6025   0.694   5.405   3.381
 1395SOL    EPW 6026   0.633   5.462   3.356
 1396SOL      O 6027   1.692   4.179   2.971
 1396SOL     H1 6028   1.625   4.212   3.031
 1396SOL     H2 6029   1.735   4.257   2.937
 1396SOL    EPW 6030   1.690   4.194   2.975
 1397SOL      O 6031   1.870   4.899   2.941
 1397SOL     H1 6032   1.863   4.839   2.866
 1397SOL     H2 6033   1.796   4.959   2.930
 1397SOL    EPW 6034   1.860   4.899   2.930
 1398SOL      O 6035   1.252   4.761   2.859
 1398SOL     H1 6036   1.266   4.733   2.950
 1398SOL     H2 6037   1.338   4.792   2.831
 1398SOL    EPW 6038   1.265   4.762   2.868
 1399SOL      O 6039   1.335   4.256   3.138
 1399SOL     H1 6040   1.356   4.257   3.045
 1399SOL     H2 6041   1.380   4.178   3.171
 1399SOL    EPW 6042   1.342   4.246   3.130
 1400SOL      O 6043   1.828   4.387   3.680
 1400SOL     H1 6044   1.865   4.332   3.749
 1400SOL     H2 6045   1.853   4.344   3.598
 1400SOL    EPW 6046   1.835   4.375   3.679
 1401SOL      O 6047   1.375   4.685   3.731
 1401SOL     H1 6048   1.441   4.633   3.685
 1401SOL     H2 6049   1.395   4.672   3.824
 1401SOL    EPW 6050   1.386   4.676   3.738
 1402SOL      O 6051   1.326   3.771   2.080
 1402SOL     H1 6052   1.400   3.815   2.123
 1402SOL     H2 6053   1.250   3.825   2.102
 1402SOL    EPW 6054   1.326   3.783   2.088
 1403SOL      O 6055   1.386   4.546   2.358
 1403SOL     H1 6056   1.301   4.516   2.328
 1403SOL     H2 6057   1.378   4.553   2.453
 1403SOL    EPW 6058   1.374   4.544   2.367
 1404SOL      O 6059   0.462   5.009   3.089
 1404SOL     H1 6060   0.474   5.036   3.180
 1404SOL     H2 6061   0.443   5.090   3.042
 1404SOL    EPW 6062   0.461   5.024   3.094
 1405SOL      O 6063   0.746   3.989   2.912
 1405SOL     H1 6064   0.719   3.991   3.003
 1405SOL     H2 6065   0.676   3.941   2.867
 1405SOL    EPW 6066   0.734   3.985   2.919
 1406SOL      O 6067   0.600   5.481   3.074
 1406SOL     H1 6068   0.652   5.558   3.051
 1406SOL     H2 6069   0.609   5.473   3.169
 1406SOL    EPW 6070   0.609   5.488   3.085
 1407SOL      O 6071   1.502   5.066   3.306
 1407SOL     H1 6072   1.487   4.995   3.369
 1407SOL     H2 6073   1.548   5.024   3.234
 1407SOL    EPW 6074   1.508   5.050   3.306
 1408SOL      O 6075   0.576   4.797   3.423
 1408SOL     H1 6076   0.613   4.802   3.335
 1408SOL     H2 6077   0.615   4.870   3.470
 1408SOL    EPW 6078   0.586   4.807   3.418
 1409SOL      O 6079   0.756   4.840   3.235
 1409SOL     H1 6080   0.815   4.786   3.288
 1409SOL     H2 6081   0.771   4.812   3.145
 1409SOL    EPW 6082   0.766   4.829   3.231
 1410SOL      O 6083   0.759   4.212   2.084
 1410SOL     H1 6084   0.832   4.261   2.047
 1410SOL     H2 6085   0.775   4.121   2.058
 1410SOL    EPW 6086   0.771   4.207   2.077
 1411SOL      O 6087   1.567   5.329   3.407
 1411SOL     H1 6088   1.609   5.314   3.492
 1411SOL     H2 6089   1.558   5.242   3.369
 1411SOL    EPW 6090   1.571   5.317   3.414
 1412SOL      O 6091   1.227   3.808   2.998
 1412SOL     H1 6092   1.282   3.817   2.920
 1412SOL     H2 6093   1.282   3.842   3.069
 1412SOL    EPW 6094   1.241   3.813   2.997
 1413SOL      O 6095   0.234   4.721   2.182
 1413SOL     H1 6096   0.171   4.737   2.111
 1413SOL     H2 6097   0.181   4.684   2.253
 1413SOL    EPW 6098   0.219   4.718   2.182
 1414SOL      O 6099   0.590   5.075   2.041
 1414SOL     H1 6100   0.605   5.051   2.133
 1414SOL     H2 6101   0.498   5.053   2.025
 1414SOL    EPW 6102   0.580   5.068   2.051
 1415SOL      O 6103   1.129   5.306   2.193
 1415SOL     H1 6104   1.137   5.224   2.144
 1415SOL     H2 6105   1.048   5.345   2.160
 1415SOL    EPW 6106   1.119   5.301   2.183
 1416SOL      O 6107   0.388   5.464   2.762
 1416SOL     H1 6108   0.392   5.375   2.797
 1416SOL     H2 6109   0.414   5.455   2.671
 1416SOL    EPW 6110   0.391   5.452   2.754
 1417SOL      O 6111   1.005   4.942   3.005
 1417SOL     H1 6112   0.937   4.876   3.021
 1417SOL     H2 6113   1.023   4.936   2.912
 1417SOL    EPW 6114   0.998   4.933   2.996
 1418SOL      O 6115   0.094   5.217   3.256
 1418SOL     H1 6116   0.084   5.175   3.342
 1418SOL     H2 6117   0.015   5.270   3.246
 1418SOL    EPW 6118   0.083   5.218   3.267
 1419SOL      O 6119   0.998   4.081   2.826
 1419SOL     H1 6120   0.928   4.033   2.871
 1419SOL     H2 6121   1.030   4.144   2.890
 1419SOL    EPW 6122   0.993   4.083   2.840
 1420SOL      O 6123   0.370   5.032   3.704
 1420SOL     H1 6124   0.442   5.034   3.641
 1420SOL     H2 6125   0.340   4.941   3.703
 1420SOL    EPW 6126   0.375   5.021   3.696
 1421SOL      O 6127   1.454   3.795   3.171
 1421SOL     H1 6128   1.525   3.741   3.135
 1421SOL     H2 6129   1.453   3.774   3.264
 1421SOL    EPW 6130   1.463   3.786   3.179
 1422SOL      O 6131   1.654   5.325   3.655
 1422SOL     H1 6132   1.627   5.322   3.746
 1422SOL     H2 6133   1.750   5.329   3.658
 1422SOL    EPW 6134   1.664   5.325   3.667
 1423SOL      O 6135   0.465   4.187   2.639
 1423SOL     H1 6136   0.536   4.135   2.602
 1423SOL     H2 6137   0.451   4.152   2.726
 1423SOL    EPW 6138   0.473   4.176   2.646
 1424SOL      O 6139   0.020   5.522   3.711
 1424SOL     H1 6140   0.070   5.500   3.633
 1424SOL     H2 6141   0.028   5.617   3.719
 1424SOL    EPW 6142   0.028   5.531   3.702
 1425SOL      O 6143   0.781   5.280   2.715
 1425SOL     H1 6144   0.709   5.217   2.728
 1425SOL     H2 6145   0.742   5.365   2.733
 1425SOL    EPW 6146   0.765   5.283   2.718
 1426SOL      O 6147   1.101   4.128   2.363
 1426SOL     H1 6148   1.123   4.065   2.295
 1426SOL     H2 6149   1.006   4.120   2.374
 1426SOL    EPW 6150   1.091   4.119   2.355
 1427SOL      O 6151   0.186   3.818   2.295
 1427SOL     H1 6152   0.257   3.839   2.234
 1427SOL     H2 6153   0.140   3.746   2.253
 1427SOL    EPW 6154   0.190   3.812   2.281
 1428SOL      O 6155   0.017   4.285   3.438
 1428SOL     H1 6156   0.081   4.351   3.413
 1428SOL     H2 6157  -0.064   4.312   3.395
 1428SOL    EPW 6158   0.015   4.297   3.430
 1429SOL      O 6159   1.755   5.192   2.395
 1429SOL     H1 6160   1.725   5.125   2.456
 1429SOL     H2 6161   1.849   5.198   2.409
 1429SOL    EPW 6162   1.763   5.184   2.405
 1430SOL      O 6163   1.311   4.869   2.325
 1430SOL     H1 6164   1.283   4.955   2.358
 1430SOL     H2 6165   1.339   4.885   2.235
 1430SOL    EPW 6166   1.311   4.883   2.317
 1431SOL      O 6167   0.973   3.789   2.378
 1431SOL     H1 6168   1.010   3.848   2.443
 1431SOL     H2 6169   0.950   3.845   2.304
 1431SOL    EPW 6170   0.974   3.804   2.377
 1432SOL      O 6171   1.826   4.671   2.800
 1432SOL     H1 6172   1.817   4.703   2.711
 1432SOL     H2 6173   1.779   4.587   2.800
 1432SOL    EPW 6174   1.819   4.664   2.790
 1433SOL      O 6175   0.202   4.511   3.379
 1433SOL     H1 6176   0.223   4.580   3.317
 1433SOL     H2 6177   0.282   4.458   3.384
 1433SOL    EPW 6178   0.215   4.512   3.373
 1434SOL      O 6179   1.738   4.602   2.501
 1434SOL     H1 6180   1.832   4.591   2.489
 1434SOL     H2 6181   1.714   4.674   2.442
 1434SOL    EPW 6182   1.748   4.610   2.492
 1435SOL      O 6183   0.187   4.526   3.646
 1435SOL     H1 6184   0.113   4.470   3.672
 1435SOL     H2 6185   0.182   4.529   3.551
 1435SOL    EPW 6186   0.176   4.519   3.636
 1436SOL      O 6187   0.353   3.813   3.096
 1436SOL     H1 6188   0.396   3.897   3.116
 1436SOL     H2 6189   0.426   3.751   3.089
 1436SOL    EPW 6190   0.368   3.816   3.097
 1437SOL      O 6191   0.394   4.480   2.274
 1437SOL     H1 6192   0.394   4.575   2.259
 1437SOL     H2 6193   0.471   4.464   2.328
 1437SOL    EPW 6194   0.404   4.491   2.279
 1438SOL      O 6195   1.170   4.339   3.338
 1438SOL     H1 6196   1.206   4.312   3.254
 1438SOL     H2 6197   1.083   4.373   3.317
 1438SOL    EPW 6198   1.164   4.340   3.325
 1439SOL      O 6199   0.153   4.211   2.563
 1439SOL     H1 6200   0.215   4.218   2.636
 1439SOL     H2 6201   0.153   4.118   2.540
 1439SOL    EPW 6202   0.161   4.200   2.570
 1440SOL      O 6203   1.700   5.551   2.095
 1440SOL     H1 6204   1.767   5.584   2.035
 1440SOL     H2 6205   1.657   5.630   2.129
 1440SOL    EPW 6206   1.702   5.566   2.091
 1441SOL      O 6207   0.835   4.472   3.047
 1441SOL     H1 6208   0.793   4.390   3.023
 1441SOL     H2 6209   0.836   4.471   3.143
 1441SOL    EPW 6210   0.828   4.461   3.056
 1442SOL      O 6211   1.506   5.605   3.446
 1442SOL     H1 6212   1.509   5.511   3.429
 1442SOL     H2 6213   1.529   5.613   3.538
 1442SOL    EPW 6214   1.509   5.593   3.456
 1443SOL      O 6215   0.639   3.942   3.152
 1443SOL     H1 6216   0.570   4.005   3.173
 1443SOL     H2 6217   0.666   3.906   3.237
 1443SOL    EPW 6218   0.633   3.945   3.165
 1444SOL      O 6219   0.022   4.783   2.021
 1444SOL     H1 6220  -0.009   4.848   2.084
 1444SOL     H2 6221  -0.029   4.705   2.040
 1444SOL    EPW 6222   0.012   4.780   2.031
 1445SOL      O 6223   1.434   3.795   2.769
 1445SOL     H1 6224   1.522   3.804   2.806
 1445SOL     H2 6225   1.444   3.736   2.695
 1445SOL    EPW 6226   1.448   3.789   2.763
 1446SOL      O 6227   1.466   4.534   2.613
 1446SOL     H1 6228   1.546   4.549   2.562
 1446SOL     H2 6229   1.459   4.439   2.619
 1446SOL    EPW 6230   1.475   4.523   2.608
 1447SOL      O 6231   0.606   5.583   1.963
 1447SOL     H1 6232   0.511   5.583   1.955
 1447SOL     H2 6233   0.622   5.529   2.041
 1447SOL    EPW 6234   0.596   5.577   1.972
 1448SOL      O 6235   0.916   4.460   3.310
 1448SOL     H1 6236   0.985   4.527   3.307
 1448SOL     H2 6237   0.849   4.498   3.366
 1448SOL    EPW 6238   0.917   4.473   3.317
 1449SOL      O 6239   0.334   4.760   3.558
 1449SOL     H1 6240   0.288   4.676   3.560
 1449SOL     H2 6241   0.391   4.754   3.482
 1449SOL    EPW 6242   0.336   4.748   3.550
 1450SOL      O 6243   1.451   4.403   1.879
 1450SOL     H1 6244   1.379   4.379   1.821
 1450SOL     H2 6245   1.517   4.440   1.821
 1450SOL    EPW 6246   1.450   4.405   1.864
 1451SOL      O 6247   0.585   5.135   2.559
 1451SOL     H1 6248   0.650   5.068   2.580
 1451SOL     H2 6249   0.637   5.212   2.536
 1451SOL    EPW 6250   0.600   5.137   2.558
 1452SOL      O 6251   0.846   4.300   2.689
 1452SOL     H1 6252   0.786   4.318   2.761
 1452SOL     H2 6253   0.880   4.212   2.708
 1452SOL    EPW 6254   0.842   4.290   2.702
 1453SOL      O 6255   1.787   3.799   3.358
 1453SOL     H1 6256   1.708   3.845   3.386
 1453SOL     H2 6257   1.822   3.853   3.287
 1453SOL    EPW 6258   1.781   3.812   3.352
 1454SOL      O 6259   1.071   4.883   2.708
 1454SOL     H1 6260   1.163   4.864   2.726
 1454SOL     H2 6261   1.044   4.813   2.648
 1454SOL    EPW 6262   1.079   4.871   2.702
 1455SOL      O 6263   0.864   4.703   2.063
 1455SOL     H1 6264   0.850   4.615   2.028
 1455SOL     H2 6265   0.815   4.760   2.004
 1455SOL    EPW 6266   0.856   4.698   2.051
 1456SOL      O 6267   1.345   5.121   2.804
 1456SOL     H1 6268   1.318   5.205   2.769
 1456SOL     H2 6269   1.305   5.116   2.891
 1456SOL    EPW 6270   1.338   5.130   2.810
 1457SOL      O 6271   1.264   5.069   3.072
 1457SOL     H1 6272   1.275   5.036   3.161
 1457SOL     H2 6273   1.183   5.028   3.041
 1457SOL    EPW 6274   1.254   5.061   3.078
 1458SOL      O 6275   0.277   4.427   2.842
 1458SOL     H1 6276   0.227   4.426   2.923
 1458SOL     H2 6277   0.297   4.519   2.826
 1458SOL    EPW 6278   0.273   4.439   2.850
 1459SOL      O 6279   1.344   5.191   3.604
 1459SOL     H1 6280   1.344   5.285   3.620
 1459SOL     H2 6281   1.389   5.181   3.520
 1459SOL    EPW 6282   1.350   5.201   3.595
 1460SOL      O 6283   1.583   3.909   2.165
 1460SOL     H1 6284   1.576   3.913   2.260
 1460SOL     H2 6285   1.595   4.000   2.138
 1460SOL    EPW 6286   1.584   3.922   2.173
 1461SOL      O 6287   0.872   4.472   2.279
 1461SOL     H1 6288   0.852   4.458   2.186
 1461SOL     H2 6289   0.965   4.451   2.286
 1461SOL    EPW 6290   0.882   4.467   2.268
 1462SOL      O 6291   0.199   4.095   3.583
 1462SOL     H1 6292   0.156   4.154   3.520
 1462SOL     H2 6293   0.267   4.150   3.623
 1462SOL    EPW 6294   0.203   4.110   3.580
 1463SOL      O 6295   1.311   4.715   3.128
 1463SOL     H1 6296   1.374   4.712   3.201
 1463SOL     H2 6297   1.227   4.733   3.170
 1463SOL    EPW 6298   1.307   4.717   3.143
 1464SOL      O 6299   0.855   5.430   2.317
 1464SOL     H1 6300   0.913   5.501   2.344
 1464SOL     H2 6301   0.878   5.358   2.375
 1464SOL    EPW 6302   0.866   5.430   2.328
 1465SOL      O 6303   1.650   3.892   2.907
 1465SOL     H1 6304   1.695   3.810   2.926
 1465SOL     H2 6305   1.670   3.948   2.983
 1465SOL    EPW 6306   1.660   3.888   2.919
 1466SOL      O 6307   0.098   3.735   3.006
 1466SOL     H1 6308   0.089   3.736   2.911
 1466SOL     H2 6309   0.192   3.747   3.021
 1466SOL    EPW 6310   0.110   3.738   2.997
 1467SOL      O 6311   1.735   4.928   2.626
 1467SOL     H1 6312   1.714   4.874   2.549
 1467SOL     H2 6313   1.831   4.926   2.630
 1467SOL    EPW 6314   1.744   4.921   2.615
 1468SOL      O 6315   0.427   5.073   3.369
 1468SOL     H1 6316   0.348   5.023   3.392
 1468SOL     H2 6317   0.497   5.032   3.419
 1468SOL    EPW 6318   0.425   5.061   3.379
 1469SOL      O 6319   0.311   3.862   2.052
 1469SOL     H1 6320   0.240   3.917   2.020
 1469SOL     H2 6321   0.353   3.828   1.973
 1469SOL    EPW 6322   0.307   3.864   2.038
 1470SOL      O 6323   1.435   4.359   2.888
 1470SOL     H1 6324   1.358   4.405   2.854
 1470SOL     H2 6325   1.492   4.428   2.922
 1470SOL    EPW 6326   1.432   4.374   2.888
 1471SOL      O 6327   0.067   3.961   1.901
 1471SOL     H1 6328   0.034   4.040   1.945
 1471SOL     H2 6329   0.122   3.994   1.830
 1471SOL    EPW 6330   0.070   3.975   1.898
 1472SOL      O 6331   0.101   5.218   2.090
 1472SOL     H1 6332   0.118   5.302   2.132
 1472SOL     H2 6333   0.136   5.227   2.002
 1472SOL    EPW 6334   0.106   5.231   2.084
 1473SOL      O 6335   1.373   5.307   2.307
 1473SOL     H1 6336   1.436   5.297   2.236
 1473SOL     H2 6337   1.290   5.327   2.262
 1473SOL    EPW 6338   1.370   5.308   2.292
 1474SOL      O 6339   1.736   4.575   3.993
 1474SOL     H1 6340   1.777   4.517   4.058
 1474SOL     H2 6341   1.643   4.567   4.010
 1474SOL    EPW 6342   1.730   4.567   4.003
 1475SOL      O 6343   0.530   4.758   4.222
 1475SOL     H1 6344   0.620   4.733   4.206
 1475SOL     H2 6345   0.526   4.851   4.199
 1475SOL    EPW 6346   0.542   4.767   4.217
 1476SOL      O 6347   1.646   5.461   4.364
 1476SOL     H1 6348   1.658   5.407   4.442
 1476SOL     H2 6349   1.683   5.409   4.293
 1476SOL    EPW 6350   1.652   5.446   4.365
 1477SOL      O 6351   0.814   4.214   4.235
 1477SOL     H1 6352   0.789   4.302   4.263
 1477SOL     H2 6353   0.811   4.217   4.139
 1477SOL    EPW 6354   0.810   4.226   4.227
 1478SOL      O 6355   0.256   4.242   4.163
 1478SOL     H1 6356   0.288   4.330   4.145
 1478SOL     H2 6357   0.244   4.240   4.258
 1478SOL    EPW 6358   0.259   4.254   4.175
 1479SOL      O 6359   0.655   3.997   4.250
 1479SOL     H1 6360   0.713   4.073   4.252
 1479SOL     H2 6361   0.590   4.018   4.183
 1479SOL    EPW 6362   0.654   4.009   4.241
 1480SOL      O 6363   0.742   4.924   4.425
 1480SOL     H1 6364   0.822   4.927   4.477
 1480SOL     H2 6365   0.770   4.891   4.339
 1480SOL    EPW 6366   0.756   4.920   4.420
 1481SOL      O 6367   1.369   4.906   3.941
 1481SOL     H1 6368   1.287   4.942   3.907
 1481SOL     H2 6369   1.437   4.949   3.890
 1481SOL    EPW 6370   1.367   4.916   3.929
 1482SOL      O 6371   0.921   5.047   4.134
 1482SOL     H1 6372   0.898   5.109   4.202
 1482SOL     H2 6373   0.878   4.965   4.160
 1482SOL    EPW 6374   0.913   5.043   4.145
 1483SOL      O 6375   0.418   4.020   4.102
 1483SOL     H1 6376   0.392   3.982   4.018
 1483SOL     H2 6377   0.355   4.090   4.118
 1483SOL    EPW 6378   0.407   4.023   4.093
 1484SOL      O 6379   0.253   4.981   4.139
 1484SOL     H1 6380   0.201   5.049   4.095
 1484SOL     H2 6381   0.250   4.907   4.079
 1484SOL    EPW 6382   0.245   4.980   4.126
 1485SOL      O 6383   0.915   5.444   3.917
 1485SOL     H1 6384   0.870   5.460   4.000
 1485SOL     H2 6385   0.846   5.409   3.859
 1485SOL    EPW 6386   0.901   5.441   3.919
 1486SOL      O 6387   1.850   4.217   3.892
 1486SOL     H1 6388   1.759   4.219   3.920
 1486SOL     H2 6389   1.895   4.279   3.950
 1486SOL    EPW 6390   1.843   4.225   3.902
 1487SOL      O 6391   1.595   4.820   4.242
 1487SOL     H1 6392   1.505   4.820   4.277
 1487SOL     H2 6393   1.588   4.866   4.159
 1487SOL    EPW 6394   1.582   4.826   4.236
 1488SOL      O 6395   1.122   4.401   4.203
 1488SOL     H1 6396   1.148   4.425   4.114
 1488SOL     H2 6397   1.104   4.308   4.199
 1488SOL    EPW 6398   1.124   4.393   4.190
 1489SOL      O 6399   1.787   5.021   4.054
 1489SOL     H1 6400   1.743   5.062   4.129
 1489SOL     H2 6401   1.844   5.089   4.019
 1489SOL    EPW 6402   1.789   5.035   4.059
 1490SOL      O 6403   0.443   5.437   4.372
 1490SOL     H1 6404   0.475   5.525   4.350
 1490SOL     H2 6405   0.396   5.409   4.294
 1490SOL    EPW 6406   0.442   5.445   4.359
 1491SOL      O 6407   1.827   3.799   4.421
 1491SOL     H1 6408   1.881   3.750   4.483
 1491SOL     H2 6409   1.770   3.733   4.382
 1491SOL    EPW 6410   1.827   3.783   4.423
 1492SOL      O 6411   0.159   5.497   3.949
 1492SOL     H1 6412   0.188   5.587   3.941
 1492SOL     H2 6413   0.109   5.480   3.870
 1492SOL    EPW 6414   0.157   5.505   3.938
 1493SOL      O 6415   1.563   5.305   3.920
 1493SOL     H1 6416   1.611   5.374   3.966
 1493SOL     H2 6417   1.484   5.349   3.889
 1493SOL    EPW 6418   1.558   5.319   3.923
 1494SOL      O 6419   0.961   4.430   3.864
 1494SOL     H1 6420   0.963   4.377   3.785
 1494SOL     H2 6421   1.049   4.467   3.870
 1494SOL    EPW 6422   0.973   4.429   3.853
 1495SOL      O 6423   1.575   4.356   4.200
 1495SOL     H1 6424   1.614   4.356   4.287
 1495SOL     H2 6425   1.516   4.432   4.200
 1495SOL    EPW 6426   1.572   4.367   4.211
 1496SOL      O 6427   1.762   4.242   4.366
 1496SOL     H1 6428   1.851   4.211   4.383
 1496SOL     H2 6429   1.705   4.182   4.414
 1496SOL    EPW 6430   1.765   4.230   4.375
 1497SOL      O 6431   0.188   3.956   4.395
 1497SOL     H1 6432   0.179   3.896   4.321
 1497SOL     H2 6433   0.121   3.927   4.458
 1497SOL    EPW 6434   0.178   3.943   4.393
 1498SOL      O 6435   1.131   5.049   3.956
 1498SOL     H1 6436   1.081   5.051   4.038
 1498SOL     H2 6437   1.065   5.067   3.888
 1498SOL    EPW 6438   1.117   5.051   3.958
 1499SOL      O 6439   0.594   5.467   4.064
 1499SOL     H1 6440   0.515   5.425   4.097
 1499SOL     H2 6441   0.660   5.450   4.131
 1499SOL    EPW 6442   0.593   5.459   4.077
 1500SOL      O 6443   0.730   4.882   3.771
 1500SOL     H1 6444   0.652   4.828   3.758
 1500SOL     H2 6445   0.701   4.955   3.824
 1500SOL    EPW 6446   0.716   4.884   3.776
 1501SOL      O 6447   1.311   5.398   3.839
 1501SOL     H1 6448   1.237   5.361   3.889
 1501SOL     H2 6449   1.319   5.488   3.872
 1501SOL    EPW 6450   1.302   5.405   3.851
 1502SOL      O 6451   1.535   5.072   3.781
 1502SOL     H1 6452   1.482   5.121   3.717
 1502SOL     H2 6453   1.566   5.138   3.842
 1502SOL    EPW 6454   1.533   5.086   3.779
 1503SOL      O 6455   0.760   3.961   3.836
 1503SOL     H1 6456   0.708   3.881   3.824
 1503SOL     H2 6457   0.847   3.938   3.804
 1503SOL    EPW 6458   0.763   3.947   3.830
 1504SOL      O 6459   0.121   4.601   4.293
 1504SOL     H1 6460   0.212   4.616   4.320
 1504SOL     H2 6461   0.124   4.522   4.239
 1504SOL    EPW 6462   0.133   4.593   4.291
 1505SOL      O 6463   0.129   5.213   4.332
 1505SOL     H1 6464   0.101   5.252   4.414
 1505SOL     H2 6465   0.149   5.122   4.354
 1505SOL    EPW 6466   0.127   5.205   4.345
 1506SOL      O 6467   0.962   5.256   4.367
 1506SOL     H1 6468   1.045   5.210   4.351
 1506SOL     H2 6469   0.952   5.255   4.463
 1506SOL    EPW 6470   0.972   5.249   4.377
 1507SOL      O 6471   0.695   5.313   3.772
 1507SOL     H1 6472   0.635   5.382   3.742
 1507SOL     H2 6473   0.640   5.255   3.825
 1507SOL    EPW 6474   0.679   5.315   3.774
 1508SOL      O 6475   1.133   3.958   3.995
 1508SOL     H1 6476   1.066   3.934   3.932
 1508SOL     H2 6477   1.198   4.007   3.944
 1508SOL    EPW 6478   1.133   3.960   3.980
 1509SOL      O 6479   1.070   4.462   4.459
 1509SOL     H1 6480   1.007   4.394   4.483
 1509SOL     H2 6481   1.090   4.443   4.367
 1509SOL    EPW 6482   1.064   4.449   4.451
 1510SOL      O 6483   0.326   5.357   4.161
 1510SOL     H1 6484   0.287   5.404   4.087
 1510SOL     H2 6485   0.260   5.292   4.186
 1510SOL    EPW 6486   0.313   5.355   4.155
 1511SOL      O 6487   0.818   4.766   4.185
 1511SOL     H1 6488   0.820   4.740   4.092
 1511SOL     H2 6489   0.876   4.703   4.228
 1511SOL    EPW 6490   0.826   4.755   4.179
 1512SOL      O 6491   1.375   5.534   4.387
 1512SOL     H1 6492   1.318   5.487   4.326
 1512SOL     H2 6493   1.461   5.495   4.374
 1512SOL    EPW 6494   1.378   5.525   4.377
 1513SOL      O 6495   0.133   4.944   4.452
 1513SOL     H1 6496   0.197   4.976   4.515
 1513SOL     H2 6497   0.182   4.880   4.400
 1513SOL    EPW 6498   0.148   4.940   4.453
 1514SOL      O 6499   1.308   4.114   3.853
 1514SOL     H1 6500   1.281   4.180   3.789
 1514SOL     H2 6501   1.378   4.157   3.903
 1514SOL    EPW 6502   1.313   4.127   3.850
 1515SOL      O 6503   0.976   3.819   3.790
 1515SOL     H1 6504   1.032   3.811   3.712
 1515SOL     H2 6505   0.953   3.729   3.812
 1515SOL    EPW 6506   0.981   3.806   3.783
 1516SOL      O 6507   1.481   4.670   3.995
 1516SOL     H1 6508   1.448   4.759   3.985
 1516SOL     H2 6509   1.446   4.641   4.080
 1516SOL    EPW 6510   1.471   4.679   4.006
 1517SOL      O 6511   0.475   4.708   3.787
 1517SOL     H1 6512   0.398   4.721   3.843
 1517SOL     H2 6513   0.439   4.672   3.706
 1517SOL    EPW 6514   0.461   4.704   3.784
 1518SOL      O 6515   1.128   4.681   4.030
 1518SOL     H1 6516   1.038   4.702   4.005
 1518SOL     H2 6517   1.155   4.754   4.086
 1518SOL    EPW 6518   1.120   4.693   4.033
 1519SOL      O 6519   0.757   3.797   4.437
 1519SOL     H1 6520   0.686   3.858   4.419
 1519SOL     H2 6521   0.808   3.794   4.356
 1519SOL    EPW 6522   0.753   3.803   4.424
 1520SOL      O 6523   0.515   5.037   4.186
 1520SOL     H1 6524   0.508   5.069   4.276
 1520SOL     H2 6525   0.425   5.021   4.158
 1520SOL    EPW 6526   0.503   5.039   4.193
 1521SOL      O 6527   0.518   4.321   3.900
 1521SOL     H1 6528   0.484   4.377   3.970
 1521SOL     H2 6529   0.589   4.271   3.940
 1521SOL    EPW 6530   0.524   4.322   3.914
 1522SOL      O 6531   1.574   4.207   3.964
 1522SOL     H1 6532   1.566   4.278   3.901
 1522SOL     H2 6533   1.592   4.251   4.047
 1522SOL    EPW 6534   1.575   4.221   3.966
 1523SOL      O 6535   0.434   3.862   4.393
 1523SOL     H1 6536   0.484   3.905   4.324
 1523SOL     H2 6537   0.349   3.906   4.393
 1523SOL    EPW 6538   0.431   3.875   4.384
 1524SOL      O 6539   1.243   4.469   3.939
 1524SOL     H1 6540   1.290   4.487   3.858
 1524SOL     H2 6541   1.209   4.553   3.967
 1524SOL    EPW 6542   1.245   4.483   3.932
 1525SOL      O 6543   0.356   4.647   4.433
 1525SOL     H1 6544   0.414   4.703   4.381
 1525SOL     H2 6545   0.400   4.562   4.435
 1525SOL    EPW 6546   0.369   4.644   4.426
 1526SOL      O 6547   1.496   3.999   4.270
 1526SOL     H1 6548   1.418   3.949   4.295
 1526SOL     H2 6549   1.467   4.090   4.270
 1526SOL    EPW 6550   1.482   4.003   4.273
 1527SOL      O 6551   1.082   3.961   4.429
 1527SOL     H1 6552   1.102   4.036   4.373
 1527SOL     H2 6553   1.062   4.000   4.514
 1527SOL    EPW 6554   1.083   3.977   4.433
 1528SOL      O 6555   0.978   5.211   3.761
 1528SOL     H1 6556   1.005   5.289   3.713
 1528SOL     H2 6557   0.885   5.226   3.780
 1528SOL    EPW 6558   0.969   5.224   3.757
 1529SOL      O 6559   0.018   4.373   4.152
 1529SOL     H1 6560  -0.042   4.345   4.222
 1529SOL     H2 6561   0.092   4.313   4.158
 1529SOL    EPW 6562   0.020   4.362   4.161
 1530SOL      O 6563   1.186   5.104   4.312
 1530SOL     H1 6564   1.209   5.055   4.390
 1530SOL     H2 6565   1.267   5.146   4.284
 1530SOL    EPW 6566   1.199   5.104   4.319
 1531SOL      O 6567   1.326   3.771   3.948
 1531SOL     H1 6568   1.400   3.815   3.991
 1531SOL     H2 6569   1.250   3.825   3.970
 1531SOL    EPW 6570   1.326   3.783   3.956
 1532SOL      O 6571   1.386   4.546   4.226
 1532SOL     H1 6572   1.301   4.516   4.196
 1532SOL     H2 6573   1.378   4.553   4.321
 1532SOL    EPW 6574   1.374   4.544   4.235
 1533SOL      O 6575   0.759   4.212   3.952
 1533SOL     H1 6576   0.832   4.261   3.915
 1533SOL     H2 6577   0.775   4.121   3.926
 1533SOL    EPW 6578   0.771   4.207   3.945
 1534SOL      O 6579   0.234   4.721   4.050
 1534SOL     H1 6580   0.171   4.737   3.979
 1534SOL     H2 6581   0.181   4.684   4.121
 1534SOL    EPW 6582   0.219   4.718   4.050
 1535SOL      O 6583   0.590   5.075   3.909
 1535SOL     H1 6584   0.605   5.051   4.001
 1535SOL     H2 6585   0.498   5.053   3.893
 1535SOL    EPW 6586   0.580   5.068   3.919
 1536SOL      O 6587   1.129   5.306   4.061
 1536SOL     H1 6588   1.137   5.224   4.012
 1536SOL     H2 6589   1.048   5.345   4.028
 1536SOL    EPW 6590   1.119   5.301   4.051
 1537SOL      O 6591   1.101   4.128   4.231
 1537SOL     H1 6592   1.123   4.065   4.163
 1537SOL     H2 6593   1.006   4.120   4.242
 1537SOL    EPW 6594   1.091   4.119   4.223
 1538SOL      O 6595   0.186   3.818   4.163
 1538SOL     H1 6596   0.257   3.839   4.102
 1538SOL     H2 6597   0.140   3.746   4.121
 1538SOL    EPW 6598   0.190   3.812   4.149
 1539SOL      O 6599   1.755   5.192   4.263
 1539SOL     H1 6600   1.725   5.125   4.324
 1539SOL     H2 6601   1.849   5.198   4.277
 1539SOL    EPW 6602   1.763   5.184   4.273
 1540SOL      O 6603   1.311   4.869   4.193
 1540SOL     H1 6604   1.283   4.955   4.226
 1540SOL     H2 6605   1.339   4.885   4.103
 1540SOL    EPW 6606   1.311   4.883   4.185
 1541SOL      O 6607   0.973   3.789   4.246
 1541SOL     H1 6608   1.010   3.848   4.311
 1541SOL     H2 6609   0.950   3.845   4.172
 1541SOL    EPW 6610   0.974   3.804   4.245
 1542SOL      O 6611   1.738   4.602   4.369
 1542SOL     H1 6612   1.832   4.591   4.357
 1542SOL     H2 6613   1.714   4.674   4.310
 1542SOL    EPW 6614   1.748   4.610   4.360
 1543SOL      O 6615   0.394   4.480   4.142
 1543SOL     H1 6616   0.394   4.575   4.127
 1543SOL     H2 6617   0.471   4.464   4.196
 1543SOL    EPW 6618   0.404   4.491   4.147
 1544SOL      O 6619   0.153   4.211   4.431
 1544SOL     H1 6620   0.215   4.218   4.504
 1544SOL     H2 6621   0.153   4.118   4.408
 1544SOL    EPW 6622   0.161   4.200   4.438
 1545SOL      O 6623   1.700   5.551   3.963
 1545SOL     H1 6624   1.767   5.584   3.903
 1545SOL     H2 6625   1.657   5.630   3.997
 1545SOL    EPW 6626   1.702   5.566   3.959
 1546SOL      O 6627   0.022   4.783   3.889
 1546SOL     H1 6628  -0.009   4.848   3.952
 1546SOL     H2 6629  -0.029   4.705   3.908
 1546SOL    EPW 6630   0.012   4.780   3.899
 1547SOL      O 6631   0.606   5.583   3.831
 1547SOL     H1 6632   0.511   5.583   3.823
 1547SOL     H2 6633   0.622   5.529   3.909
 1547SOL    EPW 6634   0.596   5.577   3.840
 1548SOL      O 6635   1.451   4.403   3.747
 1548SOL     H1 6636   1.379   4.379   3.689
 1548SOL     H2 6637   1.517   4.440   3.689
 1548SOL    EPW 6638   1.450   4.405   3.732
 1549SOL      O 6639   0.585   5.135   4.427
 1549SOL     H1 6640   0.650   5.068   4.448
 1549SOL     H2 6641   0.637   5.212   4.404
 1549SOL    EPW 6642   0.600   5.137   4.426
 1550SOL      O 6643   0.864   4.703   3.931
 1550SOL     H1 6644   0.850   4.615   3.896
 1550SOL     H2 6645   0.815   4.760   3.872
 1550SOL    EPW 6646   0.856   4.698   3.919
 1551SOL      O 6647   1.583   3.909   4.033
 1551SOL     H1 6648   1.576   3.913   4.128
 1551SOL     H2 6649   1.595   4.000   4.006
 1551SOL    EPW 6650   1.584   3.922   4.041
 1552SOL      O 6651   0.872   4.472   4.147
 1552SOL     H1 6652   0.852   4.458   4.054
 1552SOL     H2 6653   0.965   4.451   4.154
 1552SOL    EPW 6654   0.882   4.467   4.136
 1553SOL      O 6655   0.855   5.430   4.185
 1553SOL     H1 6656   0.913   5.501   4.212
 1553SOL     H2 6657   0.878   5.358   4.243
 1553SOL    EPW 6658   0.866   5.430   4.196
 1554SOL      O 6659   0.311   3.862   3.920
 1554SOL     H1 6660   0.240   3.917   3.888
 1554SOL     H2 6661   0.353   3.828   3.841
 1554SOL    EPW 6662   0.307   3.864   3.906
 1555SOL      O 6663   0.067   3.961   3.769
 1555SOL     H1 6664   0.034   4.040   3.813
 1555SOL     H2 6665   0.122   3.994   3.698
 1555SOL    EPW 6666   0.070   3.975   3.766
 1556SOL      O 6667   0.101   5.218   3.958
 1556SOL     H1 6668   0.118   5.302   4.000
 1556SOL     H2 6669   0.136   5.227   3.870
 1556SOL    EPW 6670   0.106   5.231   3.952
 1557SOL      O 6671   1.373   5.307   4.175
 1557SOL     H1 6672   1.436   5.297   4.104
 1557SOL     H2 6673   1.290   5.327   4.130
 1557SOL    EPW 6674   1.370   5.308   4.160
 1558SOL      O 6675   0.655   5.866   0.514
 1558SOL     H1 6676   0.713   5.942   0.516
 1558SOL     H2 6677   0.590   5.887   0.447
 1558SOL    EPW 6678   0.654   5.878   0.505
 1559SOL      O 6679   0.927   6.135   1.771
 1559SOL     H1 6680   1.017   6.136   1.738
 1559SOL     H2 6681   0.886   6.060   1.729
 1559SOL    EPW 6682   0.933   6.125   1.762
 1560SOL      O 6683   0.707   5.939   1.721
 1560SOL     H1 6684   0.717   5.865   1.661
 1560SOL     H2 6685   0.743   5.908   1.804
 1560SOL    EPW 6686   0.713   5.925   1.723
 1561SOL      O 6687   1.827   5.668   0.685
 1561SOL     H1 6688   1.881   5.619   0.747
 1561SOL     H2 6689   1.770   5.602   0.646
 1561SOL    EPW 6690   1.827   5.652   0.687
 1562SOL      O 6691   0.946   5.621   1.098
 1562SOL     H1 6692   0.905   5.699   1.060
 1562SOL     H2 6693   1.040   5.639   1.093
 1562SOL    EPW 6694   0.952   5.633   1.093
 1563SOL      O 6695   0.188   5.825   0.659
 1563SOL     H1 6696   0.179   5.765   0.585
 1563SOL     H2 6697   0.121   5.796   0.722
 1563SOL    EPW 6698   0.178   5.812   0.657
 1564SOL      O 6699   0.743   5.728   1.518
 1564SOL     H1 6700   0.720   5.636   1.520
 1564SOL     H2 6701   0.829   5.730   1.475
 1564SOL    EPW 6702   0.750   5.718   1.514
 1565SOL      O 6703   1.404   5.777   1.828
 1565SOL     H1 6704   1.460   5.704   1.854
 1565SOL     H2 6705   1.374   5.815   1.910
 1565SOL    EPW 6706   1.408   5.772   1.841
 1566SOL      O 6707   0.976   5.688   0.054
 1566SOL     H1 6708   1.032   5.680  -0.024
 1566SOL     H2 6709   0.953   5.598   0.076
 1566SOL    EPW 6710   0.981   5.675   0.047
 1567SOL      O 6711   0.387   5.636   1.789
 1567SOL     H1 6712   0.315   5.601   1.737
 1567SOL     H2 6713   0.445   5.677   1.724
 1567SOL    EPW 6714   0.385   5.637   1.774
 1568SOL      O 6715   0.757   5.666   0.701
 1568SOL     H1 6716   0.686   5.727   0.683
 1568SOL     H2 6717   0.808   5.663   0.620
 1568SOL    EPW 6718   0.753   5.672   0.688
 1569SOL      O 6719   1.144   5.670   1.710
 1569SOL     H1 6720   1.139   5.577   1.691
 1569SOL     H2 6721   1.227   5.681   1.756
 1569SOL    EPW 6722   1.152   5.659   1.714
 1570SOL      O 6723   0.434   5.731   0.657
 1570SOL     H1 6724   0.484   5.774   0.588
 1570SOL     H2 6725   0.349   5.775   0.657
 1570SOL    EPW 6726   0.431   5.744   0.648
 1571SOL      O 6727   1.496   5.868   0.534
 1571SOL     H1 6728   1.418   5.818   0.559
 1571SOL     H2 6729   1.467   5.959   0.534
 1571SOL    EPW 6730   1.482   5.872   0.537
 1572SOL      O 6731   1.082   5.830   0.693
 1572SOL     H1 6732   1.102   5.905   0.637
 1572SOL     H2 6733   1.062   5.869   0.778
 1572SOL    EPW 6734   1.083   5.846   0.697
 1573SOL      O 6735   1.326   5.952   1.593
 1573SOL     H1 6736   1.233   5.936   1.580
 1573SOL     H2 6737   1.352   5.890   1.661
 1573SOL    EPW 6738   1.316   5.942   1.600
 1574SOL      O 6739   0.541   5.726   0.932
 1574SOL     H1 6740   0.551   5.635   0.958
 1574SOL     H2 6741   0.497   5.722   0.847
 1574SOL    EPW 6742   0.537   5.714   0.924
 1575SOL      O 6743   1.326   5.640   0.212
 1575SOL     H1 6744   1.400   5.684   0.255
 1575SOL     H2 6745   1.250   5.694   0.234
 1575SOL    EPW 6746   1.326   5.652   0.220
 1576SOL      O 6747   0.746   5.858   1.044
 1576SOL     H1 6748   0.719   5.860   1.135
 1576SOL     H2 6749   0.676   5.810   0.999
 1576SOL    EPW 6750   0.734   5.854   1.051
 1577SOL      O 6751   1.227   5.677   1.130
 1577SOL     H1 6752   1.282   5.686   1.052
 1577SOL     H2 6753   1.282   5.711   1.201
 1577SOL    EPW 6754   1.241   5.682   1.129
 1578SOL      O 6755   1.454   5.664   1.303
 1578SOL     H1 6756   1.525   5.610   1.267
 1578SOL     H2 6757   1.453   5.643   1.396
 1578SOL    EPW 6758   1.463   5.655   1.311
 1579SOL      O 6759   0.186   5.687   0.427
 1579SOL     H1 6760   0.257   5.708   0.366
 1579SOL     H2 6761   0.140   5.615   0.385
 1579SOL    EPW 6762   0.190   5.681   0.413
 1580SOL      O 6763   0.973   5.658   0.510
 1580SOL     H1 6764   1.010   5.717   0.575
 1580SOL     H2 6765   0.950   5.714   0.436
 1580SOL    EPW 6766   0.974   5.673   0.509
 1581SOL      O 6767   0.639   5.811   1.284
 1581SOL     H1 6768   0.570   5.874   1.305
 1581SOL     H2 6769   0.666   5.775   1.369
 1581SOL    EPW 6770   0.633   5.814   1.297
 1582SOL      O 6771   1.434   5.664   0.901
 1582SOL     H1 6772   1.522   5.673   0.938
 1582SOL     H2 6773   1.444   5.605   0.827
 1582SOL    EPW 6774   1.448   5.658   0.895
 1583SOL      O 6775   0.846   6.169   0.821
 1583SOL     H1 6776   0.786   6.187   0.893
 1583SOL     H2 6777   0.880   6.081   0.840
 1583SOL    EPW 6778   0.842   6.159   0.834
 1584SOL      O 6779   1.787   5.668   1.490
 1584SOL     H1 6780   1.708   5.714   1.518
 1584SOL     H2 6781   1.822   5.722   1.419
 1584SOL    EPW 6782   1.781   5.681   1.484
 1585SOL      O 6783   1.583   5.778   0.297
 1585SOL     H1 6784   1.576   5.782   0.392
 1585SOL     H2 6785   1.595   5.869   0.270
 1585SOL    EPW 6786   1.584   5.791   0.305
 1586SOL      O 6787   1.650   5.761   1.039
 1586SOL     H1 6788   1.695   5.679   1.058
 1586SOL     H2 6789   1.670   5.817   1.115
 1586SOL    EPW 6790   1.660   5.757   1.051
 1587SOL      O 6791   0.098   5.604   1.138
 1587SOL     H1 6792   0.089   5.605   1.043
 1587SOL     H2 6793   0.192   5.616   1.153
 1587SOL    EPW 6794   0.110   5.607   1.129
 1588SOL      O 6795   0.311   5.731   0.184
 1588SOL     H1 6796   0.240   5.786   0.152
 1588SOL     H2 6797   0.353   5.697   0.105
 1588SOL    EPW 6798   0.307   5.733   0.170
 1589SOL      O 6799   0.067   5.830   0.033
 1589SOL     H1 6800   0.034   5.909   0.077
 1589SOL     H2 6801   0.122   5.863  -0.038
 1589SOL    EPW 6802   0.070   5.844   0.030
 1590SOL      O 6803   0.655   5.866   2.382
 1590SOL     H1 6804   0.713   5.942   2.384
 1590SOL     H2 6805   0.590   5.887   2.315
 1590SOL    EPW 6806   0.654   5.878   2.373
 1591SOL      O 6807   0.927   6.135   3.639
 1591SOL     H1 6808   1.017   6.136   3.606
 1591SOL     H2 6809   0.886   6.060   3.597
 1591SOL    EPW 6810   0.933   6.125   3.630
 1592SOL      O 6811   0.707   5.939   3.589
 1592SOL     H1 6812   0.717   5.865   3.529
 1592SOL     H2 6813   0.743   5.908   3.672
 1592SOL    EPW 6814   0.713   5.925   3.591
 1593SOL      O 6815   1.827   5.668   2.553
 1593SOL     H1 6816   1.881   5.619   2.615
 1593SOL     H2 6817   1.770   5.602   2.514
 1593SOL    EPW 6818   1.827   5.652   2.555
 1594SOL      O 6819   0.946   5.621   2.966
 1594SOL     H1 6820   0.905   5.699   2.928
 1594SOL     H2 6821   1.040   5.639   2.961
 1594SOL    EPW 6822   0.952   5.633   2.961
 1595SOL      O 6823   0.972   5.729   3.221
 1595SOL     H1 6824   0.978   5.691   3.134
 1595SOL     H2 6825   0.961   5.823   3.206
 1595SOL    EPW 6826   0.973   5.737   3.209
 1596SOL      O 6827   0.188   5.825   2.527
 1596SOL     H1 6828   0.179   5.765   2.453
 1596SOL     H2 6829   0.121   5.796   2.590
 1596SOL    EPW 6830   0.178   5.812   2.525
 1597SOL      O 6831   0.743   5.728   3.386
 1597SOL     H1 6832   0.720   5.636   3.388
 1597SOL     H2 6833   0.829   5.730   3.343
 1597SOL    EPW 6834   0.750   5.718   3.382
 1598SOL      O 6835   1.404   5.777   3.696
 1598SOL     H1 6836   1.460   5.704   3.722
 1598SOL     H2 6837   1.374   5.815   3.778
 1598SOL    EPW 6838   1.408   5.772   3.709
 1599SOL      O 6839   0.976   5.688   1.922
 1599SOL     H1 6840   1.032   5.680   1.844
 1599SOL     H2 6841   0.953   5.598   1.944
 1599SOL    EPW 6842   0.981   5.675   1.915
 1600SOL      O 6843   0.387   5.636   3.657
 1600SOL     H1 6844   0.315   5.601   3.605
 1600SOL     H2 6845   0.445   5.677   3.592
 1600SOL    EPW 6846   0.385   5.637   3.642
 1601SOL      O 6847   0.757   5.666   2.569
 1601SOL     H1 6848   0.686   5.727   2.551
 1601SOL     H2 6849   0.808   5.663   2.488
 1601SOL    EPW 6850   0.753   5.672   2.556
 1602SOL      O 6851   1.144   5.670   3.578
 1602SOL     H1 6852   1.139   5.577   3.559
 1602SOL     H2 6853   1.227   5.681   3.624
 1602SOL    EPW 6854   1.152   5.659   3.582
 1603SOL      O 6855   0.434   5.731   2.525
 1603SOL     H1 6856   0.484   5.774   2.456
 1603SOL     H2 6857   0.349   5.775   2.525
 1603SOL    EPW 6858   0.431   5.744   2.516
 1604SOL      O 6859   1.496   5.868   2.402
 1604SOL     H1 6860   1.418   5.818   2.427
 1604SOL     H2 6861   1.467   5.959   2.402
 1604SOL    EPW 6862   1.482   5.872   2.405
 1605SOL      O 6863   1.082   5.830   2.561
 1605SOL     H1 6864   1.102   5.905   2.505
 1605SOL     H2 6865   1.062   5.869   2.646
 1605SOL    EPW 6866   1.083   5.846   2.565
 1606SOL      O 6867   0.398   5.948   2.909
 1606SOL     H1 6868   0.428   5.862   2.880
 1606SOL     H2 6869   0.303   5.941   2.912
 1606SOL    EPW 6870   0.390   5.937   2.907
 1607SOL      O 6871   1.326   5.952   3.461
 1607SOL     H1 6872   1.233   5.936   3.448
 1607SOL     H2 6873   1.352   5.890   3.529
 1607SOL    EPW 6874   1.316   5.942   3.468
 1608SOL      O 6875   0.541   5.726   2.800
 1608SOL     H1 6876   0.551   5.635   2.826
 1608SOL     H2 6877   0.497   5.722   2.715
 1608SOL    EPW 6878   0.537   5.714   2.792
 1609SOL      O 6879   1.326   5.640   2.080
 1609SOL     H1 6880   1.400   5.684   2.123
 1609SOL     H2 6881   1.250   5.694   2.102
 1609SOL    EPW 6882   1.326   5.652   2.088
 1610SOL      O 6883   0.746   5.858   2.912
 1610SOL     H1 6884   0.719   5.860   3.003
 1610SOL     H2 6885   0.676   5.810   2.867
 1610SOL    EPW 6886   0.734   5.854   2.919
 1611SOL      O 6887   1.227   5.677   2.998
 1611SOL     H1 6888   1.282   5.686   2.920
 1611SOL     H2 6889   1.282   5.711   3.069
 1611SOL    EPW 6890   1.241   5.682   2.997
 1612SOL      O 6891   1.454   5.664   3.171
 1612SOL     H1 6892   1.525   5.610   3.135
 1612SOL     H2 6893   1.453   5.643   3.264
 1612SOL    EPW 6894   1.463   5.655   3.179
 1613SOL      O 6895   0.186   5.687   2.295
 1613SOL     H1 6896   0.257   5.708   2.234
 1613SOL     H2 6897   0.140   5.615   2.253
 1613SOL    EPW 6898   0.190   5.681   2.281
 1614SOL      O 6899   0.973   5.658   2.378
 1614SOL     H1 6900   1.010   5.717   2.443
 1614SOL     H2 6901   0.950   5.714   2.304
 1614SOL    EPW 6902   0.974   5.673   2.377
 1615SOL      O 6903   0.639   5.811   3.152
 1615SOL     H1 6904   0.570   5.874   3.173
 1615SOL     H2 6905   0.666   5.775   3.237
 1615SOL    EPW 6906   0.633   5.814   3.165
 1616SOL      O 6907   1.434   5.664   2.769
 1616SOL     H1 6908   1.522   5.673   2.806
 1616SOL     H2 6909   1.444   5.605   2.695
 1616SOL    EPW 6910   1.448   5.658   2.763
 1617SOL      O 6911   0.846   6.169   2.689
 1617SOL     H1 6912   0.786   6.187   2.761
 1617SOL     H2 6913   0.880   6.081   2.708
 1617SOL    EPW 6914   0.842   6.159   2.702
 1618SOL      O 6915   1.787   5.668   3.358
 1618SOL     H1 6916   1.708   5.714   3.386
 1618SOL     H2 6917   1.822   5.722   3.287
 1618SOL    EPW 6918   1.781   5.681   3.352
 1619SOL      O 6919   1.583   5.778   2.165
 1619SOL     H1 6920   1.576   5.782   2.260
 1619SOL     H2 6921   1.595   5.869   2.138
 1619SOL    EPW 6922   1.584   5.791   2.173
 1620SOL      O 6923   1.650   5.761   2.907
 1620SOL     H1 6924   1.695   5.679   2.926
 1620SOL     H2 6925   1.670   5.817   2.983
 1620SOL    EPW 6926   1.660   5.757   2.919
 1621SOL      O 6927   0.098   5.604   3.006
 1621SOL     H1 6928   0.089   5.605   2.911
 1621SOL     H2 6929   0.192   5.616   3.021
 1621SOL    EPW 6930   0.110   5.607   2.997
 1622SOL      O 6931   0.311   5.731   2.052
 1622SOL     H1 6932   0.240   5.786   2.020
 1622SOL     H2 6933   0.353   5.697   1.973
 1622SOL    EPW 6934   0.307   5.733   2.038
 1623SOL      O 6935   0.067   5.830   1.901
 1623SOL     H1 6936   0.034   5.909   1.945
 1623SOL     H2 6937   0.122   5.863   1.830
 1623SOL    EPW 6938   0.070   5.844   1.898
 1624SOL      O 6939   0.655   5.866   4.250
 1624SOL     H1 6940   0.713   5.942   4.252
 1624SOL     H2 6941   0.590   5.887   4.183
 1624SOL    EPW 6942   0.654   5.878   4.241
 1625SOL      O 6943   1.827   5.668   4.421
 1625SOL     H1 6944   1.881   5.619   4.483
 1625SOL     H2 6945   1.770   5.602   4.382
 1625SOL    EPW 6946   1.827   5.652   4.423
 1626SOL      O 6947   0.188   5.825   4.395
 1626SOL     H1 6948   0.179   5.765   4.321
 1626SOL     H2 6949   0.121   5.796   4.458
 1626SOL    EPW 6950   0.178   5.812   4.393
 1627SOL      O 6951   0.976   5.688   3.790
 1627SOL     H1 6952   1.032   5.680   3.712
 1627SOL     H2 6953   0.953   5.598   3.812
 1627SOL    EPW 6954   0.981   5.675   3.783
 1628SOL      O 6955   0.757   5.666   4.437
 1628SOL     H1 6956   0.686   5.727   4.419
 1628SOL     H2 6957   0.808   5.663   4.356
 1628SOL    EPW 6958   0.753   5.672   4.424
 1629SOL      O 6959   0.434   5.731   4.393
 1629SOL     H1 6960   0.484   5.774   4.324
 1629SOL     H2 6961   0.349   5.775   4.393
 1629SOL    EPW 6962   0.431   5.744   4.384
 1630SOL      O 6963   1.496   5.868   4.270
 1630SOL     H1 6964   1.418   5.818   4.295
 1630SOL     H2 6965   1.467   5.959   4.270
 1630SOL    EPW 6966   1.482   5.872   4.273
 1631SOL      O 6967   1.082   5.830   4.429
 1631SOL     H1 6968   1.102   5.905   4.373
 1631SOL     H2 6969   1.062   5.869   4.514
 1631SOL    EPW 6970   1.083   5.846   4.433
 1632SOL      O 6971   1.326   5.640   3.948
 1632SOL     H1 6972   1.400   5.684   3.991
 1632SOL     H2 6973   1.250   5.694   3.970
 1632SOL    EPW 6974   1.326   5.652   3.956
 1633SOL      O 6975   0.186   5.687   4.163
 1633SOL     H1 6976   0.257   5.708   4.102
 1633SOL     H2 6977   0.140   5.615   4.121
 1633SOL    EPW 6978   0.190   5.681   4.149
 1634SOL      O 6979   0.973   5.658   4.246
 1634SOL     H1 6980   1.010   5.717   4.311
 1634SOL     H2 6981   0.950   5.714   4.172
 1634SOL    EPW 6982   0.974   5.673   4.245
 1635SOL      O 6983   1.583   5.778   4.033
 1635SOL     H1 6984   1.576   5.782   4.128
 1635SOL     H2 6985   1.595   5.869   4.006
 1635SOL    EPW 6986   1.584   5.791   4.041
 1636SOL      O 6987   0.311   5.731   3.920
 1636SOL     H1 6988   0.240   5.786   3.888
 1636SOL     H2 6989   0.353   5.697   3.841
 1636SOL    EPW 6990   0.307   5.733   3.906
 1637SOL      O 6991   0.067   5.830   3.769
 1637SOL     H1 6992   0.034   5.909   3.813
 1637SOL     H2 6993   0.122   5.863   3.698
 1637SOL    EPW 6994   0.070   5.844   3.766
 1638SOL      O 6995   3.470   0.771   1.252
 1638SOL     H1 6996   3.425   0.838   1.303
 1638SOL     H2 6997   3.558   0.807   1.238
 1638SOL    EPW 6998   3.476   0.784   1.256
 1639SOL      O 6999   2.398   1.022   0.486
 1639SOL     H1 7000   2.488   0.997   0.470
 1639SOL     H2 7001   2.394   1.115   0.463
 1639SOL    EPW 7002   2.410   1.031   0.481
 1640SOL      O 7003   3.514   1.725   0.628
 1640SOL     H1 7004   3.526   1.671   0.706
 1640SOL     H2 7005   3.551   1.673   0.557
 1640SOL    EPW 7006   3.520   1.710   0.629
 1641SOL      O 7007   2.893   1.610   1.629
 1641SOL     H1 7008   2.934   1.646   1.550
 1641SOL     H2 7009   2.928   1.521   1.636
 1641SOL    EPW 7010   2.904   1.603   1.620
 1642SOL      O 7011   3.450   1.165   1.233
 1642SOL     H1 7012   3.371   1.130   1.191
 1642SOL     H2 7013   3.477   1.237   1.177
 1642SOL    EPW 7014   3.443   1.170   1.220
 1643SOL      O 7015   2.682   0.478   0.499
 1643SOL     H1 7016   2.657   0.566   0.527
 1643SOL     H2 7017   2.679   0.481   0.403
 1643SOL    EPW 7018   2.678   0.490   0.491
 1644SOL      O 7019   2.124   0.506   0.427
 1644SOL     H1 7020   2.156   0.594   0.409
 1644SOL     H2 7021   2.112   0.504   0.522
 1644SOL    EPW 7022   2.127   0.518   0.439
 1645SOL      O 7023   2.202   0.919   1.328
 1645SOL     H1 7024   2.265   0.866   1.279
 1645SOL     H2 7025   2.183   0.993   1.271
 1645SOL    EPW 7026   2.208   0.921   1.315
 1646SOL      O 7027   2.523   0.261   0.514
 1646SOL     H1 7028   2.581   0.337   0.516
 1646SOL     H2 7029   2.458   0.282   0.447
 1646SOL    EPW 7030   2.522   0.273   0.505
 1647SOL      O 7031   2.610   1.188   0.689
 1647SOL     H1 7032   2.690   1.191   0.741
 1647SOL     H2 7033   2.638   1.155   0.603
 1647SOL    EPW 7034   2.624   1.184   0.684
 1648SOL      O 7035   2.635   1.529   1.592
 1648SOL     H1 7036   2.719   1.555   1.631
 1648SOL     H2 7037   2.659   1.473   1.518
 1648SOL    EPW 7038   2.649   1.525   1.587
 1649SOL      O 7039   2.387   0.692   0.680
 1649SOL     H1 7040   2.372   0.612   0.731
 1649SOL     H2 7041   2.469   0.727   0.714
 1649SOL    EPW 7042   2.395   0.684   0.692
 1650SOL      O 7043   2.724   1.378   1.365
 1650SOL     H1 7044   2.688   1.444   1.305
 1650SOL     H2 7045   2.652   1.316   1.378
 1650SOL    EPW 7046   2.710   1.378   1.359
 1651SOL      O 7047   2.529   0.518   1.057
 1651SOL     H1 7048   2.435   0.514   1.075
 1651SOL     H2 7049   2.559   0.427   1.066
 1651SOL    EPW 7050   2.520   0.506   1.060
 1652SOL      O 7051   2.275   0.932   0.961
 1652SOL     H1 7052   2.230   0.939   0.877
 1652SOL     H2 7053   2.255   1.015   1.005
 1652SOL    EPW 7054   2.267   0.944   0.955
 1653SOL      O 7055   1.972   1.778   0.836
 1653SOL     H1 7056   2.061   1.770   0.871
 1653SOL     H2 7057   1.936   1.690   0.841
 1653SOL    EPW 7058   1.979   1.765   0.841
 1654SOL      O 7059   2.236   1.305   0.871
 1654SOL     H1 7060   2.212   1.358   0.947
 1654SOL     H2 7061   2.292   1.363   0.819
 1654SOL    EPW 7062   2.240   1.320   0.874
 1655SOL      O 7063   2.798   0.949   0.681
 1655SOL     H1 7064   2.712   0.936   0.721
 1655SOL     H2 7065   2.851   0.876   0.713
 1655SOL    EPW 7066   2.794   0.938   0.690
 1656SOL      O 7067   2.206   1.601   1.466
 1656SOL     H1 7068   2.114   1.577   1.451
 1656SOL     H2 7069   2.250   1.518   1.483
 1656SOL    EPW 7070   2.200   1.586   1.465
 1657SOL      O 7071   2.789   1.311   0.398
 1657SOL     H1 7072   2.766   1.373   0.466
 1657SOL     H2 7073   2.746   1.229   0.424
 1657SOL    EPW 7074   2.781   1.307   0.409
 1658SOL      O 7075   3.662   0.312   0.854
 1658SOL     H1 7076   3.599   0.292   0.923
 1658SOL     H2 7077   3.652   0.241   0.791
 1658SOL    EPW 7078   3.652   0.299   0.855
 1659SOL      O 7079   2.286   0.284   0.366
 1659SOL     H1 7080   2.260   0.246   0.282
 1659SOL     H2 7081   2.223   0.354   0.382
 1659SOL    EPW 7082   2.275   0.287   0.357
 1660SOL      O 7083   2.121   1.245   0.403
 1660SOL     H1 7084   2.069   1.313   0.359
 1660SOL     H2 7085   2.118   1.171   0.343
 1660SOL    EPW 7086   2.113   1.244   0.390
 1661SOL      O 7087   2.783   1.708   0.181
 1661SOL     H1 7088   2.738   1.724   0.264
 1661SOL     H2 7089   2.714   1.673   0.123
 1661SOL    EPW 7090   2.769   1.705   0.183
 1662SOL      O 7091   3.463   1.084   0.506
 1662SOL     H1 7092   3.373   1.084   0.541
 1662SOL     H2 7093   3.456   1.130   0.423
 1662SOL    EPW 7094   3.450   1.090   0.500
 1663SOL      O 7095   3.263   0.719   1.578
 1663SOL     H1 7096   3.332   0.657   1.555
 1663SOL     H2 7097   3.188   0.693   1.525
 1663SOL    EPW 7098   3.263   0.706   1.569
 1664SOL      O 7099   2.004   1.599   1.130
 1664SOL     H1 7100   1.987   1.545   1.207
 1664SOL     H2 7101   1.992   1.689   1.160
 1664SOL    EPW 7102   2.001   1.603   1.144
 1665SOL      O 7103   2.999   1.106   1.570
 1665SOL     H1 7104   2.984   1.199   1.555
 1665SOL     H2 7105   3.094   1.096   1.570
 1665SOL    EPW 7106   3.008   1.116   1.567
 1666SOL      O 7107   2.795   0.530   1.771
 1666SOL     H1 7108   2.885   0.531   1.738
 1666SOL     H2 7109   2.754   0.455   1.729
 1666SOL    EPW 7110   2.801   0.520   1.762
 1667SOL      O 7111   3.370   1.062   0.898
 1667SOL     H1 7112   3.373   0.996   0.829
 1667SOL     H2 7113   3.455   1.105   0.894
 1667SOL    EPW 7114   3.382   1.058   0.889
 1668SOL      O 7115   2.990   0.665   0.467
 1668SOL     H1 7116   3.016   0.689   0.378
 1668SOL     H2 7117   2.972   0.572   0.463
 1668SOL    EPW 7118   2.992   0.657   0.454
 1669SOL      O 7119   3.655   1.285   0.318
 1669SOL     H1 7120   3.611   1.326   0.393
 1669SOL     H2 7121   3.712   1.353   0.283
 1669SOL    EPW 7122   3.657   1.299   0.323
 1670SOL      O 7123   2.575   0.334   1.721
 1670SOL     H1 7124   2.585   0.260   1.661
 1670SOL     H2 7125   2.611   0.303   1.804
 1670SOL    EPW 7126   2.581   0.320   1.723
 1671SOL      O 7127   2.311   1.701   0.636
 1671SOL     H1 7128   2.343   1.789   0.614
 1671SOL     H2 7129   2.264   1.673   0.558
 1671SOL    EPW 7130   2.310   1.709   0.623
 1672SOL      O 7131   3.695   0.063   0.685
 1672SOL     H1 7132   3.749   0.014   0.747
 1672SOL     H2 7133   3.638  -0.003   0.646
 1672SOL    EPW 7134   3.695   0.047   0.687
 1673SOL      O 7135   2.027   1.761   0.213
 1673SOL     H1 7136   2.056   1.851   0.205
 1673SOL     H2 7137   1.977   1.744   0.134
 1673SOL    EPW 7138   2.025   1.769   0.202
 1674SOL      O 7139   2.814   0.016   1.098
 1674SOL     H1 7140   2.773   0.094   1.060
 1674SOL     H2 7141   2.908   0.034   1.093
 1674SOL    EPW 7142   2.820   0.028   1.093
 1675SOL      O 7143   2.829   0.694   0.128
 1675SOL     H1 7144   2.831   0.641   0.049
 1675SOL     H2 7145   2.917   0.731   0.134
 1675SOL    EPW 7146   2.841   0.693   0.117
 1676SOL      O 7147   3.443   0.620   0.464
 1676SOL     H1 7148   3.482   0.620   0.551
 1676SOL     H2 7149   3.384   0.696   0.464
 1676SOL    EPW 7150   3.440   0.631   0.475
 1677SOL      O 7151   2.760   0.987   1.593
 1677SOL     H1 7152   2.737   0.967   1.683
 1677SOL     H2 7153   2.845   1.031   1.598
 1677SOL    EPW 7154   2.767   0.990   1.605
 1678SOL      O 7155   2.840   0.124   1.353
 1678SOL     H1 7156   2.846   0.086   1.266
 1678SOL     H2 7157   2.829   0.218   1.338
 1678SOL    EPW 7158   2.841   0.132   1.341
 1679SOL      O 7159   2.929   0.613   1.187
 1679SOL     H1 7160   3.004   0.642   1.134
 1679SOL     H2 7161   2.861   0.678   1.171
 1679SOL    EPW 7162   2.930   0.625   1.177
 1680SOL      O 7163   3.479   0.581   1.464
 1680SOL     H1 7164   3.460   0.490   1.443
 1680SOL     H2 7165   3.457   0.630   1.385
 1680SOL    EPW 7166   3.474   0.574   1.451
 1681SOL      O 7167   3.621   1.675   1.368
 1681SOL     H1 7168   3.549   1.637   1.419
 1681SOL     H2 7169   3.638   1.760   1.409
 1681SOL    EPW 7170   3.615   1.680   1.380
 1682SOL      O 7171   2.926   0.319   1.570
 1682SOL     H1 7172   2.892   0.358   1.489
 1682SOL     H2 7173   2.904   0.227   1.563
 1682SOL    EPW 7174   2.919   0.312   1.560
 1683SOL      O 7175   3.335   1.133   1.646
 1683SOL     H1 7176   3.417   1.174   1.676
 1683SOL     H2 7177   3.298   1.095   1.726
 1683SOL    EPW 7178   3.341   1.134   1.661
 1684SOL      O 7179   3.630   0.506   0.630
 1684SOL     H1 7180   3.719   0.475   0.647
 1684SOL     H2 7181   3.573   0.446   0.678
 1684SOL    EPW 7182   3.633   0.494   0.639
 1685SOL      O 7183   2.056   0.220   0.659
 1685SOL     H1 7184   2.047   0.160   0.585
 1685SOL     H2 7185   1.989   0.191   0.722
 1685SOL    EPW 7186   2.046   0.207   0.657
 1686SOL      O 7187   2.003   0.393   1.022
 1686SOL     H1 7188   1.975   0.484   1.031
 1686SOL     H2 7189   1.940   0.354   0.961
 1686SOL    EPW 7190   1.990   0.399   1.016
 1687SOL      O 7191   2.462   1.731   0.328
 1687SOL     H1 7192   2.383   1.689   0.361
 1687SOL     H2 7193   2.528   1.714   0.395
 1687SOL    EPW 7194   2.461   1.723   0.341
 1688SOL      O 7195   3.590   1.251   1.725
 1688SOL     H1 7196   3.640   1.177   1.757
 1688SOL     H2 7197   3.536   1.278   1.800
 1688SOL    EPW 7198   3.590   1.245   1.738
 1689SOL      O 7199   2.598   1.146   0.035
 1689SOL     H1 7200   2.520   1.092   0.022
 1689SOL     H2 7201   2.569   1.219   0.088
 1689SOL    EPW 7202   2.584   1.148   0.040
 1690SOL      O 7203   3.724   0.886   1.227
 1690SOL     H1 7204   3.740   0.924   1.140
 1690SOL     H2 7205   3.758   0.952   1.288
 1690SOL    EPW 7206   3.731   0.899   1.223
 1691SOL      O 7207   3.516   1.595   0.896
 1691SOL     H1 7208   3.545   1.662   0.957
 1691SOL     H2 7209   3.497   1.519   0.951
 1691SOL    EPW 7210   3.518   1.595   0.911
 1692SOL      O 7211   1.987   0.668   1.192
 1692SOL     H1 7212   2.049   0.698   1.258
 1692SOL     H2 7213   1.921   0.737   1.186
 1692SOL    EPW 7214   1.986   0.681   1.199
 1693SOL      O 7215   2.628   0.225   0.100
 1693SOL     H1 7216   2.576   0.145   0.088
 1693SOL     H2 7217   2.715   0.202   0.068
 1693SOL    EPW 7218   2.631   0.211   0.094
 1694SOL      O 7219   2.082   1.777   1.644
 1694SOL     H1 7220   2.056   1.845   1.582
 1694SOL     H2 7221   2.130   1.714   1.592
 1694SOL    EPW 7222   2.084   1.777   1.630
 1695SOL      O 7223   2.134   1.096   1.151
 1695SOL     H1 7224   2.187   1.171   1.176
 1695SOL     H2 7225   2.053   1.134   1.117
 1695SOL    EPW 7226   2.130   1.111   1.151
 1696SOL      O 7227   2.674   1.000   1.139
 1696SOL     H1 7228   2.702   0.909   1.151
 1696SOL     H2 7229   2.603   0.994   1.075
 1696SOL    EPW 7230   2.667   0.988   1.134
 1697SOL      O 7231   1.989   0.865   0.557
 1697SOL     H1 7232   2.080   0.880   0.584
 1697SOL     H2 7233   1.992   0.786   0.503
 1697SOL    EPW 7234   2.001   0.857   0.555
 1698SOL      O 7235   2.225   0.573   1.811
 1698SOL     H1 7236   2.172   0.653   1.818
 1698SOL     H2 7237   2.295   0.585   1.876
 1698SOL    EPW 7238   2.227   0.586   1.819
 1699SOL      O 7239   2.611   0.123   1.518
 1699SOL     H1 7240   2.588   0.031   1.520
 1699SOL     H2 7241   2.697   0.125   1.475
 1699SOL    EPW 7242   2.618   0.113   1.514
 1700SOL      O 7243   2.295   0.647   1.557
 1700SOL     H1 7244   2.375   0.697   1.543
 1700SOL     H2 7245   2.286   0.641   1.652
 1700SOL    EPW 7246   2.304   0.653   1.567
 1701SOL      O 7247   2.616   1.797   0.931
 1701SOL     H1 7248   2.705   1.812   0.961
 1701SOL     H2 7249   2.611   1.844   0.847
 1701SOL    EPW 7250   2.626   1.805   0.924
 1702SOL      O 7251   3.272   0.172   1.828
 1702SOL     H1 7252   3.328   0.099   1.854
 1702SOL     H2 7253   3.242   0.210   1.910
 1702SOL    EPW 7254   3.276   0.167   1.841
 1703SOL      O 7255   1.997   1.477   0.596
 1703SOL     H1 7256   1.969   1.516   0.678
 1703SOL     H2 7257   2.017   1.386   0.618
 1703SOL    EPW 7258   1.995   1.469   0.609
 1704SOL      O 7259   2.830   1.520   0.631
 1704SOL     H1 7260   2.913   1.474   0.615
 1704SOL     H2 7261   2.820   1.519   0.727
 1704SOL    EPW 7262   2.840   1.513   0.641
 1705SOL      O 7263   3.662   0.665   0.945
 1705SOL     H1 7264   3.751   0.695   0.927
 1705SOL     H2 7265   3.642   0.605   0.874
 1705SOL    EPW 7266   3.671   0.662   0.934
 1706SOL      O 7267   3.513   0.844   1.825
 1706SOL     H1 7268   3.568   0.768   1.806
 1706SOL     H2 7269   3.515   0.852   1.920
 1706SOL    EPW 7270   3.521   0.835   1.833
 1707SOL      O 7271   2.563   1.577   0.036
 1707SOL     H1 7272   2.503   1.646   0.006
 1707SOL     H2 7273   2.508   1.519   0.089
 1707SOL    EPW 7274   2.547   1.579   0.038
 1708SOL      O 7275   2.808   0.406   1.344
 1708SOL     H1 7276   2.727   0.447   1.372
 1708SOL     H2 7277   2.855   0.474   1.296
 1708SOL    EPW 7278   2.803   0.421   1.342
 1709SOL      O 7279   3.068   0.744   0.967
 1709SOL     H1 7280   3.081   0.838   0.977
 1709SOL     H2 7281   3.029   0.734   0.881
 1709SOL    EPW 7282   3.064   0.755   0.957
 1710SOL      O 7283   2.520   0.939   0.771
 1710SOL     H1 7284   2.431   0.930   0.804
 1710SOL     H2 7285   2.524   1.029   0.739
 1710SOL    EPW 7286   2.509   0.950   0.771
 1711SOL      O 7287   3.319   0.522   0.766
 1711SOL     H1 7288   3.264   0.443   0.765
 1711SOL     H2 7289   3.301   0.563   0.850
 1711SOL    EPW 7290   3.309   0.517   0.775
 1712SOL      O 7291   2.290   0.209   1.583
 1712SOL     H1 7292   2.211   0.227   1.635
 1712SOL     H2 7293   2.285   0.271   1.510
 1712SOL    EPW 7294   2.280   0.219   1.580
 1713SOL      O 7295   2.938   0.726   0.723
 1713SOL     H1 7296   2.875   0.658   0.747
 1713SOL     H2 7297   2.958   0.707   0.631
 1713SOL    EPW 7298   2.932   0.713   0.715
 1714SOL      O 7299   2.194   1.621   0.425
 1714SOL     H1 7300   2.155   1.668   0.351
 1714SOL     H2 7301   2.128   1.556   0.450
 1714SOL    EPW 7302   2.181   1.619   0.419
 1715SOL      O 7303   2.686   1.030   0.449
 1715SOL     H1 7304   2.688   1.004   0.356
 1715SOL     H2 7305   2.744   0.967   0.492
 1715SOL    EPW 7306   2.694   1.019   0.443
 1716SOL      O 7307   3.239   1.590   1.221
 1716SOL     H1 7308   3.164   1.636   1.259
 1716SOL     H2 7309   3.221   1.497   1.238
 1716SOL    EPW 7310   3.228   1.584   1.229
 1717SOL      O 7311   3.243   1.798   0.651
 1717SOL     H1 7312   3.186   1.751   0.590
 1717SOL     H2 7313   3.329   1.759   0.638
 1717SOL    EPW 7314   3.246   1.789   0.641
 1718SOL      O 7315   3.196   0.274   0.782
 1718SOL     H1 7316   3.224   0.206   0.843
 1718SOL     H2 7317   3.110   0.245   0.752
 1718SOL    EPW 7318   3.189   0.261   0.786
 1719SOL      O 7319   2.001   1.208   0.716
 1719SOL     H1 7320   2.065   1.240   0.779
 1719SOL     H2 7321   2.050   1.144   0.664
 1719SOL    EPW 7322   2.016   1.204   0.717
 1720SOL      O 7323   2.501   1.284   1.698
 1720SOL     H1 7324   2.549   1.367   1.685
 1720SOL     H2 7325   2.558   1.232   1.754
 1720SOL    EPW 7326   2.515   1.288   1.704
 1721SOL      O 7327   2.077   1.526   1.838
 1721SOL     H1 7328   2.133   1.450   1.853
 1721SOL     H2 7329   2.026   1.504   1.760
 1721SOL    EPW 7330   2.077   1.513   1.829
 1722SOL      O 7331   2.844   0.083   0.054
 1722SOL     H1 7332   2.900   0.075  -0.024
 1722SOL     H2 7333   2.821  -0.007   0.076
 1722SOL    EPW 7334   2.849   0.070   0.047
 1723SOL      O 7335   2.962   1.363   1.447
 1723SOL     H1 7336   2.873   1.369   1.415
 1723SOL     H2 7337   3.006   1.442   1.415
 1723SOL    EPW 7338   2.957   1.373   1.439
 1724SOL      O 7339   2.255   0.031   1.789
 1724SOL     H1 7340   2.183  -0.004   1.737
 1724SOL     H2 7341   2.313   0.072   1.724
 1724SOL    EPW 7342   2.253   0.032   1.774
 1725SOL      O 7343   2.279   1.521   1.088
 1725SOL     H1 7344   2.324   1.583   1.145
 1725SOL     H2 7345   2.186   1.540   1.101
 1725SOL    EPW 7346   2.272   1.531   1.095
 1726SOL      O 7347   3.719   1.050   1.442
 1726SOL     H1 7348   3.634   1.063   1.401
 1726SOL     H2 7349   3.699   1.014   1.529
 1726SOL    EPW 7350   3.706   1.046   1.447
 1727SOL      O 7351   2.701   1.589   1.196
 1727SOL     H1 7352   2.725   1.578   1.105
 1727SOL     H2 7353   2.624   1.646   1.194
 1727SOL    EPW 7354   2.693   1.594   1.185
 1728SOL      O 7355   2.343   0.972   0.051
 1728SOL     H1 7356   2.266   0.985   0.107
 1728SOL     H2 7357   2.307   0.936  -0.030
 1728SOL    EPW 7358   2.329   0.968   0.048
 1729SOL      O 7359   2.496   1.294   0.986
 1729SOL     H1 7360   2.489   1.273   1.080
 1729SOL     H2 7361   2.414   1.262   0.949
 1729SOL    EPW 7362   2.484   1.288   0.993
 1730SOL      O 7363   3.360   0.304   1.388
 1730SOL     H1 7364   3.307   0.306   1.468
 1730SOL     H2 7365   3.345   0.217   1.351
 1730SOL    EPW 7366   3.352   0.294   1.393
 1731SOL      O 7367   3.696   0.228   1.261
 1731SOL     H1 7368   3.677   0.295   1.196
 1731SOL     H2 7369   3.753   0.166   1.216
 1731SOL    EPW 7370   3.700   0.229   1.247
 1732SOL      O 7371   1.942   1.386   1.649
 1732SOL     H1 7372   1.986   1.319   1.595
 1732SOL     H2 7373   1.857   1.348   1.669
 1732SOL    EPW 7374   1.937   1.372   1.645
 1733SOL      O 7375   2.625   0.061   0.701
 1733SOL     H1 7376   2.554   0.122   0.683
 1733SOL     H2 7377   2.676   0.058   0.620
 1733SOL    EPW 7378   2.621   0.067   0.688
 1734SOL      O 7379   2.383   1.301   0.450
 1734SOL     H1 7380   2.376   1.333   0.540
 1734SOL     H2 7381   2.293   1.285   0.422
 1734SOL    EPW 7382   2.371   1.303   0.457
 1735SOL      O 7383   2.978   1.694   1.359
 1735SOL     H1 7384   2.898   1.679   1.309
 1735SOL     H2 7385   2.985   1.789   1.366
 1735SOL    EPW 7386   2.969   1.705   1.353
 1736SOL      O 7387   3.092   1.659   0.849
 1736SOL     H1 7388   3.139   1.732   0.808
 1736SOL     H2 7389   3.013   1.698   0.885
 1736SOL    EPW 7390   3.087   1.674   0.848
 1737SOL      O 7391   3.500   1.754   1.124
 1737SOL     H1 7392   3.543   1.724   1.204
 1737SOL     H2 7393   3.419   1.702   1.121
 1737SOL    EPW 7394   3.495   1.743   1.134
 1738SOL      O 7395   2.585   0.718   1.831
 1738SOL     H1 7396   2.655   0.660   1.803
 1738SOL     H2 7397   2.528   0.663   1.886
 1738SOL    EPW 7398   2.587   0.705   1.835
 1739SOL      O 7399   3.372   0.930   1.464
 1739SOL     H1 7400   3.377   0.983   1.544
 1739SOL     H2 7401   3.334   0.847   1.492
 1739SOL    EPW 7402   3.368   0.925   1.479
 1740SOL      O 7403   3.012   0.065   1.710
 1740SOL     H1 7404   3.007  -0.028   1.691
 1740SOL     H2 7405   3.095   0.076   1.756
 1740SOL    EPW 7406   3.020   0.054   1.714
 1741SOL      O 7407   2.386   0.585   0.164
 1741SOL     H1 7408   2.352   0.641   0.234
 1741SOL     H2 7409   2.457   0.535   0.204
 1741SOL    EPW 7410   2.392   0.586   0.178
 1742SOL      O 7411   3.482   1.336   0.986
 1742SOL     H1 7412   3.517   1.318   0.899
 1742SOL     H2 7413   3.387   1.337   0.973
 1742SOL    EPW 7414   3.474   1.333   0.973
 1743SOL      O 7415   2.911   0.984   1.355
 1743SOL     H1 7416   2.954   1.019   1.433
 1743SOL     H2 7417   2.894   1.061   1.301
 1743SOL    EPW 7418   2.914   0.999   1.358
 1744SOL      O 7419   2.302   0.126   0.657
 1744SOL     H1 7420   2.352   0.169   0.588
 1744SOL     H2 7421   2.217   0.170   0.657
 1744SOL    EPW 7422   2.299   0.139   0.648
 1745SOL      O 7423   2.061   1.188   1.517
 1745SOL     H1 7424   2.089   1.141   1.595
 1745SOL     H2 7425   1.982   1.143   1.488
 1745SOL    EPW 7426   2.054   1.177   1.523
 1746SOL      O 7427   2.569   0.515   1.484
 1746SOL     H1 7428   2.541   0.603   1.508
 1746SOL     H2 7429   2.538   0.459   1.555
 1746SOL    EPW 7430   2.561   0.518   1.496
 1747SOL      O 7431   3.111   0.733   0.203
 1747SOL     H1 7432   3.158   0.751   0.122
 1747SOL     H2 7433   3.077   0.817   0.231
 1747SOL    EPW 7434   3.113   0.747   0.196
 1748SOL      O 7435   2.224   0.911   0.697
 1748SOL     H1 7436   2.282   0.967   0.645
 1748SOL     H2 7437   2.268   0.826   0.699
 1748SOL    EPW 7438   2.237   0.908   0.690
 1749SOL      O 7439   3.364   0.263   0.534
 1749SOL     H1 7440   3.286   0.213   0.559
 1749SOL     H2 7441   3.335   0.354   0.534
 1749SOL    EPW 7442   3.350   0.267   0.537
 1750SOL      O 7443   2.950   0.225   0.693
 1750SOL     H1 7444   2.970   0.300   0.637
 1750SOL     H2 7445   2.930   0.264   0.778
 1750SOL    EPW 7446   2.951   0.241   0.697
 1751SOL      O 7447   3.710   0.998   1.712
 1751SOL     H1 7448   3.623   0.978   1.748
 1751SOL     H2 7449   3.764   0.924   1.737
 1751SOL    EPW 7450   3.705   0.987   1.720
 1752SOL      O 7451   1.931   1.511   0.869
 1752SOL     H1 7452   1.963   1.515   0.960
 1752SOL     H2 7453   1.836   1.519   0.877
 1752SOL    EPW 7454   1.923   1.514   0.882
 1753SOL      O 7455   1.886   0.637   0.416
 1753SOL     H1 7456   1.826   0.609   0.486
 1753SOL     H2 7457   1.960   0.577   0.422
 1753SOL    EPW 7458   1.888   0.626   0.425
 1754SOL      O 7459   3.454   1.849   1.850
 1754SOL     H1 7460   3.499   1.773   1.815
 1754SOL     H2 7461   3.492   1.862   1.937
 1754SOL    EPW 7462   3.464   1.842   1.856
 1755SOL      O 7463   3.054   1.368   0.576
 1755SOL     H1 7464   3.077   1.319   0.654
 1755SOL     H2 7465   3.135   1.410   0.548
 1755SOL    EPW 7466   3.067   1.368   0.583
 1756SOL      O 7467   2.312   0.376   1.305
 1756SOL     H1 7468   2.345   0.457   1.345
 1756SOL     H2 7469   2.285   0.402   1.217
 1756SOL    EPW 7470   2.311   0.390   1.299
 1757SOL      O 7471   2.266   0.343   1.041
 1757SOL     H1 7472   2.296   0.257   1.012
 1757SOL     H2 7473   2.171   0.336   1.044
 1757SOL    EPW 7474   2.258   0.332   1.039
 1758SOL      O 7475   3.095   0.552   1.732
 1758SOL     H1 7476   3.147   0.487   1.685
 1758SOL     H2 7477   3.053   0.603   1.662
 1758SOL    EPW 7478   3.096   0.549   1.715
 1759SOL      O 7479   3.194   0.347   1.593
 1759SOL     H1 7480   3.101   0.331   1.580
 1759SOL     H2 7481   3.220   0.285   1.661
 1759SOL    EPW 7482   3.184   0.337   1.600
 1760SOL      O 7483   2.409   0.121   0.932
 1760SOL     H1 7484   2.419   0.030   0.958
 1760SOL     H2 7485   2.365   0.117   0.847
 1760SOL    EPW 7486   2.405   0.109   0.924
 1761SOL      O 7487   2.503   1.736   1.478
 1761SOL     H1 7488   2.420   1.721   1.523
 1761SOL     H2 7489   2.562   1.669   1.513
 1761SOL    EPW 7490   2.501   1.726   1.488
 1762SOL      O 7491   3.560   0.443   1.103
 1762SOL     H1 7492   3.493   0.476   1.163
 1762SOL     H2 7493   3.603   0.521   1.069
 1762SOL    EPW 7494   3.558   0.458   1.107
 1763SOL      O 7495   3.738   1.163   1.073
 1763SOL     H1 7496   3.731   1.103   0.998
 1763SOL     H2 7497   3.664   1.223   1.062
 1763SOL    EPW 7498   3.728   1.163   1.062
 1764SOL      O 7499   3.120   1.025   0.991
 1764SOL     H1 7500   3.134   0.997   1.082
 1764SOL     H2 7501   3.206   1.056   0.963
 1764SOL    EPW 7502   3.133   1.026   1.000
 1765SOL      O 7503   3.203   0.520   1.270
 1765SOL     H1 7504   3.224   0.521   1.177
 1765SOL     H2 7505   3.248   0.442   1.303
 1765SOL    EPW 7506   3.210   0.510   1.262
 1766SOL      O 7507   3.696   0.651   1.812
 1766SOL     H1 7508   3.733   0.596   1.881
 1766SOL     H2 7509   3.721   0.608   1.730
 1766SOL    EPW 7510   3.703   0.639   1.811
 1767SOL      O 7511   3.243   0.949   1.863
 1767SOL     H1 7512   3.309   0.897   1.817
 1767SOL     H2 7513   3.263   0.936   1.956
 1767SOL    EPW 7514   3.254   0.940   1.870
 1768SOL      O 7515   3.254   0.810   0.490
 1768SOL     H1 7516   3.169   0.780   0.460
 1768SOL     H2 7517   3.246   0.817   0.585
 1768SOL    EPW 7518   3.242   0.808   0.499
 1769SOL      O 7519   2.330   1.273   1.221
 1769SOL     H1 7520   2.342   1.300   1.312
 1769SOL     H2 7521   2.311   1.354   1.174
 1769SOL    EPW 7522   2.329   1.288   1.226
 1770SOL      O 7523   2.614   0.253   1.044
 1770SOL     H1 7524   2.587   0.255   1.135
 1770SOL     H2 7525   2.544   0.205   0.999
 1770SOL    EPW 7526   2.602   0.249   1.051
 1771SOL      O 7527   2.468   1.745   1.206
 1771SOL     H1 7528   2.520   1.822   1.183
 1771SOL     H2 7529   2.477   1.737   1.301
 1771SOL    EPW 7530   2.477   1.752   1.217
 1772SOL      O 7531   3.370   1.330   1.438
 1772SOL     H1 7532   3.355   1.259   1.501
 1772SOL     H2 7533   3.416   1.288   1.366
 1772SOL    EPW 7534   3.376   1.314   1.438
 1773SOL      O 7535   2.444   1.061   1.555
 1773SOL     H1 7536   2.481   1.066   1.467
 1773SOL     H2 7537   2.483   1.134   1.602
 1773SOL    EPW 7538   2.454   1.071   1.550
 1774SOL      O 7539   2.624   1.104   1.367
 1774SOL     H1 7540   2.683   1.050   1.420
 1774SOL     H2 7541   2.639   1.076   1.277
 1774SOL    EPW 7542   2.634   1.093   1.363
 1775SOL      O 7543   2.627   0.476   0.216
 1775SOL     H1 7544   2.700   0.525   0.179
 1775SOL     H2 7545   2.643   0.385   0.190
 1775SOL    EPW 7546   2.639   0.471   0.209
 1776SOL      O 7547   3.435   1.593   1.539
 1776SOL     H1 7548   3.477   1.578   1.624
 1776SOL     H2 7549   3.426   1.506   1.501
 1776SOL    EPW 7550   3.439   1.581   1.546
 1777SOL      O 7551   3.095   0.072   1.130
 1777SOL     H1 7552   3.150   0.081   1.052
 1777SOL     H2 7553   3.150   0.106   1.201
 1777SOL    EPW 7554   3.109   0.077   1.129
 1778SOL      O 7555   2.102   0.985   0.314
 1778SOL     H1 7556   2.039   1.001   0.243
 1778SOL     H2 7557   2.049   0.948   0.385
 1778SOL    EPW 7558   2.087   0.982   0.314
 1779SOL      O 7559   2.458   1.339   0.173
 1779SOL     H1 7560   2.473   1.315   0.265
 1779SOL     H2 7561   2.366   1.317   0.157
 1779SOL    EPW 7562   2.448   1.332   0.183
 1780SOL      O 7563   2.997   1.570   0.325
 1780SOL     H1 7564   3.005   1.488   0.276
 1780SOL     H2 7565   2.916   1.609   0.292
 1780SOL    EPW 7566   2.987   1.565   0.315
 1781SOL      O 7567   2.256   1.728   0.894
 1781SOL     H1 7568   2.260   1.639   0.929
 1781SOL     H2 7569   2.282   1.719   0.803
 1781SOL    EPW 7570   2.259   1.716   0.886
 1782SOL      O 7571   2.873   1.206   1.137
 1782SOL     H1 7572   2.805   1.140   1.153
 1782SOL     H2 7573   2.891   1.200   1.044
 1782SOL    EPW 7574   2.866   1.197   1.128
 1783SOL      O 7575   1.962   1.481   1.388
 1783SOL     H1 7576   1.952   1.439   1.474
 1783SOL     H2 7577   1.883   1.534   1.378
 1783SOL    EPW 7578   1.951   1.482   1.399
 1784SOL      O 7579   2.866   0.345   0.958
 1784SOL     H1 7580   2.796   0.297   1.003
 1784SOL     H2 7581   2.898   0.408   1.022
 1784SOL    EPW 7582   2.861   0.347   0.972
 1785SOL      O 7583   2.517   0.781   1.578
 1785SOL     H1 7584   2.510   0.876   1.566
 1785SOL     H2 7585   2.526   0.770   1.673
 1785SOL    EPW 7586   2.518   0.793   1.588
 1786SOL      O 7587   2.238   1.296   1.836
 1786SOL     H1 7588   2.310   1.298   1.773
 1786SOL     H2 7589   2.208   1.205   1.835
 1786SOL    EPW 7590   2.243   1.285   1.828
 1787SOL      O 7591   3.322   0.059   1.303
 1787SOL     H1 7592   3.393   0.005   1.267
 1787SOL     H2 7593   3.321   0.038   1.396
 1787SOL    EPW 7594   3.331   0.050   1.311
 1788SOL      O 7595   3.522   1.589   1.787
 1788SOL     H1 7596   3.495   1.586   1.878
 1788SOL     H2 7597   3.618   1.593   1.790
 1788SOL    EPW 7598   3.532   1.589   1.799
 1789SOL      O 7599   2.333   0.451   0.771
 1789SOL     H1 7600   2.404   0.399   0.734
 1789SOL     H2 7601   2.319   0.416   0.858
 1789SOL    EPW 7602   2.341   0.440   0.778
 1790SOL      O 7603   1.888   1.786   1.843
 1790SOL     H1 7604   1.938   1.764   1.765
 1790SOL     H2 7605   1.896   1.881   1.851
 1790SOL    EPW 7606   1.896   1.795   1.834
 1791SOL      O 7607   2.649   1.544   0.847
 1791SOL     H1 7608   2.577   1.481   0.860
 1791SOL     H2 7609   2.610   1.629   0.865
 1791SOL    EPW 7610   2.633   1.547   0.850
 1792SOL      O 7611   2.969   0.392   0.495
 1792SOL     H1 7612   2.991   0.329   0.427
 1792SOL     H2 7613   2.874   0.384   0.506
 1792SOL    EPW 7614   2.959   0.383   0.487
 1793SOL      O 7615   2.054   0.082   0.427
 1793SOL     H1 7616   2.125   0.103   0.366
 1793SOL     H2 7617   2.008   0.010   0.385
 1793SOL    EPW 7618   2.058   0.076   0.413
 1794SOL      O 7619   1.885   0.549   1.570
 1794SOL     H1 7620   1.949   0.615   1.545
 1794SOL     H2 7621   1.804   0.576   1.527
 1794SOL    EPW 7622   1.883   0.561   1.562
 1795SOL      O 7623   3.623   1.456   0.527
 1795SOL     H1 7624   3.593   1.389   0.588
 1795SOL     H2 7625   3.717   1.462   0.541
 1795SOL    EPW 7626   3.631   1.448   0.537
 1796SOL      O 7627   3.179   1.133   0.457
 1796SOL     H1 7628   3.151   1.219   0.490
 1796SOL     H2 7629   3.207   1.149   0.367
 1796SOL    EPW 7630   3.179   1.147   0.449
 1797SOL      O 7631   2.841   0.053   0.510
 1797SOL     H1 7632   2.878   0.112   0.575
 1797SOL     H2 7633   2.818   0.109   0.436
 1797SOL    EPW 7634   2.842   0.068   0.509
 1798SOL      O 7635   3.694   0.935   0.932
 1798SOL     H1 7636   3.685   0.967   0.843
 1798SOL     H2 7637   3.647   0.851   0.932
 1798SOL    EPW 7638   3.687   0.928   0.922
 1799SOL      O 7639   2.070   0.775   1.511
 1799SOL     H1 7640   2.091   0.844   1.449
 1799SOL     H2 7641   2.150   0.722   1.516
 1799SOL    EPW 7642   2.083   0.776   1.505
 1800SOL      O 7643   3.606   0.866   0.633
 1800SOL     H1 7644   3.700   0.855   0.621
 1800SOL     H2 7645   3.582   0.938   0.574
 1800SOL    EPW 7646   3.616   0.874   0.624
 1801SOL      O 7647   2.055   0.790   1.778
 1801SOL     H1 7648   1.981   0.734   1.804
 1801SOL     H2 7649   2.050   0.793   1.683
 1801SOL    EPW 7650   2.044   0.783   1.768
 1802SOL      O 7651   2.221   0.077   1.228
 1802SOL     H1 7652   2.264   0.161   1.248
 1802SOL     H2 7653   2.294   0.015   1.221
 1802SOL    EPW 7654   2.236   0.080   1.229
 1803SOL      O 7655   2.262   0.744   0.406
 1803SOL     H1 7656   2.262   0.839   0.391
 1803SOL     H2 7657   2.339   0.728   0.460
 1803SOL    EPW 7658   2.272   0.755   0.411
 1804SOL      O 7659   3.038   0.603   1.470
 1804SOL     H1 7660   3.074   0.576   1.386
 1804SOL     H2 7661   2.951   0.637   1.449
 1804SOL    EPW 7662   3.032   0.604   1.457
 1805SOL      O 7663   2.021   0.475   0.695
 1805SOL     H1 7664   2.083   0.482   0.768
 1805SOL     H2 7665   2.021   0.382   0.672
 1805SOL    EPW 7666   2.029   0.464   0.702
 1806SOL      O 7667   2.703   0.736   1.179
 1806SOL     H1 7668   2.661   0.654   1.155
 1806SOL     H2 7669   2.704   0.735   1.275
 1806SOL    EPW 7670   2.696   0.725   1.188
 1807SOL      O 7671   3.374   1.869   1.578
 1807SOL     H1 7672   3.377   1.775   1.561
 1807SOL     H2 7673   3.397   1.877   1.670
 1807SOL    EPW 7674   3.377   1.857   1.588
 1808SOL      O 7675   2.507   0.206   1.284
 1808SOL     H1 7676   2.438   0.269   1.305
 1808SOL     H2 7677   2.534   0.170   1.369
 1808SOL    EPW 7678   2.501   0.209   1.297
 1809SOL      O 7679   1.890   1.047   0.153
 1809SOL     H1 7680   1.859   1.112   0.216
 1809SOL     H2 7681   1.839   0.969   0.172
 1809SOL    EPW 7682   1.880   1.044   0.163
 1810SOL      O 7683   3.302   0.059   0.901
 1810SOL     H1 7684   3.390   0.068   0.938
 1810SOL     H2 7685   3.312   0.000   0.827
 1810SOL    EPW 7686   3.316   0.053   0.895
 1811SOL      O 7687   3.334   0.798   0.745
 1811SOL     H1 7688   3.414   0.813   0.694
 1811SOL     H2 7689   3.327   0.703   0.751
 1811SOL    EPW 7690   3.343   0.787   0.740
 1812SOL      O 7691   2.474   1.847   0.095
 1812SOL     H1 7692   2.379   1.847   0.087
 1812SOL     H2 7693   2.490   1.793   0.173
 1812SOL    EPW 7694   2.464   1.841   0.104
 1813SOL      O 7695   2.784   0.724   1.442
 1813SOL     H1 7696   2.853   0.791   1.439
 1813SOL     H2 7697   2.717   0.762   1.498
 1813SOL    EPW 7698   2.785   0.737   1.449
 1814SOL      O 7699   2.202   1.024   1.690
 1814SOL     H1 7700   2.156   0.940   1.692
 1814SOL     H2 7701   2.259   1.018   1.614
 1814SOL    EPW 7702   2.204   1.012   1.682
 1815SOL      O 7703   2.453   1.399   0.691
 1815SOL     H1 7704   2.518   1.332   0.712
 1815SOL     H2 7705   2.505   1.476   0.668
 1815SOL    EPW 7706   2.468   1.401   0.690
 1816SOL      O 7707   2.714   0.564   0.821
 1816SOL     H1 7708   2.654   0.582   0.893
 1816SOL     H2 7709   2.748   0.476   0.840
 1816SOL    EPW 7710   2.710   0.554   0.834
 1817SOL      O 7711   3.655   0.063   1.490
 1817SOL     H1 7712   3.576   0.109   1.518
 1817SOL     H2 7713   3.690   0.117   1.419
 1817SOL    EPW 7714   3.649   0.076   1.484
 1818SOL      O 7715   2.939   1.147   0.840
 1818SOL     H1 7716   3.031   1.128   0.858
 1818SOL     H2 7717   2.912   1.077   0.780
 1818SOL    EPW 7718   2.947   1.135   0.834
 1819SOL      O 7719   2.732   0.967   0.195
 1819SOL     H1 7720   2.718   0.879   0.160
 1819SOL     H2 7721   2.683   1.024   0.136
 1819SOL    EPW 7722   2.724   0.962   0.183
 1820SOL      O 7723   3.213   1.385   0.936
 1820SOL     H1 7724   3.186   1.469   0.901
 1820SOL     H2 7725   3.173   1.380   1.023
 1820SOL    EPW 7726   3.206   1.394   0.942
 1821SOL      O 7727   3.132   1.333   1.204
 1821SOL     H1 7728   3.143   1.300   1.293
 1821SOL     H2 7729   3.051   1.292   1.173
 1821SOL    EPW 7730   3.122   1.325   1.210
 1822SOL      O 7731   2.145   0.691   0.974
 1822SOL     H1 7732   2.095   0.690   1.055
 1822SOL     H2 7733   2.165   0.783   0.958
 1822SOL    EPW 7734   2.141   0.703   0.982
 1823SOL      O 7735   3.212   1.455   1.736
 1823SOL     H1 7736   3.212   1.549   1.752
 1823SOL     H2 7737   3.257   1.445   1.652
 1823SOL    EPW 7738   3.218   1.465   1.727
 1824SOL      O 7739   2.740   0.736   0.411
 1824SOL     H1 7740   2.720   0.722   0.318
 1824SOL     H2 7741   2.833   0.715   0.418
 1824SOL    EPW 7742   2.750   0.731   0.400
 1825SOL      O 7743   2.067   0.359   1.715
 1825SOL     H1 7744   2.024   0.418   1.652
 1825SOL     H2 7745   2.135   0.414   1.755
 1825SOL    EPW 7746   2.071   0.374   1.712
 1826SOL      O 7747   3.179   0.979   1.260
 1826SOL     H1 7748   3.242   0.976   1.333
 1826SOL     H2 7749   3.095   0.997   1.302
 1826SOL    EPW 7750   3.175   0.981   1.275
 1827SOL      O 7751   2.723   1.694   0.449
 1827SOL     H1 7752   2.781   1.765   0.476
 1827SOL     H2 7753   2.746   1.622   0.507
 1827SOL    EPW 7754   2.734   1.694   0.460
 1828SOL      O 7755   3.518   0.156   1.039
 1828SOL     H1 7756   3.563   0.074   1.058
 1828SOL     H2 7757   3.538   0.212   1.115
 1828SOL    EPW 7758   3.528   0.152   1.051
 1829SOL      O 7759   1.966  -0.001   1.138
 1829SOL     H1 7760   1.957   0.000   1.043
 1829SOL     H2 7761   2.060   0.011   1.153
 1829SOL    EPW 7762   1.978   0.002   1.129
 1830SOL      O 7763   3.603   1.192   0.758
 1830SOL     H1 7764   3.582   1.138   0.681
 1830SOL     H2 7765   3.699   1.190   0.762
 1830SOL    EPW 7766   3.612   1.185   0.747
 1831SOL      O 7767   2.295   1.337   1.501
 1831SOL     H1 7768   2.216   1.287   1.524
 1831SOL     H2 7769   2.365   1.296   1.551
 1831SOL    EPW 7770   2.293   1.325   1.511
 1832SOL      O 7771   2.179   0.126   0.184
 1832SOL     H1 7772   2.108   0.181   0.152
 1832SOL     H2 7773   2.221   0.092   0.105
 1832SOL    EPW 7774   2.175   0.128   0.170
 1833SOL      O 7775   3.303   0.623   1.020
 1833SOL     H1 7776   3.226   0.669   0.986
 1833SOL     H2 7777   3.360   0.692   1.054
 1833SOL    EPW 7778   3.300   0.638   1.020
 1834SOL      O 7779   1.935   0.225   0.033
 1834SOL     H1 7780   1.902   0.304   0.077
 1834SOL     H2 7781   1.990   0.258  -0.038
 1834SOL    EPW 7782   1.938   0.239   0.030
 1835SOL      O 7783   1.969   1.482   0.222
 1835SOL     H1 7784   1.986   1.566   0.264
 1835SOL     H2 7785   2.004   1.491   0.134
 1835SOL    EPW 7786   1.974   1.495   0.216
 1836SOL      O 7787   3.604   0.839   2.125
 1836SOL     H1 7788   3.645   0.781   2.190
 1836SOL     H2 7789   3.511   0.831   2.142
 1836SOL    EPW 7790   3.598   0.831   2.135
 1837SOL      O 7791   3.470   0.771   3.120
 1837SOL     H1 7792   3.425   0.838   3.171
 1837SOL     H2 7793   3.558   0.807   3.106
 1837SOL    EPW 7794   3.476   0.784   3.124
 1838SOL      O 7795   2.398   1.022   2.354
 1838SOL     H1 7796   2.488   0.997   2.338
 1838SOL     H2 7797   2.394   1.115   2.331
 1838SOL    EPW 7798   2.410   1.031   2.349
 1839SOL      O 7799   3.514   1.725   2.496
 1839SOL     H1 7800   3.526   1.671   2.574
 1839SOL     H2 7801   3.551   1.673   2.425
 1839SOL    EPW 7802   3.520   1.710   2.497
 1840SOL      O 7803   2.893   1.610   3.497
 1840SOL     H1 7804   2.934   1.646   3.418
 1840SOL     H2 7805   2.928   1.521   3.504
 1840SOL    EPW 7806   2.904   1.603   3.488
 1841SOL      O 7807   3.450   1.165   3.101
 1841SOL     H1 7808   3.371   1.130   3.059
 1841SOL     H2 7809   3.477   1.237   3.045
 1841SOL    EPW 7810   3.443   1.170   3.088
 1842SOL      O 7811   2.682   0.478   2.367
 1842SOL     H1 7812   2.657   0.566   2.395
 1842SOL     H2 7813   2.679   0.481   2.271
 1842SOL    EPW 7814   2.678   0.490   2.359
 1843SOL      O 7815   2.124   0.506   2.295
 1843SOL     H1 7816   2.156   0.594   2.277
 1843SOL     H2 7817   2.112   0.504   2.390
 1843SOL    EPW 7818   2.127   0.518   2.307
 1844SOL      O 7819   2.202   0.919   3.196
 1844SOL     H1 7820   2.265   0.866   3.147
 1844SOL     H2 7821   2.183   0.993   3.139
 1844SOL    EPW 7822   2.208   0.921   3.183
 1845SOL      O 7823   2.523   0.261   2.382
 1845SOL     H1 7824   2.581   0.337   2.384
 1845SOL     H2 7825   2.458   0.282   2.315
 1845SOL    EPW 7826   2.522   0.273   2.373
 1846SOL      O 7827   2.610   1.188   2.557
 1846SOL     H1 7828   2.690   1.191   2.609
 1846SOL     H2 7829   2.638   1.155   2.471
 1846SOL    EPW 7830   2.624   1.184   2.552
 1847SOL      O 7831   2.635   1.529   3.460
 1847SOL     H1 7832   2.719   1.555   3.499
 1847SOL     H2 7833   2.659   1.473   3.386
 1847SOL    EPW 7834   2.649   1.525   3.455
 1848SOL      O 7835   2.387   0.692   2.548
 1848SOL     H1 7836   2.372   0.612   2.599
 1848SOL     H2 7837   2.469   0.727   2.582
 1848SOL    EPW 7838   2.395   0.684   2.560
 1849SOL      O 7839   2.724   1.378   3.233
 1849SOL     H1 7840   2.688   1.444   3.173
 1849SOL     H2 7841   2.652   1.316   3.246
 1849SOL    EPW 7842   2.710   1.378   3.227
 1850SOL      O 7843   2.529   0.518   2.925
 1850SOL     H1 7844   2.435   0.514   2.943
 1850SOL     H2 7845   2.559   0.427   2.934
 1850SOL    EPW 7846   2.520   0.506   2.928
 1851SOL      O 7847   2.275   0.932   2.829
 1851SOL     H1 7848   2.230   0.939   2.745
 1851SOL     H2 7849   2.255   1.015   2.873
 1851SOL    EPW 7850   2.267   0.944   2.823
 1852SOL      O 7851   1.972   1.778   2.704
 1852SOL     H1 7852   2.061   1.770   2.739
 1852SOL     H2 7853   1.936   1.690   2.709
 1852SOL    EPW 7854   1.979   1.765   2.709
 1853SOL      O 7855   3.237   1.170   2.073
 1853SOL     H1 7856   3.155   1.206   2.039
 1853SOL     H2 7857   3.305   1.213   2.022
 1853SOL    EPW 7858   3.235   1.180   2.061
 1854SOL      O 7859   2.236   1.305   2.739
 1854SOL     H1 7860   2.212   1.358   2.815
 1854SOL     H2 7861   2.292   1.363   2.687
 1854SOL    EPW 7862   2.240   1.320   2.742
 1855SOL      O 7863   2.798   0.949   2.549
 1855SOL     H1 7864   2.712   0.936   2.589
 1855SOL     H2 7865   2.851   0.876   2.581
 1855SOL    EPW 7866   2.794   0.938   2.558
 1856SOL      O 7867   2.206   1.601   3.334
 1856SOL     H1 7868   2.114   1.577   3.319
 1856SOL     H2 7869   2.250   1.518   3.351
 1856SOL    EPW 7870   2.200   1.586   3.333
 1857SOL      O 7871   2.789   1.311   2.266
 1857SOL     H1 7872   2.766   1.373   2.334
 1857SOL     H2 7873   2.746   1.229   2.292
 1857SOL    EPW 7874   2.781   1.307   2.277
 1858SOL      O 7875   3.662   0.312   2.722
 1858SOL     H1 7876   3.599   0.292   2.791
 1858SOL     H2 7877   3.652   0.241   2.659
 1858SOL    EPW 7878   3.652   0.299   2.723
 1859SOL      O 7879   2.286   0.284   2.234
 1859SOL     H1 7880   2.260   0.246   2.150
 1859SOL     H2 7881   2.223   0.354   2.250
 1859SOL    EPW 7882   2.275   0.287   2.225
 1860SOL      O 7883   2.121   1.245   2.271
 1860SOL     H1 7884   2.069   1.313   2.227
 1860SOL     H2 7885   2.118   1.171   2.211
 1860SOL    EPW 7886   2.113   1.244   2.258
 1861SOL      O 7887   2.783   1.708   2.049
 1861SOL     H1 7888   2.738   1.724   2.132
 1861SOL     H2 7889   2.714   1.673   1.991
 1861SOL    EPW 7890   2.769   1.705   2.051
 1862SOL      O 7891   3.718   0.481   2.024
 1862SOL     H1 7892   3.627   0.483   2.052
 1862SOL     H2 7893   3.763   0.543   2.082
 1862SOL    EPW 7894   3.711   0.489   2.034
 1863SOL      O 7895   3.463   1.084   2.374
 1863SOL     H1 7896   3.373   1.084   2.409
 1863SOL     H2 7897   3.456   1.130   2.291
 1863SOL    EPW 7898   3.450   1.090   2.368
 1864SOL      O 7899   3.263   0.719   3.446
 1864SOL     H1 7900   3.332   0.657   3.423
 1864SOL     H2 7901   3.188   0.693   3.393
 1864SOL    EPW 7902   3.263   0.706   3.437
 1865SOL      O 7903   2.004   1.599   2.998
 1865SOL     H1 7904   1.987   1.545   3.075
 1865SOL     H2 7905   1.992   1.689   3.028
 1865SOL    EPW 7906   2.001   1.603   3.012
 1866SOL      O 7907   2.999   1.106   3.438
 1866SOL     H1 7908   2.984   1.199   3.423
 1866SOL     H2 7909   3.094   1.096   3.438
 1866SOL    EPW 7910   3.008   1.116   3.435
 1867SOL      O 7911   2.795   0.530   3.639
 1867SOL     H1 7912   2.885   0.531   3.606
 1867SOL     H2 7913   2.754   0.455   3.597
 1867SOL    EPW 7914   2.801   0.520   3.630
 1868SOL      O 7915   3.370   1.062   2.766
 1868SOL     H1 7916   3.373   0.996   2.697
 1868SOL     H2 7917   3.455   1.105   2.762
 1868SOL    EPW 7918   3.382   1.058   2.757
 1869SOL      O 7919   3.655   1.285   2.186
 1869SOL     H1 7920   3.611   1.326   2.261
 1869SOL     H2 7921   3.712   1.353   2.151
 1869SOL    EPW 7922   3.657   1.299   2.191
 1870SOL      O 7923   2.575   0.334   3.589
 1870SOL     H1 7924   2.585   0.260   3.529
 1870SOL     H2 7925   2.611   0.303   3.672
 1870SOL    EPW 7926   2.581   0.320   3.591
 1871SOL      O 7927   2.311   1.701   2.504
 1871SOL     H1 7928   2.343   1.789   2.482
 1871SOL     H2 7929   2.264   1.673   2.426
 1871SOL    EPW 7930   2.310   1.709   2.491
 1872SOL      O 7931   3.695   0.063   2.553
 1872SOL     H1 7932   3.749   0.014   2.615
 1872SOL     H2 7933   3.638  -0.003   2.514
 1872SOL    EPW 7934   3.695   0.047   2.555
 1873SOL      O 7935   2.027   1.761   2.081
 1873SOL     H1 7936   2.056   1.851   2.073
 1873SOL     H2 7937   1.977   1.744   2.002
 1873SOL    EPW 7938   2.025   1.769   2.070
 1874SOL      O 7939   2.814   0.016   2.966
 1874SOL     H1 7940   2.773   0.094   2.928
 1874SOL     H2 7941   2.908   0.034   2.961
 1874SOL    EPW 7942   2.820   0.028   2.961
 1875SOL      O 7943   3.431   1.569   2.052
 1875SOL     H1 7944   3.479   1.638   2.098
 1875SOL     H2 7945   3.352   1.613   2.021
 1875SOL    EPW 7946   3.426   1.583   2.055
 1876SOL      O 7947   2.829   0.694   1.996
 1876SOL     H1 7948   2.831   0.641   1.917
 1876SOL     H2 7949   2.917   0.731   2.002
 1876SOL    EPW 7950   2.841   0.693   1.985
 1877SOL      O 7951   3.443   0.620   2.332
 1877SOL     H1 7952   3.482   0.620   2.419
 1877SOL     H2 7953   3.384   0.696   2.332
 1877SOL    EPW 7954   3.440   0.631   2.343
 1878SOL      O 7955   2.760   0.987   3.461
 1878SOL     H1 7956   2.737   0.967   3.551
 1878SOL     H2 7957   2.845   1.031   3.466
 1878SOL    EPW 7958   2.767   0.990   3.473
 1879SOL      O 7959   2.840   0.124   3.221
 1879SOL     H1 7960   2.846   0.086   3.134
 1879SOL     H2 7961   2.829   0.218   3.206
 1879SOL    EPW 7962   2.841   0.132   3.209
 1880SOL      O 7963   2.929   0.613   3.055
 1880SOL     H1 7964   3.004   0.642   3.002
 1880SOL     H2 7965   2.861   0.678   3.039
 1880SOL    EPW 7966   2.930   0.625   3.045
 1881SOL      O 7967   3.479   0.581   3.332
 1881SOL     H1 7968   3.460   0.490   3.311
 1881SOL     H2 7969   3.457   0.630   3.253
 1881SOL    EPW 7970   3.474   0.574   3.319
 1882SOL      O 7971   3.621   1.675   3.236
 1882SOL     H1 7972   3.549   1.637   3.287
 1882SOL     H2 7973   3.638   1.760   3.277
 1882SOL    EPW 7974   3.615   1.680   3.248
 1883SOL      O 7975   2.926   0.319   3.438
 1883SOL     H1 7976   2.892   0.358   3.357
 1883SOL     H2 7977   2.904   0.227   3.431
 1883SOL    EPW 7978   2.919   0.312   3.428
 1884SOL      O 7979   3.335   1.133   3.514
 1884SOL     H1 7980   3.417   1.174   3.544
 1884SOL     H2 7981   3.298   1.095   3.594
 1884SOL    EPW 7982   3.341   1.134   3.529
 1885SOL      O 7983   3.630   0.506   2.498
 1885SOL     H1 7984   3.719   0.475   2.515
 1885SOL     H2 7985   3.573   0.446   2.546
 1885SOL    EPW 7986   3.633   0.494   2.507
 1886SOL      O 7987   2.056   0.220   2.527
 1886SOL     H1 7988   2.047   0.160   2.453
 1886SOL     H2 7989   1.989   0.191   2.590
 1886SOL    EPW 7990   2.046   0.207   2.525
 1887SOL      O 7991   2.999   1.313   2.088
 1887SOL     H1 7992   2.949   1.315   2.170
 1887SOL     H2 7993   2.933   1.331   2.020
 1887SOL    EPW 7994   2.985   1.315   2.090
 1888SOL      O 7995   2.003   0.393   2.890
 1888SOL     H1 7996   1.975   0.484   2.899
 1888SOL     H2 7997   1.940   0.354   2.829
 1888SOL    EPW 7998   1.990   0.399   2.884
 1889SOL      O 7999   2.462   1.731   2.196
 1889SOL     H1 8000   2.383   1.689   2.229
 1889SOL     H2 8001   2.528   1.714   2.263
 1889SOL    EPW 8002   2.461   1.723   2.209
 1890SOL      O 8003   3.590   1.251   3.593
 1890SOL     H1 8004   3.640   1.177   3.625
 1890SOL     H2 8005   3.536   1.278   3.668
 1890SOL    EPW 8006   3.590   1.245   3.606
 1891SOL      O 8007   2.598   1.146   1.903
 1891SOL     H1 8008   2.520   1.092   1.890
 1891SOL     H2 8009   2.569   1.219   1.956
 1891SOL    EPW 8010   2.584   1.148   1.908
 1892SOL      O 8011   3.724   0.886   3.095
 1892SOL     H1 8012   3.740   0.924   3.008
 1892SOL     H2 8013   3.758   0.952   3.156
 1892SOL    EPW 8014   3.731   0.899   3.091
 1893SOL      O 8015   3.516   1.595   2.764
 1893SOL     H1 8016   3.545   1.662   2.825
 1893SOL     H2 8017   3.497   1.519   2.819
 1893SOL    EPW 8018   3.518   1.595   2.779
 1894SOL      O 8019   3.179   1.662   1.971
 1894SOL     H1 8020   3.105   1.625   2.021
 1894SOL     H2 8021   3.187   1.752   2.004
 1894SOL    EPW 8022   3.170   1.669   1.983
 1895SOL      O 8023   1.987   0.668   3.060
 1895SOL     H1 8024   2.049   0.698   3.126
 1895SOL     H2 8025   1.921   0.737   3.054
 1895SOL    EPW 8026   1.986   0.681   3.067
 1896SOL      O 8027   3.403   1.336   1.913
 1896SOL     H1 8028   3.350   1.385   1.849
 1896SOL     H2 8029   3.434   1.402   1.974
 1896SOL    EPW 8030   3.401   1.350   1.911
 1897SOL      O 8031   2.628   0.225   1.968
 1897SOL     H1 8032   2.576   0.145   1.956
 1897SOL     H2 8033   2.715   0.202   1.936
 1897SOL    EPW 8034   2.631   0.211   1.962
 1898SOL      O 8035   2.082   1.777   3.512
 1898SOL     H1 8036   2.056   1.845   3.450
 1898SOL     H2 8037   2.130   1.714   3.460
 1898SOL    EPW 8038   2.084   1.777   3.498
 1899SOL      O 8039   2.134   1.096   3.019
 1899SOL     H1 8040   2.187   1.171   3.044
 1899SOL     H2 8041   2.053   1.134   2.985
 1899SOL    EPW 8042   2.130   1.111   3.019
 1900SOL      O 8043   2.674   1.000   3.007
 1900SOL     H1 8044   2.702   0.909   3.019
 1900SOL     H2 8045   2.603   0.994   2.943
 1900SOL    EPW 8046   2.667   0.988   3.002
 1901SOL      O 8047   1.989   0.865   2.425
 1901SOL     H1 8048   2.080   0.880   2.452
 1901SOL     H2 8049   1.992   0.786   2.371
 1901SOL    EPW 8050   2.001   0.857   2.423
 1902SOL      O 8051   2.225   0.573   3.679
 1902SOL     H1 8052   2.172   0.653   3.686
 1902SOL     H2 8053   2.295   0.585   3.744
 1902SOL    EPW 8054   2.227   0.586   3.687
 1903SOL      O 8055   2.611   0.123   3.386
 1903SOL     H1 8056   2.588   0.031   3.388
 1903SOL     H2 8057   2.697   0.125   3.343
 1903SOL    EPW 8058   2.618   0.113   3.382
 1904SOL      O 8059   2.295   0.647   3.425
 1904SOL     H1 8060   2.375   0.697   3.411
 1904SOL     H2 8061   2.286   0.641   3.520
 1904SOL    EPW 8062   2.304   0.653   3.435
 1905SOL      O 8063   2.616   1.797   2.799
 1905SOL     H1 8064   2.705   1.812   2.829
 1905SOL     H2 8065   2.611   1.844   2.715
 1905SOL    EPW 8066   2.626   1.805   2.792
 1906SOL      O 8067   3.272   0.172   3.696
 1906SOL     H1 8068   3.328   0.099   3.722
 1906SOL     H2 8069   3.242   0.210   3.778
 1906SOL    EPW 8070   3.276   0.167   3.709
 1907SOL      O 8071   1.997   1.477   2.464
 1907SOL     H1 8072   1.969   1.516   2.546
 1907SOL     H2 8073   2.017   1.386   2.486
 1907SOL    EPW 8074   1.995   1.469   2.477
 1908SOL      O 8075   2.830   1.520   2.499
 1908SOL     H1 8076   2.913   1.474   2.483
 1908SOL     H2 8077   2.820   1.519   2.595
 1908SOL    EPW 8078   2.840   1.513   2.509
 1909SOL      O 8079   3.662   0.665   2.813
 1909SOL     H1 8080   3.751   0.695   2.795
 1909SOL     H2 8081   3.642   0.605   2.742
 1909SOL    EPW 8082   3.671   0.662   2.802
 1910SOL      O 8083   3.513   0.844   3.693
 1910SOL     H1 8084   3.568   0.768   3.674
 1910SOL     H2 8085   3.515   0.852   3.788
 1910SOL    EPW 8086   3.521   0.835   3.701
 1911SOL      O 8087   2.563   1.577   1.904
 1911SOL     H1 8088   2.503   1.646   1.874
 1911SOL     H2 8089   2.508   1.519   1.957
 1911SOL    EPW 8090   2.547   1.579   1.906
 1912SOL      O 8091   3.001   0.222   2.127
 1912SOL     H1 8092   2.934   0.198   2.064
 1912SOL     H2 8093   3.066   0.271   2.076
 1912SOL    EPW 8094   3.001   0.224   2.112
 1913SOL      O 8095   2.808   0.406   3.212
 1913SOL     H1 8096   2.727   0.447   3.240
 1913SOL     H2 8097   2.855   0.474   3.164
 1913SOL    EPW 8098   2.803   0.421   3.210
 1914SOL      O 8099   3.068   0.744   2.835
 1914SOL     H1 8100   3.081   0.838   2.845
 1914SOL     H2 8101   3.029   0.734   2.749
 1914SOL    EPW 8102   3.064   0.755   2.825
 1915SOL      O 8103   2.520   0.939   2.639
 1915SOL     H1 8104   2.431   0.930   2.672
 1915SOL     H2 8105   2.524   1.029   2.607
 1915SOL    EPW 8106   2.509   0.950   2.639
 1916SOL      O 8107   3.319   0.522   2.634
 1916SOL     H1 8108   3.264   0.443   2.633
 1916SOL     H2 8109   3.301   0.563   2.718
 1916SOL    EPW 8110   3.309   0.517   2.643
 1917SOL      O 8111   2.290   0.209   3.451
 1917SOL     H1 8112   2.211   0.227   3.503
 1917SOL     H2 8113   2.285   0.271   3.378
 1917SOL    EPW 8114   2.280   0.219   3.448
 1918SOL      O 8115   2.938   0.726   2.591
 1918SOL     H1 8116   2.875   0.658   2.615
 1918SOL     H2 8117   2.958   0.707   2.499
 1918SOL    EPW 8118   2.932   0.713   2.583
 1919SOL      O 8119   2.194   1.621   2.293
 1919SOL     H1 8120   2.155   1.668   2.219
 1919SOL     H2 8121   2.128   1.556   2.318
 1919SOL    EPW 8122   2.181   1.619   2.287
 1920SOL      O 8123   2.686   1.030   2.317
 1920SOL     H1 8124   2.688   1.004   2.224
 1920SOL     H2 8125   2.744   0.967   2.360
 1920SOL    EPW 8126   2.694   1.019   2.311
 1921SOL      O 8127   3.239   1.590   3.089
 1921SOL     H1 8128   3.164   1.636   3.127
 1921SOL     H2 8129   3.221   1.497   3.106
 1921SOL    EPW 8130   3.228   1.584   3.097
 1922SOL      O 8131   3.243   1.798   2.519
 1922SOL     H1 8132   3.186   1.751   2.458
 1922SOL     H2 8133   3.329   1.759   2.506
 1922SOL    EPW 8134   3.246   1.789   2.509
 1923SOL      O 8135   3.196   0.274   2.650
 1923SOL     H1 8136   3.224   0.206   2.711
 1923SOL     H2 8137   3.110   0.245   2.620
 1923SOL    EPW 8138   3.189   0.261   2.654
 1924SOL      O 8139   2.001   1.208   2.584
 1924SOL     H1 8140   2.065   1.240   2.647
 1924SOL     H2 8141   2.050   1.144   2.532
 1924SOL    EPW 8142   2.016   1.204   2.585
 1925SOL      O 8143   2.501   1.284   3.566
 1925SOL     H1 8144   2.549   1.367   3.553
 1925SOL     H2 8145   2.558   1.232   3.622
 1925SOL    EPW 8146   2.515   1.288   3.572
 1926SOL      O 8147   2.077   1.526   3.706
 1926SOL     H1 8148   2.133   1.450   3.721
 1926SOL     H2 8149   2.026   1.504   3.628
 1926SOL    EPW 8150   2.077   1.513   3.697
 1927SOL      O 8151   3.176   0.378   1.985
 1927SOL     H1 8152   3.149   0.444   1.921
 1927SOL     H2 8153   3.246   0.421   2.035
 1927SOL    EPW 8154   3.181   0.391   1.982
 1928SOL      O 8155   2.844   0.083   1.922
 1928SOL     H1 8156   2.900   0.075   1.844
 1928SOL     H2 8157   2.821  -0.007   1.944
 1928SOL    EPW 8158   2.849   0.070   1.915
 1929SOL      O 8159   3.349   0.934   2.127
 1929SOL     H1 8160   3.316   1.023   2.117
 1929SOL     H2 8161   3.314   0.905   2.212
 1929SOL    EPW 8162   3.339   0.943   2.138
 1930SOL      O 8163   2.962   1.363   3.315
 1930SOL     H1 8164   2.873   1.369   3.283
 1930SOL     H2 8165   3.006   1.442   3.283
 1930SOL    EPW 8166   2.957   1.373   3.307
 1931SOL      O 8167   2.255   0.031   3.657
 1931SOL     H1 8168   2.183  -0.004   3.605
 1931SOL     H2 8169   2.313   0.072   3.592
 1931SOL    EPW 8170   2.253   0.032   3.642
 1932SOL      O 8171   2.279   1.521   2.956
 1932SOL     H1 8172   2.324   1.583   3.013
 1932SOL     H2 8173   2.186   1.540   2.969
 1932SOL    EPW 8174   2.272   1.531   2.963
 1933SOL      O 8175   3.719   1.050   3.310
 1933SOL     H1 8176   3.634   1.063   3.269
 1933SOL     H2 8177   3.699   1.014   3.397
 1933SOL    EPW 8178   3.706   1.046   3.315
 1934SOL      O 8179   2.701   1.589   3.064
 1934SOL     H1 8180   2.725   1.578   2.973
 1934SOL     H2 8181   2.624   1.646   3.062
 1934SOL    EPW 8182   2.693   1.594   3.053
 1935SOL      O 8183   2.343   0.972   1.919
 1935SOL     H1 8184   2.266   0.985   1.975
 1935SOL     H2 8185   2.307   0.936   1.838
 1935SOL    EPW 8186   2.329   0.968   1.916
 1936SOL      O 8187   2.996   0.945   2.162
 1936SOL     H1 8188   2.906   0.966   2.137
 1936SOL     H2 8189   3.023   1.018   2.218
 1936SOL    EPW 8190   2.988   0.957   2.165
 1937SOL      O 8191   2.496   1.294   2.854
 1937SOL     H1 8192   2.489   1.273   2.948
 1937SOL     H2 8193   2.414   1.262   2.817
 1937SOL    EPW 8194   2.484   1.288   2.861
 1938SOL      O 8195   3.360   0.304   3.256
 1938SOL     H1 8196   3.307   0.306   3.336
 1938SOL     H2 8197   3.345   0.217   3.219
 1938SOL    EPW 8198   3.352   0.294   3.261
 1939SOL      O 8199   3.696   0.228   3.129
 1939SOL     H1 8200   3.677   0.295   3.064
 1939SOL     H2 8201   3.753   0.166   3.084
 1939SOL    EPW 8202   3.700   0.229   3.115
 1940SOL      O 8203   1.942   1.386   3.517
 1940SOL     H1 8204   1.986   1.319   3.463
 1940SOL     H2 8205   1.857   1.348   3.537
 1940SOL    EPW 8206   1.937   1.372   3.513
 1941SOL      O 8207   2.625   0.061   2.569
 1941SOL     H1 8208   2.554   0.122   2.551
 1941SOL     H2 8209   2.676   0.058   2.488
 1941SOL    EPW 8210   2.621   0.067   2.556
 1942SOL      O 8211   2.383   1.301   2.318
 1942SOL     H1 8212   2.376   1.333   2.408
 1942SOL     H2 8213   2.293   1.285   2.290
 1942SOL    EPW 8214   2.371   1.303   2.325
 1943SOL      O 8215   2.978   1.694   3.227
 1943SOL     H1 8216   2.898   1.679   3.177
 1943SOL     H2 8217   2.985   1.789   3.234
 1943SOL    EPW 8218   2.969   1.705   3.221
 1944SOL      O 8219   3.092   1.659   2.717
 1944SOL     H1 8220   3.139   1.732   2.676
 1944SOL     H2 8221   3.013   1.698   2.753
 1944SOL    EPW 8222   3.087   1.674   2.716
 1945SOL      O 8223   3.500   1.754   2.992
 1945SOL     H1 8224   3.543   1.724   3.072
 1945SOL     H2 8225   3.419   1.702   2.989
 1945SOL    EPW 8226   3.495   1.743   3.002
 1946SOL      O 8227   2.585   0.718   3.699
 1946SOL     H1 8228   2.655   0.660   3.671
 1946SOL     H2 8229   2.528   0.663   3.754
 1946SOL    EPW 8230   2.587   0.705   3.703
 1947SOL      O 8231   3.372   0.930   3.332
 1947SOL     H1 8232   3.377   0.983   3.412
 1947SOL     H2 8233   3.334   0.847   3.360
 1947SOL    EPW 8234   3.368   0.925   3.347
 1948SOL      O 8235   3.012   0.065   3.578
 1948SOL     H1 8236   3.007  -0.028   3.559
 1948SOL     H2 8237   3.095   0.076   3.624
 1948SOL    EPW 8238   3.020   0.054   3.582
 1949SOL      O 8239   3.482   1.336   2.854
 1949SOL     H1 8240   3.517   1.318   2.767
 1949SOL     H2 8241   3.387   1.337   2.841
 1949SOL    EPW 8242   3.474   1.333   2.841
 1950SOL      O 8243   2.911   0.984   3.223
 1950SOL     H1 8244   2.954   1.019   3.301
 1950SOL     H2 8245   2.894   1.061   3.169
 1950SOL    EPW 8246   2.914   0.999   3.226
 1951SOL      O 8247   3.442   0.471   2.096
 1951SOL     H1 8248   3.434   0.542   2.033
 1951SOL     H2 8249   3.460   0.515   2.179
 1951SOL    EPW 8250   3.443   0.485   2.098
 1952SOL      O 8251   2.302   0.126   2.525
 1952SOL     H1 8252   2.352   0.169   2.456
 1952SOL     H2 8253   2.217   0.170   2.525
 1952SOL    EPW 8254   2.299   0.139   2.516
 1953SOL      O 8255   2.061   1.188   3.385
 1953SOL     H1 8256   2.089   1.141   3.463
 1953SOL     H2 8257   1.982   1.143   3.356
 1953SOL    EPW 8258   2.054   1.177   3.391
 1954SOL      O 8259   2.569   0.515   3.352
 1954SOL     H1 8260   2.541   0.603   3.376
 1954SOL     H2 8261   2.538   0.459   3.423
 1954SOL    EPW 8262   2.561   0.518   3.364
 1955SOL      O 8263   3.111   0.733   2.071
 1955SOL     H1 8264   3.158   0.751   1.990
 1955SOL     H2 8265   3.077   0.817   2.099
 1955SOL    EPW 8266   3.113   0.747   2.064
 1956SOL      O 8267   2.224   0.911   2.565
 1956SOL     H1 8268   2.282   0.967   2.513
 1956SOL     H2 8269   2.268   0.826   2.567
 1956SOL    EPW 8270   2.237   0.908   2.558
 1957SOL      O 8271   3.364   0.263   2.402
 1957SOL     H1 8272   3.286   0.213   2.427
 1957SOL     H2 8273   3.335   0.354   2.402
 1957SOL    EPW 8274   3.350   0.267   2.405
 1958SOL      O 8275   2.950   0.225   2.561
 1958SOL     H1 8276   2.970   0.300   2.505
 1958SOL     H2 8277   2.930   0.264   2.646
 1958SOL    EPW 8278   2.951   0.241   2.565
 1959SOL      O 8279   2.846   1.475   1.893
 1959SOL     H1 8280   2.873   1.553   1.845
 1959SOL     H2 8281   2.753   1.490   1.912
 1959SOL    EPW 8282   2.837   1.488   1.889
 1960SOL      O 8283   3.710   0.998   3.580
 1960SOL     H1 8284   3.623   0.978   3.616
 1960SOL     H2 8285   3.764   0.924   3.605
 1960SOL    EPW 8286   3.705   0.987   3.588
 1961SOL      O 8287   1.931   1.511   2.737
 1961SOL     H1 8288   1.963   1.515   2.828
 1961SOL     H2 8289   1.836   1.519   2.745
 1961SOL    EPW 8290   1.923   1.514   2.750
 1962SOL      O 8291   1.886   0.637   2.284
 1962SOL     H1 8292   1.826   0.609   2.354
 1962SOL     H2 8293   1.960   0.577   2.290
 1962SOL    EPW 8294   1.888   0.626   2.293
 1963SOL      O 8295   3.454   1.849   3.718
 1963SOL     H1 8296   3.499   1.773   3.683
 1963SOL     H2 8297   3.492   1.862   3.805
 1963SOL    EPW 8298   3.464   1.842   3.724
 1964SOL      O 8299   3.054   1.368   2.444
 1964SOL     H1 8300   3.077   1.319   2.522
 1964SOL     H2 8301   3.135   1.410   2.416
 1964SOL    EPW 8302   3.067   1.368   2.451
 1965SOL      O 8303   2.312   0.376   3.173
 1965SOL     H1 8304   2.345   0.457   3.213
 1965SOL     H2 8305   2.285   0.402   3.085
 1965SOL    EPW 8306   2.311   0.390   3.167
 1966SOL      O 8307   2.266   0.343   2.909
 1966SOL     H1 8308   2.296   0.257   2.880
 1966SOL     H2 8309   2.171   0.336   2.912
 1966SOL    EPW 8310   2.258   0.332   2.907
 1967SOL      O 8311   3.095   0.552   3.600
 1967SOL     H1 8312   3.147   0.487   3.553
 1967SOL     H2 8313   3.053   0.603   3.530
 1967SOL    EPW 8314   3.096   0.549   3.583
 1968SOL      O 8315   3.194   0.347   3.461
 1968SOL     H1 8316   3.101   0.331   3.448
 1968SOL     H2 8317   3.220   0.285   3.529
 1968SOL    EPW 8318   3.184   0.337   3.468
 1969SOL      O 8319   2.409   0.121   2.800
 1969SOL     H1 8320   2.419   0.030   2.826
 1969SOL     H2 8321   2.365   0.117   2.715
 1969SOL    EPW 8322   2.405   0.109   2.792
 1970SOL      O 8323   2.503   1.736   3.346
 1970SOL     H1 8324   2.420   1.721   3.391
 1970SOL     H2 8325   2.562   1.669   3.381
 1970SOL    EPW 8326   2.501   1.726   3.356
 1971SOL      O 8327   3.560   0.443   2.971
 1971SOL     H1 8328   3.493   0.476   3.031
 1971SOL     H2 8329   3.603   0.521   2.937
 1971SOL    EPW 8330   3.558   0.458   2.975
 1972SOL      O 8331   3.738   1.163   2.941
 1972SOL     H1 8332   3.731   1.103   2.866
 1972SOL     H2 8333   3.664   1.223   2.930
 1972SOL    EPW 8334   3.728   1.163   2.930
 1973SOL      O 8335   3.120   1.025   2.859
 1973SOL     H1 8336   3.134   0.997   2.950
 1973SOL     H2 8337   3.206   1.056   2.831
 1973SOL    EPW 8338   3.133   1.026   2.868
 1974SOL      O 8339   3.203   0.520   3.138
 1974SOL     H1 8340   3.224   0.521   3.045
 1974SOL     H2 8341   3.248   0.442   3.171
 1974SOL    EPW 8342   3.210   0.510   3.130
 1975SOL      O 8343   3.696   0.651   3.680
 1975SOL     H1 8344   3.733   0.596   3.749
 1975SOL     H2 8345   3.721   0.608   3.598
 1975SOL    EPW 8346   3.703   0.639   3.679
 1976SOL      O 8347   3.243   0.949   3.731
 1976SOL     H1 8348   3.309   0.897   3.685
 1976SOL     H2 8349   3.263   0.936   3.824
 1976SOL    EPW 8350   3.254   0.940   3.738
 1977SOL      O 8351   3.194   0.035   2.080
 1977SOL     H1 8352   3.268   0.079   2.123
 1977SOL     H2 8353   3.118   0.089   2.102
 1977SOL    EPW 8354   3.194   0.047   2.088
 1978SOL      O 8355   3.254   0.810   2.358
 1978SOL     H1 8356   3.169   0.780   2.328
 1978SOL     H2 8357   3.246   0.817   2.453
 1978SOL    EPW 8358   3.242   0.808   2.367
 1979SOL      O 8359   2.330   1.273   3.089
 1979SOL     H1 8360   2.342   1.300   3.180
 1979SOL     H2 8361   2.311   1.354   3.042
 1979SOL    EPW 8362   2.329   1.288   3.094
 1980SOL      O 8363   2.614   0.253   2.912
 1980SOL     H1 8364   2.587   0.255   3.003
 1980SOL     H2 8365   2.544   0.205   2.867
 1980SOL    EPW 8366   2.602   0.249   2.919
 1981SOL      O 8367   2.468   1.745   3.074
 1981SOL     H1 8368   2.520   1.822   3.051
 1981SOL     H2 8369   2.477   1.737   3.169
 1981SOL    EPW 8370   2.477   1.752   3.085
 1982SOL      O 8371   3.370   1.330   3.306
 1982SOL     H1 8372   3.355   1.259   3.369
 1982SOL     H2 8373   3.416   1.288   3.234
 1982SOL    EPW 8374   3.376   1.314   3.306
 1983SOL      O 8375   2.444   1.061   3.423
 1983SOL     H1 8376   2.481   1.066   3.335
 1983SOL     H2 8377   2.483   1.134   3.470
 1983SOL    EPW 8378   2.454   1.071   3.418
 1984SOL      O 8379   2.624   1.104   3.235
 1984SOL     H1 8380   2.683   1.050   3.288
 1984SOL     H2 8381   2.639   1.076   3.145
 1984SOL    EPW 8382   2.634   1.093   3.231
 1985SOL      O 8383   2.627   0.476   2.084
 1985SOL     H1 8384   2.700   0.525   2.047
 1985SOL     H2 8385   2.643   0.385   2.058
 1985SOL    EPW 8386   2.639   0.471   2.077
 1986SOL      O 8387   3.435   1.593   3.407
 1986SOL     H1 8388   3.477   1.578   3.492
 1986SOL     H2 8389   3.426   1.506   3.369
 1986SOL    EPW 8390   3.439   1.581   3.414
 1987SOL      O 8391   3.095   0.072   2.998
 1987SOL     H1 8392   3.150   0.081   2.920
 1987SOL     H2 8393   3.150   0.106   3.069
 1987SOL    EPW 8394   3.109   0.077   2.997
 1988SOL      O 8395   2.102   0.985   2.182
 1988SOL     H1 8396   2.039   1.001   2.111
 1988SOL     H2 8397   2.049   0.948   2.253
 1988SOL    EPW 8398   2.087   0.982   2.182
 1989SOL      O 8399   2.458   1.339   2.041
 1989SOL     H1 8400   2.473   1.315   2.133
 1989SOL     H2 8401   2.366   1.317   2.025
 1989SOL    EPW 8402   2.448   1.332   2.051
 1990SOL      O 8403   2.997   1.570   2.193
 1990SOL     H1 8404   3.005   1.488   2.144
 1990SOL     H2 8405   2.916   1.609   2.160
 1990SOL    EPW 8406   2.987   1.565   2.183
 1991SOL      O 8407   2.256   1.728   2.762
 1991SOL     H1 8408   2.260   1.639   2.797
 1991SOL     H2 8409   2.282   1.719   2.671
 1991SOL    EPW 8410   2.259   1.716   2.754
 1992SOL      O 8411   2.873   1.206   3.005
 1992SOL     H1 8412   2.805   1.140   3.021
 1992SOL     H2 8413   2.891   1.200   2.912
 1992SOL    EPW 8414   2.866   1.197   2.996
 1993SOL      O 8415   1.962   1.481   3.256
 1993SOL     H1 8416   1.952   1.439   3.342
 1993SOL     H2 8417   1.883   1.534   3.246
 1993SOL    EPW 8418   1.951   1.482   3.267
 1994SOL      O 8419   2.866   0.345   2.826
 1994SOL     H1 8420   2.796   0.297   2.871
 1994SOL     H2 8421   2.898   0.408   2.890
 1994SOL    EPW 8422   2.861   0.347   2.840
 1995SOL      O 8423   2.517   0.781   3.446
 1995SOL     H1 8424   2.510   0.876   3.434
 1995SOL     H2 8425   2.526   0.770   3.541
 1995SOL    EPW 8426   2.518   0.793   3.456
 1996SOL      O 8427   2.238   1.296   3.704
 1996SOL     H1 8428   2.310   1.298   3.641
 1996SOL     H2 8429   2.208   1.205   3.703
 1996SOL    EPW 8430   2.243   1.285   3.696
 1997SOL      O 8431   3.322   0.059   3.171
 1997SOL     H1 8432   3.393   0.005   3.135
 1997SOL     H2 8433   3.321   0.038   3.264
 1997SOL    EPW 8434   3.331   0.050   3.179
 1998SOL      O 8435   3.522   1.589   3.655
 1998SOL     H1 8436   3.495   1.586   3.746
 1998SOL     H2 8437   3.618   1.593   3.658
 1998SOL    EPW 8438   3.532   1.589   3.667
 1999SOL      O 8439   2.333   0.451   2.639
 1999SOL     H1 8440   2.404   0.399   2.602
 1999SOL     H2 8441   2.319   0.416   2.726
 1999SOL    EPW 8442   2.341   0.440   2.646
 2000SOL      O 8443   1.888   1.786   3.711
 2000SOL     H1 8444   1.938   1.764   3.633
 2000SOL     H2 8445   1.896   1.881   3.719
 2000SOL    EPW 8446   1.896   1.795   3.702
 2001SOL      O 8447   2.649   1.544   2.715
 2001SOL     H1 8448   2.577   1.481   2.728
 2001SOL     H2 8449   2.610   1.629   2.733
 2001SOL    EPW 8450   2.633   1.547   2.718
 2002SOL      O 8451   2.969   0.392   2.363
 2002SOL     H1 8452   2.991   0.329   2.295
 2002SOL     H2 8453   2.874   0.384   2.374
 2002SOL    EPW 8454   2.959   0.383   2.355
 2003SOL      O 8455   2.054   0.082   2.295
 2003SOL     H1 8456   2.125   0.103   2.234
 2003SOL     H2 8457   2.008   0.010   2.253
 2003SOL    EPW 8458   2.058   0.076   2.281
 2004SOL      O 8459   1.885   0.549   3.438
 2004SOL     H1 8460   1.949   0.615   3.413
 2004SOL     H2 8461   1.804   0.576   3.395
 2004SOL    EPW 8462   1.883   0.561   3.430
 2005SOL      O 8463   3.623   1.456   2.395
 2005SOL     H1 8464   3.593   1.389   2.456
 2005SOL     H2 8465   3.717   1.462   2.409
 2005SOL    EPW 8466   3.631   1.448   2.405
 2006SOL      O 8467   3.179   1.133   2.325
 2006SOL     H1 8468   3.151   1.219   2.358
 2006SOL     H2 8469   3.207   1.149   2.235
 2006SOL    EPW 8470   3.179   1.147   2.317
 2007SOL      O 8471   2.841   0.053   2.378
 2007SOL     H1 8472   2.878   0.112   2.443
 2007SOL     H2 8473   2.818   0.109   2.304
 2007SOL    EPW 8474   2.842   0.068   2.377
 2008SOL      O 8475   3.694   0.935   2.800
 2008SOL     H1 8476   3.685   0.967   2.711
 2008SOL     H2 8477   3.647   0.851   2.800
 2008SOL    EPW 8478   3.687   0.928   2.790
 2009SOL      O 8479   2.070   0.775   3.379
 2009SOL     H1 8480   2.091   0.844   3.317
 2009SOL     H2 8481   2.150   0.722   3.384
 2009SOL    EPW 8482   2.083   0.776   3.373
 2010SOL      O 8483   3.606   0.866   2.501
 2010SOL     H1 8484   3.700   0.855   2.489
 2010SOL     H2 8485   3.582   0.938   2.442
 2010SOL    EPW 8486   3.616   0.874   2.492
 2011SOL      O 8487   2.055   0.790   3.646
 2011SOL     H1 8488   1.981   0.734   3.672
 2011SOL     H2 8489   2.050   0.793   3.551
 2011SOL    EPW 8490   2.044   0.783   3.636
 2012SOL      O 8491   2.221   0.077   3.096
 2012SOL     H1 8492   2.264   0.161   3.116
 2012SOL     H2 8493   2.294   0.015   3.089
 2012SOL    EPW 8494   2.236   0.080   3.097
 2013SOL      O 8495   2.262   0.744   2.274
 2013SOL     H1 8496   2.262   0.839   2.259
 2013SOL     H2 8497   2.339   0.728   2.328
 2013SOL    EPW 8498   2.272   0.755   2.279
 2014SOL      O 8499   3.038   0.603   3.338
 2014SOL     H1 8500   3.074   0.576   3.254
 2014SOL     H2 8501   2.951   0.637   3.317
 2014SOL    EPW 8502   3.032   0.604   3.325
 2015SOL      O 8503   2.021   0.475   2.563
 2015SOL     H1 8504   2.083   0.482   2.636
 2015SOL     H2 8505   2.021   0.382   2.540
 2015SOL    EPW 8506   2.029   0.464   2.570
 2016SOL      O 8507   3.568   1.815   2.095
 2016SOL     H1 8508   3.635   1.848   2.035
 2016SOL     H2 8509   3.525   1.894   2.129
 2016SOL    EPW 8510   3.570   1.830   2.091
 2017SOL      O 8511   3.374   1.869   3.446
 2017SOL     H1 8512   3.377   1.775   3.429
 2017SOL     H2 8513   3.397   1.877   3.538
 2017SOL    EPW 8514   3.377   1.857   3.456
 2018SOL      O 8515   2.507   0.206   3.152
 2018SOL     H1 8516   2.438   0.269   3.173
 2018SOL     H2 8517   2.534   0.170   3.237
 2018SOL    EPW 8518   2.501   0.209   3.165
 2019SOL      O 8519   1.890   1.047   2.021
 2019SOL     H1 8520   1.859   1.112   2.084
 2019SOL     H2 8521   1.839   0.969   2.040
 2019SOL    EPW 8522   1.880   1.044   2.031
 2020SOL      O 8523   3.302   0.059   2.769
 2020SOL     H1 8524   3.390   0.068   2.806
 2020SOL     H2 8525   3.312   0.000   2.695
 2020SOL    EPW 8526   3.316   0.053   2.763
 2021SOL      O 8527   3.334   0.798   2.613
 2021SOL     H1 8528   3.414   0.813   2.562
 2021SOL     H2 8529   3.327   0.703   2.619
 2021SOL    EPW 8530   3.343   0.787   2.608
 2022SOL      O 8531   2.474   1.847   1.963
 2022SOL     H1 8532   2.379   1.847   1.955
 2022SOL     H2 8533   2.490   1.793   2.041
 2022SOL    EPW 8534   2.464   1.841   1.972
 2023SOL      O 8535   2.784   0.724   3.310
 2023SOL     H1 8536   2.853   0.791   3.307
 2023SOL     H2 8537   2.717   0.762   3.366
 2023SOL    EPW 8538   2.785   0.737   3.317
 2024SOL      O 8539   2.202   1.024   3.558
 2024SOL     H1 8540   2.156   0.940   3.560
 2024SOL     H2 8541   2.259   1.018   3.482
 2024SOL    EPW 8542   2.204   1.012   3.550
 2025SOL      O 8543   3.319   0.667   1.879
 2025SOL     H1 8544   3.247   0.643   1.821
 2025SOL     H2 8545   3.385   0.704   1.821
 2025SOL    EPW 8546   3.318   0.669   1.864
 2026SOL      O 8547   2.453   1.399   2.559
 2026SOL     H1 8548   2.518   1.332   2.580
 2026SOL     H2 8549   2.505   1.476   2.536
 2026SOL    EPW 8550   2.468   1.401   2.558
 2027SOL      O 8551   2.714   0.564   2.689
 2027SOL     H1 8552   2.654   0.582   2.761
 2027SOL     H2 8553   2.748   0.476   2.708
 2027SOL    EPW 8554   2.710   0.554   2.702
 2028SOL      O 8555   3.655   0.063   3.358
 2028SOL     H1 8556   3.576   0.109   3.386
 2028SOL     H2 8557   3.690   0.117   3.287
 2028SOL    EPW 8558   3.649   0.076   3.352
 2029SOL      O 8559   2.939   1.147   2.708
 2029SOL     H1 8560   3.031   1.128   2.726
 2029SOL     H2 8561   2.912   1.077   2.648
 2029SOL    EPW 8562   2.947   1.135   2.702
 2030SOL      O 8563   2.732   0.967   2.063
 2030SOL     H1 8564   2.718   0.879   2.028
 2030SOL     H2 8565   2.683   1.024   2.004
 2030SOL    EPW 8566   2.724   0.962   2.051
 2031SOL      O 8567   3.213   1.385   2.804
 2031SOL     H1 8568   3.186   1.469   2.769
 2031SOL     H2 8569   3.173   1.380   2.891
 2031SOL    EPW 8570   3.206   1.394   2.810
 2032SOL      O 8571   3.132   1.333   3.072
 2032SOL     H1 8572   3.143   1.300   3.161
 2032SOL     H2 8573   3.051   1.292   3.041
 2032SOL    EPW 8574   3.122   1.325   3.078
 2033SOL      O 8575   2.145   0.691   2.842
 2033SOL     H1 8576   2.095   0.690   2.923
 2033SOL     H2 8577   2.165   0.783   2.826
 2033SOL    EPW 8578   2.141   0.703   2.850
 2034SOL      O 8579   3.212   1.455   3.604
 2034SOL     H1 8580   3.212   1.549   3.620
 2034SOL     H2 8581   3.257   1.445   3.520
 2034SOL    EPW 8582   3.218   1.465   3.595
 2035SOL      O 8583   3.451   0.173   2.165
 2035SOL     H1 8584   3.444   0.177   2.260
 2035SOL     H2 8585   3.463   0.264   2.138
 2035SOL    EPW 8586   3.452   0.186   2.173
 2036SOL      O 8587   2.740   0.736   2.279
 2036SOL     H1 8588   2.720   0.722   2.186
 2036SOL     H2 8589   2.833   0.715   2.286
 2036SOL    EPW 8590   2.750   0.731   2.268
 2037SOL      O 8591   2.067   0.359   3.583
 2037SOL     H1 8592   2.024   0.418   3.520
 2037SOL     H2 8593   2.135   0.414   3.623
 2037SOL    EPW 8594   2.071   0.374   3.580
 2038SOL      O 8595   3.179   0.979   3.128
 2038SOL     H1 8596   3.242   0.976   3.201
 2038SOL     H2 8597   3.095   0.997   3.170
 2038SOL    EPW 8598   3.175   0.981   3.143
 2039SOL      O 8599   2.723   1.694   2.317
 2039SOL     H1 8600   2.781   1.765   2.344
 2039SOL     H2 8601   2.746   1.622   2.375
 2039SOL    EPW 8602   2.734   1.694   2.328
 2040SOL      O 8603   3.518   0.156   2.907
 2040SOL     H1 8604   3.563   0.074   2.926
 2040SOL     H2 8605   3.538   0.212   2.983
 2040SOL    EPW 8606   3.528   0.152   2.919
 2041SOL      O 8607   1.966  -0.001   3.006
 2041SOL     H1 8608   1.957   0.000   2.911
 2041SOL     H2 8609   2.060   0.011   3.021
 2041SOL    EPW 8610   1.978   0.002   2.997
 2042SOL      O 8611   3.603   1.192   2.626
 2042SOL     H1 8612   3.582   1.138   2.549
 2042SOL     H2 8613   3.699   1.190   2.630
 2042SOL    EPW 8614   3.612   1.185   2.615
 2043SOL      O 8615   2.295   1.337   3.369
 2043SOL     H1 8616   2.216   1.287   3.392
 2043SOL     H2 8617   2.365   1.296   3.419
 2043SOL    EPW 8618   2.293   1.325   3.379
 2044SOL      O 8619   2.179   0.126   2.052
 2044SOL     H1 8620   2.108   0.181   2.020
 2044SOL     H2 8621   2.221   0.092   1.973
 2044SOL    EPW 8622   2.175   0.128   2.038
 2045SOL      O 8623   3.303   0.623   2.888
 2045SOL     H1 8624   3.226   0.669   2.854
 2045SOL     H2 8625   3.360   0.692   2.922
 2045SOL    EPW 8626   3.300   0.638   2.888
 2046SOL      O 8627   1.935   0.225   1.901
 2046SOL     H1 8628   1.902   0.304   1.945
 2046SOL     H2 8629   1.990   0.258   1.830
 2046SOL    EPW 8630   1.938   0.239   1.898
 2047SOL      O 8631   1.969   1.482   2.090
 2047SOL     H1 8632   1.986   1.566   2.132
 2047SOL     H2 8633   2.004   1.491   2.002
 2047SOL    EPW 8634   1.974   1.495   2.084
 2048SOL      O 8635   3.241   1.571   2.307
 2048SOL     H1 8636   3.304   1.561   2.236
 2048SOL     H2 8637   3.158   1.591   2.262
 2048SOL    EPW 8638   3.238   1.572   2.292
 2049SOL      O 8639   3.604   0.839   3.993
 2049SOL     H1 8640   3.645   0.781   4.058
 2049SOL     H2 8641   3.511   0.831   4.010
 2049SOL    EPW 8642   3.598   0.831   4.003
 2050SOL      O 8643   2.398   1.022   4.222
 2050SOL     H1 8644   2.488   0.997   4.206
 2050SOL     H2 8645   2.394   1.115   4.199
 2050SOL    EPW 8646   2.410   1.031   4.217
 2051SOL      O 8647   3.514   1.725   4.364
 2051SOL     H1 8648   3.526   1.671   4.442
 2051SOL     H2 8649   3.551   1.673   4.293
 2051SOL    EPW 8650   3.520   1.710   4.365
 2052SOL      O 8651   2.682   0.478   4.235
 2052SOL     H1 8652   2.657   0.566   4.263
 2052SOL     H2 8653   2.679   0.481   4.139
 2052SOL    EPW 8654   2.678   0.490   4.227
 2053SOL      O 8655   2.124   0.506   4.163
 2053SOL     H1 8656   2.156   0.594   4.145
 2053SOL     H2 8657   2.112   0.504   4.258
 2053SOL    EPW 8658   2.127   0.518   4.175
 2054SOL      O 8659   2.523   0.261   4.250
 2054SOL     H1 8660   2.581   0.337   4.252
 2054SOL     H2 8661   2.458   0.282   4.183
 2054SOL    EPW 8662   2.522   0.273   4.241
 2055SOL      O 8663   2.610   1.188   4.425
 2055SOL     H1 8664   2.690   1.191   4.477
 2055SOL     H2 8665   2.638   1.155   4.339
 2055SOL    EPW 8666   2.624   1.184   4.420
 2056SOL      O 8667   3.237   1.170   3.941
 2056SOL     H1 8668   3.155   1.206   3.907
 2056SOL     H2 8669   3.305   1.213   3.890
 2056SOL    EPW 8670   3.235   1.180   3.929
 2057SOL      O 8671   2.789   1.311   4.134
 2057SOL     H1 8672   2.766   1.373   4.202
 2057SOL     H2 8673   2.746   1.229   4.160
 2057SOL    EPW 8674   2.781   1.307   4.145
 2058SOL      O 8675   2.286   0.284   4.102
 2058SOL     H1 8676   2.260   0.246   4.018
 2058SOL     H2 8677   2.223   0.354   4.118
 2058SOL    EPW 8678   2.275   0.287   4.093
 2059SOL      O 8679   2.121   1.245   4.139
 2059SOL     H1 8680   2.069   1.313   4.095
 2059SOL     H2 8681   2.118   1.171   4.079
 2059SOL    EPW 8682   2.113   1.244   4.126
 2060SOL      O 8683   2.783   1.708   3.917
 2060SOL     H1 8684   2.738   1.724   4.000
 2060SOL     H2 8685   2.714   1.673   3.859
 2060SOL    EPW 8686   2.769   1.705   3.919
 2061SOL      O 8687   3.718   0.481   3.892
 2061SOL     H1 8688   3.627   0.483   3.920
 2061SOL     H2 8689   3.763   0.543   3.950
 2061SOL    EPW 8690   3.711   0.489   3.902
 2062SOL      O 8691   3.463   1.084   4.242
 2062SOL     H1 8692   3.373   1.084   4.277
 2062SOL     H2 8693   3.456   1.130   4.159
 2062SOL    EPW 8694   3.450   1.090   4.236
 2063SOL      O 8695   3.655   1.285   4.054
 2063SOL     H1 8696   3.611   1.326   4.129
 2063SOL     H2 8697   3.712   1.353   4.019
 2063SOL    EPW 8698   3.657   1.299   4.059
 2064SOL      O 8699   2.311   1.701   4.372
 2064SOL     H1 8700   2.343   1.789   4.350
 2064SOL     H2 8701   2.264   1.673   4.294
 2064SOL    EPW 8702   2.310   1.709   4.359
 2065SOL      O 8703   2.027   1.761   3.949
 2065SOL     H1 8704   2.056   1.851   3.941
 2065SOL     H2 8705   1.977   1.744   3.870
 2065SOL    EPW 8706   2.025   1.769   3.938
 2066SOL      O 8707   3.431   1.569   3.920
 2066SOL     H1 8708   3.479   1.638   3.966
 2066SOL     H2 8709   3.352   1.613   3.889
 2066SOL    EPW 8710   3.426   1.583   3.923
 2067SOL      O 8711   2.829   0.694   3.864
 2067SOL     H1 8712   2.831   0.641   3.785
 2067SOL     H2 8713   2.917   0.731   3.870
 2067SOL    EPW 8714   2.841   0.693   3.853
 2068SOL      O 8715   2.056   0.220   4.395
 2068SOL     H1 8716   2.047   0.160   4.321
 2068SOL     H2 8717   1.989   0.191   4.458
 2068SOL    EPW 8718   2.046   0.207   4.393
 2069SOL      O 8719   2.999   1.313   3.956
 2069SOL     H1 8720   2.949   1.315   4.038
 2069SOL     H2 8721   2.933   1.331   3.888
 2069SOL    EPW 8722   2.985   1.315   3.958
 2070SOL      O 8723   2.462   1.731   4.064
 2070SOL     H1 8724   2.383   1.689   4.097
 2070SOL     H2 8725   2.528   1.714   4.131
 2070SOL    EPW 8726   2.461   1.723   4.077
 2071SOL      O 8727   2.598   1.146   3.771
 2071SOL     H1 8728   2.520   1.092   3.758
 2071SOL     H2 8729   2.569   1.219   3.824
 2071SOL    EPW 8730   2.584   1.148   3.776
 2072SOL      O 8731   3.179   1.662   3.839
 2072SOL     H1 8732   3.105   1.625   3.889
 2072SOL     H2 8733   3.187   1.752   3.872
 2072SOL    EPW 8734   3.170   1.669   3.851
 2073SOL      O 8735   3.403   1.336   3.781
 2073SOL     H1 8736   3.350   1.385   3.717
 2073SOL     H2 8737   3.434   1.402   3.842
 2073SOL    EPW 8738   3.401   1.350   3.779
 2074SOL      O 8739   2.628   0.225   3.836
 2074SOL     H1 8740   2.576   0.145   3.824
 2074SOL     H2 8741   2.715   0.202   3.804
 2074SOL    EPW 8742   2.631   0.211   3.830
 2075SOL      O 8743   1.989   0.865   4.293
 2075SOL     H1 8744   2.080   0.880   4.320
 2075SOL     H2 8745   1.992   0.786   4.239
 2075SOL    EPW 8746   2.001   0.857   4.291
 2076SOL      O 8747   1.997   1.477   4.332
 2076SOL     H1 8748   1.969   1.516   4.414
 2076SOL     H2 8749   2.017   1.386   4.354
 2076SOL    EPW 8750   1.995   1.469   4.345
 2077SOL      O 8751   2.830   1.520   4.367
 2077SOL     H1 8752   2.913   1.474   4.351
 2077SOL     H2 8753   2.820   1.519   4.463
 2077SOL    EPW 8754   2.840   1.513   4.377
 2078SOL      O 8755   2.563   1.577   3.772
 2078SOL     H1 8756   2.503   1.646   3.742
 2078SOL     H2 8757   2.508   1.519   3.825
 2078SOL    EPW 8758   2.547   1.579   3.774
 2079SOL      O 8759   3.001   0.222   3.995
 2079SOL     H1 8760   2.934   0.198   3.932
 2079SOL     H2 8761   3.066   0.271   3.944
 2079SOL    EPW 8762   3.001   0.224   3.980
 2080SOL      O 8763   2.194   1.621   4.161
 2080SOL     H1 8764   2.155   1.668   4.087
 2080SOL     H2 8765   2.128   1.556   4.186
 2080SOL    EPW 8766   2.181   1.619   4.155
 2081SOL      O 8767   2.686   1.030   4.185
 2081SOL     H1 8768   2.688   1.004   4.092
 2081SOL     H2 8769   2.744   0.967   4.228
 2081SOL    EPW 8770   2.694   1.019   4.179
 2082SOL      O 8771   2.001   1.208   4.452
 2082SOL     H1 8772   2.065   1.240   4.515
 2082SOL     H2 8773   2.050   1.144   4.400
 2082SOL    EPW 8774   2.016   1.204   4.453
 2083SOL      O 8775   3.176   0.378   3.853
 2083SOL     H1 8776   3.149   0.444   3.789
 2083SOL     H2 8777   3.246   0.421   3.903
 2083SOL    EPW 8778   3.181   0.391   3.850
 2084SOL      O 8779   2.844   0.083   3.790
 2084SOL     H1 8780   2.900   0.075   3.712
 2084SOL     H2 8781   2.821  -0.007   3.812
 2084SOL    EPW 8782   2.849   0.070   3.783
 2085SOL      O 8783   3.349   0.934   3.995
 2085SOL     H1 8784   3.316   1.023   3.985
 2085SOL     H2 8785   3.314   0.905   4.080
 2085SOL    EPW 8786   3.339   0.943   4.006
 2086SOL      O 8787   2.343   0.972   3.787
 2086SOL     H1 8788   2.266   0.985   3.843
 2086SOL     H2 8789   2.307   0.936   3.706
 2086SOL    EPW 8790   2.329   0.968   3.784
 2087SOL      O 8791   2.625   0.061   4.437
 2087SOL     H1 8792   2.554   0.122   4.419
 2087SOL     H2 8793   2.676   0.058   4.356
 2087SOL    EPW 8794   2.621   0.067   4.424
 2088SOL      O 8795   2.383   1.301   4.186
 2088SOL     H1 8796   2.376   1.333   4.276
 2088SOL     H2 8797   2.293   1.285   4.158
 2088SOL    EPW 8798   2.371   1.303   4.193
 2089SOL      O 8799   2.386   0.585   3.900
 2089SOL     H1 8800   2.352   0.641   3.970
 2089SOL     H2 8801   2.457   0.535   3.940
 2089SOL    EPW 8802   2.392   0.586   3.914
 2090SOL      O 8803   3.442   0.471   3.964
 2090SOL     H1 8804   3.434   0.542   3.901
 2090SOL     H2 8805   3.460   0.515   4.047
 2090SOL    EPW 8806   3.443   0.485   3.966
 2091SOL      O 8807   2.302   0.126   4.393
 2091SOL     H1 8808   2.352   0.169   4.324
 2091SOL     H2 8809   2.217   0.170   4.393
 2091SOL    EPW 8810   2.299   0.139   4.384
 2092SOL      O 8811   3.111   0.733   3.939
 2092SOL     H1 8812   3.158   0.751   3.858
 2092SOL     H2 8813   3.077   0.817   3.967
 2092SOL    EPW 8814   3.113   0.747   3.932
 2093SOL      O 8815   2.224   0.911   4.433
 2093SOL     H1 8816   2.282   0.967   4.381
 2093SOL     H2 8817   2.268   0.826   4.435
 2093SOL    EPW 8818   2.237   0.908   4.426
 2094SOL      O 8819   2.846   1.475   3.761
 2094SOL     H1 8820   2.873   1.553   3.713
 2094SOL     H2 8821   2.753   1.490   3.780
 2094SOL    EPW 8822   2.837   1.488   3.757
 2095SOL      O 8823   1.886   0.637   4.152
 2095SOL     H1 8824   1.826   0.609   4.222
 2095SOL     H2 8825   1.960   0.577   4.158
 2095SOL    EPW 8826   1.888   0.626   4.161
 2096SOL      O 8827   3.194   0.035   3.948
 2096SOL     H1 8828   3.268   0.079   3.991
 2096SOL     H2 8829   3.118   0.089   3.970
 2096SOL    EPW 8830   3.194   0.047   3.956
 2097SOL      O 8831   2.627   0.476   3.952
 2097SOL     H1 8832   2.700   0.525   3.915
 2097SOL     H2 8833   2.643   0.385   3.926
 2097SOL    EPW 8834   2.639   0.471   3.945
 2098SOL      O 8835   2.102   0.985   4.050
 2098SOL     H1 8836   2.039   1.001   3.979
 2098SOL     H2 8837   2.049   0.948   4.121
 2098SOL    EPW 8838   2.087   0.982   4.050
 2099SOL      O 8839   2.458   1.339   3.909
 2099SOL     H1 8840   2.473   1.315   4.001
 2099SOL     H2 8841   2.366   1.317   3.893
 2099SOL    EPW 8842   2.448   1.332   3.919
 2100SOL      O 8843   2.997   1.570   4.061
 2100SOL     H1 8844   3.005   1.488   4.012
 2100SOL     H2 8845   2.916   1.609   4.028
 2100SOL    EPW 8846   2.987   1.565   4.051
 2101SOL      O 8847   2.054   0.082   4.163
 2101SOL     H1 8848   2.125   0.103   4.102
 2101SOL     H2 8849   2.008   0.010   4.121
 2101SOL    EPW 8850   2.058   0.076   4.149
 2102SOL      O 8851   3.179   1.133   4.193
 2102SOL     H1 8852   3.151   1.219   4.226
 2102SOL     H2 8853   3.207   1.149   4.103
 2102SOL    EPW 8854   3.179   1.147   4.185
 2103SOL      O 8855   2.262   0.744   4.142
 2103SOL     H1 8856   2.262   0.839   4.127
 2103SOL     H2 8857   2.339   0.728   4.196
 2103SOL    EPW 8858   2.272   0.755   4.147
 2104SOL      O 8859   2.021   0.475   4.431
 2104SOL     H1 8860   2.083   0.482   4.504
 2104SOL     H2 8861   2.021   0.382   4.408
 2104SOL    EPW 8862   2.029   0.464   4.438
 2105SOL      O 8863   3.568   1.815   3.963
 2105SOL     H1 8864   3.635   1.848   3.903
 2105SOL     H2 8865   3.525   1.894   3.997
 2105SOL    EPW 8866   3.570   1.830   3.959
 2106SOL      O 8867   1.890   1.047   3.889
 2106SOL     H1 8868   1.859   1.112   3.952
 2106SOL     H2 8869   1.839   0.969   3.908
 2106SOL    EPW 8870   1.880   1.044   3.899
 2107SOL      O 8871   2.474   1.847   3.831
 2107SOL     H1 8872   2.379   1.847   3.823
 2107SOL     H2 8873   2.490   1.793   3.909
 2107SOL    EPW 8874   2.464   1.841   3.840
 2108SOL      O 8875   3.319   0.667   3.747
 2108SOL     H1 8876   3.247   0.643   3.689
 2108SOL     H2 8877   3.385   0.704   3.689
 2108SOL    EPW 8878   3.318   0.669   3.732
 2109SOL      O 8879   2.453   1.399   4.427
 2109SOL     H1 8880   2.518   1.332   4.448
 2109SOL     H2 8881   2.505   1.476   4.404
 2109SOL    EPW 8882   2.468   1.401   4.426
 2110SOL      O 8883   2.732   0.967   3.931
 2110SOL     H1 8884   2.718   0.879   3.896
 2110SOL     H2 8885   2.683   1.024   3.872
 2110SOL    EPW 8886   2.724   0.962   3.919
 2111SOL      O 8887   3.451   0.173   4.033
 2111SOL     H1 8888   3.444   0.177   4.128
 2111SOL     H2 8889   3.463   0.264   4.006
 2111SOL    EPW 8890   3.452   0.186   4.041
 2112SOL      O 8891   2.740   0.736   4.147
 2112SOL     H1 8892   2.720   0.722   4.054
 2112SOL     H2 8893   2.833   0.715   4.154
 2112SOL    EPW 8894   2.750   0.731   4.136
 2113SOL      O 8895   2.723   1.694   4.185
 2113SOL     H1 8896   2.781   1.765   4.212
 2113SOL     H2 8897   2.746   1.622   4.243
 2113SOL    EPW 8898   2.734   1.694   4.196
 2114SOL      O 8899   2.179   0.126   3.920
 2114SOL     H1 8900   2.108   0.181   3.888
 2114SOL     H2 8901   2.221   0.092   3.841
 2114SOL    EPW 8902   2.175   0.128   3.906
 2115SOL      O 8903   1.935   0.225   3.769
 2115SOL     H1 8904   1.902   0.304   3.813
 2115SOL     H2 8905   1.990   0.258   3.698
 2115SOL    EPW 8906   1.938   0.239   3.766
 2116SOL      O 8907   1.969   1.482   3.958
 2116SOL     H1 8908   1.986   1.566   4.000
 2116SOL     H2 8909   2.004   1.491   3.870
 2116SOL    EPW 8910   1.974   1.495   3.952
 2117SOL      O 8911   3.241   1.571   4.175
 2117SOL     H1 8912   3.304   1.561   4.104
 2117SOL     H2 8913   3.158   1.591   4.130
 2117SOL    EPW 8914   3.238   1.572   4.160
 2118SOL      O 8915   3.470   2.639   1.252
 2118SOL     H1 8916   3.425   2.706   1.303
 2118SOL     H2 8917   3.558   2.675   1.238
 2118SOL    EPW 8918   3.476   2.652   1.256
 2119SOL      O 8919   2.398   2.890   0.486
 2119SOL     H1 8920   2.488   2.865   0.470
 2119SOL     H2 8921   2.394   2.983   0.463
 2119SOL    EPW 8922   2.410   2.899   0.481
 2120SOL      O 8923   3.514   3.593   0.628
 2120SOL     H1 8924   3.526   3.539   0.706
 2120SOL     H2 8925   3.551   3.541   0.557
 2120SOL    EPW 8926   3.520   3.578   0.629
 2121SOL      O 8927   2.893   3.478   1.629
 2121SOL     H1 8928   2.934   3.514   1.550
 2121SOL     H2 8929   2.928   3.389   1.636
 2121SOL    EPW 8930   2.904   3.471   1.620
 2122SOL      O 8931   3.450   3.033   1.233
 2122SOL     H1 8932   3.371   2.998   1.191
 2122SOL     H2 8933   3.477   3.105   1.177
 2122SOL    EPW 8934   3.443   3.038   1.220
 2123SOL      O 8935   2.682   2.346   0.499
 2123SOL     H1 8936   2.657   2.434   0.527
 2123SOL     H2 8937   2.679   2.349   0.403
 2123SOL    EPW 8938   2.678   2.358   0.491
 2124SOL      O 8939   2.124   2.374   0.427
 2124SOL     H1 8940   2.156   2.462   0.409
 2124SOL     H2 8941   2.112   2.372   0.522
 2124SOL    EPW 8942   2.127   2.386   0.439
 2125SOL      O 8943   2.202   2.787   1.328
 2125SOL     H1 8944   2.265   2.734   1.279
 2125SOL     H2 8945   2.183   2.861   1.271
 2125SOL    EPW 8946   2.208   2.789   1.315
 2126SOL      O 8947   2.523   2.129   0.514
 2126SOL     H1 8948   2.581   2.205   0.516
 2126SOL     H2 8949   2.458   2.150   0.447
 2126SOL    EPW 8950   2.522   2.141   0.505
 2127SOL      O 8951   2.610   3.056   0.689
 2127SOL     H1 8952   2.690   3.059   0.741
 2127SOL     H2 8953   2.638   3.023   0.603
 2127SOL    EPW 8954   2.624   3.052   0.684
 2128SOL      O 8955   2.635   3.397   1.592
 2128SOL     H1 8956   2.719   3.423   1.631
 2128SOL     H2 8957   2.659   3.341   1.518
 2128SOL    EPW 8958   2.649   3.393   1.587
 2129SOL      O 8959   2.387   2.560   0.680
 2129SOL     H1 8960   2.372   2.480   0.731
 2129SOL     H2 8961   2.469   2.595   0.714
 2129SOL    EPW 8962   2.395   2.552   0.692
 2130SOL      O 8963   2.724   3.246   1.365
 2130SOL     H1 8964   2.688   3.312   1.305
 2130SOL     H2 8965   2.652   3.184   1.378
 2130SOL    EPW 8966   2.710   3.246   1.359
 2131SOL      O 8967   2.529   2.386   1.057
 2131SOL     H1 8968   2.435   2.382   1.075
 2131SOL     H2 8969   2.559   2.295   1.066
 2131SOL    EPW 8970   2.520   2.374   1.060
 2132SOL      O 8971   2.275   2.800   0.961
 2132SOL     H1 8972   2.230   2.807   0.877
 2132SOL     H2 8973   2.255   2.883   1.005
 2132SOL    EPW 8974   2.267   2.812   0.955
 2133SOL      O 8975   1.972   3.646   0.836
 2133SOL     H1 8976   2.061   3.638   0.871
 2133SOL     H2 8977   1.936   3.558   0.841
 2133SOL    EPW 8978   1.979   3.633   0.841
 2134SOL      O 8979   2.236   3.173   0.871
 2134SOL     H1 8980   2.212   3.226   0.947
 2134SOL     H2 8981   2.292   3.231   0.819
 2134SOL    EPW 8982   2.240   3.188   0.874
 2135SOL      O 8983   2.798   2.817   0.681
 2135SOL     H1 8984   2.712   2.804   0.721
 2135SOL     H2 8985   2.851   2.744   0.713
 2135SOL    EPW 8986   2.794   2.806   0.690
 2136SOL      O 8987   2.206   3.469   1.466
 2136SOL     H1 8988   2.114   3.445   1.451
 2136SOL     H2 8989   2.250   3.386   1.483
 2136SOL    EPW 8990   2.200   3.454   1.465
 2137SOL      O 8991   2.789   3.179   0.398
 2137SOL     H1 8992   2.766   3.241   0.466
 2137SOL     H2 8993   2.746   3.097   0.424
 2137SOL    EPW 8994   2.781   3.175   0.409
 2138SOL      O 8995   3.662   2.180   0.854
 2138SOL     H1 8996   3.599   2.160   0.923
 2138SOL     H2 8997   3.652   2.109   0.791
 2138SOL    EPW 8998   3.652   2.167   0.855
 2139SOL      O 8999   2.286   2.152   0.366
 2139SOL     H1 9000   2.260   2.114   0.282
 2139SOL     H2 9001   2.223   2.222   0.382
 2139SOL    EPW 9002   2.275   2.155   0.357
 2140SOL      O 9003   2.121   3.113   0.403
 2140SOL     H1 9004   2.069   3.181   0.359
 2140SOL     H2 9005   2.118   3.039   0.343
 2140SOL    EPW 9006   2.113   3.112   0.390
 2141SOL      O 9007   2.783   3.576   0.181
 2141SOL     H1 9008   2.738   3.592   0.264
 2141SOL     H2 9009   2.714   3.541   0.123
 2141SOL    EPW 9010   2.769   3.573   0.183
 2142SOL      O 9011   3.463   2.952   0.506
 2142SOL     H1 9012   3.373   2.952   0.541
 2142SOL     H2 9013   3.456   2.998   0.423
 2142SOL    EPW 9014   3.450   2.958   0.500
 2143SOL      O 9015   3.263   2.587   1.578
 2143SOL     H1 9016   3.332   2.525   1.555
 2143SOL     H2 9017   3.188   2.561   1.525
 2143SOL    EPW 9018   3.263   2.574   1.569
 2144SOL      O 9019   2.004   3.467   1.130
 2144SOL     H1 9020   1.987   3.413   1.207
 2144SOL     H2 9021   1.992   3.557   1.160
 2144SOL    EPW 9022   2.001   3.471   1.144
 2145SOL      O 9023   2.999   2.974   1.570
 2145SOL     H1 9024   2.984   3.067   1.555
 2145SOL     H2 9025   3.094   2.964   1.570
 2145SOL    EPW 9026   3.008   2.984   1.567
 2146SOL      O 9027   2.795   2.398   1.771
 2146SOL     H1 9028   2.885   2.399   1.738
 2146SOL     H2 9029   2.754   2.323   1.729
 2146SOL    EPW 9030   2.801   2.388   1.762
 2147SOL      O 9031   3.370   2.930   0.898
 2147SOL     H1 9032   3.373   2.864   0.829
 2147SOL     H2 9033   3.455   2.973   0.894
 2147SOL    EPW 9034   3.382   2.926   0.889
 2148SOL      O 9035   2.990   2.533   0.467
 2148SOL     H1 9036   3.016   2.557   0.378
 2148SOL     H2 9037   2.972   2.440   0.463
 2148SOL    EPW 9038   2.992   2.525   0.454
 2149SOL      O 9039   2.575   2.202   1.721
 2149SOL     H1 9040   2.585   2.128   1.661
 2149SOL     H2 9041   2.611   2.171   1.804
 2149SOL    EPW 9042   2.581   2.188   1.723
 2150SOL      O 9043   2.311   3.569   0.636
 2150SOL     H1 9044   2.343   3.657   0.614
 2150SOL     H2 9045   2.264   3.541   0.558
 2150SOL    EPW 9046   2.310   3.577   0.623
 2151SOL      O 9047   3.695   1.931   0.685
 2151SOL     H1 9048   3.749   1.882   0.747
 2151SOL     H2 9049   3.638   1.865   0.646
 2151SOL    EPW 9050   3.695   1.915   0.687
 2152SOL      O 9051   2.027   3.629   0.213
 2152SOL     H1 9052   2.056   3.719   0.205
 2152SOL     H2 9053   1.977   3.612   0.134
 2152SOL    EPW 9054   2.025   3.637   0.202
 2153SOL      O 9055   2.814   1.884   1.098
 2153SOL     H1 9056   2.773   1.962   1.060
 2153SOL     H2 9057   2.908   1.902   1.093
 2153SOL    EPW 9058   2.820   1.896   1.093
 2154SOL      O 9059   3.431   3.437   0.184
 2154SOL     H1 9060   3.479   3.506   0.230
 2154SOL     H2 9061   3.352   3.481   0.153
 2154SOL    EPW 9062   3.426   3.451   0.187
 2155SOL      O 9063   2.829   2.562   0.128
 2155SOL     H1 9064   2.831   2.509   0.049
 2155SOL     H2 9065   2.917   2.599   0.134
 2155SOL    EPW 9066   2.841   2.561   0.117
 2156SOL      O 9067   3.443   2.488   0.464
 2156SOL     H1 9068   3.482   2.488   0.551
 2156SOL     H2 9069   3.384   2.564   0.464
 2156SOL    EPW 9070   3.440   2.499   0.475
 2157SOL      O 9071   2.760   2.855   1.593
 2157SOL     H1 9072   2.737   2.835   1.683
 2157SOL     H2 9073   2.845   2.899   1.598
 2157SOL    EPW 9074   2.767   2.858   1.605
 2158SOL      O 9075   2.840   1.992   1.353
 2158SOL     H1 9076   2.846   1.954   1.266
 2158SOL     H2 9077   2.829   2.086   1.338
 2158SOL    EPW 9078   2.841   2.000   1.341
 2159SOL      O 9079   2.929   2.481   1.187
 2159SOL     H1 9080   3.004   2.510   1.134
 2159SOL     H2 9081   2.861   2.546   1.171
 2159SOL    EPW 9082   2.930   2.493   1.177
 2160SOL      O 9083   3.479   2.449   1.464
 2160SOL     H1 9084   3.460   2.358   1.443
 2160SOL     H2 9085   3.457   2.498   1.385
 2160SOL    EPW 9086   3.474   2.442   1.451
 2161SOL      O 9087   3.621   3.543   1.368
 2161SOL     H1 9088   3.549   3.505   1.419
 2161SOL     H2 9089   3.638   3.628   1.409
 2161SOL    EPW 9090   3.615   3.548   1.380
 2162SOL      O 9091   2.926   2.187   1.570
 2162SOL     H1 9092   2.892   2.226   1.489
 2162SOL     H2 9093   2.904   2.095   1.563
 2162SOL    EPW 9094   2.919   2.180   1.560
 2163SOL      O 9095   3.335   3.001   1.646
 2163SOL     H1 9096   3.417   3.042   1.676
 2163SOL     H2 9097   3.298   2.963   1.726
 2163SOL    EPW 9098   3.341   3.002   1.661
 2164SOL      O 9099   3.630   2.374   0.630
 2164SOL     H1 9100   3.719   2.343   0.647
 2164SOL     H2 9101   3.573   2.314   0.678
 2164SOL    EPW 9102   3.633   2.362   0.639
 2165SOL      O 9103   2.056   2.088   0.659
 2165SOL     H1 9104   2.047   2.028   0.585
 2165SOL     H2 9105   1.989   2.059   0.722
 2165SOL    EPW 9106   2.046   2.075   0.657
 2166SOL      O 9107   2.003   2.261   1.022
 2166SOL     H1 9108   1.975   2.352   1.031
 2166SOL     H2 9109   1.940   2.222   0.961
 2166SOL    EPW 9110   1.990   2.267   1.016
 2167SOL      O 9111   2.462   3.599   0.328
 2167SOL     H1 9112   2.383   3.557   0.361
 2167SOL     H2 9113   2.528   3.582   0.395
 2167SOL    EPW 9114   2.461   3.591   0.341
 2168SOL      O 9115   3.590   3.119   1.725
 2168SOL     H1 9116   3.640   3.045   1.757
 2168SOL     H2 9117   3.536   3.146   1.800
 2168SOL    EPW 9118   3.590   3.113   1.738
 2169SOL      O 9119   2.598   3.014   0.035
 2169SOL     H1 9120   2.520   2.960   0.022
 2169SOL     H2 9121   2.569   3.087   0.088
 2169SOL    EPW 9122   2.584   3.016   0.040
 2170SOL      O 9123   3.724   2.754   1.227
 2170SOL     H1 9124   3.740   2.792   1.140
 2170SOL     H2 9125   3.758   2.820   1.288
 2170SOL    EPW 9126   3.731   2.767   1.223
 2171SOL      O 9127   3.516   3.463   0.896
 2171SOL     H1 9128   3.545   3.530   0.957
 2171SOL     H2 9129   3.497   3.387   0.951
 2171SOL    EPW 9130   3.518   3.463   0.911
 2172SOL      O 9131   1.987   2.536   1.192
 2172SOL     H1 9132   2.049   2.566   1.258
 2172SOL     H2 9133   1.921   2.605   1.186
 2172SOL    EPW 9134   1.986   2.549   1.199
 2173SOL      O 9135   2.628   2.093   0.100
 2173SOL     H1 9136   2.576   2.013   0.088
 2173SOL     H2 9137   2.715   2.070   0.068
 2173SOL    EPW 9138   2.631   2.079   0.094
 2174SOL      O 9139   2.082   3.645   1.644
 2174SOL     H1 9140   2.056   3.713   1.582
 2174SOL     H2 9141   2.130   3.582   1.592
 2174SOL    EPW 9142   2.084   3.645   1.630
 2175SOL      O 9143   2.134   2.964   1.151
 2175SOL     H1 9144   2.187   3.039   1.176
 2175SOL     H2 9145   2.053   3.002   1.117
 2175SOL    EPW 9146   2.130   2.979   1.151
 2176SOL      O 9147   2.674   2.868   1.139
 2176SOL     H1 9148   2.702   2.777   1.151
 2176SOL     H2 9149   2.603   2.862   1.075
 2176SOL    EPW 9150   2.667   2.856   1.134
 2177SOL      O 9151   1.989   2.733   0.557
 2177SOL     H1 9152   2.080   2.748   0.584
 2177SOL     H2 9153   1.992   2.654   0.503
 2177SOL    EPW 9154   2.001   2.725   0.555
 2178SOL      O 9155   2.225   2.441   1.811
 2178SOL     H1 9156   2.172   2.521   1.818
 2178SOL     H2 9157   2.295   2.453   1.876
 2178SOL    EPW 9158   2.227   2.454   1.819
 2179SOL      O 9159   2.611   1.991   1.518
 2179SOL     H1 9160   2.588   1.899   1.520
 2179SOL     H2 9161   2.697   1.993   1.475
 2179SOL    EPW 9162   2.618   1.981   1.514
 2180SOL      O 9163   2.295   2.515   1.557
 2180SOL     H1 9164   2.375   2.565   1.543
 2180SOL     H2 9165   2.286   2.509   1.652
 2180SOL    EPW 9166   2.304   2.521   1.567
 2181SOL      O 9167   2.616   3.665   0.931
 2181SOL     H1 9168   2.705   3.680   0.961
 2181SOL     H2 9169   2.611   3.712   0.847
 2181SOL    EPW 9170   2.626   3.673   0.924
 2182SOL      O 9171   3.272   2.040   1.828
 2182SOL     H1 9172   3.328   1.967   1.854
 2182SOL     H2 9173   3.242   2.078   1.910
 2182SOL    EPW 9174   3.276   2.035   1.841
 2183SOL      O 9175   1.997   3.345   0.596
 2183SOL     H1 9176   1.969   3.384   0.678
 2183SOL     H2 9177   2.017   3.254   0.618
 2183SOL    EPW 9178   1.995   3.337   0.609
 2184SOL      O 9179   2.830   3.388   0.631
 2184SOL     H1 9180   2.913   3.342   0.615
 2184SOL     H2 9181   2.820   3.387   0.727
 2184SOL    EPW 9182   2.840   3.381   0.641
 2185SOL      O 9183   3.662   2.533   0.945
 2185SOL     H1 9184   3.751   2.563   0.927
 2185SOL     H2 9185   3.642   2.473   0.874
 2185SOL    EPW 9186   3.671   2.530   0.934
 2186SOL      O 9187   3.513   2.712   1.825
 2186SOL     H1 9188   3.568   2.636   1.806
 2186SOL     H2 9189   3.515   2.720   1.920
 2186SOL    EPW 9190   3.521   2.703   1.833
 2187SOL      O 9191   2.563   3.445   0.036
 2187SOL     H1 9192   2.503   3.514   0.006
 2187SOL     H2 9193   2.508   3.387   0.089
 2187SOL    EPW 9194   2.547   3.447   0.038
 2188SOL      O 9195   2.808   2.274   1.344
 2188SOL     H1 9196   2.727   2.315   1.372
 2188SOL     H2 9197   2.855   2.342   1.296
 2188SOL    EPW 9198   2.803   2.289   1.342
 2189SOL      O 9199   3.068   2.612   0.967
 2189SOL     H1 9200   3.081   2.706   0.977
 2189SOL     H2 9201   3.029   2.602   0.881
 2189SOL    EPW 9202   3.064   2.623   0.957
 2190SOL      O 9203   2.520   2.807   0.771
 2190SOL     H1 9204   2.431   2.798   0.804
 2190SOL     H2 9205   2.524   2.897   0.739
 2190SOL    EPW 9206   2.509   2.818   0.771
 2191SOL      O 9207   3.319   2.390   0.766
 2191SOL     H1 9208   3.264   2.311   0.765
 2191SOL     H2 9209   3.301   2.431   0.850
 2191SOL    EPW 9210   3.309   2.385   0.775
 2192SOL      O 9211   2.290   2.077   1.583
 2192SOL     H1 9212   2.211   2.095   1.635
 2192SOL     H2 9213   2.285   2.139   1.510
 2192SOL    EPW 9214   2.280   2.087   1.580
 2193SOL      O 9215   2.938   2.594   0.723
 2193SOL     H1 9216   2.875   2.526   0.747
 2193SOL     H2 9217   2.958   2.575   0.631
 2193SOL    EPW 9218   2.932   2.581   0.715
 2194SOL      O 9219   2.194   3.489   0.425
 2194SOL     H1 9220   2.155   3.536   0.351
 2194SOL     H2 9221   2.128   3.424   0.450
 2194SOL    EPW 9222   2.181   3.487   0.419
 2195SOL      O 9223   2.686   2.898   0.449
 2195SOL     H1 9224   2.688   2.872   0.356
 2195SOL     H2 9225   2.744   2.835   0.492
 2195SOL    EPW 9226   2.694   2.887   0.443
 2196SOL      O 9227   3.239   3.458   1.221
 2196SOL     H1 9228   3.164   3.504   1.259
 2196SOL     H2 9229   3.221   3.365   1.238
 2196SOL    EPW 9230   3.228   3.452   1.229
 2197SOL      O 9231   3.243   3.666   0.651
 2197SOL     H1 9232   3.186   3.619   0.590
 2197SOL     H2 9233   3.329   3.627   0.638
 2197SOL    EPW 9234   3.246   3.657   0.641
 2198SOL      O 9235   3.196   2.142   0.782
 2198SOL     H1 9236   3.224   2.074   0.843
 2198SOL     H2 9237   3.110   2.113   0.752
 2198SOL    EPW 9238   3.189   2.129   0.786
 2199SOL      O 9239   2.001   3.076   0.716
 2199SOL     H1 9240   2.065   3.108   0.779
 2199SOL     H2 9241   2.050   3.012   0.664
 2199SOL    EPW 9242   2.016   3.072   0.717
 2200SOL      O 9243   2.501   3.152   1.698
 2200SOL     H1 9244   2.549   3.235   1.685
 2200SOL     H2 9245   2.558   3.100   1.754
 2200SOL    EPW 9246   2.515   3.156   1.704
 2201SOL      O 9247   2.077   3.394   1.838
 2201SOL     H1 9248   2.133   3.318   1.853
 2201SOL     H2 9249   2.026   3.372   1.760
 2201SOL    EPW 9250   2.077   3.381   1.829
 2202SOL      O 9251   2.844   1.951   0.054
 2202SOL     H1 9252   2.900   1.943  -0.024
 2202SOL     H2 9253   2.821   1.861   0.076
 2202SOL    EPW 9254   2.849   1.938   0.047
 2203SOL      O 9255   2.962   3.231   1.447
 2203SOL     H1 9256   2.873   3.237   1.415
 2203SOL     H2 9257   3.006   3.310   1.415
 2203SOL    EPW 9258   2.957   3.241   1.439
 2204SOL      O 9259   2.255   1.899   1.789
 2204SOL     H1 9260   2.183   1.864   1.737
 2204SOL     H2 9261   2.313   1.940   1.724
 2204SOL    EPW 9262   2.253   1.900   1.774
 2205SOL      O 9263   2.279   3.389   1.088
 2205SOL     H1 9264   2.324   3.451   1.145
 2205SOL     H2 9265   2.186   3.408   1.101
 2205SOL    EPW 9266   2.272   3.399   1.095
 2206SOL      O 9267   3.719   2.918   1.442
 2206SOL     H1 9268   3.634   2.931   1.401
 2206SOL     H2 9269   3.699   2.882   1.529
 2206SOL    EPW 9270   3.706   2.914   1.447
 2207SOL      O 9271   2.701   3.457   1.196
 2207SOL     H1 9272   2.725   3.446   1.105
 2207SOL     H2 9273   2.624   3.514   1.194
 2207SOL    EPW 9274   2.693   3.462   1.185
 2208SOL      O 9275   2.343   2.840   0.051
 2208SOL     H1 9276   2.266   2.853   0.107
 2208SOL     H2 9277   2.307   2.804  -0.030
 2208SOL    EPW 9278   2.329   2.836   0.048
 2209SOL      O 9279   2.496   3.162   0.986
 2209SOL     H1 9280   2.489   3.141   1.080
 2209SOL     H2 9281   2.414   3.130   0.949
 2209SOL    EPW 9282   2.484   3.156   0.993
 2210SOL      O 9283   3.360   2.172   1.388
 2210SOL     H1 9284   3.307   2.174   1.468
 2210SOL     H2 9285   3.345   2.085   1.351
 2210SOL    EPW 9286   3.352   2.162   1.393
 2211SOL      O 9287   3.696   2.096   1.261
 2211SOL     H1 9288   3.677   2.163   1.196
 2211SOL     H2 9289   3.753   2.034   1.216
 2211SOL    EPW 9290   3.700   2.097   1.247
 2212SOL      O 9291   1.942   3.254   1.649
 2212SOL     H1 9292   1.986   3.187   1.595
 2212SOL     H2 9293   1.857   3.216   1.669
 2212SOL    EPW 9294   1.937   3.240   1.645
 2213SOL      O 9295   2.625   1.929   0.701
 2213SOL     H1 9296   2.554   1.990   0.683
 2213SOL     H2 9297   2.676   1.926   0.620
 2213SOL    EPW 9298   2.621   1.935   0.688
 2214SOL      O 9299   2.383   3.169   0.450
 2214SOL     H1 9300   2.376   3.201   0.540
 2214SOL     H2 9301   2.293   3.153   0.422
 2214SOL    EPW 9302   2.371   3.171   0.457
 2215SOL      O 9303   2.978   3.562   1.359
 2215SOL     H1 9304   2.898   3.547   1.309
 2215SOL     H2 9305   2.985   3.657   1.366
 2215SOL    EPW 9306   2.969   3.573   1.353
 2216SOL      O 9307   3.092   3.527   0.849
 2216SOL     H1 9308   3.139   3.600   0.808
 2216SOL     H2 9309   3.013   3.566   0.885
 2216SOL    EPW 9310   3.087   3.542   0.848
 2217SOL      O 9311   2.585   2.586   1.831
 2217SOL     H1 9312   2.655   2.528   1.803
 2217SOL     H2 9313   2.528   2.531   1.886
 2217SOL    EPW 9314   2.587   2.573   1.835
 2218SOL      O 9315   3.372   2.798   1.464
 2218SOL     H1 9316   3.377   2.851   1.544
 2218SOL     H2 9317   3.334   2.715   1.492
 2218SOL    EPW 9318   3.368   2.793   1.479
 2219SOL      O 9319   3.012   1.933   1.710
 2219SOL     H1 9320   3.007   1.840   1.691
 2219SOL     H2 9321   3.095   1.944   1.756
 2219SOL    EPW 9322   3.020   1.922   1.714
 2220SOL      O 9323   2.386   2.453   0.164
 2220SOL     H1 9324   2.352   2.509   0.234
 2220SOL     H2 9325   2.457   2.403   0.204
 2220SOL    EPW 9326   2.392   2.454   0.178
 2221SOL      O 9327   3.482   3.204   0.986
 2221SOL     H1 9328   3.517   3.186   0.899
 2221SOL     H2 9329   3.387   3.205   0.973
 2221SOL    EPW 9330   3.474   3.201   0.973
 2222SOL      O 9331   2.911   2.852   1.355
 2222SOL     H1 9332   2.954   2.887   1.433
 2222SOL     H2 9333   2.894   2.929   1.301
 2222SOL    EPW 9334   2.914   2.867   1.358
 2223SOL      O 9335   2.302   1.994   0.657
 2223SOL     H1 9336   2.352   2.037   0.588
 2223SOL     H2 9337   2.217   2.038   0.657
 2223SOL    EPW 9338   2.299   2.007   0.648
 2224SOL      O 9339   2.061   3.056   1.517
 2224SOL     H1 9340   2.089   3.009   1.595
 2224SOL     H2 9341   1.982   3.011   1.488
 2224SOL    EPW 9342   2.054   3.045   1.523
 2225SOL      O 9343   2.569   2.383   1.484
 2225SOL     H1 9344   2.541   2.471   1.508
 2225SOL     H2 9345   2.538   2.327   1.555
 2225SOL    EPW 9346   2.561   2.386   1.496
 2226SOL      O 9347   3.111   2.601   0.203
 2226SOL     H1 9348   3.158   2.619   0.122
 2226SOL     H2 9349   3.077   2.685   0.231
 2226SOL    EPW 9350   3.113   2.615   0.196
 2227SOL      O 9351   2.224   2.779   0.697
 2227SOL     H1 9352   2.282   2.835   0.645
 2227SOL     H2 9353   2.268   2.694   0.699
 2227SOL    EPW 9354   2.237   2.776   0.690
 2228SOL      O 9355   3.364   2.131   0.534
 2228SOL     H1 9356   3.286   2.081   0.559
 2228SOL     H2 9357   3.335   2.222   0.534
 2228SOL    EPW 9358   3.350   2.135   0.537
 2229SOL      O 9359   2.950   2.093   0.693
 2229SOL     H1 9360   2.970   2.168   0.637
 2229SOL     H2 9361   2.930   2.132   0.778
 2229SOL    EPW 9362   2.951   2.109   0.697
 2230SOL      O 9363   2.846   3.343   0.025
 2230SOL     H1 9364   2.873   3.421  -0.023
 2230SOL     H2 9365   2.753   3.358   0.044
 2230SOL    EPW 9366   2.837   3.356   0.021
 2231SOL      O 9367   3.710   2.866   1.712
 2231SOL     H1 9368   3.623   2.846   1.748
 2231SOL     H2 9369   3.764   2.792   1.737
 2231SOL    EPW 9370   3.705   2.855   1.720
 2232SOL      O 9371   1.931   3.379   0.869
 2232SOL     H1 9372   1.963   3.383   0.960
 2232SOL     H2 9373   1.836   3.387   0.877
 2232SOL    EPW 9374   1.923   3.382   0.882
 2233SOL      O 9375   1.886   2.505   0.416
 2233SOL     H1 9376   1.826   2.477   0.486
 2233SOL     H2 9377   1.960   2.445   0.422
 2233SOL    EPW 9378   1.888   2.494   0.425
 2234SOL      O 9379   3.454   3.717   1.850
 2234SOL     H1 9380   3.499   3.641   1.815
 2234SOL     H2 9381   3.492   3.730   1.937
 2234SOL    EPW 9382   3.464   3.710   1.856
 2235SOL      O 9383   3.054   3.236   0.576
 2235SOL     H1 9384   3.077   3.187   0.654
 2235SOL     H2 9385   3.135   3.278   0.548
 2235SOL    EPW 9386   3.067   3.236   0.583
 2236SOL      O 9387   2.312   2.244   1.305
 2236SOL     H1 9388   2.345   2.325   1.345
 2236SOL     H2 9389   2.285   2.270   1.217
 2236SOL    EPW 9390   2.311   2.258   1.299
 2237SOL      O 9391   2.266   2.211   1.041
 2237SOL     H1 9392   2.296   2.125   1.012
 2237SOL     H2 9393   2.171   2.204   1.044
 2237SOL    EPW 9394   2.258   2.200   1.039
 2238SOL      O 9395   3.095   2.420   1.732
 2238SOL     H1 9396   3.147   2.355   1.685
 2238SOL     H2 9397   3.053   2.471   1.662
 2238SOL    EPW 9398   3.096   2.417   1.715
 2239SOL      O 9399   3.194   2.215   1.593
 2239SOL     H1 9400   3.101   2.199   1.580
 2239SOL     H2 9401   3.220   2.153   1.661
 2239SOL    EPW 9402   3.184   2.205   1.600
 2240SOL      O 9403   2.409   1.989   0.932
 2240SOL     H1 9404   2.419   1.898   0.958
 2240SOL     H2 9405   2.365   1.985   0.847
 2240SOL    EPW 9406   2.405   1.977   0.924
 2241SOL      O 9407   2.503   3.604   1.478
 2241SOL     H1 9408   2.420   3.589   1.523
 2241SOL     H2 9409   2.562   3.537   1.513
 2241SOL    EPW 9410   2.501   3.594   1.488
 2242SOL      O 9411   3.560   2.311   1.103
 2242SOL     H1 9412   3.493   2.344   1.163
 2242SOL     H2 9413   3.603   2.389   1.069
 2242SOL    EPW 9414   3.558   2.326   1.107
 2243SOL      O 9415   3.738   3.031   1.073
 2243SOL     H1 9416   3.731   2.971   0.998
 2243SOL     H2 9417   3.664   3.091   1.062
 2243SOL    EPW 9418   3.728   3.031   1.062
 2244SOL      O 9419   3.120   2.893   0.991
 2244SOL     H1 9420   3.134   2.865   1.082
 2244SOL     H2 9421   3.206   2.924   0.963
 2244SOL    EPW 9422   3.133   2.894   1.000
 2245SOL      O 9423   3.203   2.388   1.270
 2245SOL     H1 9424   3.224   2.389   1.177
 2245SOL     H2 9425   3.248   2.310   1.303
 2245SOL    EPW 9426   3.210   2.378   1.262
 2246SOL      O 9427   3.696   2.519   1.812
 2246SOL     H1 9428   3.733   2.464   1.881
 2246SOL     H2 9429   3.721   2.476   1.730
 2246SOL    EPW 9430   3.703   2.507   1.811
 2247SOL      O 9431   3.243   2.817   1.863
 2247SOL     H1 9432   3.309   2.765   1.817
 2247SOL     H2 9433   3.263   2.804   1.956
 2247SOL    EPW 9434   3.254   2.808   1.870
 2248SOL      O 9435   3.254   2.678   0.490
 2248SOL     H1 9436   3.169   2.648   0.460
 2248SOL     H2 9437   3.246   2.685   0.585
 2248SOL    EPW 9438   3.242   2.676   0.499
 2249SOL      O 9439   2.330   3.141   1.221
 2249SOL     H1 9440   2.342   3.168   1.312
 2249SOL     H2 9441   2.311   3.222   1.174
 2249SOL    EPW 9442   2.329   3.156   1.226
 2250SOL      O 9443   2.614   2.121   1.044
 2250SOL     H1 9444   2.587   2.123   1.135
 2250SOL     H2 9445   2.544   2.073   0.999
 2250SOL    EPW 9446   2.602   2.117   1.051
 2251SOL      O 9447   2.468   3.613   1.206
 2251SOL     H1 9448   2.520   3.690   1.183
 2251SOL     H2 9449   2.477   3.605   1.301
 2251SOL    EPW 9450   2.477   3.620   1.217
 2252SOL      O 9451   3.370   3.198   1.438
 2252SOL     H1 9452   3.355   3.127   1.501
 2252SOL     H2 9453   3.416   3.156   1.366
 2252SOL    EPW 9454   3.376   3.182   1.438
 2253SOL      O 9455   2.444   2.929   1.555
 2253SOL     H1 9456   2.481   2.934   1.467
 2253SOL     H2 9457   2.483   3.002   1.602
 2253SOL    EPW 9458   2.454   2.939   1.550
 2254SOL      O 9459   2.624   2.972   1.367
 2254SOL     H1 9460   2.683   2.918   1.420
 2254SOL     H2 9461   2.639   2.944   1.277
 2254SOL    EPW 9462   2.634   2.961   1.363
 2255SOL      O 9463   2.627   2.344   0.216
 2255SOL     H1 9464   2.700   2.393   0.179
 2255SOL     H2 9465   2.643   2.253   0.190
 2255SOL    EPW 9466   2.639   2.339   0.209
 2256SOL      O 9467   3.435   3.461   1.539
 2256SOL     H1 9468   3.477   3.446   1.624
 2256SOL     H2 9469   3.426   3.374   1.501
 2256SOL    EPW 9470   3.439   3.449   1.546
 2257SOL      O 9471   3.095   1.940   1.130
 2257SOL     H1 9472   3.150   1.949   1.052
 2257SOL     H2 9473   3.150   1.974   1.201
 2257SOL    EPW 9474   3.109   1.945   1.129
 2258SOL      O 9475   2.102   2.853   0.314
 2258SOL     H1 9476   2.039   2.869   0.243
 2258SOL     H2 9477   2.049   2.816   0.385
 2258SOL    EPW 9478   2.087   2.850   0.314
 2259SOL      O 9479   2.458   3.207   0.173
 2259SOL     H1 9480   2.473   3.183   0.265
 2259SOL     H2 9481   2.366   3.185   0.157
 2259SOL    EPW 9482   2.448   3.200   0.183
 2260SOL      O 9483   2.256   3.596   0.894
 2260SOL     H1 9484   2.260   3.507   0.929
 2260SOL     H2 9485   2.282   3.587   0.803
 2260SOL    EPW 9486   2.259   3.584   0.886
 2261SOL      O 9487   2.873   3.074   1.137
 2261SOL     H1 9488   2.805   3.008   1.153
 2261SOL     H2 9489   2.891   3.068   1.044
 2261SOL    EPW 9490   2.866   3.065   1.128
 2262SOL      O 9491   1.962   3.349   1.388
 2262SOL     H1 9492   1.952   3.307   1.474
 2262SOL     H2 9493   1.883   3.402   1.378
 2262SOL    EPW 9494   1.951   3.350   1.399
 2263SOL      O 9495   2.866   2.213   0.958
 2263SOL     H1 9496   2.796   2.165   1.003
 2263SOL     H2 9497   2.898   2.276   1.022
 2263SOL    EPW 9498   2.861   2.215   0.972
 2264SOL      O 9499   2.517   2.649   1.578
 2264SOL     H1 9500   2.510   2.744   1.566
 2264SOL     H2 9501   2.526   2.638   1.673
 2264SOL    EPW 9502   2.518   2.661   1.588
 2265SOL      O 9503   2.238   3.164   1.836
 2265SOL     H1 9504   2.310   3.166   1.773
 2265SOL     H2 9505   2.208   3.073   1.835
 2265SOL    EPW 9506   2.243   3.153   1.828
 2266SOL      O 9507   3.322   1.927   1.303
 2266SOL     H1 9508   3.393   1.873   1.267
 2266SOL     H2 9509   3.321   1.906   1.396
 2266SOL    EPW 9510   3.331   1.918   1.311
 2267SOL      O 9511   3.522   3.457   1.787
 2267SOL     H1 9512   3.495   3.454   1.878
 2267SOL     H2 9513   3.618   3.461   1.790
 2267SOL    EPW 9514   3.532   3.457   1.799
 2268SOL      O 9515   2.333   2.319   0.771
 2268SOL     H1 9516   2.404   2.267   0.734
 2268SOL     H2 9517   2.319   2.284   0.858
 2268SOL    EPW 9518   2.341   2.308   0.778
 2269SOL      O 9519   1.888   3.654   1.843
 2269SOL     H1 9520   1.938   3.632   1.765
 2269SOL     H2 9521   1.896   3.749   1.851
 2269SOL    EPW 9522   1.896   3.663   1.834
 2270SOL      O 9523   2.649   3.412   0.847
 2270SOL     H1 9524   2.577   3.349   0.860
 2270SOL     H2 9525   2.610   3.497   0.865
 2270SOL    EPW 9526   2.633   3.415   0.850
 2271SOL      O 9527   2.969   2.260   0.495
 2271SOL     H1 9528   2.991   2.197   0.427
 2271SOL     H2 9529   2.874   2.252   0.506
 2271SOL    EPW 9530   2.959   2.251   0.487
 2272SOL      O 9531   2.054   1.950   0.427
 2272SOL     H1 9532   2.125   1.971   0.366
 2272SOL     H2 9533   2.008   1.878   0.385
 2272SOL    EPW 9534   2.058   1.944   0.413
 2273SOL      O 9535   1.885   2.417   1.570
 2273SOL     H1 9536   1.949   2.483   1.545
 2273SOL     H2 9537   1.804   2.444   1.527
 2273SOL    EPW 9538   1.883   2.429   1.562
 2274SOL      O 9539   3.623   3.324   0.527
 2274SOL     H1 9540   3.593   3.257   0.588
 2274SOL     H2 9541   3.717   3.330   0.541
 2274SOL    EPW 9542   3.631   3.316   0.537
 2275SOL      O 9543   3.179   3.001   0.457
 2275SOL     H1 9544   3.151   3.087   0.490
 2275SOL     H2 9545   3.207   3.017   0.367
 2275SOL    EPW 9546   3.179   3.015   0.449
 2276SOL      O 9547   2.841   1.921   0.510
 2276SOL     H1 9548   2.878   1.980   0.575
 2276SOL     H2 9549   2.818   1.977   0.436
 2276SOL    EPW 9550   2.842   1.936   0.509
 2277SOL      O 9551   3.694   2.803   0.932
 2277SOL     H1 9552   3.685   2.835   0.843
 2277SOL     H2 9553   3.647   2.719   0.932
 2277SOL    EPW 9554   3.687   2.796   0.922
 2278SOL      O 9555   2.070   2.643   1.511
 2278SOL     H1 9556   2.091   2.712   1.449
 2278SOL     H2 9557   2.150   2.590   1.516
 2278SOL    EPW 9558   2.083   2.644   1.505
 2279SOL      O 9559   3.606   2.734   0.633
 2279SOL     H1 9560   3.700   2.723   0.621
 2279SOL     H2 9561   3.582   2.806   0.574
 2279SOL    EPW 9562   3.616   2.742   0.624
 2280SOL      O 9563   2.055   2.658   1.778
 2280SOL     H1 9564   1.981   2.602   1.804
 2280SOL     H2 9565   2.050   2.661   1.683
 2280SOL    EPW 9566   2.044   2.651   1.768
 2281SOL      O 9567   2.221   1.945   1.228
 2281SOL     H1 9568   2.264   2.029   1.248
 2281SOL     H2 9569   2.294   1.883   1.221
 2281SOL    EPW 9570   2.236   1.948   1.229
 2282SOL      O 9571   2.262   2.612   0.406
 2282SOL     H1 9572   2.262   2.707   0.391
 2282SOL     H2 9573   2.339   2.596   0.460
 2282SOL    EPW 9574   2.272   2.623   0.411
 2283SOL      O 9575   3.038   2.471   1.470
 2283SOL     H1 9576   3.074   2.444   1.386
 2283SOL     H2 9577   2.951   2.505   1.449
 2283SOL    EPW 9578   3.032   2.472   1.457
 2284SOL      O 9579   2.021   2.343   0.695
 2284SOL     H1 9580   2.083   2.350   0.768
 2284SOL     H2 9581   2.021   2.250   0.672
 2284SOL    EPW 9582   2.029   2.332   0.702
 2285SOL      O 9583   3.568   3.683   0.227
 2285SOL     H1 9584   3.635   3.716   0.167
 2285SOL     H2 9585   3.525   3.762   0.261
 2285SOL    EPW 9586   3.570   3.698   0.223
 2286SOL      O 9587   2.703   2.604   1.179
 2286SOL     H1 9588   2.661   2.522   1.155
 2286SOL     H2 9589   2.704   2.603   1.275
 2286SOL    EPW 9590   2.696   2.593   1.188
 2287SOL      O 9591   3.374   3.737   1.578
 2287SOL     H1 9592   3.377   3.643   1.561
 2287SOL     H2 9593   3.397   3.745   1.670
 2287SOL    EPW 9594   3.377   3.725   1.588
 2288SOL      O 9595   2.507   2.074   1.284
 2288SOL     H1 9596   2.438   2.137   1.305
 2288SOL     H2 9597   2.534   2.038   1.369
 2288SOL    EPW 9598   2.501   2.077   1.297
 2289SOL      O 9599   3.302   1.927   0.901
 2289SOL     H1 9600   3.390   1.936   0.938
 2289SOL     H2 9601   3.312   1.868   0.827
 2289SOL    EPW 9602   3.316   1.921   0.895
 2290SOL      O 9603   3.334   2.666   0.745
 2290SOL     H1 9604   3.414   2.681   0.694
 2290SOL     H2 9605   3.327   2.571   0.751
 2290SOL    EPW 9606   3.343   2.655   0.740
 2291SOL      O 9607   2.474   3.715   0.095
 2291SOL     H1 9608   2.379   3.715   0.087
 2291SOL     H2 9609   2.490   3.661   0.173
 2291SOL    EPW 9610   2.464   3.709   0.104
 2292SOL      O 9611   2.784   2.592   1.442
 2292SOL     H1 9612   2.853   2.659   1.439
 2292SOL     H2 9613   2.717   2.630   1.498
 2292SOL    EPW 9614   2.785   2.605   1.449
 2293SOL      O 9615   2.202   2.892   1.690
 2293SOL     H1 9616   2.156   2.808   1.692
 2293SOL     H2 9617   2.259   2.886   1.614
 2293SOL    EPW 9618   2.204   2.880   1.682
 2294SOL      O 9619   2.453   3.267   0.691
 2294SOL     H1 9620   2.518   3.200   0.712
 2294SOL     H2 9621   2.505   3.344   0.668
 2294SOL    EPW 9622   2.468   3.269   0.690
 2295SOL      O 9623   2.714   2.432   0.821
 2295SOL     H1 9624   2.654   2.450   0.893
 2295SOL     H2 9625   2.748   2.344   0.840
 2295SOL    EPW 9626   2.710   2.422   0.834
 2296SOL      O 9627   3.655   1.931   1.490
 2296SOL     H1 9628   3.576   1.977   1.518
 2296SOL     H2 9629   3.690   1.985   1.419
 2296SOL    EPW 9630   3.649   1.944   1.484
 2297SOL      O 9631   2.939   3.015   0.840
 2297SOL     H1 9632   3.031   2.996   0.858
 2297SOL     H2 9633   2.912   2.945   0.780
 2297SOL    EPW 9634   2.947   3.003   0.834
 2298SOL      O 9635   2.732   2.835   0.195
 2298SOL     H1 9636   2.718   2.747   0.160
 2298SOL     H2 9637   2.683   2.892   0.136
 2298SOL    EPW 9638   2.724   2.830   0.183
 2299SOL      O 9639   3.213   3.253   0.936
 2299SOL     H1 9640   3.186   3.337   0.901
 2299SOL     H2 9641   3.173   3.248   1.023
 2299SOL    EPW 9642   3.206   3.262   0.942
 2300SOL      O 9643   3.132   3.201   1.204
 2300SOL     H1 9644   3.143   3.168   1.293
 2300SOL     H2 9645   3.051   3.160   1.173
 2300SOL    EPW 9646   3.122   3.193   1.210
 2301SOL      O 9647   2.145   2.559   0.974
 2301SOL     H1 9648   2.095   2.558   1.055
 2301SOL     H2 9649   2.165   2.651   0.958
 2301SOL    EPW 9650   2.141   2.571   0.982
 2302SOL      O 9651   3.212   3.323   1.736
 2302SOL     H1 9652   3.212   3.417   1.752
 2302SOL     H2 9653   3.257   3.313   1.652
 2302SOL    EPW 9654   3.218   3.333   1.727
 2303SOL      O 9655   2.740   2.604   0.411
 2303SOL     H1 9656   2.720   2.590   0.318
 2303SOL     H2 9657   2.833   2.583   0.418
 2303SOL    EPW 9658   2.750   2.599   0.400
 2304SOL      O 9659   2.067   2.227   1.715
 2304SOL     H1 9660   2.024   2.286   1.652
 2304SOL     H2 9661   2.135   2.282   1.755
 2304SOL    EPW 9662   2.071   2.242   1.712
 2305SOL      O 9663   3.179   2.847   1.260
 2305SOL     H1 9664   3.242   2.844   1.333
 2305SOL     H2 9665   3.095   2.865   1.302
 2305SOL    EPW 9666   3.175   2.849   1.275
 2306SOL      O 9667   2.723   3.562   0.449
 2306SOL     H1 9668   2.781   3.633   0.476
 2306SOL     H2 9669   2.746   3.490   0.507
 2306SOL    EPW 9670   2.734   3.562   0.460
 2307SOL      O 9671   3.518   2.024   1.039
 2307SOL     H1 9672   3.563   1.942   1.058
 2307SOL     H2 9673   3.538   2.080   1.115
 2307SOL    EPW 9674   3.528   2.020   1.051
 2308SOL      O 9675   1.966   1.867   1.138
 2308SOL     H1 9676   1.957   1.868   1.043
 2308SOL     H2 9677   2.060   1.879   1.153
 2308SOL    EPW 9678   1.978   1.870   1.129
 2309SOL      O 9679   3.603   3.060   0.758
 2309SOL     H1 9680   3.582   3.006   0.681
 2309SOL     H2 9681   3.699   3.058   0.762
 2309SOL    EPW 9682   3.612   3.053   0.747
 2310SOL      O 9683   2.295   3.205   1.501
 2310SOL     H1 9684   2.216   3.155   1.524
 2310SOL     H2 9685   2.365   3.164   1.551
 2310SOL    EPW 9686   2.293   3.193   1.511
 2311SOL      O 9687   2.179   1.994   0.184
 2311SOL     H1 9688   2.108   2.049   0.152
 2311SOL     H2 9689   2.221   1.960   0.105
 2311SOL    EPW 9690   2.175   1.996   0.170
 2312SOL      O 9691   3.303   2.491   1.020
 2312SOL     H1 9692   3.226   2.537   0.986
 2312SOL     H2 9693   3.360   2.560   1.054
 2312SOL    EPW 9694   3.300   2.506   1.020
 2313SOL      O 9695   1.935   2.093   0.033
 2313SOL     H1 9696   1.902   2.172   0.077
 2313SOL     H2 9697   1.990   2.126  -0.038
 2313SOL    EPW 9698   1.938   2.107   0.030
 2314SOL      O 9699   1.969   3.350   0.222
 2314SOL     H1 9700   1.986   3.434   0.264
 2314SOL     H2 9701   2.004   3.359   0.134
 2314SOL    EPW 9702   1.974   3.363   0.216
 2315SOL      O 9703   3.604   2.707   2.125
 2315SOL     H1 9704   3.645   2.649   2.190
 2315SOL     H2 9705   3.511   2.699   2.142
 2315SOL    EPW 9706   3.598   2.699   2.135
 2316SOL      O 9707   3.470   2.639   3.120
 2316SOL     H1 9708   3.425   2.706   3.171
 2316SOL     H2 9709   3.558   2.675   3.106
 2316SOL    EPW 9710   3.476   2.652   3.124
 2317SOL      O 9711   2.398   2.890   2.354
 2317SOL     H1 9712   2.488   2.865   2.338
 2317SOL     H2 9713   2.394   2.983   2.331
 2317SOL    EPW 9714   2.410   2.899   2.349
 2318SOL      O 9715   3.514   3.593   2.496
 2318SOL     H1 9716   3.526   3.539   2.574
 2318SOL     H2 9717   3.551   3.541   2.425
 2318SOL    EPW 9718   3.520   3.578   2.497
 2319SOL      O 9719   2.893   3.478   3.497
 2319SOL     H1 9720   2.934   3.514   3.418
 2319SOL     H2 9721   2.928   3.389   3.504
 2319SOL    EPW 9722   2.904   3.471   3.488
 2320SOL      O 9723   3.450   3.033   3.101
 2320SOL     H1 9724   3.371   2.998   3.059
 2320SOL     H2 9725   3.477   3.105   3.045
 2320SOL    EPW 9726   3.443   3.038   3.088
 2321SOL      O 9727   2.682   2.346   2.367
 2321SOL     H1 9728   2.657   2.434   2.395
 2321SOL     H2 9729   2.679   2.349   2.271
 2321SOL    EPW 9730   2.678   2.358   2.359
 2322SOL      O 9731   2.124   2.374   2.295
 2322SOL     H1 9732   2.156   2.462   2.277
 2322SOL     H2 9733   2.112   2.372   2.390
 2322SOL    EPW 9734   2.127   2.386   2.307
 2323SOL      O 9735   2.202   2.787   3.196
 2323SOL     H1 9736   2.265   2.734   3.147
 2323SOL     H2 9737   2.183   2.861   3.139
 2323SOL    EPW 9738   2.208   2.789   3.183
 2324SOL      O 9739   2.523   2.129   2.382
 2324SOL     H1 9740   2.581   2.205   2.384
 2324SOL     H2 9741   2.458   2.150   2.315
 2324SOL    EPW 9742   2.522   2.141   2.373
 2325SOL      O 9743   2.610   3.056   2.557
 2325SOL     H1 9744   2.690   3.059   2.609
 2325SOL     H2 9745   2.638   3.023   2.471
 2325SOL    EPW 9746   2.624   3.052   2.552
 2326SOL      O 9747   2.635   3.397   3.460
 2326SOL     H1 9748   2.719   3.423   3.499
 2326SOL     H2 9749   2.659   3.341   3.386
 2326SOL    EPW 9750   2.649   3.393   3.455
 2327SOL      O 9751   2.387   2.560   2.548
 2327SOL     H1 9752   2.372   2.480   2.599
 2327SOL     H2 9753   2.469   2.595   2.582
 2327SOL    EPW 9754   2.395   2.552   2.560
 2328SOL      O 9755   2.724   3.246   3.233
 2328SOL     H1 9756   2.688   3.312   3.173
 2328SOL     H2 9757   2.652   3.184   3.246
 2328SOL    EPW 9758   2.710   3.246   3.227
 2329SOL      O 9759   2.529   2.386   2.925
 2329SOL     H1 9760   2.435   2.382   2.943
 2329SOL     H2 9761   2.559   2.295   2.934
 2329SOL    EPW 9762   2.520   2.374   2.928
 2330SOL      O 9763   2.275   2.800   2.829
 2330SOL     H1 9764   2.230   2.807   2.745
 2330SOL     H2 9765   2.255   2.883   2.873
 2330SOL    EPW 9766   2.267   2.812   2.823
 2331SOL      O 9767   1.972   3.646   2.704
 2331SOL     H1 9768   2.061   3.638   2.739
 2331SOL     H2 9769   1.936   3.558   2.709
 2331SOL    EPW 9770   1.979   3.633   2.709
 2332SOL      O 9771   3.237   3.038   2.073
 2332SOL     H1 9772   3.155   3.074   2.039
 2332SOL     H2 9773   3.305   3.081   2.022
 2332SOL    EPW 9774   3.235   3.048   2.061
 2333SOL      O 9775   2.236   3.173   2.739
 2333SOL     H1 9776   2.212   3.226   2.815
 2333SOL     H2 9777   2.292   3.231   2.687
 2333SOL    EPW 9778   2.240   3.188   2.742
 2334SOL      O 9779   2.798   2.817   2.549
 2334SOL     H1 9780   2.712   2.804   2.589
 2334SOL     H2 9781   2.851   2.744   2.581
 2334SOL    EPW 9782   2.794   2.806   2.558
 2335SOL      O 9783   2.206   3.469   3.334
 2335SOL     H1 9784   2.114   3.445   3.319
 2335SOL     H2 9785   2.250   3.386   3.351
 2335SOL    EPW 9786   2.200   3.454   3.333
 2336SOL      O 9787   2.789   3.179   2.266
 2336SOL     H1 9788   2.766   3.241   2.334
 2336SOL     H2 9789   2.746   3.097   2.292
 2336SOL    EPW 9790   2.781   3.175   2.277
 2337SOL      O 9791   3.662   2.180   2.722
 2337SOL     H1 9792   3.599   2.160   2.791
 2337SOL     H2 9793   3.652   2.109   2.659
 2337SOL    EPW 9794   3.652   2.167   2.723
 2338SOL      O 9795   2.286   2.152   2.234
 2338SOL     H1 9796   2.260   2.114   2.150
 2338SOL     H2 9797   2.223   2.222   2.250
 2338SOL    EPW 9798   2.275   2.155   2.225
 2339SOL      O 9799   2.121   3.113   2.271
 2339SOL     H1 9800   2.069   3.181   2.227
 2339SOL     H2 9801   2.118   3.039   2.211
 2339SOL    EPW 9802   2.113   3.112   2.258
 2340SOL      O 9803   2.783   3.576   2.049
 2340SOL     H1 9804   2.738   3.592   2.132
 2340SOL     H2 9805   2.714   3.541   1.991
 2340SOL    EPW 9806   2.769   3.573   2.051
 2341SOL      O 9807   3.718   2.349   2.024
 2341SOL     H1 9808   3.627   2.351   2.052
 2341SOL     H2 9809   3.763   2.411   2.082
 2341SOL    EPW 9810   3.711   2.357   2.034
 2342SOL      O 9811   3.463   2.952   2.374
 2342SOL     H1 9812   3.373   2.952   2.409
 2342SOL     H2 9813   3.456   2.998   2.291
 2342SOL    EPW 9814   3.450   2.958   2.368
 2343SOL      O 9815   3.263   2.587   3.446
 2343SOL     H1 9816   3.332   2.525   3.423
 2343SOL     H2 9817   3.188   2.561   3.393
 2343SOL    EPW 9818   3.263   2.574   3.437
 2344SOL      O 9819   2.004   3.467   2.998
 2344SOL     H1 9820   1.987   3.413   3.075
 2344SOL     H2 9821   1.992   3.557   3.028
 2344SOL    EPW 9822   2.001   3.471   3.012
 2345SOL      O 9823   2.999   2.974   3.438
 2345SOL     H1 9824   2.984   3.067   3.423
 2345SOL     H2 9825   3.094   2.964   3.438
 2345SOL    EPW 9826   3.008   2.984   3.435
 2346SOL      O 9827   2.795   2.398   3.639
 2346SOL     H1 9828   2.885   2.399   3.606
 2346SOL     H2 9829   2.754   2.323   3.597
 2346SOL    EPW 9830   2.801   2.388   3.630
 2347SOL      O 9831   3.370   2.930   2.766
 2347SOL     H1 9832   3.373   2.864   2.697
 2347SOL     H2 9833   3.455   2.973   2.762
 2347SOL    EPW 9834   3.382   2.926   2.757
 2348SOL      O 9835   2.990   2.533   2.335
 2348SOL     H1 9836   3.016   2.557   2.246
 2348SOL     H2 9837   2.972   2.440   2.331
 2348SOL    EPW 9838   2.992   2.525   2.322
 2349SOL      O 9839   3.655   3.153   2.186
 2349SOL     H1 9840   3.611   3.194   2.261
 2349SOL     H2 9841   3.712   3.221   2.151
 2349SOL    EPW 9842   3.657   3.167   2.191
 2350SOL      O 9843   2.575   2.202   3.589
 2350SOL     H1 9844   2.585   2.128   3.529
 2350SOL     H2 9845   2.611   2.171   3.672
 2350SOL    EPW 9846   2.581   2.188   3.591
 2351SOL      O 9847   2.311   3.569   2.504
 2351SOL     H1 9848   2.343   3.657   2.482
 2351SOL     H2 9849   2.264   3.541   2.426
 2351SOL    EPW 9850   2.310   3.577   2.491
 2352SOL      O 9851   3.695   1.931   2.553
 2352SOL     H1 9852   3.749   1.882   2.615
 2352SOL     H2 9853   3.638   1.865   2.514
 2352SOL    EPW 9854   3.695   1.915   2.555
 2353SOL      O 9855   2.027   3.629   2.081
 2353SOL     H1 9856   2.056   3.719   2.073
 2353SOL     H2 9857   1.977   3.612   2.002
 2353SOL    EPW 9858   2.025   3.637   2.070
 2354SOL      O 9859   2.814   1.884   2.966
 2354SOL     H1 9860   2.773   1.962   2.928
 2354SOL     H2 9861   2.908   1.902   2.961
 2354SOL    EPW 9862   2.820   1.896   2.961
 2355SOL      O 9863   3.431   3.437   2.052
 2355SOL     H1 9864   3.479   3.506   2.098
 2355SOL     H2 9865   3.352   3.481   2.021
 2355SOL    EPW 9866   3.426   3.451   2.055
 2356SOL      O 9867   2.829   2.562   1.996
 2356SOL     H1 9868   2.831   2.509   1.917
 2356SOL     H2 9869   2.917   2.599   2.002
 2356SOL    EPW 9870   2.841   2.561   1.985
 2357SOL      O 9871   3.443   2.488   2.332
 2357SOL     H1 9872   3.482   2.488   2.419
 2357SOL     H2 9873   3.384   2.564   2.332
 2357SOL    EPW 9874   3.440   2.499   2.343
 2358SOL      O 9875   2.760   2.855   3.461
 2358SOL     H1 9876   2.737   2.835   3.551
 2358SOL     H2 9877   2.845   2.899   3.466
 2358SOL    EPW 9878   2.767   2.858   3.473
 2359SOL      O 9879   2.840   1.992   3.221
 2359SOL     H1 9880   2.846   1.954   3.134
 2359SOL     H2 9881   2.829   2.086   3.206
 2359SOL    EPW 9882   2.841   2.000   3.209
 2360SOL      O 9883   2.929   2.481   3.055
 2360SOL     H1 9884   3.004   2.510   3.002
 2360SOL     H2 9885   2.861   2.546   3.039
 2360SOL    EPW 9886   2.930   2.493   3.045
 2361SOL      O 9887   3.479   2.449   3.332
 2361SOL     H1 9888   3.460   2.358   3.311
 2361SOL     H2 9889   3.457   2.498   3.253
 2361SOL    EPW 9890   3.474   2.442   3.319
 2362SOL      O 9891   3.621   3.543   3.236
 2362SOL     H1 9892   3.549   3.505   3.287
 2362SOL     H2 9893   3.638   3.628   3.277
 2362SOL    EPW 9894   3.615   3.548   3.248
 2363SOL      O 9895   2.926   2.187   3.438
 2363SOL     H1 9896   2.892   2.226   3.357
 2363SOL     H2 9897   2.904   2.095   3.431
 2363SOL    EPW 9898   2.919   2.180   3.428
 2364SOL      O 9899   3.335   3.001   3.514
 2364SOL     H1 9900   3.417   3.042   3.544
 2364SOL     H2 9901   3.298   2.963   3.594
 2364SOL    EPW 9902   3.341   3.002   3.529
 2365SOL      O 9903   3.630   2.374   2.498
 2365SOL     H1 9904   3.719   2.343   2.515
 2365SOL     H2 9905   3.573   2.314   2.546
 2365SOL    EPW 9906   3.633   2.362   2.507
 2366SOL      O 9907   2.056   2.088   2.527
 2366SOL     H1 9908   2.047   2.028   2.453
 2366SOL     H2 9909   1.989   2.059   2.590
 2366SOL    EPW 9910   2.046   2.075   2.525
 2367SOL      O 9911   2.999   3.181   2.088
 2367SOL     H1 9912   2.949   3.183   2.170
 2367SOL     H2 9913   2.933   3.199   2.020
 2367SOL    EPW 9914   2.985   3.183   2.090
 2368SOL      O 9915   2.003   2.261   2.890
 2368SOL     H1 9916   1.975   2.352   2.899
 2368SOL     H2 9917   1.940   2.222   2.829
 2368SOL    EPW 9918   1.990   2.267   2.884
 2369SOL      O 9919   2.462   3.599   2.196
 2369SOL     H1 9920   2.383   3.557   2.229
 2369SOL     H2 9921   2.528   3.582   2.263
 2369SOL    EPW 9922   2.461   3.591   2.209
 2370SOL      O 9923   3.590   3.119   3.593
 2370SOL     H1 9924   3.640   3.045   3.625
 2370SOL     H2 9925   3.536   3.146   3.668
 2370SOL    EPW 9926   3.590   3.113   3.606
 2371SOL      O 9927   2.598   3.014   1.903
 2371SOL     H1 9928   2.520   2.960   1.890
 2371SOL     H2 9929   2.569   3.087   1.956
 2371SOL    EPW 9930   2.584   3.016   1.908
 2372SOL      O 9931   3.724   2.754   3.095
 2372SOL     H1 9932   3.740   2.792   3.008
 2372SOL     H2 9933   3.758   2.820   3.156
 2372SOL    EPW 9934   3.731   2.767   3.091
 2373SOL      O 9935   3.516   3.463   2.764
 2373SOL     H1 9936   3.545   3.530   2.825
 2373SOL     H2 9937   3.497   3.387   2.819
 2373SOL    EPW 9938   3.518   3.463   2.779
 2374SOL      O 9939   3.179   3.530   1.971
 2374SOL     H1 9940   3.105   3.493   2.021
 2374SOL     H2 9941   3.187   3.620   2.004
 2374SOL    EPW 9942   3.170   3.537   1.983
 2375SOL      O 9943   1.987   2.536   3.060
 2375SOL     H1 9944   2.049   2.566   3.126
 2375SOL     H2 9945   1.921   2.605   3.054
 2375SOL    EPW 9946   1.986   2.549   3.067
 2376SOL      O 9947   3.403   3.204   1.913
 2376SOL     H1 9948   3.350   3.253   1.849
 2376SOL     H2 9949   3.434   3.270   1.974
 2376SOL    EPW 9950   3.401   3.218   1.911
 2377SOL      O 9951   2.628   2.093   1.968
 2377SOL     H1 9952   2.576   2.013   1.956
 2377SOL     H2 9953   2.715   2.070   1.936
 2377SOL    EPW 9954   2.631   2.079   1.962
 2378SOL      O 9955   2.082   3.645   3.512
 2378SOL     H1 9956   2.056   3.713   3.450
 2378SOL     H2 9957   2.130   3.582   3.460
 2378SOL    EPW 9958   2.084   3.645   3.498
 2379SOL      O 9959   2.134   2.964   3.019
 2379SOL     H1 9960   2.187   3.039   3.044
 2379SOL     H2 9961   2.053   3.002   2.985
 2379SOL    EPW 9962   2.130   2.979   3.019
 2380SOL      O 9963   2.674   2.868   3.007
 2380SOL     H1 9964   2.702   2.777   3.019
 2380SOL     H2 9965   2.603   2.862   2.943
 2380SOL    EPW 9966   2.667   2.856   3.002
 2381SOL      O 9967   1.989   2.733   2.425
 2381SOL     H1 9968   2.080   2.748   2.452
 2381SOL     H2 9969   1.992   2.654   2.371
 2381SOL    EPW 9970   2.001   2.725   2.423
 2382SOL      O 9971   2.225   2.441   3.679
 2382SOL     H1 9972   2.172   2.521   3.686
 2382SOL     H2 9973   2.295   2.453   3.744
 2382SOL    EPW 9974   2.227   2.454   3.687
 2383SOL      O 9975   2.611   1.991   3.386
 2383SOL     H1 9976   2.588   1.899   3.388
 2383SOL     H2 9977   2.697   1.993   3.343
 2383SOL    EPW 9978   2.618   1.981   3.382
 2384SOL      O 9979   2.295   2.515   3.425
 2384SOL     H1 9980   2.375   2.565   3.411
 2384SOL     H2 9981   2.286   2.509   3.520
 2384SOL    EPW 9982   2.304   2.521   3.435
 2385SOL      O 9983   2.616   3.665   2.799
 2385SOL     H1 9984   2.705   3.680   2.829
 2385SOL     H2 9985   2.611   3.712   2.715
 2385SOL    EPW 9986   2.626   3.673   2.792
 2386SOL      O 9987   3.272   2.040   3.696
 2386SOL     H1 9988   3.328   1.967   3.722
 2386SOL     H2 9989   3.242   2.078   3.778
 2386SOL    EPW 9990   3.276   2.035   3.709
 2387SOL      O 9991   1.997   3.345   2.464
 2387SOL     H1 9992   1.969   3.384   2.546
 2387SOL     H2 9993   2.017   3.254   2.486
 2387SOL    EPW 9994   1.995   3.337   2.477
 2388SOL      O 9995   2.830   3.388   2.499
 2388SOL     H1 9996   2.913   3.342   2.483
 2388SOL     H2 9997   2.820   3.387   2.595
 2388SOL    EPW 9998   2.840   3.381   2.509
 2389SOL      O 9999   3.662   2.533   2.813
 2389SOL     H110000   3.751   2.563   2.795
 2389SOL     H210001   3.642   2.473   2.742
 2389SOL    EPW10002   3.671   2.530   2.802
 2390SOL      O10003   3.513   2.712   3.693
 2390SOL     H110004   3.568   2.636   3.674
 2390SOL     H210005   3.515   2.720   3.788
 2390SOL    EPW10006   3.521   2.703   3.701
 2391SOL      O10007   2.563   3.445   1.904
 2391SOL     H110008   2.503   3.514   1.874
 2391SOL     H210009   2.508   3.387   1.957
 2391SOL    EPW10010   2.547   3.447   1.906
 2392SOL      O10011   3.001   2.090   2.127
 2392SOL     H110012   2.934   2.066   2.064
 2392SOL     H210013   3.066   2.139   2.076
 2392SOL    EPW10014   3.001   2.092   2.112
 2393SOL      O10015   2.808   2.274   3.212
 2393SOL     H110016   2.727   2.315   3.240
 2393SOL     H210017   2.855   2.342   3.164
 2393SOL    EPW10018   2.803   2.289   3.210
 2394SOL      O10019   3.068   2.612   2.835
 2394SOL     H110020   3.081   2.706   2.845
 2394SOL     H210021   3.029   2.602   2.749
 2394SOL    EPW10022   3.064   2.623   2.825
 2395SOL      O10023   2.520   2.807   2.639
 2395SOL     H110024   2.431   2.798   2.672
 2395SOL     H210025   2.524   2.897   2.607
 2395SOL    EPW10026   2.509   2.818   2.639
 2396SOL      O10027   3.319   2.390   2.634
 2396SOL     H110028   3.264   2.311   2.633
 2396SOL     H210029   3.301   2.431   2.718
 2396SOL    EPW10030   3.309   2.385   2.643
 2397SOL      O10031   2.290   2.077   3.451
 2397SOL     H110032   2.211   2.095   3.503
 2397SOL     H210033   2.285   2.139   3.378
 2397SOL    EPW10034   2.280   2.087   3.448
 2398SOL      O10035   2.938   2.594   2.591
 2398SOL     H110036   2.875   2.526   2.615
 2398SOL     H210037   2.958   2.575   2.499
 2398SOL    EPW10038   2.932   2.581   2.583
 2399SOL      O10039   2.194   3.489   2.293
 2399SOL     H110040   2.155   3.536   2.219
 2399SOL     H210041   2.128   3.424   2.318
 2399SOL    EPW10042   2.181   3.487   2.287
 2400SOL      O10043   2.686   2.898   2.317
 2400SOL     H110044   2.688   2.872   2.224
 2400SOL     H210045   2.744   2.835   2.360
 2400SOL    EPW10046   2.694   2.887   2.311
 2401SOL      O10047   3.243   3.666   2.519
 2401SOL     H110048   3.186   3.619   2.458
 2401SOL     H210049   3.329   3.627   2.506
 2401SOL    EPW10050   3.246   3.657   2.509
 2402SOL      O10051   3.196   2.142   2.650
 2402SOL     H110052   3.224   2.074   2.711
 2402SOL     H210053   3.110   2.113   2.620
 2402SOL    EPW10054   3.189   2.129   2.654
 2403SOL      O10055   2.001   3.076   2.584
 2403SOL     H110056   2.065   3.108   2.647
 2403SOL     H210057   2.050   3.012   2.532
 2403SOL    EPW10058   2.016   3.072   2.585
 2404SOL      O10059   2.501   3.152   3.566
 2404SOL     H110060   2.549   3.235   3.553
 2404SOL     H210061   2.558   3.100   3.622
 2404SOL    EPW10062   2.515   3.156   3.572
 2405SOL      O10063   2.077   3.394   3.706
 2405SOL     H110064   2.133   3.318   3.721
 2405SOL     H210065   2.026   3.372   3.628
 2405SOL    EPW10066   2.077   3.381   3.697
 2406SOL      O10067   3.176   2.246   1.985
 2406SOL     H110068   3.149   2.312   1.921
 2406SOL     H210069   3.246   2.289   2.035
 2406SOL    EPW10070   3.181   2.259   1.982
 2407SOL      O10071   2.844   1.951   1.922
 2407SOL     H110072   2.900   1.943   1.844
 2407SOL     H210073   2.821   1.861   1.944
 2407SOL    EPW10074   2.849   1.938   1.915
 2408SOL      O10075   3.349   2.802   2.127
 2408SOL     H110076   3.316   2.891   2.117
 2408SOL     H210077   3.314   2.773   2.212
 2408SOL    EPW10078   3.339   2.811   2.138
 2409SOL      O10079   2.962   3.231   3.315
 2409SOL     H110080   2.873   3.237   3.283
 2409SOL     H210081   3.006   3.310   3.283
 2409SOL    EPW10082   2.957   3.241   3.307
 2410SOL      O10083   2.255   1.899   3.657
 2410SOL     H110084   2.183   1.864   3.605
 2410SOL     H210085   2.313   1.940   3.592
 2410SOL    EPW10086   2.253   1.900   3.642
 2411SOL      O10087   2.279   3.389   2.956
 2411SOL     H110088   2.324   3.451   3.013
 2411SOL     H210089   2.186   3.408   2.969
 2411SOL    EPW10090   2.272   3.399   2.963
 2412SOL      O10091   3.719   2.918   3.310
 2412SOL     H110092   3.634   2.931   3.269
 2412SOL     H210093   3.699   2.882   3.397
 2412SOL    EPW10094   3.706   2.914   3.315
 2413SOL      O10095   2.701   3.457   3.064
 2413SOL     H110096   2.725   3.446   2.973
 2413SOL     H210097   2.624   3.514   3.062
 2413SOL    EPW10098   2.693   3.462   3.053
 2414SOL      O10099   2.343   2.840   1.919
 2414SOL     H110100   2.266   2.853   1.975
 2414SOL     H210101   2.307   2.804   1.838
 2414SOL    EPW10102   2.329   2.836   1.916
 2415SOL      O10103   2.996   2.813   2.162
 2415SOL     H110104   2.906   2.834   2.137
 2415SOL     H210105   3.023   2.886   2.218
 2415SOL    EPW10106   2.988   2.825   2.165
 2416SOL      O10107   2.496   3.162   2.854
 2416SOL     H110108   2.489   3.141   2.948
 2416SOL     H210109   2.414   3.130   2.817
 2416SOL    EPW10110   2.484   3.156   2.861
 2417SOL      O10111   3.360   2.172   3.256
 2417SOL     H110112   3.307   2.174   3.336
 2417SOL     H210113   3.345   2.085   3.219
 2417SOL    EPW10114   3.352   2.162   3.261
 2418SOL      O10115   3.696   2.096   3.129
 2418SOL     H110116   3.677   2.163   3.064
 2418SOL     H210117   3.753   2.034   3.084
 2418SOL    EPW10118   3.700   2.097   3.115
 2419SOL      O10119   1.942   3.254   3.517
 2419SOL     H110120   1.986   3.187   3.463
 2419SOL     H210121   1.857   3.216   3.537
 2419SOL    EPW10122   1.937   3.240   3.513
 2420SOL      O10123   2.625   1.929   2.569
 2420SOL     H110124   2.554   1.990   2.551
 2420SOL     H210125   2.676   1.926   2.488
 2420SOL    EPW10126   2.621   1.935   2.556
 2421SOL      O10127   2.383   3.169   2.318
 2421SOL     H110128   2.376   3.201   2.408
 2421SOL     H210129   2.293   3.153   2.290
 2421SOL    EPW10130   2.371   3.171   2.325
 2422SOL      O10131   2.978   3.562   3.227
 2422SOL     H110132   2.898   3.547   3.177
 2422SOL     H210133   2.985   3.657   3.234
 2422SOL    EPW10134   2.969   3.573   3.221
 2423SOL      O10135   3.092   3.527   2.717
 2423SOL     H110136   3.139   3.600   2.676
 2423SOL     H210137   3.013   3.566   2.753
 2423SOL    EPW10138   3.087   3.542   2.716
 2424SOL      O10139   3.500   3.622   2.992
 2424SOL     H110140   3.543   3.592   3.072
 2424SOL     H210141   3.419   3.570   2.989
 2424SOL    EPW10142   3.495   3.611   3.002
 2425SOL      O10143   2.585   2.586   3.699
 2425SOL     H110144   2.655   2.528   3.671
 2425SOL     H210145   2.528   2.531   3.754
 2425SOL    EPW10146   2.587   2.573   3.703
 2426SOL      O10147   3.372   2.798   3.332
 2426SOL     H110148   3.377   2.851   3.412
 2426SOL     H210149   3.334   2.715   3.360
 2426SOL    EPW10150   3.368   2.793   3.347
 2427SOL      O10151   3.012   1.933   3.578
 2427SOL     H110152   3.007   1.840   3.559
 2427SOL     H210153   3.095   1.944   3.624
 2427SOL    EPW10154   3.020   1.922   3.582
 2428SOL      O10155   2.386   2.453   2.032
 2428SOL     H110156   2.352   2.509   2.102
 2428SOL     H210157   2.457   2.403   2.072
 2428SOL    EPW10158   2.392   2.454   2.046
 2429SOL      O10159   3.482   3.204   2.854
 2429SOL     H110160   3.517   3.186   2.767
 2429SOL     H210161   3.387   3.205   2.841
 2429SOL    EPW10162   3.474   3.201   2.841
 2430SOL      O10163   2.911   2.852   3.223
 2430SOL     H110164   2.954   2.887   3.301
 2430SOL     H210165   2.894   2.929   3.169
 2430SOL    EPW10166   2.914   2.867   3.226
 2431SOL      O10167   3.442   2.339   2.096
 2431SOL     H110168   3.434   2.410   2.033
 2431SOL     H210169   3.460   2.383   2.179
 2431SOL    EPW10170   3.443   2.353   2.098
 2432SOL      O10171   2.302   1.994   2.525
 2432SOL     H110172   2.352   2.037   2.456
 2432SOL     H210173   2.217   2.038   2.525
 2432SOL    EPW10174   2.299   2.007   2.516
 2433SOL      O10175   2.061   3.056   3.385
 2433SOL     H110176   2.089   3.009   3.463
 2433SOL     H210177   1.982   3.011   3.356
 2433SOL    EPW10178   2.054   3.045   3.391
 2434SOL      O10179   2.569   2.383   3.352
 2434SOL     H110180   2.541   2.471   3.376
 2434SOL     H210181   2.538   2.327   3.423
 2434SOL    EPW10182   2.561   2.386   3.364
 2435SOL      O10183   3.111   2.601   2.071
 2435SOL     H110184   3.158   2.619   1.990
 2435SOL     H210185   3.077   2.685   2.099
 2435SOL    EPW10186   3.113   2.615   2.064
 2436SOL      O10187   2.224   2.779   2.565
 2436SOL     H110188   2.282   2.835   2.513
 2436SOL     H210189   2.268   2.694   2.567
 2436SOL    EPW10190   2.237   2.776   2.558
 2437SOL      O10191   3.364   2.131   2.402
 2437SOL     H110192   3.286   2.081   2.427
 2437SOL     H210193   3.335   2.222   2.402
 2437SOL    EPW10194   3.350   2.135   2.405
 2438SOL      O10195   2.950   2.093   2.561
 2438SOL     H110196   2.970   2.168   2.505
 2438SOL     H210197   2.930   2.132   2.646
 2438SOL    EPW10198   2.951   2.109   2.565
 2439SOL      O10199   2.846   3.343   1.893
 2439SOL     H110200   2.873   3.421   1.845
 2439SOL     H210201   2.753   3.358   1.912
 2439SOL    EPW10202   2.837   3.356   1.889
 2440SOL      O10203   3.710   2.866   3.580
 2440SOL     H110204   3.623   2.846   3.616
 2440SOL     H210205   3.764   2.792   3.605
 2440SOL    EPW10206   3.705   2.855   3.588
 2441SOL      O10207   1.931   3.379   2.737
 2441SOL     H110208   1.963   3.383   2.828
 2441SOL     H210209   1.836   3.387   2.745
 2441SOL    EPW10210   1.923   3.382   2.750
 2442SOL      O10211   1.886   2.505   2.284
 2442SOL     H110212   1.826   2.477   2.354
 2442SOL     H210213   1.960   2.445   2.290
 2442SOL    EPW10214   1.888   2.494   2.293
 2443SOL      O10215   3.454   3.717   3.718
 2443SOL     H110216   3.499   3.641   3.683
 2443SOL     H210217   3.492   3.730   3.805
 2443SOL    EPW10218   3.464   3.710   3.724
 2444SOL      O10219   3.054   3.236   2.444
 2444SOL     H110220   3.077   3.187   2.522
 2444SOL     H210221   3.135   3.278   2.416
 2444SOL    EPW10222   3.067   3.236   2.451
 2445SOL      O10223   2.312   2.244   3.173
 2445SOL     H110224   2.345   2.325   3.213
 2445SOL     H210225   2.285   2.270   3.085
 2445SOL    EPW10226   2.311   2.258   3.167
 2446SOL      O10227   2.266   2.211   2.909
 2446SOL     H110228   2.296   2.125   2.880
 2446SOL     H210229   2.171   2.204   2.912
 2446SOL    EPW10230   2.258   2.200   2.907
 2447SOL      O10231   3.095   2.420   3.600
 2447SOL     H110232   3.147   2.355   3.553
 2447SOL     H210233   3.053   2.471   3.530
 2447SOL    EPW10234   3.096   2.417   3.583
 2448SOL      O10235   3.194   2.215   3.461
 2448SOL     H110236   3.101   2.199   3.448
 2448SOL     H210237   3.220   2.153   3.529
 2448SOL    EPW10238   3.184   2.205   3.468
 2449SOL      O10239   2.409   1.989   2.800
 2449SOL     H110240   2.419   1.898   2.826
 2449SOL     H210241   2.365   1.985   2.715
 2449SOL    EPW10242   2.405   1.977   2.792
 2450SOL      O10243   2.503   3.604   3.346
 2450SOL     H110244   2.420   3.589   3.391
 2450SOL     H210245   2.562   3.537   3.381
 2450SOL    EPW10246   2.501   3.594   3.356
 2451SOL      O10247   3.560   2.311   2.971
 2451SOL     H110248   3.493   2.344   3.031
 2451SOL     H210249   3.603   2.389   2.937
 2451SOL    EPW10250   3.558   2.326   2.975
 2452SOL      O10251   3.738   3.031   2.941
 2452SOL     H110252   3.731   2.971   2.866
 2452SOL     H210253   3.664   3.091   2.930
 2452SOL    EPW10254   3.728   3.031   2.930
 2453SOL      O10255   3.120   2.893   2.859
 2453SOL     H110256   3.134   2.865   2.950
 2453SOL     H210257   3.206   2.924   2.831
 2453SOL    EPW10258   3.133   2.894   2.868
 2454SOL      O10259   3.203   2.388   3.138
 2454SOL     H110260   3.224   2.389   3.045
 2454SOL     H210261   3.248   2.310   3.171
 2454SOL    EPW10262   3.210   2.378   3.130
 2455SOL      O10263   3.696   2.519   3.680
 2455SOL     H110264   3.733   2.464   3.749
 2455SOL     H210265   3.721   2.476   3.598
 2455SOL    EPW10266   3.703   2.507   3.679
 2456SOL      O10267   3.243   2.817   3.731
 2456SOL     H110268   3.309   2.765   3.685
 2456SOL     H210269   3.263   2.804   3.824
 2456SOL    EPW10270   3.254   2.808   3.738
 2457SOL      O10271   3.254   2.678   2.358
 2457SOL     H110272   3.169   2.648   2.328
 2457SOL     H210273   3.246   2.685   2.453
 2457SOL    EPW10274   3.242   2.676   2.367
 2458SOL      O10275   2.330   3.141   3.089
 2458SOL     H110276   2.342   3.168   3.180
 2458SOL     H210277   2.311   3.222   3.042
 2458SOL    EPW10278   2.329   3.156   3.094
 2459SOL      O10279   2.614   2.121   2.912
 2459SOL     H110280   2.587   2.123   3.003
 2459SOL     H210281   2.544   2.073   2.867
 2459SOL    EPW10282   2.602   2.117   2.919
 2460SOL      O10283   2.468   3.613   3.074
 2460SOL     H110284   2.520   3.690   3.051
 2460SOL     H210285   2.477   3.605   3.169
 2460SOL    EPW10286   2.477   3.620   3.085
 2461SOL      O10287   3.370   3.198   3.306
 2461SOL     H110288   3.355   3.127   3.369
 2461SOL     H210289   3.416   3.156   3.234
 2461SOL    EPW10290   3.376   3.182   3.306
 2462SOL      O10291   2.444   2.929   3.423
 2462SOL     H110292   2.481   2.934   3.335
 2462SOL     H210293   2.483   3.002   3.470
 2462SOL    EPW10294   2.454   2.939   3.418
 2463SOL      O10295   2.624   2.972   3.235
 2463SOL     H110296   2.683   2.918   3.288
 2463SOL     H210297   2.639   2.944   3.145
 2463SOL    EPW10298   2.634   2.961   3.231
 2464SOL      O10299   2.627   2.344   2.084
 2464SOL     H110300   2.700   2.393   2.047
 2464SOL     H210301   2.643   2.253   2.058
 2464SOL    EPW10302   2.639   2.339   2.077
 2465SOL      O10303   3.435   3.461   3.407
 2465SOL     H110304   3.477   3.446   3.492
 2465SOL     H210305   3.426   3.374   3.369
 2465SOL    EPW10306   3.439   3.449   3.414
 2466SOL      O10307   3.095   1.940   2.998
 2466SOL     H110308   3.150   1.949   2.920
 2466SOL     H210309   3.150   1.974   3.069
 2466SOL    EPW10310   3.109   1.945   2.997
 2467SOL      O10311   2.102   2.853   2.182
 2467SOL     H110312   2.039   2.869   2.111
 2467SOL     H210313   2.049   2.816   2.253
 2467SOL    EPW10314   2.087   2.850   2.182
 2468SOL      O10315   2.458   3.207   2.041
 2468SOL     H110316   2.473   3.183   2.133
 2468SOL     H210317   2.366   3.185   2.025
 2468SOL    EPW10318   2.448   3.200   2.051
 2469SOL      O10319   2.997   3.438   2.193
 2469SOL     H110320   3.005   3.356   2.144
 2469SOL     H210321   2.916   3.477   2.160
 2469SOL    EPW10322   2.987   3.433   2.183
 2470SOL      O10323   2.256   3.596   2.762
 2470SOL     H110324   2.260   3.507   2.797
 2470SOL     H210325   2.282   3.587   2.671
 2470SOL    EPW10326   2.259   3.584   2.754
 2471SOL      O10327   2.873   3.074   3.005
 2471SOL     H110328   2.805   3.008   3.021
 2471SOL     H210329   2.891   3.068   2.912
 2471SOL    EPW10330   2.866   3.065   2.996
 2472SOL      O10331   1.962   3.349   3.256
 2472SOL     H110332   1.952   3.307   3.342
 2472SOL     H210333   1.883   3.402   3.246
 2472SOL    EPW10334   1.951   3.350   3.267
 2473SOL      O10335   2.866   2.213   2.826
 2473SOL     H110336   2.796   2.165   2.871
 2473SOL     H210337   2.898   2.276   2.890
 2473SOL    EPW10338   2.861   2.215   2.840
 2474SOL      O10339   2.517   2.649   3.446
 2474SOL     H110340   2.510   2.744   3.434
 2474SOL     H210341   2.526   2.638   3.541
 2474SOL    EPW10342   2.518   2.661   3.456
 2475SOL      O10343   2.238   3.164   3.704
 2475SOL     H110344   2.310   3.166   3.641
 2475SOL     H210345   2.208   3.073   3.703
 2475SOL    EPW10346   2.243   3.153   3.696
 2476SOL      O10347   3.322   1.927   3.171
 2476SOL     H110348   3.393   1.873   3.135
 2476SOL     H210349   3.321   1.906   3.264
 2476SOL    EPW10350   3.331   1.918   3.179
 2477SOL      O10351   3.522   3.457   3.655
 2477SOL     H110352   3.495   3.454   3.746
 2477SOL     H210353   3.618   3.461   3.658
 2477SOL    EPW10354   3.532   3.457   3.667
 2478SOL      O10355   2.333   2.319   2.639
 2478SOL     H110356   2.404   2.267   2.602
 2478SOL     H210357   2.319   2.284   2.726
 2478SOL    EPW10358   2.341   2.308   2.646
 2479SOL      O10359   1.888   3.654   3.711
 2479SOL     H110360   1.938   3.632   3.633
 2479SOL     H210361   1.896   3.749   3.719
 2479SOL    EPW10362   1.896   3.663   3.702
 2480SOL      O10363   2.649   3.412   2.715
 2480SOL     H110364   2.577   3.349   2.728
 2480SOL     H210365   2.610   3.497   2.733
 2480SOL    EPW10366   2.633   3.415   2.718
 2481SOL      O10367   2.969   2.260   2.363
 2481SOL     H110368   2.991   2.197   2.295
 2481SOL     H210369   2.874   2.252   2.374
 2481SOL    EPW10370   2.959   2.251   2.355
 2482SOL      O10371   2.054   1.950   2.295
 2482SOL     H110372   2.125   1.971   2.234
 2482SOL     H210373   2.008   1.878   2.253
 2482SOL    EPW10374   2.058   1.944   2.281
 2483SOL      O10375   1.885   2.417   3.438
 2483SOL     H110376   1.949   2.483   3.413
 2483SOL     H210377   1.804   2.444   3.395
 2483SOL    EPW10378   1.883   2.429   3.430
 2484SOL      O10379   3.623   3.324   2.395
 2484SOL     H110380   3.593   3.257   2.456
 2484SOL     H210381   3.717   3.330   2.409
 2484SOL    EPW10382   3.631   3.316   2.405
 2485SOL      O10383   3.179   3.001   2.325
 2485SOL     H110384   3.151   3.087   2.358
 2485SOL     H210385   3.207   3.017   2.235
 2485SOL    EPW10386   3.179   3.015   2.317
 2486SOL      O10387   2.841   1.921   2.378
 2486SOL     H110388   2.878   1.980   2.443
 2486SOL     H210389   2.818   1.977   2.304
 2486SOL    EPW10390   2.842   1.936   2.377
 2487SOL      O10391   3.694   2.803   2.800
 2487SOL     H110392   3.685   2.835   2.711
 2487SOL     H210393   3.647   2.719   2.800
 2487SOL    EPW10394   3.687   2.796   2.790
 2488SOL      O10395   2.070   2.643   3.379
 2488SOL     H110396   2.091   2.712   3.317
 2488SOL     H210397   2.150   2.590   3.384
 2488SOL    EPW10398   2.083   2.644   3.373
 2489SOL      O10399   3.606   2.734   2.501
 2489SOL     H110400   3.700   2.723   2.489
 2489SOL     H210401   3.582   2.806   2.442
 2489SOL    EPW10402   3.616   2.742   2.492
 2490SOL      O10403   2.055   2.658   3.646
 2490SOL     H110404   1.981   2.602   3.672
 2490SOL     H210405   2.050   2.661   3.551
 2490SOL    EPW10406   2.044   2.651   3.636
 2491SOL      O10407   2.221   1.945   3.096
 2491SOL     H110408   2.264   2.029   3.116
 2491SOL     H210409   2.294   1.883   3.089
 2491SOL    EPW10410   2.236   1.948   3.097
 2492SOL      O10411   2.262   2.612   2.274
 2492SOL     H110412   2.262   2.707   2.259
 2492SOL     H210413   2.339   2.596   2.328
 2492SOL    EPW10414   2.272   2.623   2.279
 2493SOL      O10415   3.038   2.471   3.338
 2493SOL     H110416   3.074   2.444   3.254
 2493SOL     H210417   2.951   2.505   3.317
 2493SOL    EPW10418   3.032   2.472   3.325
 2494SOL      O10419   2.021   2.343   2.563
 2494SOL     H110420   2.083   2.350   2.636
 2494SOL     H210421   2.021   2.250   2.540
 2494SOL    EPW10422   2.029   2.332   2.570
 2495SOL      O10423   3.568   3.683   2.095
 2495SOL     H110424   3.635   3.716   2.035
 2495SOL     H210425   3.525   3.762   2.129
 2495SOL    EPW10426   3.570   3.698   2.091
 2496SOL      O10427   2.703   2.604   3.047
 2496SOL     H110428   2.661   2.522   3.023
 2496SOL     H210429   2.704   2.603   3.143
 2496SOL    EPW10430   2.696   2.593   3.056
 2497SOL      O10431   3.374   3.737   3.446
 2497SOL     H110432   3.377   3.643   3.429
 2497SOL     H210433   3.397   3.745   3.538
 2497SOL    EPW10434   3.377   3.725   3.456
 2498SOL      O10435   2.507   2.074   3.152
 2498SOL     H110436   2.438   2.137   3.173
 2498SOL     H210437   2.534   2.038   3.237
 2498SOL    EPW10438   2.501   2.077   3.165
 2499SOL      O10439   1.890   2.915   2.021
 2499SOL     H110440   1.859   2.980   2.084
 2499SOL     H210441   1.839   2.837   2.040
 2499SOL    EPW10442   1.880   2.912   2.031
 2500SOL      O10443   3.302   1.927   2.769
 2500SOL     H110444   3.390   1.936   2.806
 2500SOL     H210445   3.312   1.868   2.695
 2500SOL    EPW10446   3.316   1.921   2.763
 2501SOL      O10447   3.334   2.666   2.613
 2501SOL     H110448   3.414   2.681   2.562
 2501SOL     H210449   3.327   2.571   2.619
 2501SOL    EPW10450   3.343   2.655   2.608
 2502SOL      O10451   2.474   3.715   1.963
 2502SOL     H110452   2.379   3.715   1.955
 2502SOL     H210453   2.490   3.661   2.041
 2502SOL    EPW10454   2.464   3.709   1.972
 2503SOL      O10455   2.784   2.592   3.310
 2503SOL     H110456   2.853   2.659   3.307
 2503SOL     H210457   2.717   2.630   3.366
 2503SOL    EPW10458   2.785   2.605   3.317
 2504SOL      O10459   2.202   2.892   3.558
 2504SOL     H110460   2.156   2.808   3.560
 2504SOL     H210461   2.259   2.886   3.482
 2504SOL    EPW10462   2.204   2.880   3.550
 2505SOL      O10463   3.319   2.535   1.879
 2505SOL     H110464   3.247   2.511   1.821
 2505SOL     H210465   3.385   2.572   1.821
 2505SOL    EPW10466   3.318   2.537   1.864
 2506SOL      O10467   2.453   3.267   2.559
 2506SOL     H110468   2.518   3.200   2.580
 2506SOL     H210469   2.505   3.344   2.536
 2506SOL    EPW10470   2.468   3.269   2.558
 2507SOL      O10471   2.714   2.432   2.689
 2507SOL     H110472   2.654   2.450   2.761
 2507SOL     H210473   2.748   2.344   2.708
 2507SOL    EPW10474   2.710   2.422   2.702
 2508SOL      O10475   3.655   1.931   3.358
 2508SOL     H110476   3.576   1.977   3.386
 2508SOL     H210477   3.690   1.985   3.287
 2508SOL    EPW10478   3.649   1.944   3.352
 2509SOL      O10479   2.939   3.015   2.708
 2509SOL     H110480   3.031   2.996   2.726
 2509SOL     H210481   2.912   2.945   2.648
 2509SOL    EPW10482   2.947   3.003   2.702
 2510SOL      O10483   2.732   2.835   2.063
 2510SOL     H110484   2.718   2.747   2.028
 2510SOL     H210485   2.683   2.892   2.004
 2510SOL    EPW10486   2.724   2.830   2.051
 2511SOL      O10487   3.213   3.253   2.804
 2511SOL     H110488   3.186   3.337   2.769
 2511SOL     H210489   3.173   3.248   2.891
 2511SOL    EPW10490   3.206   3.262   2.810
 2512SOL      O10491   3.132   3.201   3.072
 2512SOL     H110492   3.143   3.168   3.161
 2512SOL     H210493   3.051   3.160   3.041
 2512SOL    EPW10494   3.122   3.193   3.078
 2513SOL      O10495   2.145   2.559   2.842
 2513SOL     H110496   2.095   2.558   2.923
 2513SOL     H210497   2.165   2.651   2.826
 2513SOL    EPW10498   2.141   2.571   2.850
 2514SOL      O10499   3.212   3.323   3.604
 2514SOL     H110500   3.212   3.417   3.620
 2514SOL     H210501   3.257   3.313   3.520
 2514SOL    EPW10502   3.218   3.333   3.595
 2515SOL      O10503   3.451   2.041   2.165
 2515SOL     H110504   3.444   2.045   2.260
 2515SOL     H210505   3.463   2.132   2.138
 2515SOL    EPW10506   3.452   2.054   2.173
 2516SOL      O10507   2.740   2.604   2.279
 2516SOL     H110508   2.720   2.590   2.186
 2516SOL     H210509   2.833   2.583   2.286
 2516SOL    EPW10510   2.750   2.599   2.268
 2517SOL      O10511   2.067   2.227   3.583
 2517SOL     H110512   2.024   2.286   3.520
 2517SOL     H210513   2.135   2.282   3.623
 2517SOL    EPW10514   2.071   2.242   3.580
 2518SOL      O10515   3.179   2.847   3.128
 2518SOL     H110516   3.242   2.844   3.201
 2518SOL     H210517   3.095   2.865   3.170
 2518SOL    EPW10518   3.175   2.849   3.143
 2519SOL      O10519   2.723   3.562   2.317
 2519SOL     H110520   2.781   3.633   2.344
 2519SOL     H210521   2.746   3.490   2.375
 2519SOL    EPW10522   2.734   3.562   2.328
 2520SOL      O10523   3.518   2.024   2.907
 2520SOL     H110524   3.563   1.942   2.926
 2520SOL     H210525   3.538   2.080   2.983
 2520SOL    EPW10526   3.528   2.020   2.919
 2521SOL      O10527   1.966   1.867   3.006
 2521SOL     H110528   1.957   1.868   2.911
 2521SOL     H210529   2.060   1.879   3.021
 2521SOL    EPW10530   1.978   1.870   2.997
 2522SOL      O10531   3.603   3.060   2.626
 2522SOL     H110532   3.582   3.006   2.549
 2522SOL     H210533   3.699   3.058   2.630
 2522SOL    EPW10534   3.612   3.053   2.615
 2523SOL      O10535   2.295   3.205   3.369
 2523SOL     H110536   2.216   3.155   3.392
 2523SOL     H210537   2.365   3.164   3.419
 2523SOL    EPW10538   2.293   3.193   3.379
 2524SOL      O10539   2.179   1.994   2.052
 2524SOL     H110540   2.108   2.049   2.020
 2524SOL     H210541   2.221   1.960   1.973
 2524SOL    EPW10542   2.175   1.996   2.038
 2525SOL      O10543   3.303   2.491   2.888
 2525SOL     H110544   3.226   2.537   2.854
 2525SOL     H210545   3.360   2.560   2.922
 2525SOL    EPW10546   3.300   2.506   2.888
 2526SOL      O10547   1.935   2.093   1.901
 2526SOL     H110548   1.902   2.172   1.945
 2526SOL     H210549   1.990   2.126   1.830
 2526SOL    EPW10550   1.938   2.107   1.898
 2527SOL      O10551   1.969   3.350   2.090
 2527SOL     H110552   1.986   3.434   2.132
 2527SOL     H210553   2.004   3.359   2.002
 2527SOL    EPW10554   1.974   3.363   2.084
 2528SOL      O10555   3.241   3.439   2.307
 2528SOL     H110556   3.304   3.429   2.236
 2528SOL     H210557   3.158   3.459   2.262
 2528SOL    EPW10558   3.238   3.440   2.292
 2529SOL      O10559   3.604   2.707   3.993
 2529SOL     H110560   3.645   2.649   4.058
 2529SOL     H210561   3.511   2.699   4.010
 2529SOL    EPW10562   3.598   2.699   4.003
 2530SOL      O10563   2.398   2.890   4.222
 2530SOL     H110564   2.488   2.865   4.206
 2530SOL     H210565   2.394   2.983   4.199
 2530SOL    EPW10566   2.410   2.899   4.217
 2531SOL      O10567   2.682   2.346   4.235
 2531SOL     H110568   2.657   2.434   4.263
 2531SOL     H210569   2.679   2.349   4.139
 2531SOL    EPW10570   2.678   2.358   4.227
 2532SOL      O10571   2.124   2.374   4.163
 2532SOL     H110572   2.156   2.462   4.145
 2532SOL     H210573   2.112   2.372   4.258
 2532SOL    EPW10574   2.127   2.386   4.175
 2533SOL      O10575   2.523   2.129   4.250
 2533SOL     H110576   2.581   2.205   4.252
 2533SOL     H210577   2.458   2.150   4.183
 2533SOL    EPW10578   2.522   2.141   4.241
 2534SOL      O10579   2.610   3.056   4.425
 2534SOL     H110580   2.690   3.059   4.477
 2534SOL     H210581   2.638   3.023   4.339
 2534SOL    EPW10582   2.624   3.052   4.420
 2535SOL      O10583   3.237   3.038   3.941
 2535SOL     H110584   3.155   3.074   3.907
 2535SOL     H210585   3.305   3.081   3.890
 2535SOL    EPW10586   3.235   3.048   3.929
 2536SOL      O10587   2.789   3.179   4.134
 2536SOL     H110588   2.766   3.241   4.202
 2536SOL     H210589   2.746   3.097   4.160
 2536SOL    EPW10590   2.781   3.175   4.145
 2537SOL      O10591   2.286   2.152   4.102
 2537SOL     H110592   2.260   2.114   4.018
 2537SOL     H210593   2.223   2.222   4.118
 2537SOL    EPW10594   2.275   2.155   4.093
 2538SOL      O10595   2.121   3.113   4.139
 2538SOL     H110596   2.069   3.181   4.095
 2538SOL     H210597   2.118   3.039   4.079
 2538SOL    EPW10598   2.113   3.112   4.126
 2539SOL      O10599   2.783   3.576   3.917
 2539SOL     H110600   2.738   3.592   4.000
 2539SOL     H210601   2.714   3.541   3.859
 2539SOL    EPW10602   2.769   3.573   3.919
 2540SOL      O10603   3.718   2.349   3.892
 2540SOL     H110604   3.627   2.351   3.920
 2540SOL     H210605   3.763   2.411   3.950
 2540SOL    EPW10606   3.711   2.357   3.902
 2541SOL      O10607   3.655   3.153   4.054
 2541SOL     H110608   3.611   3.194   4.129
 2541SOL     H210609   3.712   3.221   4.019
 2541SOL    EPW10610   3.657   3.167   4.059
 2542SOL      O10611   2.311   3.569   4.372
 2542SOL     H110612   2.343   3.657   4.350
 2542SOL     H210613   2.264   3.541   4.294
 2542SOL    EPW10614   2.310   3.577   4.359
 2543SOL      O10615   2.027   3.629   3.949
 2543SOL     H110616   2.056   3.719   3.941
 2543SOL     H210617   1.977   3.612   3.870
 2543SOL    EPW10618   2.025   3.637   3.938
 2544SOL      O10619   3.431   3.437   3.920
 2544SOL     H110620   3.479   3.506   3.966
 2544SOL     H210621   3.352   3.481   3.889
 2544SOL    EPW10622   3.426   3.451   3.923
 2545SOL      O10623   2.829   2.562   3.864
 2545SOL     H110624   2.831   2.509   3.785
 2545SOL     H210625   2.917   2.599   3.870
 2545SOL    EPW10626   2.841   2.561   3.853
 2546SOL      O10627   2.056   2.088   4.395
 2546SOL     H110628   2.047   2.028   4.321
 2546SOL     H210629   1.989   2.059   4.458
 2546SOL    EPW10630   2.046   2.075   4.393
 2547SOL      O10631   2.999   3.181   3.956
 2547SOL     H110632   2.949   3.183   4.038
 2547SOL     H210633   2.933   3.199   3.888
 2547SOL    EPW10634   2.985   3.183   3.958
 2548SOL      O10635   2.462   3.599   4.064
 2548SOL     H110636   2.383   3.557   4.097
 2548SOL     H210637   2.528   3.582   4.131
 2548SOL    EPW10638   2.461   3.591   4.077
 2549SOL      O10639   2.598   3.014   3.771
 2549SOL     H110640   2.520   2.960   3.758
 2549SOL     H210641   2.569   3.087   3.824
 2549SOL    EPW10642   2.584   3.016   3.776
 2550SOL      O10643   3.179   3.530   3.839
 2550SOL     H110644   3.105   3.493   3.889
 2550SOL     H210645   3.187   3.620   3.872
 2550SOL    EPW10646   3.170   3.537   3.851
 2551SOL      O10647   3.403   3.204   3.781
 2551SOL     H110648   3.350   3.253   3.717
 2551SOL     H210649   3.434   3.270   3.842
 2551SOL    EPW10650   3.401   3.218   3.779
 2552SOL      O10651   2.628   2.093   3.836
 2552SOL     H110652   2.576   2.013   3.824
 2552SOL     H210653   2.715   2.070   3.804
 2552SOL    EPW10654   2.631   2.079   3.830
 2553SOL      O10655   1.989   2.733   4.293
 2553SOL     H110656   2.080   2.748   4.320
 2553SOL     H210657   1.992   2.654   4.239
 2553SOL    EPW10658   2.001   2.725   4.291
 2554SOL      O10659   1.997   3.345   4.332
 2554SOL     H110660   1.969   3.384   4.414
 2554SOL     H210661   2.017   3.254   4.354
 2554SOL    EPW10662   1.995   3.337   4.345
 2555SOL      O10663   2.830   3.388   4.367
 2555SOL     H110664   2.913   3.342   4.351
 2555SOL     H210665   2.820   3.387   4.463
 2555SOL    EPW10666   2.840   3.381   4.377
 2556SOL      O10667   2.563   3.445   3.772
 2556SOL     H110668   2.503   3.514   3.742
 2556SOL     H210669   2.508   3.387   3.825
 2556SOL    EPW10670   2.547   3.447   3.774
 2557SOL      O10671   3.001   2.090   3.995
 2557SOL     H110672   2.934   2.066   3.932
 2557SOL     H210673   3.066   2.139   3.944
 2557SOL    EPW10674   3.001   2.092   3.980
 2558SOL      O10675   2.194   3.489   4.161
 2558SOL     H110676   2.155   3.536   4.087
 2558SOL     H210677   2.128   3.424   4.186
 2558SOL    EPW10678   2.181   3.487   4.155
 2559SOL      O10679   2.686   2.898   4.185
 2559SOL     H110680   2.688   2.872   4.092
 2559SOL     H210681   2.744   2.835   4.228
 2559SOL    EPW10682   2.694   2.887   4.179
 2560SOL      O10683   2.001   3.076   4.452
 2560SOL     H110684   2.065   3.108   4.515
 2560SOL     H210685   2.050   3.012   4.400
 2560SOL    EPW10686   2.016   3.072   4.453
 2561SOL      O10687   3.176   2.246   3.853
 2561SOL     H110688   3.149   2.312   3.789
 2561SOL     H210689   3.246   2.289   3.903
 2561SOL    EPW10690   3.181   2.259   3.850
 2562SOL      O10691   2.844   1.951   3.790
 2562SOL     H110692   2.900   1.943   3.712
 2562SOL     H210693   2.821   1.861   3.812
 2562SOL    EPW10694   2.849   1.938   3.783
 2563SOL      O10695   3.349   2.802   3.995
 2563SOL     H110696   3.316   2.891   3.985
 2563SOL     H210697   3.314   2.773   4.080
 2563SOL    EPW10698   3.339   2.811   4.006
 2564SOL      O10699   2.343   2.840   3.787
 2564SOL     H110700   2.266   2.853   3.843
 2564SOL     H210701   2.307   2.804   3.706
 2564SOL    EPW10702   2.329   2.836   3.784
 2565SOL      O10703   2.625   1.929   4.437
 2565SOL     H110704   2.554   1.990   4.419
 2565SOL     H210705   2.676   1.926   4.356
 2565SOL    EPW10706   2.621   1.935   4.424
 2566SOL      O10707   2.383   3.169   4.186
 2566SOL     H110708   2.376   3.201   4.276
 2566SOL     H210709   2.293   3.153   4.158
 2566SOL    EPW10710   2.371   3.171   4.193
 2567SOL      O10711   2.386   2.453   3.900
 2567SOL     H110712   2.352   2.509   3.970
 2567SOL     H210713   2.457   2.403   3.940
 2567SOL    EPW10714   2.392   2.454   3.914
 2568SOL      O10715   3.442   2.339   3.964
 2568SOL     H110716   3.434   2.410   3.901
 2568SOL     H210717   3.460   2.383   4.047
 2568SOL    EPW10718   3.443   2.353   3.966
 2569SOL      O10719   2.302   1.994   4.393
 2569SOL     H110720   2.352   2.037   4.324
 2569SOL     H210721   2.217   2.038   4.393
 2569SOL    EPW10722   2.299   2.007   4.384
 2570SOL      O10723   3.111   2.601   3.939
 2570SOL     H110724   3.158   2.619   3.858
 2570SOL     H210725   3.077   2.685   3.967
 2570SOL    EPW10726   3.113   2.615   3.932
 2571SOL      O10727   2.224   2.779   4.433
 2571SOL     H110728   2.282   2.835   4.381
 2571SOL     H210729   2.268   2.694   4.435
 2571SOL    EPW10730   2.237   2.776   4.426
 2572SOL      O10731   2.846   3.343   3.761
 2572SOL     H110732   2.873   3.421   3.713
 2572SOL     H210733   2.753   3.358   3.780
 2572SOL    EPW10734   2.837   3.356   3.757
 2573SOL      O10735   1.886   2.505   4.152
 2573SOL     H110736   1.826   2.477   4.222
 2573SOL     H210737   1.960   2.445   4.158
 2573SOL    EPW10738   1.888   2.494   4.161
 2574SOL      O10739   3.194   1.903   3.948
 2574SOL     H110740   3.268   1.947   3.991
 2574SOL     H210741   3.118   1.957   3.970
 2574SOL    EPW10742   3.194   1.915   3.956
 2575SOL      O10743   2.627   2.344   3.952
 2575SOL     H110744   2.700   2.393   3.915
 2575SOL     H210745   2.643   2.253   3.926
 2575SOL    EPW10746   2.639   2.339   3.945
 2576SOL      O10747   2.102   2.853   4.050
 2576SOL     H110748   2.039   2.869   3.979
 2576SOL     H210749   2.049   2.816   4.121
 2576SOL    EPW10750   2.087   2.850   4.050
 2577SOL      O10751   2.458   3.207   3.909
 2577SOL     H110752   2.473   3.183   4.001
 2577SOL     H210753   2.366   3.185   3.893
 2577SOL    EPW10754   2.448   3.200   3.919
 2578SOL      O10755   2.997   3.438   4.061
 2578SOL     H110756   3.005   3.356   4.012
 2578SOL     H210757   2.916   3.477   4.028
 2578SOL    EPW10758   2.987   3.433   4.051
 2579SOL      O10759   2.054   1.950   4.163
 2579SOL     H110760   2.125   1.971   4.102
 2579SOL     H210761   2.008   1.878   4.121
 2579SOL    EPW10762   2.058   1.944   4.149
 2580SOL      O10763   2.262   2.612   4.142
 2580SOL     H110764   2.262   2.707   4.127
 2580SOL     H210765   2.339   2.596   4.196
 2580SOL    EPW10766   2.272   2.623   4.147
 2581SOL      O10767   2.021   2.343   4.431
 2581SOL     H110768   2.083   2.350   4.504
 2581SOL     H210769   2.021   2.250   4.408
 2581SOL    EPW10770   2.029   2.332   4.438
 2582SOL      O10771   3.568   3.683   3.963
 2582SOL     H110772   3.635   3.716   3.903
 2582SOL     H210773   3.525   3.762   3.997
 2582SOL    EPW10774   3.570   3.698   3.959
 2583SOL      O10775   1.890   2.915   3.889
 2583SOL     H110776   1.859   2.980   3.952
 2583SOL     H210777   1.839   2.837   3.908
 2583SOL    EPW10778   1.880   2.912   3.899
 2584SOL      O10779   2.474   3.715   3.831
 2584SOL     H110780   2.379   3.715   3.823
 2584SOL     H210781   2.490   3.661   3.909
 2584SOL    EPW10782   2.464   3.709   3.840
 2585SOL      O10783   3.319   2.535   3.747
 2585SOL     H110784   3.247   2.511   3.689
 2585SOL     H210785   3.385   2.572   3.689
 2585SOL    EPW10786   3.318   2.537   3.732
 2586SOL      O10787   2.453   3.267   4.427
 2586SOL     H110788   2.518   3.200   4.448
 2586SOL     H210789   2.505   3.344   4.404
 2586SOL    EPW10790   2.468   3.269   4.426
 2587SOL      O10791   2.732   2.835   3.931
 2587SOL     H110792   2.718   2.747   3.896
 2587SOL     H210793   2.683   2.892   3.872
 2587SOL    EPW10794   2.724   2.830   3.919
 2588SOL      O10795   3.451   2.041   4.033
 2588SOL     H110796   3.444   2.045   4.128
 2588SOL     H210797   3.463   2.132   4.006
 2588SOL    EPW10798   3.452   2.054   4.041
 2589SOL      O10799   2.740   2.604   4.147
 2589SOL     H110800   2.720   2.590   4.054
 2589SOL     H210801   2.833   2.583   4.154
 2589SOL    EPW10802   2.750   2.599   4.136
 2590SOL      O10803   2.723   3.562   4.185
 2590SOL     H110804   2.781   3.633   4.212
 2590SOL     H210805   2.746   3.490   4.243
 2590SOL    EPW10806   2.734   3.562   4.196
 2591SOL      O10807   2.179   1.994   3.920
 2591SOL     H110808   2.108   2.049   3.888
 2591SOL     H210809   2.221   1.960   3.841
 2591SOL    EPW10810   2.175   1.996   3.906
 2592SOL      O10811   1.935   2.093   3.769
 2592SOL     H110812   1.902   2.172   3.813
 2592SOL     H210813   1.990   2.126   3.698
 2592SOL    EPW10814   1.938   2.107   3.766
 2593SOL      O10815   1.969   3.350   3.958
 2593SOL     H110816   1.986   3.434   4.000
 2593SOL     H210817   2.004   3.359   3.870
 2593SOL    EPW10818   1.974   3.363   3.952
 2594SOL      O10819   3.241   3.439   4.175
 2594SOL     H110820   3.304   3.429   4.104
 2594SOL     H210821   3.158   3.459   4.130
 2594SOL    EPW10822   3.238   3.440   4.160
 2595SOL      O10823   3.604   4.575   0.257
 2595SOL     H110824   3.645   4.517   0.322
 2595SOL     H210825   3.511   4.567   0.274
 2595SOL    EPW10826   3.598   4.567   0.267
 2596SOL      O10827   2.398   4.758   0.486
 2596SOL     H110828   2.488   4.733   0.470
 2596SOL     H210829   2.394   4.851   0.463
 2596SOL    EPW10830   2.410   4.767   0.481
 2597SOL      O10831   3.514   5.461   0.628
 2597SOL     H110832   3.526   5.407   0.706
 2597SOL     H210833   3.551   5.409   0.557
 2597SOL    EPW10834   3.520   5.446   0.629
 2598SOL      O10835   2.893   5.346   1.629
 2598SOL     H110836   2.934   5.382   1.550
 2598SOL     H210837   2.928   5.257   1.636
 2598SOL    EPW10838   2.904   5.339   1.620
 2599SOL      O10839   2.682   4.214   0.499
 2599SOL     H110840   2.657   4.302   0.527
 2599SOL     H210841   2.679   4.217   0.403
 2599SOL    EPW10842   2.678   4.226   0.491
 2600SOL      O10843   2.124   4.242   0.427
 2600SOL     H110844   2.156   4.330   0.409
 2600SOL     H210845   2.112   4.240   0.522
 2600SOL    EPW10846   2.127   4.254   0.439
 2601SOL      O10847   2.202   4.655   1.328
 2601SOL     H110848   2.265   4.602   1.279
 2601SOL     H210849   2.183   4.729   1.271
 2601SOL    EPW10850   2.208   4.657   1.315
 2602SOL      O10851   2.523   3.997   0.514
 2602SOL     H110852   2.581   4.073   0.516
 2602SOL     H210853   2.458   4.018   0.447
 2602SOL    EPW10854   2.522   4.009   0.505
 2603SOL      O10855   2.610   4.924   0.689
 2603SOL     H110856   2.690   4.927   0.741
 2603SOL     H210857   2.638   4.891   0.603
 2603SOL    EPW10858   2.624   4.920   0.684
 2604SOL      O10859   2.635   5.265   1.592
 2604SOL     H110860   2.719   5.291   1.631
 2604SOL     H210861   2.659   5.209   1.518
 2604SOL    EPW10862   2.649   5.261   1.587
 2605SOL      O10863   2.387   4.428   0.680
 2605SOL     H110864   2.372   4.348   0.731
 2605SOL     H210865   2.469   4.463   0.714
 2605SOL    EPW10866   2.395   4.420   0.692
 2606SOL      O10867   2.724   5.114   1.365
 2606SOL     H110868   2.688   5.180   1.305
 2606SOL     H210869   2.652   5.052   1.378
 2606SOL    EPW10870   2.710   5.114   1.359
 2607SOL      O10871   2.275   4.668   0.961
 2607SOL     H110872   2.230   4.675   0.877
 2607SOL     H210873   2.255   4.751   1.005
 2607SOL    EPW10874   2.267   4.680   0.955
 2608SOL      O10875   1.972   5.514   0.836
 2608SOL     H110876   2.061   5.506   0.871
 2608SOL     H210877   1.936   5.426   0.841
 2608SOL    EPW10878   1.979   5.501   0.841
 2609SOL      O10879   2.236   5.041   0.871
 2609SOL     H110880   2.212   5.094   0.947
 2609SOL     H210881   2.292   5.099   0.819
 2609SOL    EPW10882   2.240   5.056   0.874
 2610SOL      O10883   2.798   4.685   0.681
 2610SOL     H110884   2.712   4.672   0.721
 2610SOL     H210885   2.851   4.612   0.713
 2610SOL    EPW10886   2.794   4.674   0.690
 2611SOL      O10887   2.206   5.337   1.466
 2611SOL     H110888   2.114   5.313   1.451
 2611SOL     H210889   2.250   5.254   1.483
 2611SOL    EPW10890   2.200   5.322   1.465
 2612SOL      O10891   2.789   5.047   0.398
 2612SOL     H110892   2.766   5.109   0.466
 2612SOL     H210893   2.746   4.965   0.424
 2612SOL    EPW10894   2.781   5.043   0.409
 2613SOL      O10895   2.286   4.020   0.366
 2613SOL     H110896   2.260   3.982   0.282
 2613SOL     H210897   2.223   4.090   0.382
 2613SOL    EPW10898   2.275   4.023   0.357
 2614SOL      O10899   2.121   4.981   0.403
 2614SOL     H110900   2.069   5.049   0.359
 2614SOL     H210901   2.118   4.907   0.343
 2614SOL    EPW10902   2.113   4.980   0.390
 2615SOL      O10903   2.783   5.444   0.181
 2615SOL     H110904   2.738   5.460   0.264
 2615SOL     H210905   2.714   5.409   0.123
 2615SOL    EPW10906   2.769   5.441   0.183
 2616SOL      O10907   3.463   4.820   0.506
 2616SOL     H110908   3.373   4.820   0.541
 2616SOL     H210909   3.456   4.866   0.423
 2616SOL    EPW10910   3.450   4.826   0.500
 2617SOL      O10911   2.004   5.335   1.130
 2617SOL     H110912   1.987   5.281   1.207
 2617SOL     H210913   1.992   5.425   1.160
 2617SOL    EPW10914   2.001   5.339   1.144
 2618SOL      O10915   2.999   4.842   1.570
 2618SOL     H110916   2.984   4.935   1.555
 2618SOL     H210917   3.094   4.832   1.570
 2618SOL    EPW10918   3.008   4.852   1.567
 2619SOL      O10919   2.795   4.266   1.771
 2619SOL     H110920   2.885   4.267   1.738
 2619SOL     H210921   2.754   4.191   1.729
 2619SOL    EPW10922   2.801   4.256   1.762
 2620SOL      O10923   3.370   4.798   0.898
 2620SOL     H110924   3.373   4.732   0.829
 2620SOL     H210925   3.455   4.841   0.894
 2620SOL    EPW10926   3.382   4.794   0.889
 2621SOL      O10927   2.575   4.070   1.721
 2621SOL     H110928   2.585   3.996   1.661
 2621SOL     H210929   2.611   4.039   1.804
 2621SOL    EPW10930   2.581   4.056   1.723
 2622SOL      O10931   2.311   5.437   0.636
 2622SOL     H110932   2.343   5.525   0.614
 2622SOL     H210933   2.264   5.409   0.558
 2622SOL    EPW10934   2.310   5.445   0.623
 2623SOL      O10935   3.695   3.799   0.685
 2623SOL     H110936   3.749   3.750   0.747
 2623SOL     H210937   3.638   3.733   0.646
 2623SOL    EPW10938   3.695   3.783   0.687
 2624SOL      O10939   2.027   5.497   0.213
 2624SOL     H110940   2.056   5.587   0.205
 2624SOL     H210941   1.977   5.480   0.134
 2624SOL    EPW10942   2.025   5.505   0.202
 2625SOL      O10943   2.814   3.752   1.098
 2625SOL     H110944   2.773   3.830   1.060
 2625SOL     H210945   2.908   3.770   1.093
 2625SOL    EPW10946   2.820   3.764   1.093
 2626SOL      O10947   3.431   5.305   0.184
 2626SOL     H110948   3.479   5.374   0.230
 2626SOL     H210949   3.352   5.349   0.153
 2626SOL    EPW10950   3.426   5.319   0.187
 2627SOL      O10951   2.829   4.430   0.128
 2627SOL     H110952   2.831   4.377   0.049
 2627SOL     H210953   2.917   4.467   0.134
 2627SOL    EPW10954   2.841   4.429   0.117
 2628SOL      O10955   3.443   4.356   0.464
 2628SOL     H110956   3.482   4.356   0.551
 2628SOL     H210957   3.384   4.432   0.464
 2628SOL    EPW10958   3.440   4.367   0.475
 2629SOL      O10959   2.760   4.723   1.593
 2629SOL     H110960   2.737   4.703   1.683
 2629SOL     H210961   2.845   4.767   1.598
 2629SOL    EPW10962   2.767   4.726   1.605
 2630SOL      O10963   2.840   3.860   1.353
 2630SOL     H110964   2.846   3.822   1.266
 2630SOL     H210965   2.829   3.954   1.338
 2630SOL    EPW10966   2.841   3.868   1.341
 2631SOL      O10967   2.929   4.349   1.187
 2631SOL     H110968   3.004   4.378   1.134
 2631SOL     H210969   2.861   4.414   1.171
 2631SOL    EPW10970   2.930   4.361   1.177
 2632SOL      O10971   2.926   4.055   1.570
 2632SOL     H110972   2.892   4.094   1.489
 2632SOL     H210973   2.904   3.963   1.563
 2632SOL    EPW10974   2.919   4.048   1.560
 2633SOL      O10975   3.630   4.242   0.630
 2633SOL     H110976   3.719   4.211   0.647
 2633SOL     H210977   3.573   4.182   0.678
 2633SOL    EPW10978   3.633   4.230   0.639
 2634SOL      O10979   2.056   3.956   0.659
 2634SOL     H110980   2.047   3.896   0.585
 2634SOL     H210981   1.989   3.927   0.722
 2634SOL    EPW10982   2.046   3.943   0.657
 2635SOL      O10983   2.003   4.129   1.022
 2635SOL     H110984   1.975   4.220   1.031
 2635SOL     H210985   1.940   4.090   0.961
 2635SOL    EPW10986   1.990   4.135   1.016
 2636SOL      O10987   2.462   5.467   0.328
 2636SOL     H110988   2.383   5.425   0.361
 2636SOL     H210989   2.528   5.450   0.395
 2636SOL    EPW10990   2.461   5.459   0.341
 2637SOL      O10991   2.598   4.882   0.035
 2637SOL     H110992   2.520   4.828   0.022
 2637SOL     H210993   2.569   4.955   0.088
 2637SOL    EPW10994   2.584   4.884   0.040
 2638SOL      O10995   3.516   5.331   0.896
 2638SOL     H110996   3.545   5.398   0.957
 2638SOL     H210997   3.497   5.255   0.951
 2638SOL    EPW10998   3.518   5.331   0.911
 2639SOL      O10999   1.987   4.404   1.192
 2639SOL     H111000   2.049   4.434   1.258
 2639SOL     H211001   1.921   4.473   1.186
 2639SOL    EPW11002   1.986   4.417   1.199
 2640SOL      O11003   2.628   3.961   0.100
 2640SOL     H111004   2.576   3.881   0.088
 2640SOL     H211005   2.715   3.938   0.068
 2640SOL    EPW11006   2.631   3.947   0.094
 2641SOL      O11007   2.082   5.513   1.644
 2641SOL     H111008   2.056   5.581   1.582
 2641SOL     H211009   2.130   5.450   1.592
 2641SOL    EPW11010   2.084   5.513   1.630
 2642SOL      O11011   2.134   4.832   1.151
 2642SOL     H111012   2.187   4.907   1.176
 2642SOL     H211013   2.053   4.870   1.117
 2642SOL    EPW11014   2.130   4.847   1.151
 2643SOL      O11015   2.674   4.736   1.139
 2643SOL     H111016   2.702   4.645   1.151
 2643SOL     H211017   2.603   4.730   1.075
 2643SOL    EPW11018   2.667   4.724   1.134
 2644SOL      O11019   1.989   4.601   0.557
 2644SOL     H111020   2.080   4.616   0.584
 2644SOL     H211021   1.992   4.522   0.503
 2644SOL    EPW11022   2.001   4.593   0.555
 2645SOL      O11023   2.225   4.309   1.811
 2645SOL     H111024   2.172   4.389   1.818
 2645SOL     H211025   2.295   4.321   1.876
 2645SOL    EPW11026   2.227   4.322   1.819
 2646SOL      O11027   2.611   3.859   1.518
 2646SOL     H111028   2.588   3.767   1.520
 2646SOL     H211029   2.697   3.861   1.475
 2646SOL    EPW11030   2.618   3.849   1.514
 2647SOL      O11031   2.295   4.383   1.557
 2647SOL     H111032   2.375   4.433   1.543
 2647SOL     H211033   2.286   4.377   1.652
 2647SOL    EPW11034   2.304   4.389   1.567
 2648SOL      O11035   2.616   5.533   0.931
 2648SOL     H111036   2.705   5.548   0.961
 2648SOL     H211037   2.611   5.580   0.847
 2648SOL    EPW11038   2.626   5.541   0.924
 2649SOL      O11039   3.272   3.908   1.828
 2649SOL     H111040   3.328   3.835   1.854
 2649SOL     H211041   3.242   3.946   1.910
 2649SOL    EPW11042   3.276   3.903   1.841
 2650SOL      O11043   1.997   5.213   0.596
 2650SOL     H111044   1.969   5.252   0.678
 2650SOL     H211045   2.017   5.122   0.618
 2650SOL    EPW11046   1.995   5.205   0.609
 2651SOL      O11047   2.830   5.256   0.631
 2651SOL     H111048   2.913   5.210   0.615
 2651SOL     H211049   2.820   5.255   0.727
 2651SOL    EPW11050   2.840   5.249   0.641
 2652SOL      O11051   3.662   4.401   0.945
 2652SOL     H111052   3.751   4.431   0.927
 2652SOL     H211053   3.642   4.341   0.874
 2652SOL    EPW11054   3.671   4.398   0.934
 2653SOL      O11055   2.563   5.313   0.036
 2653SOL     H111056   2.503   5.382   0.006
 2653SOL     H211057   2.508   5.255   0.089
 2653SOL    EPW11058   2.547   5.315   0.038
 2654SOL      O11059   2.808   4.142   1.344
 2654SOL     H111060   2.727   4.183   1.372
 2654SOL     H211061   2.855   4.210   1.296
 2654SOL    EPW11062   2.803   4.157   1.342
 2655SOL      O11063   3.068   4.480   0.967
 2655SOL     H111064   3.081   4.574   0.977
 2655SOL     H211065   3.029   4.470   0.881
 2655SOL    EPW11066   3.064   4.491   0.957
 2656SOL      O11067   2.520   4.675   0.771
 2656SOL     H111068   2.431   4.666   0.804
 2656SOL     H211069   2.524   4.765   0.739
 2656SOL    EPW11070   2.509   4.686   0.771
 2657SOL      O11071   3.319   4.258   0.766
 2657SOL     H111072   3.264   4.179   0.765
 2657SOL     H211073   3.301   4.299   0.850
 2657SOL    EPW11074   3.309   4.253   0.775
 2658SOL      O11075   2.290   3.945   1.583
 2658SOL     H111076   2.211   3.963   1.635
 2658SOL     H211077   2.285   4.007   1.510
 2658SOL    EPW11078   2.280   3.955   1.580
 2659SOL      O11079   2.938   4.462   0.723
 2659SOL     H111080   2.875   4.394   0.747
 2659SOL     H211081   2.958   4.443   0.631
 2659SOL    EPW11082   2.932   4.449   0.715
 2660SOL      O11083   2.194   5.357   0.425
 2660SOL     H111084   2.155   5.404   0.351
 2660SOL     H211085   2.128   5.292   0.450
 2660SOL    EPW11086   2.181   5.355   0.419
 2661SOL      O11087   2.686   4.766   0.449
 2661SOL     H111088   2.688   4.740   0.356
 2661SOL     H211089   2.744   4.703   0.492
 2661SOL    EPW11090   2.694   4.755   0.443
 2662SOL      O11091   3.243   5.534   0.651
 2662SOL     H111092   3.186   5.487   0.590
 2662SOL     H211093   3.329   5.495   0.638
 2662SOL    EPW11094   3.246   5.525   0.641
 2663SOL      O11095   3.196   4.010   0.782
 2663SOL     H111096   3.224   3.942   0.843
 2663SOL     H211097   3.110   3.981   0.752
 2663SOL    EPW11098   3.189   3.997   0.786
 2664SOL      O11099   2.001   4.944   0.716
 2664SOL     H111100   2.065   4.976   0.779
 2664SOL     H211101   2.050   4.880   0.664
 2664SOL    EPW11102   2.016   4.940   0.717
 2665SOL      O11103   2.501   5.020   1.698
 2665SOL     H111104   2.549   5.103   1.685
 2665SOL     H211105   2.558   4.968   1.754
 2665SOL    EPW11106   2.515   5.024   1.704
 2666SOL      O11107   2.077   5.262   1.838
 2666SOL     H111108   2.133   5.186   1.853
 2666SOL     H211109   2.026   5.240   1.760
 2666SOL    EPW11110   2.077   5.249   1.829
 2667SOL      O11111   2.844   3.819   0.054
 2667SOL     H111112   2.900   3.811  -0.024
 2667SOL     H211113   2.821   3.729   0.076
 2667SOL    EPW11114   2.849   3.806   0.047
 2668SOL      O11115   2.962   5.099   1.447
 2668SOL     H111116   2.873   5.105   1.415
 2668SOL     H211117   3.006   5.178   1.415
 2668SOL    EPW11118   2.957   5.109   1.439
 2669SOL      O11119   2.255   3.767   1.789
 2669SOL     H111120   2.183   3.732   1.737
 2669SOL     H211121   2.313   3.808   1.724
 2669SOL    EPW11122   2.253   3.768   1.774
 2670SOL      O11123   2.279   5.257   1.088
 2670SOL     H111124   2.324   5.319   1.145
 2670SOL     H211125   2.186   5.276   1.101
 2670SOL    EPW11126   2.272   5.267   1.095
 2671SOL      O11127   2.701   5.325   1.196
 2671SOL     H111128   2.725   5.314   1.105
 2671SOL     H211129   2.624   5.382   1.194
 2671SOL    EPW11130   2.693   5.330   1.185
 2672SOL      O11131   2.343   4.708   0.051
 2672SOL     H111132   2.266   4.721   0.107
 2672SOL     H211133   2.307   4.672  -0.030
 2672SOL    EPW11134   2.329   4.704   0.048
 2673SOL      O11135   2.996   4.681   0.294
 2673SOL     H111136   2.906   4.702   0.269
 2673SOL     H211137   3.023   4.754   0.350
 2673SOL    EPW11138   2.988   4.693   0.297
 2674SOL      O11139   2.496   5.030   0.986
 2674SOL     H111140   2.489   5.009   1.080
 2674SOL     H211141   2.414   4.998   0.949
 2674SOL    EPW11142   2.484   5.024   0.993
 2675SOL      O11143   3.696   3.964   1.261
 2675SOL     H111144   3.677   4.031   1.196
 2675SOL     H211145   3.753   3.902   1.216
 2675SOL    EPW11146   3.700   3.965   1.247
 2676SOL      O11147   1.942   5.122   1.649
 2676SOL     H111148   1.986   5.055   1.595
 2676SOL     H211149   1.857   5.084   1.669
 2676SOL    EPW11150   1.937   5.108   1.645
 2677SOL      O11151   2.625   3.797   0.701
 2677SOL     H111152   2.554   3.858   0.683
 2677SOL     H211153   2.676   3.794   0.620
 2677SOL    EPW11154   2.621   3.803   0.688
 2678SOL      O11155   2.383   5.037   0.450
 2678SOL     H111156   2.376   5.069   0.540
 2678SOL     H211157   2.293   5.021   0.422
 2678SOL    EPW11158   2.371   5.039   0.457
 2679SOL      O11159   2.978   5.430   1.359
 2679SOL     H111160   2.898   5.415   1.309
 2679SOL     H211161   2.985   5.525   1.366
 2679SOL    EPW11162   2.969   5.441   1.353
 2680SOL      O11163   3.092   5.395   0.849
 2680SOL     H111164   3.139   5.468   0.808
 2680SOL     H211165   3.013   5.434   0.885
 2680SOL    EPW11166   3.087   5.410   0.848
 2681SOL      O11167   3.500   5.490   1.124
 2681SOL     H111168   3.543   5.460   1.204
 2681SOL     H211169   3.419   5.438   1.121
 2681SOL    EPW11170   3.495   5.479   1.134
 2682SOL      O11171   2.585   4.454   1.831
 2682SOL     H111172   2.655   4.396   1.803
 2682SOL     H211173   2.528   4.399   1.886
 2682SOL    EPW11174   2.587   4.441   1.835
 2683SOL      O11175   3.012   3.801   1.710
 2683SOL     H111176   3.007   3.708   1.691
 2683SOL     H211177   3.095   3.812   1.756
 2683SOL    EPW11178   3.020   3.790   1.714
 2684SOL      O11179   2.386   4.321   0.164
 2684SOL     H111180   2.352   4.377   0.234
 2684SOL     H211181   2.457   4.271   0.204
 2684SOL    EPW11182   2.392   4.322   0.178
 2685SOL      O11183   2.911   4.720   1.355
 2685SOL     H111184   2.954   4.755   1.433
 2685SOL     H211185   2.894   4.797   1.301
 2685SOL    EPW11186   2.914   4.735   1.358
 2686SOL      O11187   2.302   3.862   0.657
 2686SOL     H111188   2.352   3.905   0.588
 2686SOL     H211189   2.217   3.906   0.657
 2686SOL    EPW11190   2.299   3.875   0.648
 2687SOL      O11191   2.061   4.924   1.517
 2687SOL     H111192   2.089   4.877   1.595
 2687SOL     H211193   1.982   4.879   1.488
 2687SOL    EPW11194   2.054   4.913   1.523
 2688SOL      O11195   2.569   4.251   1.484
 2688SOL     H111196   2.541   4.339   1.508
 2688SOL     H211197   2.538   4.195   1.555
 2688SOL    EPW11198   2.561   4.254   1.496
 2689SOL      O11199   2.224   4.647   0.697
 2689SOL     H111200   2.282   4.703   0.645
 2689SOL     H211201   2.268   4.562   0.699
 2689SOL    EPW11202   2.237   4.644   0.690
 2690SOL      O11203   3.364   3.999   0.534
 2690SOL     H111204   3.286   3.949   0.559
 2690SOL     H211205   3.335   4.090   0.534
 2690SOL    EPW11206   3.350   4.003   0.537
 2691SOL      O11207   2.950   3.961   0.693
 2691SOL     H111208   2.970   4.036   0.637
 2691SOL     H211209   2.930   4.000   0.778
 2691SOL    EPW11210   2.951   3.977   0.697
 2692SOL      O11211   2.846   5.211   0.025
 2692SOL     H111212   2.873   5.289  -0.023
 2692SOL     H211213   2.753   5.226   0.044
 2692SOL    EPW11214   2.837   5.224   0.021
 2693SOL      O11215   1.931   5.247   0.869
 2693SOL     H111216   1.963   5.251   0.960
 2693SOL     H211217   1.836   5.255   0.877
 2693SOL    EPW11218   1.923   5.250   0.882
 2694SOL      O11219   1.886   4.373   0.416
 2694SOL     H111220   1.826   4.345   0.486
 2694SOL     H211221   1.960   4.313   0.422
 2694SOL    EPW11222   1.888   4.362   0.425
 2695SOL      O11223   3.054   5.104   0.576
 2695SOL     H111224   3.077   5.055   0.654
 2695SOL     H211225   3.135   5.146   0.548
 2695SOL    EPW11226   3.067   5.104   0.583
 2696SOL      O11227   2.312   4.112   1.305
 2696SOL     H111228   2.345   4.193   1.345
 2696SOL     H211229   2.285   4.138   1.217
 2696SOL    EPW11230   2.311   4.126   1.299
 2697SOL      O11231   2.266   4.079   1.041
 2697SOL     H111232   2.296   3.993   1.012
 2697SOL     H211233   2.171   4.072   1.044
 2697SOL    EPW11234   2.258   4.068   1.039
 2698SOL      O11235   3.095   4.288   1.732
 2698SOL     H111236   3.147   4.223   1.685
 2698SOL     H211237   3.053   4.339   1.662
 2698SOL    EPW11238   3.096   4.285   1.715
 2699SOL      O11239   3.194   4.083   1.593
 2699SOL     H111240   3.101   4.067   1.580
 2699SOL     H211241   3.220   4.021   1.661
 2699SOL    EPW11242   3.184   4.073   1.600
 2700SOL      O11243   2.409   3.857   0.932
 2700SOL     H111244   2.419   3.766   0.958
 2700SOL     H211245   2.365   3.853   0.847
 2700SOL    EPW11246   2.405   3.845   0.924
 2701SOL      O11247   2.503   5.472   1.478
 2701SOL     H111248   2.420   5.457   1.523
 2701SOL     H211249   2.562   5.405   1.513
 2701SOL    EPW11250   2.501   5.462   1.488
 2702SOL      O11251   3.738   4.899   1.073
 2702SOL     H111252   3.731   4.839   0.998
 2702SOL     H211253   3.664   4.959   1.062
 2702SOL    EPW11254   3.728   4.899   1.062
 2703SOL      O11255   3.120   4.761   0.991
 2703SOL     H111256   3.134   4.733   1.082
 2703SOL     H211257   3.206   4.792   0.963
 2703SOL    EPW11258   3.133   4.762   1.000
 2704SOL      O11259   3.203   4.256   1.270
 2704SOL     H111260   3.224   4.257   1.177
 2704SOL     H211261   3.248   4.178   1.303
 2704SOL    EPW11262   3.210   4.246   1.262
 2705SOL      O11263   3.696   4.387   1.812
 2705SOL     H111264   3.733   4.332   1.881
 2705SOL     H211265   3.721   4.344   1.730
 2705SOL    EPW11266   3.703   4.375   1.811
 2706SOL      O11267   3.243   4.685   1.863
 2706SOL     H111268   3.309   4.633   1.817
 2706SOL     H211269   3.263   4.672   1.956
 2706SOL    EPW11270   3.254   4.676   1.870
 2707SOL      O11271   3.254   4.546   0.490
 2707SOL     H111272   3.169   4.516   0.460
 2707SOL     H211273   3.246   4.553   0.585
 2707SOL    EPW11274   3.242   4.544   0.499
 2708SOL      O11275   2.330   5.009   1.221
 2708SOL     H111276   2.342   5.036   1.312
 2708SOL     H211277   2.311   5.090   1.174
 2708SOL    EPW11278   2.329   5.024   1.226
 2709SOL      O11279   2.614   3.989   1.044
 2709SOL     H111280   2.587   3.991   1.135
 2709SOL     H211281   2.544   3.941   0.999
 2709SOL    EPW11282   2.602   3.985   1.051
 2710SOL      O11283   2.468   5.481   1.206
 2710SOL     H111284   2.520   5.558   1.183
 2710SOL     H211285   2.477   5.473   1.301
 2710SOL    EPW11286   2.477   5.488   1.217
 2711SOL      O11287   2.444   4.797   1.555
 2711SOL     H111288   2.481   4.802   1.467
 2711SOL     H211289   2.483   4.870   1.602
 2711SOL    EPW11290   2.454   4.807   1.550
 2712SOL      O11291   2.624   4.840   1.367
 2712SOL     H111292   2.683   4.786   1.420
 2712SOL     H211293   2.639   4.812   1.277
 2712SOL    EPW11294   2.634   4.829   1.363
 2713SOL      O11295   2.627   4.212   0.216
 2713SOL     H111296   2.700   4.261   0.179
 2713SOL     H211297   2.643   4.121   0.190
 2713SOL    EPW11298   2.639   4.207   0.209
 2714SOL      O11299   3.095   3.808   1.130
 2714SOL     H111300   3.150   3.817   1.052
 2714SOL     H211301   3.150   3.842   1.201
 2714SOL    EPW11302   3.109   3.813   1.129
 2715SOL      O11303   2.102   4.721   0.314
 2715SOL     H111304   2.039   4.737   0.243
 2715SOL     H211305   2.049   4.684   0.385
 2715SOL    EPW11306   2.087   4.718   0.314
 2716SOL      O11307   2.458   5.075   0.173
 2716SOL     H111308   2.473   5.051   0.265
 2716SOL     H211309   2.366   5.053   0.157
 2716SOL    EPW11310   2.448   5.068   0.183
 2717SOL      O11311   2.256   5.464   0.894
 2717SOL     H111312   2.260   5.375   0.929
 2717SOL     H211313   2.282   5.455   0.803
 2717SOL    EPW11314   2.259   5.452   0.886
 2718SOL      O11315   2.873   4.942   1.137
 2718SOL     H111316   2.805   4.876   1.153
 2718SOL     H211317   2.891   4.936   1.044
 2718SOL    EPW11318   2.866   4.933   1.128
 2719SOL      O11319   1.962   5.217   1.388
 2719SOL     H111320   1.952   5.175   1.474
 2719SOL     H211321   1.883   5.270   1.378
 2719SOL    EPW11322   1.951   5.218   1.399
 2720SOL      O11323   2.866   4.081   0.958
 2720SOL     H111324   2.796   4.033   1.003
 2720SOL     H211325   2.898   4.144   1.022
 2720SOL    EPW11326   2.861   4.083   0.972
 2721SOL      O11327   2.517   4.517   1.578
 2721SOL     H111328   2.510   4.612   1.566
 2721SOL     H211329   2.526   4.506   1.673
 2721SOL    EPW11330   2.518   4.529   1.588
 2722SOL      O11331   2.238   5.032   1.836
 2722SOL     H111332   2.310   5.034   1.773
 2722SOL     H211333   2.208   4.941   1.835
 2722SOL    EPW11334   2.243   5.021   1.828
 2723SOL      O11335   3.322   3.795   1.303
 2723SOL     H111336   3.393   3.741   1.267
 2723SOL     H211337   3.321   3.774   1.396
 2723SOL    EPW11338   3.331   3.786   1.311
 2724SOL      O11339   2.333   4.187   0.771
 2724SOL     H111340   2.404   4.135   0.734
 2724SOL     H211341   2.319   4.152   0.858
 2724SOL    EPW11342   2.341   4.176   0.778
 2725SOL      O11343   1.888   5.522   1.843
 2725SOL     H111344   1.938   5.500   1.765
 2725SOL     H211345   1.896   5.617   1.851
 2725SOL    EPW11346   1.896   5.531   1.834
 2726SOL      O11347   2.649   5.280   0.847
 2726SOL     H111348   2.577   5.217   0.860
 2726SOL     H211349   2.610   5.365   0.865
 2726SOL    EPW11350   2.633   5.283   0.850
 2727SOL      O11351   2.969   4.128   0.495
 2727SOL     H111352   2.991   4.065   0.427
 2727SOL     H211353   2.874   4.120   0.506
 2727SOL    EPW11354   2.959   4.119   0.487
 2728SOL      O11355   2.054   3.818   0.427
 2728SOL     H111356   2.125   3.839   0.366
 2728SOL     H211357   2.008   3.746   0.385
 2728SOL    EPW11358   2.058   3.812   0.413
 2729SOL      O11359   1.885   4.285   1.570
 2729SOL     H111360   1.949   4.351   1.545
 2729SOL     H211361   1.804   4.312   1.527
 2729SOL    EPW11362   1.883   4.297   1.562
 2730SOL      O11363   3.623   5.192   0.527
 2730SOL     H111364   3.593   5.125   0.588
 2730SOL     H211365   3.717   5.198   0.541
 2730SOL    EPW11366   3.631   5.184   0.537
 2731SOL      O11367   3.179   4.869   0.457
 2731SOL     H111368   3.151   4.955   0.490
 2731SOL     H211369   3.207   4.885   0.367
 2731SOL    EPW11370   3.179   4.883   0.449
 2732SOL      O11371   2.841   3.789   0.510
 2732SOL     H111372   2.878   3.848   0.575
 2732SOL     H211373   2.818   3.845   0.436
 2732SOL    EPW11374   2.842   3.804   0.509
 2733SOL      O11375   3.694   4.671   0.932
 2733SOL     H111376   3.685   4.703   0.843
 2733SOL     H211377   3.647   4.587   0.932
 2733SOL    EPW11378   3.687   4.664   0.922
 2734SOL      O11379   2.070   4.511   1.511
 2734SOL     H111380   2.091   4.580   1.449
 2734SOL     H211381   2.150   4.458   1.516
 2734SOL    EPW11382   2.083   4.512   1.505
 2735SOL      O11383   3.606   4.602   0.633
 2735SOL     H111384   3.700   4.591   0.621
 2735SOL     H211385   3.582   4.674   0.574
 2735SOL    EPW11386   3.616   4.610   0.624
 2736SOL      O11387   2.055   4.526   1.778
 2736SOL     H111388   1.981   4.470   1.804
 2736SOL     H211389   2.050   4.529   1.683
 2736SOL    EPW11390   2.044   4.519   1.768
 2737SOL      O11391   2.221   3.813   1.228
 2737SOL     H111392   2.264   3.897   1.248
 2737SOL     H211393   2.294   3.751   1.221
 2737SOL    EPW11394   2.236   3.816   1.229
 2738SOL      O11395   2.262   4.480   0.406
 2738SOL     H111396   2.262   4.575   0.391
 2738SOL     H211397   2.339   4.464   0.460
 2738SOL    EPW11398   2.272   4.491   0.411
 2739SOL      O11399   3.038   4.339   1.470
 2739SOL     H111400   3.074   4.312   1.386
 2739SOL     H211401   2.951   4.373   1.449
 2739SOL    EPW11402   3.032   4.340   1.457
 2740SOL      O11403   2.021   4.211   0.695
 2740SOL     H111404   2.083   4.218   0.768
 2740SOL     H211405   2.021   4.118   0.672
 2740SOL    EPW11406   2.029   4.200   0.702
 2741SOL      O11407   3.568   5.551   0.227
 2741SOL     H111408   3.635   5.584   0.167
 2741SOL     H211409   3.525   5.630   0.261
 2741SOL    EPW11410   3.570   5.566   0.223
 2742SOL      O11411   2.703   4.472   1.179
 2742SOL     H111412   2.661   4.390   1.155
 2742SOL     H211413   2.704   4.471   1.275
 2742SOL    EPW11414   2.696   4.461   1.188
 2743SOL      O11415   2.507   3.942   1.284
 2743SOL     H111416   2.438   4.005   1.305
 2743SOL     H211417   2.534   3.906   1.369
 2743SOL    EPW11418   2.501   3.945   1.297
 2744SOL      O11419   1.890   4.783   0.153
 2744SOL     H111420   1.859   4.848   0.216
 2744SOL     H211421   1.839   4.705   0.172
 2744SOL    EPW11422   1.880   4.780   0.163
 2745SOL      O11423   3.302   3.795   0.901
 2745SOL     H111424   3.390   3.804   0.938
 2745SOL     H211425   3.312   3.736   0.827
 2745SOL    EPW11426   3.316   3.789   0.895
 2746SOL      O11427   3.334   4.534   0.745
 2746SOL     H111428   3.414   4.549   0.694
 2746SOL     H211429   3.327   4.439   0.751
 2746SOL    EPW11430   3.343   4.523   0.740
 2747SOL      O11431   2.474   5.583   0.095
 2747SOL     H111432   2.379   5.583   0.087
 2747SOL     H211433   2.490   5.529   0.173
 2747SOL    EPW11434   2.464   5.577   0.104
 2748SOL      O11435   2.784   4.460   1.442
 2748SOL     H111436   2.853   4.527   1.439
 2748SOL     H211437   2.717   4.498   1.498
 2748SOL    EPW11438   2.785   4.473   1.449
 2749SOL      O11439   2.202   4.760   1.690
 2749SOL     H111440   2.156   4.676   1.692
 2749SOL     H211441   2.259   4.754   1.614
 2749SOL    EPW11442   2.204   4.748   1.682
 2750SOL      O11443   2.453   5.135   0.691
 2750SOL     H111444   2.518   5.068   0.712
 2750SOL     H211445   2.505   5.212   0.668
 2750SOL    EPW11446   2.468   5.137   0.690
 2751SOL      O11447   2.714   4.300   0.821
 2751SOL     H111448   2.654   4.318   0.893
 2751SOL     H211449   2.748   4.212   0.840
 2751SOL    EPW11450   2.710   4.290   0.834
 2752SOL      O11451   3.655   3.799   1.490
 2752SOL     H111452   3.576   3.845   1.518
 2752SOL     H211453   3.690   3.853   1.419
 2752SOL    EPW11454   3.649   3.812   1.484
 2753SOL      O11455   2.939   4.883   0.840
 2753SOL     H111456   3.031   4.864   0.858
 2753SOL     H211457   2.912   4.813   0.780
 2753SOL    EPW11458   2.947   4.871   0.834
 2754SOL      O11459   2.732   4.703   0.195
 2754SOL     H111460   2.718   4.615   0.160
 2754SOL     H211461   2.683   4.760   0.136
 2754SOL    EPW11462   2.724   4.698   0.183
 2755SOL      O11463   3.213   5.121   0.936
 2755SOL     H111464   3.186   5.205   0.901
 2755SOL     H211465   3.173   5.116   1.023
 2755SOL    EPW11466   3.206   5.130   0.942
 2756SOL      O11467   3.132   5.069   1.204
 2756SOL     H111468   3.143   5.036   1.293
 2756SOL     H211469   3.051   5.028   1.173
 2756SOL    EPW11470   3.122   5.061   1.210
 2757SOL      O11471   2.145   4.427   0.974
 2757SOL     H111472   2.095   4.426   1.055
 2757SOL     H211473   2.165   4.519   0.958
 2757SOL    EPW11474   2.141   4.439   0.982
 2758SOL      O11475   2.740   4.472   0.411
 2758SOL     H111476   2.720   4.458   0.318
 2758SOL     H211477   2.833   4.451   0.418
 2758SOL    EPW11478   2.750   4.467   0.400
 2759SOL      O11479   2.067   4.095   1.715
 2759SOL     H111480   2.024   4.154   1.652
 2759SOL     H211481   2.135   4.150   1.755
 2759SOL    EPW11482   2.071   4.110   1.712
 2760SOL      O11483   3.179   4.715   1.260
 2760SOL     H111484   3.242   4.712   1.333
 2760SOL     H211485   3.095   4.733   1.302
 2760SOL    EPW11486   3.175   4.717   1.275
 2761SOL      O11487   2.723   5.430   0.449
 2761SOL     H111488   2.781   5.501   0.476
 2761SOL     H211489   2.746   5.358   0.507
 2761SOL    EPW11490   2.734   5.430   0.460
 2762SOL      O11491   1.966   3.735   1.138
 2762SOL     H111492   1.957   3.736   1.043
 2762SOL     H211493   2.060   3.747   1.153
 2762SOL    EPW11494   1.978   3.738   1.129
 2763SOL      O11495   3.603   4.928   0.758
 2763SOL     H111496   3.582   4.874   0.681
 2763SOL     H211497   3.699   4.926   0.762
 2763SOL    EPW11498   3.612   4.921   0.747
 2764SOL      O11499   2.295   5.073   1.501
 2764SOL     H111500   2.216   5.023   1.524
 2764SOL     H211501   2.365   5.032   1.551
 2764SOL    EPW11502   2.293   5.061   1.511
 2765SOL      O11503   2.179   3.862   0.184
 2765SOL     H111504   2.108   3.917   0.152
 2765SOL     H211505   2.221   3.828   0.105
 2765SOL    EPW11506   2.175   3.864   0.170
 2766SOL      O11507   3.303   4.359   1.020
 2766SOL     H111508   3.226   4.405   0.986
 2766SOL     H211509   3.360   4.428   1.054
 2766SOL    EPW11510   3.300   4.374   1.020
 2767SOL      O11511   1.935   3.961   0.033
 2767SOL     H111512   1.902   4.040   0.077
 2767SOL     H211513   1.990   3.994  -0.038
 2767SOL    EPW11514   1.938   3.975   0.030
 2768SOL      O11515   1.969   5.218   0.222
 2768SOL     H111516   1.986   5.302   0.264
 2768SOL     H211517   2.004   5.227   0.134
 2768SOL    EPW11518   1.974   5.231   0.216
 2769SOL      O11519   3.604   4.575   2.125
 2769SOL     H111520   3.645   4.517   2.190
 2769SOL     H211521   3.511   4.567   2.142
 2769SOL    EPW11522   3.598   4.567   2.135
 2770SOL      O11523   3.470   4.507   3.120
 2770SOL     H111524   3.425   4.574   3.171
 2770SOL     H211525   3.558   4.543   3.106
 2770SOL    EPW11526   3.476   4.520   3.124
 2771SOL      O11527   2.398   4.758   2.354
 2771SOL     H111528   2.488   4.733   2.338
 2771SOL     H211529   2.394   4.851   2.331
 2771SOL    EPW11530   2.410   4.767   2.349
 2772SOL      O11531   3.514   5.461   2.496
 2772SOL     H111532   3.526   5.407   2.574
 2772SOL     H211533   3.551   5.409   2.425
 2772SOL    EPW11534   3.520   5.446   2.497
 2773SOL      O11535   2.893   5.346   3.497
 2773SOL     H111536   2.934   5.382   3.418
 2773SOL     H211537   2.928   5.257   3.504
 2773SOL    EPW11538   2.904   5.339   3.488
 2774SOL      O11539   3.450   4.901   3.101
 2774SOL     H111540   3.371   4.866   3.059
 2774SOL     H211541   3.477   4.973   3.045
 2774SOL    EPW11542   3.443   4.906   3.088
 2775SOL      O11543   2.682   4.214   2.367
 2775SOL     H111544   2.657   4.302   2.395
 2775SOL     H211545   2.679   4.217   2.271
 2775SOL    EPW11546   2.678   4.226   2.359
 2776SOL      O11547   2.124   4.242   2.295
 2776SOL     H111548   2.156   4.330   2.277
 2776SOL     H211549   2.112   4.240   2.390
 2776SOL    EPW11550   2.127   4.254   2.307
 2777SOL      O11551   2.202   4.655   3.196
 2777SOL     H111552   2.265   4.602   3.147
 2777SOL     H211553   2.183   4.729   3.139
 2777SOL    EPW11554   2.208   4.657   3.183
 2778SOL      O11555   2.523   3.997   2.382
 2778SOL     H111556   2.581   4.073   2.384
 2778SOL     H211557   2.458   4.018   2.315
 2778SOL    EPW11558   2.522   4.009   2.373
 2779SOL      O11559   2.610   4.924   2.557
 2779SOL     H111560   2.690   4.927   2.609
 2779SOL     H211561   2.638   4.891   2.471
 2779SOL    EPW11562   2.624   4.920   2.552
 2780SOL      O11563   2.635   5.265   3.460
 2780SOL     H111564   2.719   5.291   3.499
 2780SOL     H211565   2.659   5.209   3.386
 2780SOL    EPW11566   2.649   5.261   3.455
 2781SOL      O11567   2.387   4.428   2.548
 2781SOL     H111568   2.372   4.348   2.599
 2781SOL     H211569   2.469   4.463   2.582
 2781SOL    EPW11570   2.395   4.420   2.560
 2782SOL      O11571   2.724   5.114   3.233
 2782SOL     H111572   2.688   5.180   3.173
 2782SOL     H211573   2.652   5.052   3.246
 2782SOL    EPW11574   2.710   5.114   3.227
 2783SOL      O11575   2.529   4.254   2.925
 2783SOL     H111576   2.435   4.250   2.943
 2783SOL     H211577   2.559   4.163   2.934
 2783SOL    EPW11578   2.520   4.242   2.928
 2784SOL      O11579   2.275   4.668   2.829
 2784SOL     H111580   2.230   4.675   2.745
 2784SOL     H211581   2.255   4.751   2.873
 2784SOL    EPW11582   2.267   4.680   2.823
 2785SOL      O11583   1.972   5.514   2.704
 2785SOL     H111584   2.061   5.506   2.739
 2785SOL     H211585   1.936   5.426   2.709
 2785SOL    EPW11586   1.979   5.501   2.709
 2786SOL      O11587   3.237   4.906   2.073
 2786SOL     H111588   3.155   4.942   2.039
 2786SOL     H211589   3.305   4.949   2.022
 2786SOL    EPW11590   3.235   4.916   2.061
 2787SOL      O11591   2.236   5.041   2.739
 2787SOL     H111592   2.212   5.094   2.815
 2787SOL     H211593   2.292   5.099   2.687
 2787SOL    EPW11594   2.240   5.056   2.742
 2788SOL      O11595   2.798   4.685   2.549
 2788SOL     H111596   2.712   4.672   2.589
 2788SOL     H211597   2.851   4.612   2.581
 2788SOL    EPW11598   2.794   4.674   2.558
 2789SOL      O11599   2.206   5.337   3.334
 2789SOL     H111600   2.114   5.313   3.319
 2789SOL     H211601   2.250   5.254   3.351
 2789SOL    EPW11602   2.200   5.322   3.333
 2790SOL      O11603   2.789   5.047   2.266
 2790SOL     H111604   2.766   5.109   2.334
 2790SOL     H211605   2.746   4.965   2.292
 2790SOL    EPW11606   2.781   5.043   2.277
 2791SOL      O11607   3.662   4.048   2.722
 2791SOL     H111608   3.599   4.028   2.791
 2791SOL     H211609   3.652   3.977   2.659
 2791SOL    EPW11610   3.652   4.035   2.723
 2792SOL      O11611   2.286   4.020   2.234
 2792SOL     H111612   2.260   3.982   2.150
 2792SOL     H211613   2.223   4.090   2.250
 2792SOL    EPW11614   2.275   4.023   2.225
 2793SOL      O11615   2.121   4.981   2.271
 2793SOL     H111616   2.069   5.049   2.227
 2793SOL     H211617   2.118   4.907   2.211
 2793SOL    EPW11618   2.113   4.980   2.258
 2794SOL      O11619   2.783   5.444   2.049
 2794SOL     H111620   2.738   5.460   2.132
 2794SOL     H211621   2.714   5.409   1.991
 2794SOL    EPW11622   2.769   5.441   2.051
 2795SOL      O11623   3.718   4.217   2.024
 2795SOL     H111624   3.627   4.219   2.052
 2795SOL     H211625   3.763   4.279   2.082
 2795SOL    EPW11626   3.711   4.225   2.034
 2796SOL      O11627   3.463   4.820   2.374
 2796SOL     H111628   3.373   4.820   2.409
 2796SOL     H211629   3.456   4.866   2.291
 2796SOL    EPW11630   3.450   4.826   2.368
 2797SOL      O11631   3.263   4.455   3.446
 2797SOL     H111632   3.332   4.393   3.423
 2797SOL     H211633   3.188   4.429   3.393
 2797SOL    EPW11634   3.263   4.442   3.437
 2798SOL      O11635   2.004   5.335   2.998
 2798SOL     H111636   1.987   5.281   3.075
 2798SOL     H211637   1.992   5.425   3.028
 2798SOL    EPW11638   2.001   5.339   3.012
 2799SOL      O11639   2.999   4.842   3.438
 2799SOL     H111640   2.984   4.935   3.423
 2799SOL     H211641   3.094   4.832   3.438
 2799SOL    EPW11642   3.008   4.852   3.435
 2800SOL      O11643   2.795   4.266   3.639
 2800SOL     H111644   2.885   4.267   3.606
 2800SOL     H211645   2.754   4.191   3.597
 2800SOL    EPW11646   2.801   4.256   3.630
 2801SOL      O11647   2.990   4.401   2.335
 2801SOL     H111648   3.016   4.425   2.246
 2801SOL     H211649   2.972   4.308   2.331
 2801SOL    EPW11650   2.992   4.393   2.322
 2802SOL      O11651   2.575   4.070   3.589
 2802SOL     H111652   2.585   3.996   3.529
 2802SOL     H211653   2.611   4.039   3.672
 2802SOL    EPW11654   2.581   4.056   3.591
 2803SOL      O11655   2.311   5.437   2.504
 2803SOL     H111656   2.343   5.525   2.482
 2803SOL     H211657   2.264   5.409   2.426
 2803SOL    EPW11658   2.310   5.445   2.491
 2804SOL      O11659   3.695   3.799   2.553
 2804SOL     H111660   3.749   3.750   2.615
 2804SOL     H211661   3.638   3.733   2.514
 2804SOL    EPW11662   3.695   3.783   2.555
 2805SOL      O11663   2.027   5.497   2.081
 2805SOL     H111664   2.056   5.587   2.073
 2805SOL     H211665   1.977   5.480   2.002
 2805SOL    EPW11666   2.025   5.505   2.070
 2806SOL      O11667   2.814   3.752   2.966
 2806SOL     H111668   2.773   3.830   2.928
 2806SOL     H211669   2.908   3.770   2.961
 2806SOL    EPW11670   2.820   3.764   2.961
 2807SOL      O11671   2.829   4.430   1.996
 2807SOL     H111672   2.831   4.377   1.917
 2807SOL     H211673   2.917   4.467   2.002
 2807SOL    EPW11674   2.841   4.429   1.985
 2808SOL      O11675   3.443   4.356   2.332
 2808SOL     H111676   3.482   4.356   2.419
 2808SOL     H211677   3.384   4.432   2.332
 2808SOL    EPW11678   3.440   4.367   2.343
 2809SOL      O11679   2.760   4.723   3.461
 2809SOL     H111680   2.737   4.703   3.551
 2809SOL     H211681   2.845   4.767   3.466
 2809SOL    EPW11682   2.767   4.726   3.473
 2810SOL      O11683   2.840   3.860   3.221
 2810SOL     H111684   2.846   3.822   3.134
 2810SOL     H211685   2.829   3.954   3.206
 2810SOL    EPW11686   2.841   3.868   3.209
 2811SOL      O11687   2.929   4.349   3.055
 2811SOL     H111688   3.004   4.378   3.002
 2811SOL     H211689   2.861   4.414   3.039
 2811SOL    EPW11690   2.930   4.361   3.045
 2812SOL      O11691   3.479   4.317   3.332
 2812SOL     H111692   3.460   4.226   3.311
 2812SOL     H211693   3.457   4.366   3.253
 2812SOL    EPW11694   3.474   4.310   3.319
 2813SOL      O11695   3.621   5.411   3.236
 2813SOL     H111696   3.549   5.373   3.287
 2813SOL     H211697   3.638   5.496   3.277
 2813SOL    EPW11698   3.615   5.416   3.248
 2814SOL      O11699   2.926   4.055   3.438
 2814SOL     H111700   2.892   4.094   3.357
 2814SOL     H211701   2.904   3.963   3.431
 2814SOL    EPW11702   2.919   4.048   3.428
 2815SOL      O11703   3.335   4.869   3.514
 2815SOL     H111704   3.417   4.910   3.544
 2815SOL     H211705   3.298   4.831   3.594
 2815SOL    EPW11706   3.341   4.870   3.529
 2816SOL      O11707   2.056   3.956   2.527
 2816SOL     H111708   2.047   3.896   2.453
 2816SOL     H211709   1.989   3.927   2.590
 2816SOL    EPW11710   2.046   3.943   2.525
 2817SOL      O11711   2.999   5.049   2.088
 2817SOL     H111712   2.949   5.051   2.170
 2817SOL     H211713   2.933   5.067   2.020
 2817SOL    EPW11714   2.985   5.051   2.090
 2818SOL      O11715   2.003   4.129   2.890
 2818SOL     H111716   1.975   4.220   2.899
 2818SOL     H211717   1.940   4.090   2.829
 2818SOL    EPW11718   1.990   4.135   2.884
 2819SOL      O11719   2.462   5.467   2.196
 2819SOL     H111720   2.383   5.425   2.229
 2819SOL     H211721   2.528   5.450   2.263
 2819SOL    EPW11722   2.461   5.459   2.209
 2820SOL      O11723   3.590   4.987   3.593
 2820SOL     H111724   3.640   4.913   3.625
 2820SOL     H211725   3.536   5.014   3.668
 2820SOL    EPW11726   3.590   4.981   3.606
 2821SOL      O11727   2.598   4.882   1.903
 2821SOL     H111728   2.520   4.828   1.890
 2821SOL     H211729   2.569   4.955   1.956
 2821SOL    EPW11730   2.584   4.884   1.908
 2822SOL      O11731   3.724   4.622   3.095
 2822SOL     H111732   3.740   4.660   3.008
 2822SOL     H211733   3.758   4.688   3.156
 2822SOL    EPW11734   3.731   4.635   3.091
 2823SOL      O11735   3.516   5.331   2.764
 2823SOL     H111736   3.545   5.398   2.825
 2823SOL     H211737   3.497   5.255   2.819
 2823SOL    EPW11738   3.518   5.331   2.779
 2824SOL      O11739   3.179   5.398   1.971
 2824SOL     H111740   3.105   5.361   2.021
 2824SOL     H211741   3.187   5.488   2.004
 2824SOL    EPW11742   3.170   5.405   1.983
 2825SOL      O11743   1.987   4.404   3.060
 2825SOL     H111744   2.049   4.434   3.126
 2825SOL     H211745   1.921   4.473   3.054
 2825SOL    EPW11746   1.986   4.417   3.067
 2826SOL      O11747   3.403   5.072   1.913
 2826SOL     H111748   3.350   5.121   1.849
 2826SOL     H211749   3.434   5.138   1.974
 2826SOL    EPW11750   3.401   5.086   1.911
 2827SOL      O11751   2.628   3.961   1.968
 2827SOL     H111752   2.576   3.881   1.956
 2827SOL     H211753   2.715   3.938   1.936
 2827SOL    EPW11754   2.631   3.947   1.962
 2828SOL      O11755   2.082   5.513   3.512
 2828SOL     H111756   2.056   5.581   3.450
 2828SOL     H211757   2.130   5.450   3.460
 2828SOL    EPW11758   2.084   5.513   3.498
 2829SOL      O11759   2.134   4.832   3.019
 2829SOL     H111760   2.187   4.907   3.044
 2829SOL     H211761   2.053   4.870   2.985
 2829SOL    EPW11762   2.130   4.847   3.019
 2830SOL      O11763   2.674   4.736   3.007
 2830SOL     H111764   2.702   4.645   3.019
 2830SOL     H211765   2.603   4.730   2.943
 2830SOL    EPW11766   2.667   4.724   3.002
 2831SOL      O11767   1.989   4.601   2.425
 2831SOL     H111768   2.080   4.616   2.452
 2831SOL     H211769   1.992   4.522   2.371
 2831SOL    EPW11770   2.001   4.593   2.423
 2832SOL      O11771   2.225   4.309   3.679
 2832SOL     H111772   2.172   4.389   3.686
 2832SOL     H211773   2.295   4.321   3.744
 2832SOL    EPW11774   2.227   4.322   3.687
 2833SOL      O11775   2.611   3.859   3.386
 2833SOL     H111776   2.588   3.767   3.388
 2833SOL     H211777   2.697   3.861   3.343
 2833SOL    EPW11778   2.618   3.849   3.382
 2834SOL      O11779   2.295   4.383   3.425
 2834SOL     H111780   2.375   4.433   3.411
 2834SOL     H211781   2.286   4.377   3.520
 2834SOL    EPW11782   2.304   4.389   3.435
 2835SOL      O11783   2.616   5.533   2.799
 2835SOL     H111784   2.705   5.548   2.829
 2835SOL     H211785   2.611   5.580   2.715
 2835SOL    EPW11786   2.626   5.541   2.792
 2836SOL      O11787   3.272   3.908   3.696
 2836SOL     H111788   3.328   3.835   3.722
 2836SOL     H211789   3.242   3.946   3.778
 2836SOL    EPW11790   3.276   3.903   3.709
 2837SOL      O11791   1.997   5.213   2.464
 2837SOL     H111792   1.969   5.252   2.546
 2837SOL     H211793   2.017   5.122   2.486
 2837SOL    EPW11794   1.995   5.205   2.477
 2838SOL      O11795   2.830   5.256   2.499
 2838SOL     H111796   2.913   5.210   2.483
 2838SOL     H211797   2.820   5.255   2.595
 2838SOL    EPW11798   2.840   5.249   2.509
 2839SOL      O11799   3.513   4.580   3.693
 2839SOL     H111800   3.568   4.504   3.674
 2839SOL     H211801   3.515   4.588   3.788
 2839SOL    EPW11802   3.521   4.571   3.701
 2840SOL      O11803   2.563   5.313   1.904
 2840SOL     H111804   2.503   5.382   1.874
 2840SOL     H211805   2.508   5.255   1.957
 2840SOL    EPW11806   2.547   5.315   1.906
 2841SOL      O11807   3.001   3.958   2.127
 2841SOL     H111808   2.934   3.934   2.064
 2841SOL     H211809   3.066   4.007   2.076
 2841SOL    EPW11810   3.001   3.960   2.112
 2842SOL      O11811   2.808   4.142   3.212
 2842SOL     H111812   2.727   4.183   3.240
 2842SOL     H211813   2.855   4.210   3.164
 2842SOL    EPW11814   2.803   4.157   3.210
 2843SOL      O11815   3.068   4.480   2.835
 2843SOL     H111816   3.081   4.574   2.845
 2843SOL     H211817   3.029   4.470   2.749
 2843SOL    EPW11818   3.064   4.491   2.825
 2844SOL      O11819   2.520   4.675   2.639
 2844SOL     H111820   2.431   4.666   2.672
 2844SOL     H211821   2.524   4.765   2.607
 2844SOL    EPW11822   2.509   4.686   2.639
 2845SOL      O11823   3.319   4.258   2.634
 2845SOL     H111824   3.264   4.179   2.633
 2845SOL     H211825   3.301   4.299   2.718
 2845SOL    EPW11826   3.309   4.253   2.643
 2846SOL      O11827   2.290   3.945   3.451
 2846SOL     H111828   2.211   3.963   3.503
 2846SOL     H211829   2.285   4.007   3.378
 2846SOL    EPW11830   2.280   3.955   3.448
 2847SOL      O11831   2.938   4.462   2.591
 2847SOL     H111832   2.875   4.394   2.615
 2847SOL     H211833   2.958   4.443   2.499
 2847SOL    EPW11834   2.932   4.449   2.583
 2848SOL      O11835   2.194   5.357   2.293
 2848SOL     H111836   2.155   5.404   2.219
 2848SOL     H211837   2.128   5.292   2.318
 2848SOL    EPW11838   2.181   5.355   2.287
 2849SOL      O11839   2.686   4.766   2.317
 2849SOL     H111840   2.688   4.740   2.224
 2849SOL     H211841   2.744   4.703   2.360
 2849SOL    EPW11842   2.694   4.755   2.311
 2850SOL      O11843   3.239   5.326   3.089
 2850SOL     H111844   3.164   5.372   3.127
 2850SOL     H211845   3.221   5.233   3.106
 2850SOL    EPW11846   3.228   5.320   3.097
 2851SOL      O11847   3.243   5.534   2.519
 2851SOL     H111848   3.186   5.487   2.458
 2851SOL     H211849   3.329   5.495   2.506
 2851SOL    EPW11850   3.246   5.525   2.509
 2852SOL      O11851   3.196   4.010   2.650
 2852SOL     H111852   3.224   3.942   2.711
 2852SOL     H211853   3.110   3.981   2.620
 2852SOL    EPW11854   3.189   3.997   2.654
 2853SOL      O11855   2.001   4.944   2.584
 2853SOL     H111856   2.065   4.976   2.647
 2853SOL     H211857   2.050   4.880   2.532
 2853SOL    EPW11858   2.016   4.940   2.585
 2854SOL      O11859   2.501   5.020   3.566
 2854SOL     H111860   2.549   5.103   3.553
 2854SOL     H211861   2.558   4.968   3.622
 2854SOL    EPW11862   2.515   5.024   3.572
 2855SOL      O11863   2.077   5.262   3.706
 2855SOL     H111864   2.133   5.186   3.721
 2855SOL     H211865   2.026   5.240   3.628
 2855SOL    EPW11866   2.077   5.249   3.697
 2856SOL      O11867   3.176   4.114   1.985
 2856SOL     H111868   3.149   4.180   1.921
 2856SOL     H211869   3.246   4.157   2.035
 2856SOL    EPW11870   3.181   4.127   1.982
 2857SOL      O11871   2.844   3.819   1.922
 2857SOL     H111872   2.900   3.811   1.844
 2857SOL     H211873   2.821   3.729   1.944
 2857SOL    EPW11874   2.849   3.806   1.915
 2858SOL      O11875   3.349   4.670   2.127
 2858SOL     H111876   3.316   4.759   2.117
 2858SOL     H211877   3.314   4.641   2.212
 2858SOL    EPW11878   3.339   4.679   2.138
 2859SOL      O11879   2.962   5.099   3.315
 2859SOL     H111880   2.873   5.105   3.283
 2859SOL     H211881   3.006   5.178   3.283
 2859SOL    EPW11882   2.957   5.109   3.307
 2860SOL      O11883   2.255   3.767   3.657
 2860SOL     H111884   2.183   3.732   3.605
 2860SOL     H211885   2.313   3.808   3.592
 2860SOL    EPW11886   2.253   3.768   3.642
 2861SOL      O11887   2.279   5.257   2.956
 2861SOL     H111888   2.324   5.319   3.013
 2861SOL     H211889   2.186   5.276   2.969
 2861SOL    EPW11890   2.272   5.267   2.963
 2862SOL      O11891   3.719   4.786   3.310
 2862SOL     H111892   3.634   4.799   3.269
 2862SOL     H211893   3.699   4.750   3.397
 2862SOL    EPW11894   3.706   4.782   3.315
 2863SOL      O11895   2.701   5.325   3.064
 2863SOL     H111896   2.725   5.314   2.973
 2863SOL     H211897   2.624   5.382   3.062
 2863SOL    EPW11898   2.693   5.330   3.053
 2864SOL      O11899   2.343   4.708   1.919
 2864SOL     H111900   2.266   4.721   1.975
 2864SOL     H211901   2.307   4.672   1.838
 2864SOL    EPW11902   2.329   4.704   1.916
 2865SOL      O11903   2.996   4.681   2.162
 2865SOL     H111904   2.906   4.702   2.137
 2865SOL     H211905   3.023   4.754   2.218
 2865SOL    EPW11906   2.988   4.693   2.165
 2866SOL      O11907   2.496   5.030   2.854
 2866SOL     H111908   2.489   5.009   2.948
 2866SOL     H211909   2.414   4.998   2.817
 2866SOL    EPW11910   2.484   5.024   2.861
 2867SOL      O11911   3.360   4.040   3.256
 2867SOL     H111912   3.307   4.042   3.336
 2867SOL     H211913   3.345   3.953   3.219
 2867SOL    EPW11914   3.352   4.030   3.261
 2868SOL      O11915   3.696   3.964   3.129
 2868SOL     H111916   3.677   4.031   3.064
 2868SOL     H211917   3.753   3.902   3.084
 2868SOL    EPW11918   3.700   3.965   3.115
 2869SOL      O11919   1.942   5.122   3.517
 2869SOL     H111920   1.986   5.055   3.463
 2869SOL     H211921   1.857   5.084   3.537
 2869SOL    EPW11922   1.937   5.108   3.513
 2870SOL      O11923   2.625   3.797   2.569
 2870SOL     H111924   2.554   3.858   2.551
 2870SOL     H211925   2.676   3.794   2.488
 2870SOL    EPW11926   2.621   3.803   2.556
 2871SOL      O11927   2.383   5.037   2.318
 2871SOL     H111928   2.376   5.069   2.408
 2871SOL     H211929   2.293   5.021   2.290
 2871SOL    EPW11930   2.371   5.039   2.325
 2872SOL      O11931   2.978   5.430   3.227
 2872SOL     H111932   2.898   5.415   3.177
 2872SOL     H211933   2.985   5.525   3.234
 2872SOL    EPW11934   2.969   5.441   3.221
 2873SOL      O11935   3.092   5.395   2.717
 2873SOL     H111936   3.139   5.468   2.676
 2873SOL     H211937   3.013   5.434   2.753
 2873SOL    EPW11938   3.087   5.410   2.716
 2874SOL      O11939   3.500   5.490   2.992
 2874SOL     H111940   3.543   5.460   3.072
 2874SOL     H211941   3.419   5.438   2.989
 2874SOL    EPW11942   3.495   5.479   3.002
 2875SOL      O11943   2.585   4.454   3.699
 2875SOL     H111944   2.655   4.396   3.671
 2875SOL     H211945   2.528   4.399   3.754
 2875SOL    EPW11946   2.587   4.441   3.703
 2876SOL      O11947   3.372   4.666   3.332
 2876SOL     H111948   3.377   4.719   3.412
 2876SOL     H211949   3.334   4.583   3.360
 2876SOL    EPW11950   3.368   4.661   3.347
 2877SOL      O11951   3.012   3.801   3.578
 2877SOL     H111952   3.007   3.708   3.559
 2877SOL     H211953   3.095   3.812   3.624
 2877SOL    EPW11954   3.020   3.790   3.582
 2878SOL      O11955   2.386   4.321   2.032
 2878SOL     H111956   2.352   4.377   2.102
 2878SOL     H211957   2.457   4.271   2.072
 2878SOL    EPW11958   2.392   4.322   2.046
 2879SOL      O11959   3.482   5.072   2.854
 2879SOL     H111960   3.517   5.054   2.767
 2879SOL     H211961   3.387   5.073   2.841
 2879SOL    EPW11962   3.474   5.069   2.841
 2880SOL      O11963   2.911   4.720   3.223
 2880SOL     H111964   2.954   4.755   3.301
 2880SOL     H211965   2.894   4.797   3.169
 2880SOL    EPW11966   2.914   4.735   3.226
 2881SOL      O11967   3.442   4.207   2.096
 2881SOL     H111968   3.434   4.278   2.033
 2881SOL     H211969   3.460   4.251   2.179
 2881SOL    EPW11970   3.443   4.221   2.098
 2882SOL      O11971   2.302   3.862   2.525
 2882SOL     H111972   2.352   3.905   2.456
 2882SOL     H211973   2.217   3.906   2.525
 2882SOL    EPW11974   2.299   3.875   2.516
 2883SOL      O11975   2.061   4.924   3.385
 2883SOL     H111976   2.089   4.877   3.463
 2883SOL     H211977   1.982   4.879   3.356
 2883SOL    EPW11978   2.054   4.913   3.391
 2884SOL      O11979   2.569   4.251   3.352
 2884SOL     H111980   2.541   4.339   3.376
 2884SOL     H211981   2.538   4.195   3.423
 2884SOL    EPW11982   2.561   4.254   3.364
 2885SOL      O11983   3.111   4.469   2.071
 2885SOL     H111984   3.158   4.487   1.990
 2885SOL     H211985   3.077   4.553   2.099
 2885SOL    EPW11986   3.113   4.483   2.064
 2886SOL      O11987   2.224   4.647   2.565
 2886SOL     H111988   2.282   4.703   2.513
 2886SOL     H211989   2.268   4.562   2.567
 2886SOL    EPW11990   2.237   4.644   2.558
 2887SOL      O11991   3.364   3.999   2.402
 2887SOL     H111992   3.286   3.949   2.427
 2887SOL     H211993   3.335   4.090   2.402
 2887SOL    EPW11994   3.350   4.003   2.405
 2888SOL      O11995   2.950   3.961   2.561
 2888SOL     H111996   2.970   4.036   2.505
 2888SOL     H211997   2.930   4.000   2.646
 2888SOL    EPW11998   2.951   3.977   2.565
 2889SOL      O11999   2.846   5.211   1.893
 2889SOL     H112000   2.873   5.289   1.845
 2889SOL     H212001   2.753   5.226   1.912
 2889SOL    EPW12002   2.837   5.224   1.889
 2890SOL      O12003   3.710   4.734   3.580
 2890SOL     H112004   3.623   4.714   3.616
 2890SOL     H212005   3.764   4.660   3.605
 2890SOL    EPW12006   3.705   4.723   3.588
 2891SOL      O12007   1.931   5.247   2.737
 2891SOL     H112008   1.963   5.251   2.828
 2891SOL     H212009   1.836   5.255   2.745
 2891SOL    EPW12010   1.923   5.250   2.750
 2892SOL      O12011   1.886   4.373   2.284
 2892SOL     H112012   1.826   4.345   2.354
 2892SOL     H212013   1.960   4.313   2.290
 2892SOL    EPW12014   1.888   4.362   2.293
 2893SOL      O12015   3.454   5.585   3.718
 2893SOL     H112016   3.499   5.509   3.683
 2893SOL     H212017   3.492   5.598   3.805
 2893SOL    EPW12018   3.464   5.578   3.724
 2894SOL      O12019   3.054   5.104   2.444
 2894SOL     H112020   3.077   5.055   2.522
 2894SOL     H212021   3.135   5.146   2.416
 2894SOL    EPW12022   3.067   5.104   2.451
 2895SOL      O12023   2.312   4.112   3.173
 2895SOL     H112024   2.345   4.193   3.213
 2895SOL     H212025   2.285   4.138   3.085
 2895SOL    EPW12026   2.311   4.126   3.167
 2896SOL      O12027   2.266   4.079   2.909
 2896SOL     H112028   2.296   3.993   2.880
 2896SOL     H212029   2.171   4.072   2.912
 2896SOL    EPW12030   2.258   4.068   2.907
 2897SOL      O12031   3.095   4.288   3.600
 2897SOL     H112032   3.147   4.223   3.553
 2897SOL     H212033   3.053   4.339   3.530
 2897SOL    EPW12034   3.096   4.285   3.583
 2898SOL      O12035   3.194   4.083   3.461
 2898SOL     H112036   3.101   4.067   3.448
 2898SOL     H212037   3.220   4.021   3.529
 2898SOL    EPW12038   3.184   4.073   3.468
 2899SOL      O12039   2.409   3.857   2.800
 2899SOL     H112040   2.419   3.766   2.826
 2899SOL     H212041   2.365   3.853   2.715
 2899SOL    EPW12042   2.405   3.845   2.792
 2900SOL      O12043   2.503   5.472   3.346
 2900SOL     H112044   2.420   5.457   3.391
 2900SOL     H212045   2.562   5.405   3.381
 2900SOL    EPW12046   2.501   5.462   3.356
 2901SOL      O12047   3.738   4.899   2.941
 2901SOL     H112048   3.731   4.839   2.866
 2901SOL     H212049   3.664   4.959   2.930
 2901SOL    EPW12050   3.728   4.899   2.930
 2902SOL      O12051   3.120   4.761   2.859
 2902SOL     H112052   3.134   4.733   2.950
 2902SOL     H212053   3.206   4.792   2.831
 2902SOL    EPW12054   3.133   4.762   2.868
 2903SOL      O12055   3.203   4.256   3.138
 2903SOL     H112056   3.224   4.257   3.045
 2903SOL     H212057   3.248   4.178   3.171
 2903SOL    EPW12058   3.210   4.246   3.130
 2904SOL      O12059   3.696   4.387   3.680
 2904SOL     H112060   3.733   4.332   3.749
 2904SOL     H212061   3.721   4.344   3.598
 2904SOL    EPW12062   3.703   4.375   3.679
 2905SOL      O12063   3.243   4.685   3.731
 2905SOL     H112064   3.309   4.633   3.685
 2905SOL     H212065   3.263   4.672   3.824
 2905SOL    EPW12066   3.254   4.676   3.738
 2906SOL      O12067   3.194   3.771   2.080
 2906SOL     H112068   3.268   3.815   2.123
 2906SOL     H212069   3.118   3.825   2.102
 2906SOL    EPW12070   3.194   3.783   2.088
 2907SOL      O12071   3.254   4.546   2.358
 2907SOL     H112072   3.169   4.516   2.328
 2907SOL     H212073   3.246   4.553   2.453
 2907SOL    EPW12074   3.242   4.544   2.367
 2908SOL      O12075   2.330   5.009   3.089
 2908SOL     H112076   2.342   5.036   3.180
 2908SOL     H212077   2.311   5.090   3.042
 2908SOL    EPW12078   2.329   5.024   3.094
 2909SOL      O12079   2.614   3.989   2.912
 2909SOL     H112080   2.587   3.991   3.003
 2909SOL     H212081   2.544   3.941   2.867
 2909SOL    EPW12082   2.602   3.985   2.919
 2910SOL      O12083   2.468   5.481   3.074
 2910SOL     H112084   2.520   5.558   3.051
 2910SOL     H212085   2.477   5.473   3.169
 2910SOL    EPW12086   2.477   5.488   3.085
 2911SOL      O12087   3.370   5.066   3.306
 2911SOL     H112088   3.355   4.995   3.369
 2911SOL     H212089   3.416   5.024   3.234
 2911SOL    EPW12090   3.376   5.050   3.306
 2912SOL      O12091   2.444   4.797   3.423
 2912SOL     H112092   2.481   4.802   3.335
 2912SOL     H212093   2.483   4.870   3.470
 2912SOL    EPW12094   2.454   4.807   3.418
 2913SOL      O12095   2.624   4.840   3.235
 2913SOL     H112096   2.683   4.786   3.288
 2913SOL     H212097   2.639   4.812   3.145
 2913SOL    EPW12098   2.634   4.829   3.231
 2914SOL      O12099   2.627   4.212   2.084
 2914SOL     H112100   2.700   4.261   2.047
 2914SOL     H212101   2.643   4.121   2.058
 2914SOL    EPW12102   2.639   4.207   2.077
 2915SOL      O12103   3.435   5.329   3.407
 2915SOL     H112104   3.477   5.314   3.492
 2915SOL     H212105   3.426   5.242   3.369
 2915SOL    EPW12106   3.439   5.317   3.414
 2916SOL      O12107   3.095   3.808   2.998
 2916SOL     H112108   3.150   3.817   2.920
 2916SOL     H212109   3.150   3.842   3.069
 2916SOL    EPW12110   3.109   3.813   2.997
 2917SOL      O12111   2.102   4.721   2.182
 2917SOL     H112112   2.039   4.737   2.111
 2917SOL     H212113   2.049   4.684   2.253
 2917SOL    EPW12114   2.087   4.718   2.182
 2918SOL      O12115   2.458   5.075   2.041
 2918SOL     H112116   2.473   5.051   2.133
 2918SOL     H212117   2.366   5.053   2.025
 2918SOL    EPW12118   2.448   5.068   2.051
 2919SOL      O12119   2.997   5.306   2.193
 2919SOL     H112120   3.005   5.224   2.144
 2919SOL     H212121   2.916   5.345   2.160
 2919SOL    EPW12122   2.987   5.301   2.183
 2920SOL      O12123   2.256   5.464   2.762
 2920SOL     H112124   2.260   5.375   2.797
 2920SOL     H212125   2.282   5.455   2.671
 2920SOL    EPW12126   2.259   5.452   2.754
 2921SOL      O12127   2.873   4.942   3.005
 2921SOL     H112128   2.805   4.876   3.021
 2921SOL     H212129   2.891   4.936   2.912
 2921SOL    EPW12130   2.866   4.933   2.996
 2922SOL      O12131   1.962   5.217   3.256
 2922SOL     H112132   1.952   5.175   3.342
 2922SOL     H212133   1.883   5.270   3.246
 2922SOL    EPW12134   1.951   5.218   3.267
 2923SOL      O12135   2.866   4.081   2.826
 2923SOL     H112136   2.796   4.033   2.871
 2923SOL     H212137   2.898   4.144   2.890
 2923SOL    EPW12138   2.861   4.083   2.840
 2924SOL      O12139   2.517   4.517   3.446
 2924SOL     H112140   2.510   4.612   3.434
 2924SOL     H212141   2.526   4.506   3.541
 2924SOL    EPW12142   2.518   4.529   3.456
 2925SOL      O12143   2.238   5.032   3.704
 2925SOL     H112144   2.310   5.034   3.641
 2925SOL     H212145   2.208   4.941   3.703
 2925SOL    EPW12146   2.243   5.021   3.696
 2926SOL      O12147   3.322   3.795   3.171
 2926SOL     H112148   3.393   3.741   3.135
 2926SOL     H212149   3.321   3.774   3.264
 2926SOL    EPW12150   3.331   3.786   3.179
 2927SOL      O12151   3.522   5.325   3.655
 2927SOL     H112152   3.495   5.322   3.746
 2927SOL     H212153   3.618   5.329   3.658
 2927SOL    EPW12154   3.532   5.325   3.667
 2928SOL      O12155   2.333   4.187   2.639
 2928SOL     H112156   2.404   4.135   2.602
 2928SOL     H212157   2.319   4.152   2.726
 2928SOL    EPW12158   2.341   4.176   2.646
 2929SOL      O12159   1.888   5.522   3.711
 2929SOL     H112160   1.938   5.500   3.633
 2929SOL     H212161   1.896   5.617   3.719
 2929SOL    EPW12162   1.896   5.531   3.702
 2930SOL      O12163   2.649   5.280   2.715
 2930SOL     H112164   2.577   5.217   2.728
 2930SOL     H212165   2.610   5.365   2.733
 2930SOL    EPW12166   2.633   5.283   2.718
 2931SOL      O12167   2.969   4.128   2.363
 2931SOL     H112168   2.991   4.065   2.295
 2931SOL     H212169   2.874   4.120   2.374
 2931SOL    EPW12170   2.959   4.119   2.355
 2932SOL      O12171   2.054   3.818   2.295
 2932SOL     H112172   2.125   3.839   2.234
 2932SOL     H212173   2.008   3.746   2.253
 2932SOL    EPW12174   2.058   3.812   2.281
 2933SOL      O12175   1.885   4.285   3.438
 2933SOL     H112176   1.949   4.351   3.413
 2933SOL     H212177   1.804   4.312   3.395
 2933SOL    EPW12178   1.883   4.297   3.430
 2934SOL      O12179   3.179   4.869   2.325
 2934SOL     H112180   3.151   4.955   2.358
 2934SOL     H212181   3.207   4.885   2.235
 2934SOL    EPW12182   3.179   4.883   2.317
 2935SOL      O12183   2.841   3.789   2.378
 2935SOL     H112184   2.878   3.848   2.443
 2935SOL     H212185   2.818   3.845   2.304
 2935SOL    EPW12186   2.842   3.804   2.377
 2936SOL      O12187   2.070   4.511   3.379
 2936SOL     H112188   2.091   4.580   3.317
 2936SOL     H212189   2.150   4.458   3.384
 2936SOL    EPW12190   2.083   4.512   3.373
 2937SOL      O12191   2.055   4.526   3.646
 2937SOL     H112192   1.981   4.470   3.672
 2937SOL     H212193   2.050   4.529   3.551
 2937SOL    EPW12194   2.044   4.519   3.636
 2938SOL      O12195   2.221   3.813   3.096
 2938SOL     H112196   2.264   3.897   3.116
 2938SOL     H212197   2.294   3.751   3.089
 2938SOL    EPW12198   2.236   3.816   3.097
 2939SOL      O12199   2.262   4.480   2.274
 2939SOL     H112200   2.262   4.575   2.259
 2939SOL     H212201   2.339   4.464   2.328
 2939SOL    EPW12202   2.272   4.491   2.279
 2940SOL      O12203   3.038   4.339   3.338
 2940SOL     H112204   3.074   4.312   3.254
 2940SOL     H212205   2.951   4.373   3.317
 2940SOL    EPW12206   3.032   4.340   3.325
 2941SOL      O12207   2.021   4.211   2.563
 2941SOL     H112208   2.083   4.218   2.636
 2941SOL     H212209   2.021   4.118   2.540
 2941SOL    EPW12210   2.029   4.200   2.570
 2942SOL      O12211   2.703   4.472   3.047
 2942SOL     H112212   2.661   4.390   3.023
 2942SOL     H212213   2.704   4.471   3.143
 2942SOL    EPW12214   2.696   4.461   3.056
 2943SOL      O12215   3.374   5.605   3.446
 2943SOL     H112216   3.377   5.511   3.429
 2943SOL     H212217   3.397   5.613   3.538
 2943SOL    EPW12218   3.377   5.593   3.456
 2944SOL      O12219   2.507   3.942   3.152
 2944SOL     H112220   2.438   4.005   3.173
 2944SOL     H212221   2.534   3.906   3.237
 2944SOL    EPW12222   2.501   3.945   3.165
 2945SOL      O12223   1.890   4.783   2.021
 2945SOL     H112224   1.859   4.848   2.084
 2945SOL     H212225   1.839   4.705   2.040
 2945SOL    EPW12226   1.880   4.780   2.031
 2946SOL      O12227   3.302   3.795   2.769
 2946SOL     H112228   3.390   3.804   2.806
 2946SOL     H212229   3.312   3.736   2.695
 2946SOL    EPW12230   3.316   3.789   2.763
 2947SOL      O12231   3.334   4.534   2.613
 2947SOL     H112232   3.414   4.549   2.562
 2947SOL     H212233   3.327   4.439   2.619
 2947SOL    EPW12234   3.343   4.523   2.608
 2948SOL      O12235   2.474   5.583   1.963
 2948SOL     H112236   2.379   5.583   1.955
 2948SOL     H212237   2.490   5.529   2.041
 2948SOL    EPW12238   2.464   5.577   1.972
 2949SOL      O12239   2.784   4.460   3.310
 2949SOL     H112240   2.853   4.527   3.307
 2949SOL     H212241   2.717   4.498   3.366
 2949SOL    EPW12242   2.785   4.473   3.317
 2950SOL      O12243   2.202   4.760   3.558
 2950SOL     H112244   2.156   4.676   3.560
 2950SOL     H212245   2.259   4.754   3.482
 2950SOL    EPW12246   2.204   4.748   3.550
 2951SOL      O12247   3.319   4.403   1.879
 2951SOL     H112248   3.247   4.379   1.821
 2951SOL     H212249   3.385   4.440   1.821
 2951SOL    EPW12250   3.318   4.405   1.864
 2952SOL      O12251   2.453   5.135   2.559
 2952SOL     H112252   2.518   5.068   2.580
 2952SOL     H212253   2.505   5.212   2.536
 2952SOL    EPW12254   2.468   5.137   2.558
 2953SOL      O12255   2.714   4.300   2.689
 2953SOL     H112256   2.654   4.318   2.761
 2953SOL     H212257   2.748   4.212   2.708
 2953SOL    EPW12258   2.710   4.290   2.702
 2954SOL      O12259   3.655   3.799   3.358
 2954SOL     H112260   3.576   3.845   3.386
 2954SOL     H212261   3.690   3.853   3.287
 2954SOL    EPW12262   3.649   3.812   3.352
 2955SOL      O12263   2.939   4.883   2.708
 2955SOL     H112264   3.031   4.864   2.726
 2955SOL     H212265   2.912   4.813   2.648
 2955SOL    EPW12266   2.947   4.871   2.702
 2956SOL      O12267   2.732   4.703   2.063
 2956SOL     H112268   2.718   4.615   2.028
 2956SOL     H212269   2.683   4.760   2.004
 2956SOL    EPW12270   2.724   4.698   2.051
 2957SOL      O12271   3.213   5.121   2.804
 2957SOL     H112272   3.186   5.205   2.769
 2957SOL     H212273   3.173   5.116   2.891
 2957SOL    EPW12274   3.206   5.130   2.810
 2958SOL      O12275   3.132   5.069   3.072
 2958SOL     H112276   3.143   5.036   3.161
 2958SOL     H212277   3.051   5.028   3.041
 2958SOL    EPW12278   3.122   5.061   3.078
 2959SOL      O12279   2.145   4.427   2.842
 2959SOL     H112280   2.095   4.426   2.923
 2959SOL     H212281   2.165   4.519   2.826
 2959SOL    EPW12282   2.141   4.439   2.850
 2960SOL      O12283   3.212   5.191   3.604
 2960SOL     H112284   3.212   5.285   3.620
 2960SOL     H212285   3.257   5.181   3.520
 2960SOL    EPW12286   3.218   5.201   3.595
 2961SOL      O12287   3.451   3.909   2.165
 2961SOL     H112288   3.444   3.913   2.260
 2961SOL     H212289   3.463   4.000   2.138
 2961SOL    EPW12290   3.452   3.922   2.173
 2962SOL      O12291   2.740   4.472   2.279
 2962SOL     H112292   2.720   4.458   2.186
 2962SOL     H212293   2.833   4.451   2.286
 2962SOL    EPW12294   2.750   4.467   2.268
 2963SOL      O12295   2.067   4.095   3.583
 2963SOL     H112296   2.024   4.154   3.520
 2963SOL     H212297   2.135   4.150   3.623
 2963SOL    EPW12298   2.071   4.110   3.580
 2964SOL      O12299   3.179   4.715   3.128
 2964SOL     H112300   3.242   4.712   3.201
 2964SOL     H212301   3.095   4.733   3.170
 2964SOL    EPW12302   3.175   4.717   3.143
 2965SOL      O12303   2.723   5.430   2.317
 2965SOL     H112304   2.781   5.501   2.344
 2965SOL     H212305   2.746   5.358   2.375
 2965SOL    EPW12306   2.734   5.430   2.328
 2966SOL      O12307   3.518   3.892   2.907
 2966SOL     H112308   3.563   3.810   2.926
 2966SOL     H212309   3.538   3.948   2.983
 2966SOL    EPW12310   3.528   3.888   2.919
 2967SOL      O12311   1.966   3.735   3.006
 2967SOL     H112312   1.957   3.736   2.911
 2967SOL     H212313   2.060   3.747   3.021
 2967SOL    EPW12314   1.978   3.738   2.997
 2968SOL      O12315   2.295   5.073   3.369
 2968SOL     H112316   2.216   5.023   3.392
 2968SOL     H212317   2.365   5.032   3.419
 2968SOL    EPW12318   2.293   5.061   3.379
 2969SOL      O12319   2.179   3.862   2.052
 2969SOL     H112320   2.108   3.917   2.020
 2969SOL     H212321   2.221   3.828   1.973
 2969SOL    EPW12322   2.175   3.864   2.038
 2970SOL      O12323   3.303   4.359   2.888
 2970SOL     H112324   3.226   4.405   2.854
 2970SOL     H212325   3.360   4.428   2.922
 2970SOL    EPW12326   3.300   4.374   2.888
 2971SOL      O12327   1.935   3.961   1.901
 2971SOL     H112328   1.902   4.040   1.945
 2971SOL     H212329   1.990   3.994   1.830
 2971SOL    EPW12330   1.938   3.975   1.898
 2972SOL      O12331   1.969   5.218   2.090
 2972SOL     H112332   1.986   5.302   2.132
 2972SOL     H212333   2.004   5.227   2.002
 2972SOL    EPW12334   1.974   5.231   2.084
 2973SOL      O12335   2.398   4.758   4.222
 2973SOL     H112336   2.488   4.733   4.206
 2973SOL     H212337   2.394   4.851   4.199
 2973SOL    EPW12338   2.410   4.767   4.217
 2974SOL      O12339   2.682   4.214   4.235
 2974SOL     H112340   2.657   4.302   4.263
 2974SOL     H212341   2.679   4.217   4.139
 2974SOL    EPW12342   2.678   4.226   4.227
 2975SOL      O12343   2.124   4.242   4.163
 2975SOL     H112344   2.156   4.330   4.145
 2975SOL     H212345   2.112   4.240   4.258
 2975SOL    EPW12346   2.127   4.254   4.175
 2976SOL      O12347   2.523   3.997   4.250
 2976SOL     H112348   2.581   4.073   4.252
 2976SOL     H212349   2.458   4.018   4.183
 2976SOL    EPW12350   2.522   4.009   4.241
 2977SOL      O12351   2.610   4.924   4.425
 2977SOL     H112352   2.690   4.927   4.477
 2977SOL     H212353   2.638   4.891   4.339
 2977SOL    EPW12354   2.624   4.920   4.420
 2978SOL      O12355   3.237   4.906   3.941
 2978SOL     H112356   3.155   4.942   3.907
 2978SOL     H212357   3.305   4.949   3.890
 2978SOL    EPW12358   3.235   4.916   3.929
 2979SOL      O12359   2.789   5.047   4.134
 2979SOL     H112360   2.766   5.109   4.202
 2979SOL     H212361   2.746   4.965   4.160
 2979SOL    EPW12362   2.781   5.043   4.145
 2980SOL      O12363   2.286   4.020   4.102
 2980SOL     H112364   2.260   3.982   4.018
 2980SOL     H212365   2.223   4.090   4.118
 2980SOL    EPW12366   2.275   4.023   4.093
 2981SOL      O12367   2.121   4.981   4.139
 2981SOL     H112368   2.069   5.049   4.095
 2981SOL     H212369   2.118   4.907   4.079
 2981SOL    EPW12370   2.113   4.980   4.126
 2982SOL      O12371   2.783   5.444   3.917
 2982SOL     H112372   2.738   5.460   4.000
 2982SOL     H212373   2.714   5.409   3.859
 2982SOL    EPW12374   2.769   5.441   3.919
 2983SOL      O12375   3.718   4.217   3.892
 2983SOL     H112376   3.627   4.219   3.920
 2983SOL     H212377   3.763   4.279   3.950
 2983SOL    EPW12378   3.711   4.225   3.902
 2984SOL      O12379   3.655   5.021   4.054
 2984SOL     H112380   3.611   5.062   4.129
 2984SOL     H212381   3.712   5.089   4.019
 2984SOL    EPW12382   3.657   5.035   4.059
 2985SOL      O12383   2.311   5.437   4.372
 2985SOL     H112384   2.343   5.525   4.350
 2985SOL     H212385   2.264   5.409   4.294
 2985SOL    EPW12386   2.310   5.445   4.359
 2986SOL      O12387   2.027   5.497   3.949
 2986SOL     H112388   2.056   5.587   3.941
 2986SOL     H212389   1.977   5.480   3.870
 2986SOL    EPW12390   2.025   5.505   3.938
 2987SOL      O12391   3.431   5.305   3.920
 2987SOL     H112392   3.479   5.374   3.966
 2987SOL     H212393   3.352   5.349   3.889
 2987SOL    EPW12394   3.426   5.319   3.923
 2988SOL      O12395   2.829   4.430   3.864
 2988SOL     H112396   2.831   4.377   3.785
 2988SOL     H212397   2.917   4.467   3.870
 2988SOL    EPW12398   2.841   4.429   3.853
 2989SOL      O12399   2.056   3.956   4.395
 2989SOL     H112400   2.047   3.896   4.321
 2989SOL     H212401   1.989   3.927   4.458
 2989SOL    EPW12402   2.046   3.943   4.393
 2990SOL      O12403   2.999   5.049   3.956
 2990SOL     H112404   2.949   5.051   4.038
 2990SOL     H212405   2.933   5.067   3.888
 2990SOL    EPW12406   2.985   5.051   3.958
 2991SOL      O12407   2.462   5.467   4.064
 2991SOL     H112408   2.383   5.425   4.097
 2991SOL     H212409   2.528   5.450   4.131
 2991SOL    EPW12410   2.461   5.459   4.077
 2992SOL      O12411   2.598   4.882   3.771
 2992SOL     H112412   2.520   4.828   3.758
 2992SOL     H212413   2.569   4.955   3.824
 2992SOL    EPW12414   2.584   4.884   3.776
 2993SOL      O12415   3.179   5.398   3.839
 2993SOL     H112416   3.105   5.361   3.889
 2993SOL     H212417   3.187   5.488   3.872
 2993SOL    EPW12418   3.170   5.405   3.851
 2994SOL      O12419   3.403   5.072   3.781
 2994SOL     H112420   3.350   5.121   3.717
 2994SOL     H212421   3.434   5.138   3.842
 2994SOL    EPW12422   3.401   5.086   3.779
 2995SOL      O12423   2.628   3.961   3.836
 2995SOL     H112424   2.576   3.881   3.824
 2995SOL     H212425   2.715   3.938   3.804
 2995SOL    EPW12426   2.631   3.947   3.830
 2996SOL      O12427   1.989   4.601   4.293
 2996SOL     H112428   2.080   4.616   4.320
 2996SOL     H212429   1.992   4.522   4.239
 2996SOL    EPW12430   2.001   4.593   4.291
 2997SOL      O12431   1.997   5.213   4.332
 2997SOL     H112432   1.969   5.252   4.414
 2997SOL     H212433   2.017   5.122   4.354
 2997SOL    EPW12434   1.995   5.205   4.345
 2998SOL      O12435   2.830   5.256   4.367
 2998SOL     H112436   2.913   5.210   4.351
 2998SOL     H212437   2.820   5.255   4.463
 2998SOL    EPW12438   2.840   5.249   4.377
 2999SOL      O12439   2.563   5.313   3.772
 2999SOL     H112440   2.503   5.382   3.742
 2999SOL     H212441   2.508   5.255   3.825
 2999SOL    EPW12442   2.547   5.315   3.774
 3000SOL      O12443   3.001   3.958   3.995
 3000SOL     H112444   2.934   3.934   3.932
 3000SOL     H212445   3.066   4.007   3.944
 3000SOL    EPW12446   3.001   3.960   3.980
 3001SOL      O12447   2.194   5.357   4.161
 3001SOL     H112448   2.155   5.404   4.087
 3001SOL     H212449   2.128   5.292   4.186
 3001SOL    EPW12450   2.181   5.355   4.155
 3002SOL      O12451   2.686   4.766   4.185
 3002SOL     H112452   2.688   4.740   4.092
 3002SOL     H212453   2.744   4.703   4.228
 3002SOL    EPW12454   2.694   4.755   4.179
 3003SOL      O12455   2.001   4.944   4.452
 3003SOL     H112456   2.065   4.976   4.515
 3003SOL     H212457   2.050   4.880   4.400
 3003SOL    EPW12458   2.016   4.940   4.453
 3004SOL      O12459   3.176   4.114   3.853
 3004SOL     H112460   3.149   4.180   3.789
 3004SOL     H212461   3.246   4.157   3.903
 3004SOL    EPW12462   3.181   4.127   3.850
 3005SOL      O12463   2.844   3.819   3.790
 3005SOL     H112464   2.900   3.811   3.712
 3005SOL     H212465   2.821   3.729   3.812
 3005SOL    EPW12466   2.849   3.806   3.783
 3006SOL      O12467   3.349   4.670   3.995
 3006SOL     H112468   3.316   4.759   3.985
 3006SOL     H212469   3.314   4.641   4.080
 3006SOL    EPW12470   3.339   4.679   4.006
 3007SOL      O12471   2.343   4.708   3.787
 3007SOL     H112472   2.266   4.721   3.843
 3007SOL     H212473   2.307   4.672   3.706
 3007SOL    EPW12474   2.329   4.704   3.784
 3008SOL      O12475   2.996   4.681   4.030
 3008SOL     H112476   2.906   4.702   4.005
 3008SOL     H212477   3.023   4.754   4.086
 3008SOL    EPW12478   2.988   4.693   4.033
 3009SOL      O12479   2.625   3.797   4.437
 3009SOL     H112480   2.554   3.858   4.419
 3009SOL     H212481   2.676   3.794   4.356
 3009SOL    EPW12482   2.621   3.803   4.424
 3010SOL      O12483   2.383   5.037   4.186
 3010SOL     H112484   2.376   5.069   4.276
 3010SOL     H212485   2.293   5.021   4.158
 3010SOL    EPW12486   2.371   5.039   4.193
 3011SOL      O12487   2.386   4.321   3.900
 3011SOL     H112488   2.352   4.377   3.970
 3011SOL     H212489   2.457   4.271   3.940
 3011SOL    EPW12490   2.392   4.322   3.914
 3012SOL      O12491   3.442   4.207   3.964
 3012SOL     H112492   3.434   4.278   3.901
 3012SOL     H212493   3.460   4.251   4.047
 3012SOL    EPW12494   3.443   4.221   3.966
 3013SOL      O12495   2.302   3.862   4.393
 3013SOL     H112496   2.352   3.905   4.324
 3013SOL     H212497   2.217   3.906   4.393
 3013SOL    EPW12498   2.299   3.875   4.384
 3014SOL      O12499   3.111   4.469   3.939
 3014SOL     H112500   3.158   4.487   3.858
 3014SOL     H212501   3.077   4.553   3.967
 3014SOL    EPW12502   3.113   4.483   3.932
 3015SOL      O12503   2.224   4.647   4.433
 3015SOL     H112504   2.282   4.703   4.381
 3015SOL     H212505   2.268   4.562   4.435
 3015SOL    EPW12506   2.237   4.644   4.426
 3016SOL      O12507   2.846   5.211   3.761
 3016SOL     H112508   2.873   5.289   3.713
 3016SOL     H212509   2.753   5.226   3.780
 3016SOL    EPW12510   2.837   5.224   3.757
 3017SOL      O12511   1.886   4.373   4.152
 3017SOL     H112512   1.826   4.345   4.222
 3017SOL     H212513   1.960   4.313   4.158
 3017SOL    EPW12514   1.888   4.362   4.161
 3018SOL      O12515   3.194   3.771   3.948
 3018SOL     H112516   3.268   3.815   3.991
 3018SOL     H212517   3.118   3.825   3.970
 3018SOL    EPW12518   3.194   3.783   3.956
 3019SOL      O12519   3.254   4.546   4.226
 3019SOL     H112520   3.169   4.516   4.196
 3019SOL     H212521   3.246   4.553   4.321
 3019SOL    EPW12522   3.242   4.544   4.235
 3020SOL      O12523   2.627   4.212   3.952
 3020SOL     H112524   2.700   4.261   3.915
 3020SOL     H212525   2.643   4.121   3.926
 3020SOL    EPW12526   2.639   4.207   3.945
 3021SOL      O12527   2.102   4.721   4.050
 3021SOL     H112528   2.039   4.737   3.979
 3021SOL     H212529   2.049   4.684   4.121
 3021SOL    EPW12530   2.087   4.718   4.050
 3022SOL      O12531   2.458   5.075   3.909
 3022SOL     H112532   2.473   5.051   4.001
 3022SOL     H212533   2.366   5.053   3.893
 3022SOL    EPW12534   2.448   5.068   3.919
 3023SOL      O12535   2.997   5.306   4.061
 3023SOL     H112536   3.005   5.224   4.012
 3023SOL     H212537   2.916   5.345   4.028
 3023SOL    EPW12538   2.987   5.301   4.051
 3024SOL      O12539   2.054   3.818   4.163
 3024SOL     H112540   2.125   3.839   4.102
 3024SOL     H212541   2.008   3.746   4.121
 3024SOL    EPW12542   2.058   3.812   4.149
 3025SOL      O12543   2.262   4.480   4.142
 3025SOL     H112544   2.262   4.575   4.127
 3025SOL     H212545   2.339   4.464   4.196
 3025SOL    EPW12546   2.272   4.491   4.147
 3026SOL      O12547   2.021   4.211   4.431
 3026SOL     H112548   2.083   4.218   4.504
 3026SOL     H212549   2.021   4.118   4.408
 3026SOL    EPW12550   2.029   4.200   4.438
 3027SOL      O12551   3.568   5.551   3.963
 3027SOL     H112552   3.635   5.584   3.903
 3027SOL     H212553   3.525   5.630   3.997
 3027SOL    EPW12554   3.570   5.566   3.959
 3028SOL      O12555   1.890   4.783   3.889
 3028SOL     H112556   1.859   4.848   3.952
 3028SOL     H212557   1.839   4.705   3.908
 3028SOL    EPW12558   1.880   4.780   3.899
 3029SOL      O12559   2.474   5.583   3.831
 3029SOL     H112560   2.379   5.583   3.823
 3029SOL     H212561   2.490   5.529   3.909
 3029SOL    EPW12562   2.464   5.577   3.840
 3030SOL      O12563   3.319   4.403   3.747
 3030SOL     H112564   3.247   4.379   3.689
 3030SOL     H212565   3.385   4.440   3.689
 3030SOL    EPW12566   3.318   4.405   3.732
 3031SOL      O12567   2.453   5.135   4.427
 3031SOL     H112568   2.518   5.068   4.448
 3031SOL     H212569   2.505   5.212   4.404
 3031SOL    EPW12570   2.468   5.137   4.426
 3032SOL      O12571   2.732   4.703   3.931
 3032SOL     H112572   2.718   4.615   3.896
 3032SOL     H212573   2.683   4.760   3.872
 3032SOL    EPW12574   2.724   4.698   3.919
 3033SOL      O12575   2.740   4.472   4.147
 3033SOL     H112576   2.720   4.458   4.054
 3033SOL     H212577   2.833   4.451   4.154
 3033SOL    EPW12578   2.750   4.467   4.136
 3034SOL      O12579   2.723   5.430   4.185
 3034SOL     H112580   2.781   5.501   4.212
 3034SOL     H212581   2.746   5.358   4.243
 3034SOL    EPW12582   2.734   5.430   4.196
 3035SOL      O12583   2.179   3.862   3.920
 3035SOL     H112584   2.108   3.917   3.888
 3035SOL     H212585   2.221   3.828   3.841
 3035SOL    EPW12586   2.175   3.864   3.906
 3036SOL      O12587   1.935   3.961   3.769
 3036SOL     H112588   1.902   4.040   3.813
 3036SOL     H212589   1.990   3.994   3.698
 3036SOL    EPW12590   1.938   3.975   3.766
 3037SOL      O12591   1.969   5.218   3.958
 3037SOL     H112592   1.986   5.302   4.000
 3037SOL     H212593   2.004   5.227   3.870
 3037SOL    EPW12594   1.974   5.231   3.952
 3038SOL      O12595   3.241   5.307   4.175
 3038SOL     H112596   3.304   5.297   4.104
 3038SOL     H212597   3.158   5.327   4.130
 3038SOL    EPW12598   3.238   5.308   4.160
 3039SOL      O12599   2.523   5.866   0.514
 3039SOL     H112600   2.581   5.942   0.516
 3039SOL     H212601   2.458   5.887   0.447
 3039SOL    EPW12602   2.522   5.878   0.505
 3040SOL      O12603   2.795   6.135   1.771
 3040SOL     H112604   2.885   6.136   1.738
 3040SOL     H212605   2.754   6.060   1.729
 3040SOL    EPW12606   2.801   6.125   1.762
 3041SOL      O12607   2.575   5.939   1.721
 3041SOL     H112608   2.585   5.865   1.661
 3041SOL     H212609   2.611   5.908   1.804
 3041SOL    EPW12610   2.581   5.925   1.723
 3042SOL      O12611   3.695   5.668   0.685
 3042SOL     H112612   3.749   5.619   0.747
 3042SOL     H212613   3.638   5.602   0.646
 3042SOL    EPW12614   3.695   5.652   0.687
 3043SOL      O12615   2.814   5.621   1.098
 3043SOL     H112616   2.773   5.699   1.060
 3043SOL     H212617   2.908   5.639   1.093
 3043SOL    EPW12618   2.820   5.633   1.093
 3044SOL      O12619   2.840   5.729   1.353
 3044SOL     H112620   2.846   5.691   1.266
 3044SOL     H212621   2.829   5.823   1.338
 3044SOL    EPW12622   2.841   5.737   1.341
 3045SOL      O12623   2.056   5.825   0.659
 3045SOL     H112624   2.047   5.765   0.585
 3045SOL     H212625   1.989   5.796   0.722
 3045SOL    EPW12626   2.046   5.812   0.657
 3046SOL      O12627   2.611   5.728   1.518
 3046SOL     H112628   2.588   5.636   1.520
 3046SOL     H212629   2.697   5.730   1.475
 3046SOL    EPW12630   2.618   5.718   1.514
 3047SOL      O12631   3.272   5.777   1.828
 3047SOL     H112632   3.328   5.704   1.854
 3047SOL     H212633   3.242   5.815   1.910
 3047SOL    EPW12634   3.276   5.772   1.841
 3048SOL      O12635   2.844   5.688   0.054
 3048SOL     H112636   2.900   5.680  -0.024
 3048SOL     H212637   2.821   5.598   0.076
 3048SOL    EPW12638   2.849   5.675   0.047
 3049SOL      O12639   2.255   5.636   1.789
 3049SOL     H112640   2.183   5.601   1.737
 3049SOL     H212641   2.313   5.677   1.724
 3049SOL    EPW12642   2.253   5.637   1.774
 3050SOL      O12643   2.625   5.666   0.701
 3050SOL     H112644   2.554   5.727   0.683
 3050SOL     H212645   2.676   5.663   0.620
 3050SOL    EPW12646   2.621   5.672   0.688
 3051SOL      O12647   3.012   5.670   1.710
 3051SOL     H112648   3.007   5.577   1.691
 3051SOL     H212649   3.095   5.681   1.756
 3051SOL    EPW12650   3.020   5.659   1.714
 3052SOL      O12651   2.302   5.731   0.657
 3052SOL     H112652   2.352   5.774   0.588
 3052SOL     H212653   2.217   5.775   0.657
 3052SOL    EPW12654   2.299   5.744   0.648
 3053SOL      O12655   3.364   5.868   0.534
 3053SOL     H112656   3.286   5.818   0.559
 3053SOL     H212657   3.335   5.959   0.534
 3053SOL    EPW12658   3.350   5.872   0.537
 3054SOL      O12659   2.950   5.830   0.693
 3054SOL     H112660   2.970   5.905   0.637
 3054SOL     H212661   2.930   5.869   0.778
 3054SOL    EPW12662   2.951   5.846   0.697
 3055SOL      O12663   2.266   5.948   1.041
 3055SOL     H112664   2.296   5.862   1.012
 3055SOL     H212665   2.171   5.941   1.044
 3055SOL    EPW12666   2.258   5.937   1.039
 3056SOL      O12667   3.194   5.952   1.593
 3056SOL     H112668   3.101   5.936   1.580
 3056SOL     H212669   3.220   5.890   1.661
 3056SOL    EPW12670   3.184   5.942   1.600
 3057SOL      O12671   2.409   5.726   0.932
 3057SOL     H112672   2.419   5.635   0.958
 3057SOL     H212673   2.365   5.722   0.847
 3057SOL    EPW12674   2.405   5.714   0.924
 3058SOL      O12675   2.614   5.858   1.044
 3058SOL     H112676   2.587   5.860   1.135
 3058SOL     H212677   2.544   5.810   0.999
 3058SOL    EPW12678   2.602   5.854   1.051
 3059SOL      O12679   3.095   5.677   1.130
 3059SOL     H112680   3.150   5.686   1.052
 3059SOL     H212681   3.150   5.711   1.201
 3059SOL    EPW12682   3.109   5.682   1.129
 3060SOL      O12683   3.322   5.664   1.303
 3060SOL     H112684   3.393   5.610   1.267
 3060SOL     H212685   3.321   5.643   1.396
 3060SOL    EPW12686   3.331   5.655   1.311
 3061SOL      O12687   2.054   5.687   0.427
 3061SOL     H112688   2.125   5.708   0.366
 3061SOL     H212689   2.008   5.615   0.385
 3061SOL    EPW12690   2.058   5.681   0.413
 3062SOL      O12691   2.841   5.658   0.510
 3062SOL     H112692   2.878   5.717   0.575
 3062SOL     H212693   2.818   5.714   0.436
 3062SOL    EPW12694   2.842   5.673   0.509
 3063SOL      O12695   2.507   5.811   1.284
 3063SOL     H112696   2.438   5.874   1.305
 3063SOL     H212697   2.534   5.775   1.369
 3063SOL    EPW12698   2.501   5.814   1.297
 3064SOL      O12699   3.302   5.664   0.901
 3064SOL     H112700   3.390   5.673   0.938
 3064SOL     H212701   3.312   5.605   0.827
 3064SOL    EPW12702   3.316   5.658   0.895
 3065SOL      O12703   2.714   6.169   0.821
 3065SOL     H112704   2.654   6.187   0.893
 3065SOL     H212705   2.748   6.081   0.840
 3065SOL    EPW12706   2.710   6.159   0.834
 3066SOL      O12707   3.655   5.668   1.490
 3066SOL     H112708   3.576   5.714   1.518
 3066SOL     H212709   3.690   5.722   1.419
 3066SOL    EPW12710   3.649   5.681   1.484
 3067SOL      O12711   3.518   5.761   1.039
 3067SOL     H112712   3.563   5.679   1.058
 3067SOL     H212713   3.538   5.817   1.115
 3067SOL    EPW12714   3.528   5.757   1.051
 3068SOL      O12715   1.966   5.604   1.138
 3068SOL     H112716   1.957   5.605   1.043
 3068SOL     H212717   2.060   5.616   1.153
 3068SOL    EPW12718   1.978   5.607   1.129
 3069SOL      O12719   2.179   5.731   0.184
 3069SOL     H112720   2.108   5.786   0.152
 3069SOL     H212721   2.221   5.697   0.105
 3069SOL    EPW12722   2.175   5.733   0.170
 3070SOL      O12723   1.935   5.830   0.033
 3070SOL     H112724   1.902   5.909   0.077
 3070SOL     H212725   1.990   5.863  -0.038
 3070SOL    EPW12726   1.938   5.844   0.030
 3071SOL      O12727   2.523   5.866   2.382
 3071SOL     H112728   2.581   5.942   2.384
 3071SOL     H212729   2.458   5.887   2.315
 3071SOL    EPW12730   2.522   5.878   2.373
 3072SOL      O12731   2.795   6.135   3.639
 3072SOL     H112732   2.885   6.136   3.606
 3072SOL     H212733   2.754   6.060   3.597
 3072SOL    EPW12734   2.801   6.125   3.630
 3073SOL      O12735   2.575   5.939   3.589
 3073SOL     H112736   2.585   5.865   3.529
 3073SOL     H212737   2.611   5.908   3.672
 3073SOL    EPW12738   2.581   5.925   3.591
 3074SOL      O12739   3.695   5.668   2.553
 3074SOL     H112740   3.749   5.619   2.615
 3074SOL     H212741   3.638   5.602   2.514
 3074SOL    EPW12742   3.695   5.652   2.555
 3075SOL      O12743   2.814   5.621   2.966
 3075SOL     H112744   2.773   5.699   2.928
 3075SOL     H212745   2.908   5.639   2.961
 3075SOL    EPW12746   2.820   5.633   2.961
 3076SOL      O12747   2.840   5.729   3.221
 3076SOL     H112748   2.846   5.691   3.134
 3076SOL     H212749   2.829   5.823   3.206
 3076SOL    EPW12750   2.841   5.737   3.209
 3077SOL      O12751   2.056   5.825   2.527
 3077SOL     H112752   2.047   5.765   2.453
 3077SOL     H212753   1.989   5.796   2.590
 3077SOL    EPW12754   2.046   5.812   2.525
 3078SOL      O12755   2.611   5.728   3.386
 3078SOL     H112756   2.588   5.636   3.388
 3078SOL     H212757   2.697   5.730   3.343
 3078SOL    EPW12758   2.618   5.718   3.382
 3079SOL      O12759   3.272   5.777   3.696
 3079SOL     H112760   3.328   5.704   3.722
 3079SOL     H212761   3.242   5.815   3.778
 3079SOL    EPW12762   3.276   5.772   3.709
 3080SOL      O12763   2.844   5.688   1.922
 3080SOL     H112764   2.900   5.680   1.844
 3080SOL     H212765   2.821   5.598   1.944
 3080SOL    EPW12766   2.849   5.675   1.915
 3081SOL      O12767   2.255   5.636   3.657
 3081SOL     H112768   2.183   5.601   3.605
 3081SOL     H212769   2.313   5.677   3.592
 3081SOL    EPW12770   2.253   5.637   3.642
 3082SOL      O12771   2.625   5.666   2.569
 3082SOL     H112772   2.554   5.727   2.551
 3082SOL     H212773   2.676   5.663   2.488
 3082SOL    EPW12774   2.621   5.672   2.556
 3083SOL      O12775   3.012   5.670   3.578
 3083SOL     H112776   3.007   5.577   3.559
 3083SOL     H212777   3.095   5.681   3.624
 3083SOL    EPW12778   3.020   5.659   3.582
 3084SOL      O12779   2.302   5.731   2.525
 3084SOL     H112780   2.352   5.774   2.456
 3084SOL     H212781   2.217   5.775   2.525
 3084SOL    EPW12782   2.299   5.744   2.516
 3085SOL      O12783   3.364   5.868   2.402
 3085SOL     H112784   3.286   5.818   2.427
 3085SOL     H212785   3.335   5.959   2.402
 3085SOL    EPW12786   3.350   5.872   2.405
 3086SOL      O12787   2.950   5.830   2.561
 3086SOL     H112788   2.970   5.905   2.505
 3086SOL     H212789   2.930   5.869   2.646
 3086SOL    EPW12790   2.951   5.846   2.565
 3087SOL      O12791   2.266   5.948   2.909
 3087SOL     H112792   2.296   5.862   2.880
 3087SOL     H212793   2.171   5.941   2.912
 3087SOL    EPW12794   2.258   5.937   2.907
 3088SOL      O12795   3.194   5.952   3.461
 3088SOL     H112796   3.101   5.936   3.448
 3088SOL     H212797   3.220   5.890   3.529
 3088SOL    EPW12798   3.184   5.942   3.468
 3089SOL      O12799   2.409   5.726   2.800
 3089SOL     H112800   2.419   5.635   2.826
 3089SOL     H212801   2.365   5.722   2.715
 3089SOL    EPW12802   2.405   5.714   2.792
 3090SOL      O12803   3.194   5.640   2.080
 3090SOL     H112804   3.268   5.684   2.123
 3090SOL     H212805   3.118   5.694   2.102
 3090SOL    EPW12806   3.194   5.652   2.088
 3091SOL      O12807   2.614   5.858   2.912
 3091SOL     H112808   2.587   5.860   3.003
 3091SOL     H212809   2.544   5.810   2.867
 3091SOL    EPW12810   2.602   5.854   2.919
 3092SOL      O12811   3.095   5.677   2.998
 3092SOL     H112812   3.150   5.686   2.920
 3092SOL     H212813   3.150   5.711   3.069
 3092SOL    EPW12814   3.109   5.682   2.997
 3093SOL      O12815   3.322   5.664   3.171
 3093SOL     H112816   3.393   5.610   3.135
 3093SOL     H212817   3.321   5.643   3.264
 3093SOL    EPW12818   3.331   5.655   3.179
 3094SOL      O12819   2.054   5.687   2.295
 3094SOL     H112820   2.125   5.708   2.234
 3094SOL     H212821   2.008   5.615   2.253
 3094SOL    EPW12822   2.058   5.681   2.281
 3095SOL      O12823   2.841   5.658   2.378
 3095SOL     H112824   2.878   5.717   2.443
 3095SOL     H212825   2.818   5.714   2.304
 3095SOL    EPW12826   2.842   5.673   2.377
 3096SOL      O12827   2.507   5.811   3.152
 3096SOL     H112828   2.438   5.874   3.173
 3096SOL     H212829   2.534   5.775   3.237
 3096SOL    EPW12830   2.501   5.814   3.165
 3097SOL      O12831   3.302   5.664   2.769
 3097SOL     H112832   3.390   5.673   2.806
 3097SOL     H212833   3.312   5.605   2.695
 3097SOL    EPW12834   3.316   5.658   2.763
 3098SOL      O12835   2.714   6.169   2.689
 3098SOL     H112836   2.654   6.187   2.761
 3098SOL     H212837   2.748   6.081   2.708
 3098SOL    EPW12838   2.710   6.159   2.702
 3099SOL      O12839   3.655   5.668   3.358
 3099SOL     H112840   3.576   5.714   3.386
 3099SOL     H212841   3.690   5.722   3.287
 3099SOL    EPW12842   3.649   5.681   3.352
 3100SOL      O12843   3.451   5.778   2.165
 3100SOL     H112844   3.444   5.782   2.260
 3100SOL     H212845   3.463   5.869   2.138
 3100SOL    EPW12846   3.452   5.791   2.173
 3101SOL      O12847   3.518   5.761   2.907
 3101SOL     H112848   3.563   5.679   2.926
 3101SOL     H212849   3.538   5.817   2.983
 3101SOL    EPW12850   3.528   5.757   2.919
 3102SOL      O12851   1.966   5.604   3.006
 3102SOL     H112852   1.957   5.605   2.911
 3102SOL     H212853   2.060   5.616   3.021
 3102SOL    EPW12854   1.978   5.607   2.997
 3103SOL      O12855   2.179   5.731   2.052
 3103SOL     H112856   2.108   5.786   2.020
 3103SOL     H212857   2.221   5.697   1.973
 3103SOL    EPW12858   2.175   5.733   2.038
 3104SOL      O12859   1.935   5.830   1.901
 3104SOL     H112860   1.902   5.909   1.945
 3104SOL     H212861   1.990   5.863   1.830
 3104SOL    EPW12862   1.938   5.844   1.898
 3105SOL      O12863   2.523   5.866   4.250
 3105SOL     H112864   2.581   5.942   4.252
 3105SOL     H212865   2.458   5.887   4.183
 3105SOL    EPW12866   2.522   5.878   4.241
 3106SOL      O12867   2.056   5.825   4.395
 3106SOL     H112868   2.047   5.765   4.321
 3106SOL     H212869   1.989   5.796   4.458
 3106SOL    EPW12870   2.046   5.812   4.393
 3107SOL      O12871   2.844   5.688   3.790
 3107SOL     H112872   2.900   5.680   3.712
 3107SOL     H212873   2.821   5.598   3.812
 3107SOL    EPW12874   2.849   5.675   3.783
 3108SOL      O12875   2.625   5.666   4.437
 3108SOL     H112876   2.554   5.727   4.419
 3108SOL     H212877   2.676   5.663   4.356
 3108SOL    EPW12878   2.621   5.672   4.424
 3109SOL      O12879   2.302   5.731   4.393
 3109SOL     H112880   2.352   5.774   4.324
 3109SOL     H212881   2.217   5.775   4.393
 3109SOL    EPW12882   2.299   5.744   4.384
 3110SOL      O12883   3.194   5.640   3.948
 3110SOL     H112884   3.268   5.684   3.991
 3110SOL     H212885   3.118   5.694   3.970
 3110SOL    EPW12886   3.194   5.652   3.956
 3111SOL      O12887   2.054   5.687   4.163
 3111SOL     H112888   2.125   5.708   4.102
 3111SOL     H212889   2.008   5.615   4.121
 3111SOL    EPW12890   2.058   5.681   4.149
 3112SOL      O12891   2.179   5.731   3.920
 3112SOL     H112892   2.108   5.786   3.888
 3112SOL     H212893   2.221   5.697   3.841
 3112SOL    EPW12894   2.175   5.733   3.906
 3113SOL      O12895   1.935   5.830   3.769
 3113SOL     H112896   1.902   5.909   3.813
 3113SOL     H212897   1.990   5.863   3.698
 3113SOL    EPW12898   1.938   5.844   3.766
 3114SOL      O12899   5.338   0.771   1.252
 3114SOL     H112900   5.293   0.838   1.303
 3114SOL     H212901   5.426   0.807   1.238
 3114SOL    EPW12902   5.344   0.784   1.256
 3115SOL      O12903   4.266   1.022   0.486
 3115SOL     H112904   4.356   0.997   0.470
 3115SOL     H212905   4.262   1.115   0.463
 3115SOL    EPW12906   4.278   1.031   0.481
 3116SOL      O12907   5.382   1.725   0.628
 3116SOL     H112908   5.394   1.671   0.706
 3116SOL     H212909   5.419   1.673   0.557
 3116SOL    EPW12910   5.388   1.710   0.629
 3117SOL      O12911   4.761   1.610   1.629
 3117SOL     H112912   4.802   1.646   1.550
 3117SOL     H212913   4.796   1.521   1.636
 3117SOL    EPW12914   4.772   1.603   1.620
 3118SOL      O12915   5.318   1.165   1.233
 3118SOL     H112916   5.239   1.130   1.191
 3118SOL     H212917   5.345   1.237   1.177
 3118SOL    EPW12918   5.311   1.170   1.220
 3119SOL      O12919   4.550   0.478   0.499
 3119SOL     H112920   4.525   0.566   0.527
 3119SOL     H212921   4.547   0.481   0.403
 3119SOL    EPW12922   4.546   0.490   0.491
 3120SOL      O12923   3.992   0.506   0.427
 3120SOL     H112924   4.024   0.594   0.409
 3120SOL     H212925   3.980   0.504   0.522
 3120SOL    EPW12926   3.995   0.518   0.439
 3121SOL      O12927   4.070   0.919   1.328
 3121SOL     H112928   4.133   0.866   1.279
 3121SOL     H212929   4.051   0.993   1.271
 3121SOL    EPW12930   4.076   0.921   1.315
 3122SOL      O12931   4.391   0.261   0.514
 3122SOL     H112932   4.449   0.337   0.516
 3122SOL     H212933   4.326   0.282   0.447
 3122SOL    EPW12934   4.390   0.273   0.505
 3123SOL      O12935   4.478   1.188   0.689
 3123SOL     H112936   4.558   1.191   0.741
 3123SOL     H212937   4.506   1.155   0.603
 3123SOL    EPW12938   4.492   1.184   0.684
 3124SOL      O12939   4.503   1.529   1.592
 3124SOL     H112940   4.587   1.555   1.631
 3124SOL     H212941   4.527   1.473   1.518
 3124SOL    EPW12942   4.517   1.525   1.587
 3125SOL      O12943   4.255   0.692   0.680
 3125SOL     H112944   4.240   0.612   0.731
 3125SOL     H212945   4.337   0.727   0.714
 3125SOL    EPW12946   4.263   0.684   0.692
 3126SOL      O12947   4.592   1.378   1.365
 3126SOL     H112948   4.556   1.444   1.305
 3126SOL     H212949   4.520   1.316   1.378
 3126SOL    EPW12950   4.578   1.378   1.359
 3127SOL      O12951   4.397   0.518   1.057
 3127SOL     H112952   4.303   0.514   1.075
 3127SOL     H212953   4.427   0.427   1.066
 3127SOL    EPW12954   4.388   0.506   1.060
 3128SOL      O12955   4.143   0.932   0.961
 3128SOL     H112956   4.098   0.939   0.877
 3128SOL     H212957   4.123   1.015   1.005
 3128SOL    EPW12958   4.135   0.944   0.955
 3129SOL      O12959   3.840   1.778   0.836
 3129SOL     H112960   3.929   1.770   0.871
 3129SOL     H212961   3.804   1.690   0.841
 3129SOL    EPW12962   3.847   1.765   0.841
 3130SOL      O12963   4.104   1.305   0.871
 3130SOL     H112964   4.080   1.358   0.947
 3130SOL     H212965   4.160   1.363   0.819
 3130SOL    EPW12966   4.108   1.320   0.874
 3131SOL      O12967   4.666   0.949   0.681
 3131SOL     H112968   4.580   0.936   0.721
 3131SOL     H212969   4.719   0.876   0.713
 3131SOL    EPW12970   4.662   0.938   0.690
 3132SOL      O12971   4.074   1.601   1.466
 3132SOL     H112972   3.982   1.577   1.451
 3132SOL     H212973   4.118   1.518   1.483
 3132SOL    EPW12974   4.068   1.586   1.465
 3133SOL      O12975   5.530   0.312   0.854
 3133SOL     H112976   5.467   0.292   0.923
 3133SOL     H212977   5.520   0.241   0.791
 3133SOL    EPW12978   5.520   0.299   0.855
 3134SOL      O12979   5.331   1.084   0.506
 3134SOL     H112980   5.241   1.084   0.541
 3134SOL     H212981   5.324   1.130   0.423
 3134SOL    EPW12982   5.318   1.090   0.500
 3135SOL      O12983   5.131   0.719   1.578
 3135SOL     H112984   5.200   0.657   1.555
 3135SOL     H212985   5.056   0.693   1.525
 3135SOL    EPW12986   5.131   0.706   1.569
 3136SOL      O12987   3.872   1.599   1.130
 3136SOL     H112988   3.855   1.545   1.207
 3136SOL     H212989   3.860   1.689   1.160
 3136SOL    EPW12990   3.869   1.603   1.144
 3137SOL      O12991   4.867   1.106   1.570
 3137SOL     H112992   4.852   1.199   1.555
 3137SOL     H212993   4.962   1.096   1.570
 3137SOL    EPW12994   4.876   1.116   1.567
 3138SOL      O12995   4.663   0.530   1.771
 3138SOL     H112996   4.753   0.531   1.738
 3138SOL     H212997   4.622   0.455   1.729
 3138SOL    EPW12998   4.669   0.520   1.762
 3139SOL      O12999   5.238   1.062   0.898
 3139SOL     H113000   5.241   0.996   0.829
 3139SOL     H213001   5.323   1.105   0.894
 3139SOL    EPW13002   5.250   1.058   0.889
 3140SOL      O13003   4.858   0.665   0.467
 3140SOL     H113004   4.884   0.689   0.378
 3140SOL     H213005   4.840   0.572   0.463
 3140SOL    EPW13006   4.860   0.657   0.454
 3141SOL      O13007   5.523   1.285   0.318
 3141SOL     H113008   5.479   1.326   0.393
 3141SOL     H213009   5.580   1.353   0.283
 3141SOL    EPW13010   5.525   1.299   0.323
 3142SOL      O13011   4.443   0.334   1.721
 3142SOL     H113012   4.453   0.260   1.661
 3142SOL     H213013   4.479   0.303   1.804
 3142SOL    EPW13014   4.449   0.320   1.723
 3143SOL      O13015   4.179   1.701   0.636
 3143SOL     H113016   4.211   1.789   0.614
 3143SOL     H213017   4.132   1.673   0.558
 3143SOL    EPW13018   4.178   1.709   0.623
 3144SOL      O13019   5.563   0.063   0.685
 3144SOL     H113020   5.617   0.014   0.747
 3144SOL     H213021   5.506  -0.003   0.646
 3144SOL    EPW13022   5.563   0.047   0.687
 3145SOL      O13023   4.682   0.016   1.098
 3145SOL     H113024   4.641   0.094   1.060
 3145SOL     H213025   4.776   0.034   1.093
 3145SOL    EPW13026   4.688   0.028   1.093
 3146SOL      O13027   5.311   0.620   0.464
 3146SOL     H113028   5.350   0.620   0.551
 3146SOL     H213029   5.252   0.696   0.464
 3146SOL    EPW13030   5.308   0.631   0.475
 3147SOL      O13031   4.628   0.987   1.593
 3147SOL     H113032   4.605   0.967   1.683
 3147SOL     H213033   4.713   1.031   1.598
 3147SOL    EPW13034   4.635   0.990   1.605
 3148SOL      O13035   4.708   0.124   1.353
 3148SOL     H113036   4.714   0.086   1.266
 3148SOL     H213037   4.697   0.218   1.338
 3148SOL    EPW13038   4.709   0.132   1.341
 3149SOL      O13039   4.797   0.613   1.187
 3149SOL     H113040   4.872   0.642   1.134
 3149SOL     H213041   4.729   0.678   1.171
 3149SOL    EPW13042   4.798   0.625   1.177
 3150SOL      O13043   5.347   0.581   1.464
 3150SOL     H113044   5.328   0.490   1.443
 3150SOL     H213045   5.325   0.630   1.385
 3150SOL    EPW13046   5.342   0.574   1.451
 3151SOL      O13047   5.489   1.675   1.368
 3151SOL     H113048   5.417   1.637   1.419
 3151SOL     H213049   5.506   1.760   1.409
 3151SOL    EPW13050   5.483   1.680   1.380
 3152SOL      O13051   4.794   0.319   1.570
 3152SOL     H113052   4.760   0.358   1.489
 3152SOL     H213053   4.772   0.227   1.563
 3152SOL    EPW13054   4.787   0.312   1.560
 3153SOL      O13055   5.203   1.133   1.646
 3153SOL     H113056   5.285   1.174   1.676
 3153SOL     H213057   5.166   1.095   1.726
 3153SOL    EPW13058   5.209   1.134   1.661
 3154SOL      O13059   5.498   0.506   0.630
 3154SOL     H113060   5.587   0.475   0.647
 3154SOL     H213061   5.441   0.446   0.678
 3154SOL    EPW13062   5.501   0.494   0.639
 3155SOL      O13063   3.924   0.220   0.659
 3155SOL     H113064   3.915   0.160   0.585
 3155SOL     H213065   3.857   0.191   0.722
 3155SOL    EPW13066   3.914   0.207   0.657
 3156SOL      O13067   3.871   0.393   1.022
 3156SOL     H113068   3.843   0.484   1.031
 3156SOL     H213069   3.808   0.354   0.961
 3156SOL    EPW13070   3.858   0.399   1.016
 3157SOL      O13071   4.330   1.731   0.328
 3157SOL     H113072   4.251   1.689   0.361
 3157SOL     H213073   4.396   1.714   0.395
 3157SOL    EPW13074   4.329   1.723   0.341
 3158SOL      O13075   5.458   1.251   1.725
 3158SOL     H113076   5.508   1.177   1.757
 3158SOL     H213077   5.404   1.278   1.800
 3158SOL    EPW13078   5.458   1.245   1.738
 3159SOL      O13079   5.592   0.886   1.227
 3159SOL     H113080   5.608   0.924   1.140
 3159SOL     H213081   5.626   0.952   1.288
 3159SOL    EPW13082   5.599   0.899   1.223
 3160SOL      O13083   5.384   1.595   0.896
 3160SOL     H113084   5.413   1.662   0.957
 3160SOL     H213085   5.365   1.519   0.951
 3160SOL    EPW13086   5.386   1.595   0.911
 3161SOL      O13087   3.855   0.668   1.192
 3161SOL     H113088   3.917   0.698   1.258
 3161SOL     H213089   3.789   0.737   1.186
 3161SOL    EPW13090   3.854   0.681   1.199
 3162SOL      O13091   3.950   1.777   1.644
 3162SOL     H113092   3.924   1.845   1.582
 3162SOL     H213093   3.998   1.714   1.592
 3162SOL    EPW13094   3.952   1.777   1.630
 3163SOL      O13095   4.002   1.096   1.151
 3163SOL     H113096   4.055   1.171   1.176
 3163SOL     H213097   3.921   1.134   1.117
 3163SOL    EPW13098   3.998   1.111   1.151
 3164SOL      O13099   4.542   1.000   1.139
 3164SOL     H113100   4.570   0.909   1.151
 3164SOL     H213101   4.471   0.994   1.075
 3164SOL    EPW13102   4.535   0.988   1.134
 3165SOL      O13103   3.857   0.865   0.557
 3165SOL     H113104   3.948   0.880   0.584
 3165SOL     H213105   3.860   0.786   0.503
 3165SOL    EPW13106   3.869   0.857   0.555
 3166SOL      O13107   4.093   0.573   1.811
 3166SOL     H113108   4.040   0.653   1.818
 3166SOL     H213109   4.163   0.585   1.876
 3166SOL    EPW13110   4.095   0.586   1.819
 3167SOL      O13111   4.479   0.123   1.518
 3167SOL     H113112   4.456   0.031   1.520
 3167SOL     H213113   4.565   0.125   1.475
 3167SOL    EPW13114   4.486   0.113   1.514
 3168SOL      O13115   4.163   0.647   1.557
 3168SOL     H113116   4.243   0.697   1.543
 3168SOL     H213117   4.154   0.641   1.652
 3168SOL    EPW13118   4.172   0.653   1.567
 3169SOL      O13119   4.484   1.797   0.931
 3169SOL     H113120   4.573   1.812   0.961
 3169SOL     H213121   4.479   1.844   0.847
 3169SOL    EPW13122   4.494   1.805   0.924
 3170SOL      O13123   5.140   0.172   1.828
 3170SOL     H113124   5.196   0.099   1.854
 3170SOL     H213125   5.110   0.210   1.910
 3170SOL    EPW13126   5.144   0.167   1.841
 3171SOL      O13127   3.865   1.477   0.596
 3171SOL     H113128   3.837   1.516   0.678
 3171SOL     H213129   3.885   1.386   0.618
 3171SOL    EPW13130   3.863   1.469   0.609
 3172SOL      O13131   4.698   1.520   0.631
 3172SOL     H113132   4.781   1.474   0.615
 3172SOL     H213133   4.688   1.519   0.727
 3172SOL    EPW13134   4.708   1.513   0.641
 3173SOL      O13135   5.530   0.665   0.945
 3173SOL     H113136   5.619   0.695   0.927
 3173SOL     H213137   5.510   0.605   0.874
 3173SOL    EPW13138   5.539   0.662   0.934
 3174SOL      O13139   5.381   0.844   1.825
 3174SOL     H113140   5.436   0.768   1.806
 3174SOL     H213141   5.383   0.852   1.920
 3174SOL    EPW13142   5.389   0.835   1.833
 3175SOL      O13143   4.676   0.406   1.344
 3175SOL     H113144   4.595   0.447   1.372
 3175SOL     H213145   4.723   0.474   1.296
 3175SOL    EPW13146   4.671   0.421   1.342
 3176SOL      O13147   4.936   0.744   0.967
 3176SOL     H113148   4.949   0.838   0.977
 3176SOL     H213149   4.897   0.734   0.881
 3176SOL    EPW13150   4.932   0.755   0.957
 3177SOL      O13151   4.388   0.939   0.771
 3177SOL     H113152   4.299   0.930   0.804
 3177SOL     H213153   4.392   1.029   0.739
 3177SOL    EPW13154   4.377   0.950   0.771
 3178SOL      O13155   5.187   0.522   0.766
 3178SOL     H113156   5.132   0.443   0.765
 3178SOL     H213157   5.169   0.563   0.850
 3178SOL    EPW13158   5.177   0.517   0.775
 3179SOL      O13159   4.158   0.209   1.583
 3179SOL     H113160   4.079   0.227   1.635
 3179SOL     H213161   4.153   0.271   1.510
 3179SOL    EPW13162   4.148   0.219   1.580
 3180SOL      O13163   4.806   0.726   0.723
 3180SOL     H113164   4.743   0.658   0.747
 3180SOL     H213165   4.826   0.707   0.631
 3180SOL    EPW13166   4.800   0.713   0.715
 3181SOL      O13167   4.554   1.030   0.449
 3181SOL     H113168   4.556   1.004   0.356
 3181SOL     H213169   4.612   0.967   0.492
 3181SOL    EPW13170   4.562   1.019   0.443
 3182SOL      O13171   5.107   1.590   1.221
 3182SOL     H113172   5.032   1.636   1.259
 3182SOL     H213173   5.089   1.497   1.238
 3182SOL    EPW13174   5.096   1.584   1.229
 3183SOL      O13175   5.111   1.798   0.651
 3183SOL     H113176   5.054   1.751   0.590
 3183SOL     H213177   5.197   1.759   0.638
 3183SOL    EPW13178   5.114   1.789   0.641
 3184SOL      O13179   5.064   0.274   0.782
 3184SOL     H113180   5.092   0.206   0.843
 3184SOL     H213181   4.978   0.245   0.752
 3184SOL    EPW13182   5.057   0.261   0.786
 3185SOL      O13183   3.869   1.208   0.716
 3185SOL     H113184   3.933   1.240   0.779
 3185SOL     H213185   3.918   1.144   0.664
 3185SOL    EPW13186   3.884   1.204   0.717
 3186SOL      O13187   4.369   1.284   1.698
 3186SOL     H113188   4.417   1.367   1.685
 3186SOL     H213189   4.426   1.232   1.754
 3186SOL    EPW13190   4.383   1.288   1.704
 3187SOL      O13191   3.945   1.526   1.838
 3187SOL     H113192   4.001   1.450   1.853
 3187SOL     H213193   3.894   1.504   1.760
 3187SOL    EPW13194   3.945   1.513   1.829
 3188SOL      O13195   4.712   0.083   0.054
 3188SOL     H113196   4.768   0.075  -0.024
 3188SOL     H213197   4.689  -0.007   0.076
 3188SOL    EPW13198   4.717   0.070   0.047
 3189SOL      O13199   4.830   1.363   1.447
 3189SOL     H113200   4.741   1.369   1.415
 3189SOL     H213201   4.874   1.442   1.415
 3189SOL    EPW13202   4.825   1.373   1.439
 3190SOL      O13203   4.123   0.031   1.789
 3190SOL     H113204   4.051  -0.004   1.737
 3190SOL     H213205   4.181   0.072   1.724
 3190SOL    EPW13206   4.121   0.032   1.774
 3191SOL      O13207   4.147   1.521   1.088
 3191SOL     H113208   4.192   1.583   1.145
 3191SOL     H213209   4.054   1.540   1.101
 3191SOL    EPW13210   4.140   1.531   1.095
 3192SOL      O13211   5.587   1.050   1.442
 3192SOL     H113212   5.502   1.063   1.401
 3192SOL     H213213   5.567   1.014   1.529
 3192SOL    EPW13214   5.574   1.046   1.447
 3193SOL      O13215   4.569   1.589   1.196
 3193SOL     H113216   4.593   1.578   1.105
 3193SOL     H213217   4.492   1.646   1.194
 3193SOL    EPW13218   4.561   1.594   1.185
 3194SOL      O13219   4.211   0.972   0.051
 3194SOL     H113220   4.134   0.985   0.107
 3194SOL     H213221   4.175   0.936  -0.030
 3194SOL    EPW13222   4.197   0.968   0.048
 3195SOL      O13223   4.364   1.294   0.986
 3195SOL     H113224   4.357   1.273   1.080
 3195SOL     H213225   4.282   1.262   0.949
 3195SOL    EPW13226   4.352   1.288   0.993
 3196SOL      O13227   5.228   0.304   1.388
 3196SOL     H113228   5.175   0.306   1.468
 3196SOL     H213229   5.213   0.217   1.351
 3196SOL    EPW13230   5.220   0.294   1.393
 3197SOL      O13231   5.564   0.228   1.261
 3197SOL     H113232   5.545   0.295   1.196
 3197SOL     H213233   5.621   0.166   1.216
 3197SOL    EPW13234   5.568   0.229   1.247
 3198SOL      O13235   3.810   1.386   1.649
 3198SOL     H113236   3.854   1.319   1.595
 3198SOL     H213237   3.725   1.348   1.669
 3198SOL    EPW13238   3.805   1.372   1.645
 3199SOL      O13239   4.493   0.061   0.701
 3199SOL     H113240   4.422   0.122   0.683
 3199SOL     H213241   4.544   0.058   0.620
 3199SOL    EPW13242   4.489   0.067   0.688
 3200SOL      O13243   4.251   1.301   0.450
 3200SOL     H113244   4.244   1.333   0.540
 3200SOL     H213245   4.161   1.285   0.422
 3200SOL    EPW13246   4.239   1.303   0.457
 3201SOL      O13247   4.846   1.694   1.359
 3201SOL     H113248   4.766   1.679   1.309
 3201SOL     H213249   4.853   1.789   1.366
 3201SOL    EPW13250   4.837   1.705   1.353
 3202SOL      O13251   4.960   1.659   0.849
 3202SOL     H113252   5.007   1.732   0.808
 3202SOL     H213253   4.881   1.698   0.885
 3202SOL    EPW13254   4.955   1.674   0.848
 3203SOL      O13255   5.368   1.754   1.124
 3203SOL     H113256   5.411   1.724   1.204
 3203SOL     H213257   5.287   1.702   1.121
 3203SOL    EPW13258   5.363   1.743   1.134
 3204SOL      O13259   4.453   0.718   1.831
 3204SOL     H113260   4.523   0.660   1.803
 3204SOL     H213261   4.396   0.663   1.886
 3204SOL    EPW13262   4.455   0.705   1.835
 3205SOL      O13263   5.240   0.930   1.464
 3205SOL     H113264   5.245   0.983   1.544
 3205SOL     H213265   5.202   0.847   1.492
 3205SOL    EPW13266   5.236   0.925   1.479
 3206SOL      O13267   4.880   0.065   1.710
 3206SOL     H113268   4.875  -0.028   1.691
 3206SOL     H213269   4.963   0.076   1.756
 3206SOL    EPW13270   4.888   0.054   1.714
 3207SOL      O13271   5.350   1.336   0.986
 3207SOL     H113272   5.385   1.318   0.899
 3207SOL     H213273   5.255   1.337   0.973
 3207SOL    EPW13274   5.342   1.333   0.973
 3208SOL      O13275   4.779   0.984   1.355
 3208SOL     H113276   4.822   1.019   1.433
 3208SOL     H213277   4.762   1.061   1.301
 3208SOL    EPW13278   4.782   0.999   1.358
 3209SOL      O13279   4.170   0.126   0.657
 3209SOL     H113280   4.220   0.169   0.588
 3209SOL     H213281   4.085   0.170   0.657
 3209SOL    EPW13282   4.167   0.139   0.648
 3210SOL      O13283   3.929   1.188   1.517
 3210SOL     H113284   3.957   1.141   1.595
 3210SOL     H213285   3.850   1.143   1.488
 3210SOL    EPW13286   3.922   1.177   1.523
 3211SOL      O13287   4.437   0.515   1.484
 3211SOL     H113288   4.409   0.603   1.508
 3211SOL     H213289   4.406   0.459   1.555
 3211SOL    EPW13290   4.429   0.518   1.496
 3212SOL      O13291   4.979   0.733   0.203
 3212SOL     H113292   5.026   0.751   0.122
 3212SOL     H213293   4.945   0.817   0.231
 3212SOL    EPW13294   4.981   0.747   0.196
 3213SOL      O13295   4.092   0.911   0.697
 3213SOL     H113296   4.150   0.967   0.645
 3213SOL     H213297   4.136   0.826   0.699
 3213SOL    EPW13298   4.105   0.908   0.690
 3214SOL      O13299   5.232   0.263   0.534
 3214SOL     H113300   5.154   0.213   0.559
 3214SOL     H213301   5.203   0.354   0.534
 3214SOL    EPW13302   5.218   0.267   0.537
 3215SOL      O13303   4.818   0.225   0.693
 3215SOL     H113304   4.838   0.300   0.637
 3215SOL     H213305   4.798   0.264   0.778
 3215SOL    EPW13306   4.819   0.241   0.697
 3216SOL      O13307   5.578   0.998   1.712
 3216SOL     H113308   5.491   0.978   1.748
 3216SOL     H213309   5.632   0.924   1.737
 3216SOL    EPW13310   5.573   0.987   1.720
 3217SOL      O13311   3.799   1.511   0.869
 3217SOL     H113312   3.831   1.515   0.960
 3217SOL     H213313   3.704   1.519   0.877
 3217SOL    EPW13314   3.791   1.514   0.882
 3218SOL      O13315   3.754   0.637   0.416
 3218SOL     H113316   3.694   0.609   0.486
 3218SOL     H213317   3.828   0.577   0.422
 3218SOL    EPW13318   3.756   0.626   0.425
 3219SOL      O13319   5.322   1.849   1.850
 3219SOL     H113320   5.367   1.773   1.815
 3219SOL     H213321   5.360   1.862   1.937
 3219SOL    EPW13322   5.332   1.842   1.856
 3220SOL      O13323   4.922   1.368   0.576
 3220SOL     H113324   4.945   1.319   0.654
 3220SOL     H213325   5.003   1.410   0.548
 3220SOL    EPW13326   4.935   1.368   0.583
 3221SOL      O13327   4.180   0.376   1.305
 3221SOL     H113328   4.213   0.457   1.345
 3221SOL     H213329   4.153   0.402   1.217
 3221SOL    EPW13330   4.179   0.390   1.299
 3222SOL      O13331   4.134   0.343   1.041
 3222SOL     H113332   4.164   0.257   1.012
 3222SOL     H213333   4.039   0.336   1.044
 3222SOL    EPW13334   4.126   0.332   1.039
 3223SOL      O13335   4.963   0.552   1.732
 3223SOL     H113336   5.015   0.487   1.685
 3223SOL     H213337   4.921   0.603   1.662
 3223SOL    EPW13338   4.964   0.549   1.715
 3224SOL      O13339   5.062   0.347   1.593
 3224SOL     H113340   4.969   0.331   1.580
 3224SOL     H213341   5.088   0.285   1.661
 3224SOL    EPW13342   5.052   0.337   1.600
 3225SOL      O13343   4.277   0.121   0.932
 3225SOL     H113344   4.287   0.030   0.958
 3225SOL     H213345   4.233   0.117   0.847
 3225SOL    EPW13346   4.273   0.109   0.924
 3226SOL      O13347   4.371   1.736   1.478
 3226SOL     H113348   4.288   1.721   1.523
 3226SOL     H213349   4.430   1.669   1.513
 3226SOL    EPW13350   4.369   1.726   1.488
 3227SOL      O13351   5.428   0.443   1.103
 3227SOL     H113352   5.361   0.476   1.163
 3227SOL     H213353   5.471   0.521   1.069
 3227SOL    EPW13354   5.426   0.458   1.107
 3228SOL      O13355   5.606   1.163   1.073
 3228SOL     H113356   5.599   1.103   0.998
 3228SOL     H213357   5.532   1.223   1.062
 3228SOL    EPW13358   5.596   1.163   1.062
 3229SOL      O13359   4.988   1.025   0.991
 3229SOL     H113360   5.002   0.997   1.082
 3229SOL     H213361   5.074   1.056   0.963
 3229SOL    EPW13362   5.001   1.026   1.000
 3230SOL      O13363   5.071   0.520   1.270
 3230SOL     H113364   5.092   0.521   1.177
 3230SOL     H213365   5.116   0.442   1.303
 3230SOL    EPW13366   5.078   0.510   1.262
 3231SOL      O13367   5.564   0.651   1.812
 3231SOL     H113368   5.601   0.596   1.881
 3231SOL     H213369   5.589   0.608   1.730
 3231SOL    EPW13370   5.571   0.639   1.811
 3232SOL      O13371   5.111   0.949   1.863
 3232SOL     H113372   5.177   0.897   1.817
 3232SOL     H213373   5.131   0.936   1.956
 3232SOL    EPW13374   5.122   0.940   1.870
 3233SOL      O13375   5.122   0.810   0.490
 3233SOL     H113376   5.037   0.780   0.460
 3233SOL     H213377   5.114   0.817   0.585
 3233SOL    EPW13378   5.110   0.808   0.499
 3234SOL      O13379   4.198   1.273   1.221
 3234SOL     H113380   4.210   1.300   1.312
 3234SOL     H213381   4.179   1.354   1.174
 3234SOL    EPW13382   4.197   1.288   1.226
 3235SOL      O13383   4.482   0.253   1.044
 3235SOL     H113384   4.455   0.255   1.135
 3235SOL     H213385   4.412   0.205   0.999
 3235SOL    EPW13386   4.470   0.249   1.051
 3236SOL      O13387   4.336   1.745   1.206
 3236SOL     H113388   4.388   1.822   1.183
 3236SOL     H213389   4.345   1.737   1.301
 3236SOL    EPW13390   4.345   1.752   1.217
 3237SOL      O13391   5.238   1.330   1.438
 3237SOL     H113392   5.223   1.259   1.501
 3237SOL     H213393   5.284   1.288   1.366
 3237SOL    EPW13394   5.244   1.314   1.438
 3238SOL      O13395   4.312   1.061   1.555
 3238SOL     H113396   4.349   1.066   1.467
 3238SOL     H213397   4.351   1.134   1.602
 3238SOL    EPW13398   4.322   1.071   1.550
 3239SOL      O13399   4.492   1.104   1.367
 3239SOL     H113400   4.551   1.050   1.420
 3239SOL     H213401   4.507   1.076   1.277
 3239SOL    EPW13402   4.502   1.093   1.363
 3240SOL      O13403   5.303   1.593   1.539
 3240SOL     H113404   5.345   1.578   1.624
 3240SOL     H213405   5.294   1.506   1.501
 3240SOL    EPW13406   5.307   1.581   1.546
 3241SOL      O13407   4.963   0.072   1.130
 3241SOL     H113408   5.018   0.081   1.052
 3241SOL     H213409   5.018   0.106   1.201
 3241SOL    EPW13410   4.977   0.077   1.129
 3242SOL      O13411   4.326   1.339   0.173
 3242SOL     H113412   4.341   1.315   0.265
 3242SOL     H213413   4.234   1.317   0.157
 3242SOL    EPW13414   4.316   1.332   0.183
 3243SOL      O13415   4.124   1.728   0.894
 3243SOL     H113416   4.128   1.639   0.929
 3243SOL     H213417   4.150   1.719   0.803
 3243SOL    EPW13418   4.127   1.716   0.886
 3244SOL      O13419   4.741   1.206   1.137
 3244SOL     H113420   4.673   1.140   1.153
 3244SOL     H213421   4.759   1.200   1.044
 3244SOL    EPW13422   4.734   1.197   1.128
 3245SOL      O13423   3.830   1.481   1.388
 3245SOL     H113424   3.820   1.439   1.474
 3245SOL     H213425   3.751   1.534   1.378
 3245SOL    EPW13426   3.819   1.482   1.399
 3246SOL      O13427   4.734   0.345   0.958
 3246SOL     H113428   4.664   0.297   1.003
 3246SOL     H213429   4.766   0.408   1.022
 3246SOL    EPW13430   4.729   0.347   0.972
 3247SOL      O13431   4.385   0.781   1.578
 3247SOL     H113432   4.378   0.876   1.566
 3247SOL     H213433   4.394   0.770   1.673
 3247SOL    EPW13434   4.386   0.793   1.588
 3248SOL      O13435   4.106   1.296   1.836
 3248SOL     H113436   4.178   1.298   1.773
 3248SOL     H213437   4.076   1.205   1.835
 3248SOL    EPW13438   4.111   1.285   1.828
 3249SOL      O13439   5.190   0.059   1.303
 3249SOL     H113440   5.261   0.005   1.267
 3249SOL     H213441   5.189   0.038   1.396
 3249SOL    EPW13442   5.199   0.050   1.311
 3250SOL      O13443   5.390   1.589   1.787
 3250SOL     H113444   5.363   1.586   1.878
 3250SOL     H213445   5.486   1.593   1.790
 3250SOL    EPW13446   5.400   1.589   1.799
 3251SOL      O13447   4.201   0.451   0.771
 3251SOL     H113448   4.272   0.399   0.734
 3251SOL     H213449   4.187   0.416   0.858
 3251SOL    EPW13450   4.209   0.440   0.778
 3252SOL      O13451   3.756   1.786   1.843
 3252SOL     H113452   3.806   1.764   1.765
 3252SOL     H213453   3.764   1.881   1.851
 3252SOL    EPW13454   3.764   1.795   1.834
 3253SOL      O13455   4.517   1.544   0.847
 3253SOL     H113456   4.445   1.481   0.860
 3253SOL     H213457   4.478   1.629   0.865
 3253SOL    EPW13458   4.501   1.547   0.850
 3254SOL      O13459   4.837   0.392   0.495
 3254SOL     H113460   4.859   0.329   0.427
 3254SOL     H213461   4.742   0.384   0.506
 3254SOL    EPW13462   4.827   0.383   0.487
 3255SOL      O13463   3.922   0.082   0.427
 3255SOL     H113464   3.993   0.103   0.366
 3255SOL     H213465   3.876   0.010   0.385
 3255SOL    EPW13466   3.926   0.076   0.413
 3256SOL      O13467   3.753   0.549   1.570
 3256SOL     H113468   3.817   0.615   1.545
 3256SOL     H213469   3.672   0.576   1.527
 3256SOL    EPW13470   3.751   0.561   1.562
 3257SOL      O13471   5.491   1.456   0.527
 3257SOL     H113472   5.461   1.389   0.588
 3257SOL     H213473   5.585   1.462   0.541
 3257SOL    EPW13474   5.499   1.448   0.537
 3258SOL      O13475   5.047   1.133   0.457
 3258SOL     H113476   5.019   1.219   0.490
 3258SOL     H213477   5.075   1.149   0.367
 3258SOL    EPW13478   5.047   1.147   0.449
 3259SOL      O13479   4.709   0.053   0.510
 3259SOL     H113480   4.746   0.112   0.575
 3259SOL     H213481   4.686   0.109   0.436
 3259SOL    EPW13482   4.710   0.068   0.509
 3260SOL      O13483   5.562   0.935   0.932
 3260SOL     H113484   5.553   0.967   0.843
 3260SOL     H213485   5.515   0.851   0.932
 3260SOL    EPW13486   5.555   0.928   0.922
 3261SOL      O13487   3.938   0.775   1.511
 3261SOL     H113488   3.959   0.844   1.449
 3261SOL     H213489   4.018   0.722   1.516
 3261SOL    EPW13490   3.951   0.776   1.505
 3262SOL      O13491   5.474   0.866   0.633
 3262SOL     H113492   5.568   0.855   0.621
 3262SOL     H213493   5.450   0.938   0.574
 3262SOL    EPW13494   5.484   0.874   0.624
 3263SOL      O13495   3.923   0.790   1.778
 3263SOL     H113496   3.849   0.734   1.804
 3263SOL     H213497   3.918   0.793   1.683
 3263SOL    EPW13498   3.912   0.783   1.768
 3264SOL      O13499   4.089   0.077   1.228
 3264SOL     H113500   4.132   0.161   1.248
 3264SOL     H213501   4.162   0.015   1.221
 3264SOL    EPW13502   4.104   0.080   1.229
 3265SOL      O13503   4.130   0.744   0.406
 3265SOL     H113504   4.130   0.839   0.391
 3265SOL     H213505   4.207   0.728   0.460
 3265SOL    EPW13506   4.140   0.755   0.411
 3266SOL      O13507   4.906   0.603   1.470
 3266SOL     H113508   4.942   0.576   1.386
 3266SOL     H213509   4.819   0.637   1.449
 3266SOL    EPW13510   4.900   0.604   1.457
 3267SOL      O13511   3.889   0.475   0.695
 3267SOL     H113512   3.951   0.482   0.768
 3267SOL     H213513   3.889   0.382   0.672
 3267SOL    EPW13514   3.897   0.464   0.702
 3268SOL      O13515   4.571   0.736   1.179
 3268SOL     H113516   4.529   0.654   1.155
 3268SOL     H213517   4.572   0.735   1.275
 3268SOL    EPW13518   4.564   0.725   1.188
 3269SOL      O13519   5.242   1.869   1.578
 3269SOL     H113520   5.245   1.775   1.561
 3269SOL     H213521   5.265   1.877   1.670
 3269SOL    EPW13522   5.245   1.857   1.588
 3270SOL      O13523   4.375   0.206   1.284
 3270SOL     H113524   4.306   0.269   1.305
 3270SOL     H213525   4.402   0.170   1.369
 3270SOL    EPW13526   4.369   0.209   1.297
 3271SOL      O13527   5.170   0.059   0.901
 3271SOL     H113528   5.258   0.068   0.938
 3271SOL     H213529   5.180   0.000   0.827
 3271SOL    EPW13530   5.184   0.053   0.895
 3272SOL      O13531   5.202   0.798   0.745
 3272SOL     H113532   5.282   0.813   0.694
 3272SOL     H213533   5.195   0.703   0.751
 3272SOL    EPW13534   5.211   0.787   0.740
 3273SOL      O13535   4.652   0.724   1.442
 3273SOL     H113536   4.721   0.791   1.439
 3273SOL     H213537   4.585   0.762   1.498
 3273SOL    EPW13538   4.653   0.737   1.449
 3274SOL      O13539   4.070   1.024   1.690
 3274SOL     H113540   4.024   0.940   1.692
 3274SOL     H213541   4.127   1.018   1.614
 3274SOL    EPW13542   4.072   1.012   1.682
 3275SOL      O13543   4.321   1.399   0.691
 3275SOL     H113544   4.386   1.332   0.712
 3275SOL     H213545   4.373   1.476   0.668
 3275SOL    EPW13546   4.336   1.401   0.690
 3276SOL      O13547   4.582   0.564   0.821
 3276SOL     H113548   4.522   0.582   0.893
 3276SOL     H213549   4.616   0.476   0.840
 3276SOL    EPW13550   4.578   0.554   0.834
 3277SOL      O13551   5.523   0.063   1.490
 3277SOL     H113552   5.444   0.109   1.518
 3277SOL     H213553   5.558   0.117   1.419
 3277SOL    EPW13554   5.517   0.076   1.484
 3278SOL      O13555   4.807   1.147   0.840
 3278SOL     H113556   4.899   1.128   0.858
 3278SOL     H213557   4.780   1.077   0.780
 3278SOL    EPW13558   4.815   1.135   0.834
 3279SOL      O13559   5.081   1.385   0.936
 3279SOL     H113560   5.054   1.469   0.901
 3279SOL     H213561   5.041   1.380   1.023
 3279SOL    EPW13562   5.074   1.394   0.942
 3280SOL      O13563   5.000   1.333   1.204
 3280SOL     H113564   5.011   1.300   1.293
 3280SOL     H213565   4.919   1.292   1.173
 3280SOL    EPW13566   4.990   1.325   1.210
 3281SOL      O13567   4.013   0.691   0.974
 3281SOL     H113568   3.963   0.690   1.055
 3281SOL     H213569   4.033   0.783   0.958
 3281SOL    EPW13570   4.009   0.703   0.982
 3282SOL      O13571   5.080   1.455   1.736
 3282SOL     H113572   5.080   1.549   1.752
 3282SOL     H213573   5.125   1.445   1.652
 3282SOL    EPW13574   5.086   1.465   1.727
 3283SOL      O13575   3.935   0.359   1.715
 3283SOL     H113576   3.892   0.418   1.652
 3283SOL     H213577   4.003   0.414   1.755
 3283SOL    EPW13578   3.939   0.374   1.712
 3284SOL      O13579   5.047   0.979   1.260
 3284SOL     H113580   5.110   0.976   1.333
 3284SOL     H213581   4.963   0.997   1.302
 3284SOL    EPW13582   5.043   0.981   1.275
 3285SOL      O13583   4.591   1.694   0.449
 3285SOL     H113584   4.649   1.765   0.476
 3285SOL     H213585   4.614   1.622   0.507
 3285SOL    EPW13586   4.602   1.694   0.460
 3286SOL      O13587   5.386   0.156   1.039
 3286SOL     H113588   5.431   0.074   1.058
 3286SOL     H213589   5.406   0.212   1.115
 3286SOL    EPW13590   5.396   0.152   1.051
 3287SOL      O13591   3.834  -0.001   1.138
 3287SOL     H113592   3.825   0.000   1.043
 3287SOL     H213593   3.928   0.011   1.153
 3287SOL    EPW13594   3.846   0.002   1.129
 3288SOL      O13595   5.471   1.192   0.758
 3288SOL     H113596   5.450   1.138   0.681
 3288SOL     H213597   5.567   1.190   0.762
 3288SOL    EPW13598   5.480   1.185   0.747
 3289SOL      O13599   4.163   1.337   1.501
 3289SOL     H113600   4.084   1.287   1.524
 3289SOL     H213601   4.233   1.296   1.551
 3289SOL    EPW13602   4.161   1.325   1.511
 3290SOL      O13603   4.047   0.126   0.184
 3290SOL     H113604   3.976   0.181   0.152
 3290SOL     H213605   4.089   0.092   0.105
 3290SOL    EPW13606   4.043   0.128   0.170
 3291SOL      O13607   5.171   0.623   1.020
 3291SOL     H113608   5.094   0.669   0.986
 3291SOL     H213609   5.228   0.692   1.054
 3291SOL    EPW13610   5.168   0.638   1.020
 3292SOL      O13611   5.472   0.839   2.125
 3292SOL     H113612   5.513   0.781   2.190
 3292SOL     H213613   5.379   0.831   2.142
 3292SOL    EPW13614   5.466   0.831   2.135
 3293SOL      O13615   5.338   0.771   3.120
 3293SOL     H113616   5.293   0.838   3.171
 3293SOL     H213617   5.426   0.807   3.106
 3293SOL    EPW13618   5.344   0.784   3.124
 3294SOL      O13619   4.266   1.022   2.354
 3294SOL     H113620   4.356   0.997   2.338
 3294SOL     H213621   4.262   1.115   2.331
 3294SOL    EPW13622   4.278   1.031   2.349
 3295SOL      O13623   5.382   1.725   2.496
 3295SOL     H113624   5.394   1.671   2.574
 3295SOL     H213625   5.419   1.673   2.425
 3295SOL    EPW13626   5.388   1.710   2.497
 3296SOL      O13627   4.761   1.610   3.497
 3296SOL     H113628   4.802   1.646   3.418
 3296SOL     H213629   4.796   1.521   3.504
 3296SOL    EPW13630   4.772   1.603   3.488
 3297SOL      O13631   5.318   1.165   3.101
 3297SOL     H113632   5.239   1.130   3.059
 3297SOL     H213633   5.345   1.237   3.045
 3297SOL    EPW13634   5.311   1.170   3.088
 3298SOL      O13635   4.550   0.478   2.367
 3298SOL     H113636   4.525   0.566   2.395
 3298SOL     H213637   4.547   0.481   2.271
 3298SOL    EPW13638   4.546   0.490   2.359
 3299SOL      O13639   3.992   0.506   2.295
 3299SOL     H113640   4.024   0.594   2.277
 3299SOL     H213641   3.980   0.504   2.390
 3299SOL    EPW13642   3.995   0.518   2.307
 3300SOL      O13643   4.070   0.919   3.196
 3300SOL     H113644   4.133   0.866   3.147
 3300SOL     H213645   4.051   0.993   3.139
 3300SOL    EPW13646   4.076   0.921   3.183
 3301SOL      O13647   4.391   0.261   2.382
 3301SOL     H113648   4.449   0.337   2.384
 3301SOL     H213649   4.326   0.282   2.315
 3301SOL    EPW13650   4.390   0.273   2.373
 3302SOL      O13651   4.478   1.188   2.557
 3302SOL     H113652   4.558   1.191   2.609
 3302SOL     H213653   4.506   1.155   2.471
 3302SOL    EPW13654   4.492   1.184   2.552
 3303SOL      O13655   4.503   1.529   3.460
 3303SOL     H113656   4.587   1.555   3.499
 3303SOL     H213657   4.527   1.473   3.386
 3303SOL    EPW13658   4.517   1.525   3.455
 3304SOL      O13659   4.255   0.692   2.548
 3304SOL     H113660   4.240   0.612   2.599
 3304SOL     H213661   4.337   0.727   2.582
 3304SOL    EPW13662   4.263   0.684   2.560
 3305SOL      O13663   4.592   1.378   3.233
 3305SOL     H113664   4.556   1.444   3.173
 3305SOL     H213665   4.520   1.316   3.246
 3305SOL    EPW13666   4.578   1.378   3.227
 3306SOL      O13667   4.397   0.518   2.925
 3306SOL     H113668   4.303   0.514   2.943
 3306SOL     H213669   4.427   0.427   2.934
 3306SOL    EPW13670   4.388   0.506   2.928
 3307SOL      O13671   4.143   0.932   2.829
 3307SOL     H113672   4.098   0.939   2.745
 3307SOL     H213673   4.123   1.015   2.873
 3307SOL    EPW13674   4.135   0.944   2.823
 3308SOL      O13675   3.840   1.778   2.704
 3308SOL     H113676   3.929   1.770   2.739
 3308SOL     H213677   3.804   1.690   2.709
 3308SOL    EPW13678   3.847   1.765   2.709
 3309SOL      O13679   5.105   1.170   2.073
 3309SOL     H113680   5.023   1.206   2.039
 3309SOL     H213681   5.173   1.213   2.022
 3309SOL    EPW13682   5.103   1.180   2.061
 3310SOL      O13683   4.104   1.305   2.739
 3310SOL     H113684   4.080   1.358   2.815
 3310SOL     H213685   4.160   1.363   2.687
 3310SOL    EPW13686   4.108   1.320   2.742
 3311SOL      O13687   4.666   0.949   2.549
 3311SOL     H113688   4.580   0.936   2.589
 3311SOL     H213689   4.719   0.876   2.581
 3311SOL    EPW13690   4.662   0.938   2.558
 3312SOL      O13691   4.074   1.601   3.334
 3312SOL     H113692   3.982   1.577   3.319
 3312SOL     H213693   4.118   1.518   3.351
 3312SOL    EPW13694   4.068   1.586   3.333
 3313SOL      O13695   4.657   1.311   2.266
 3313SOL     H113696   4.634   1.373   2.334
 3313SOL     H213697   4.614   1.229   2.292
 3313SOL    EPW13698   4.649   1.307   2.277
 3314SOL      O13699   5.530   0.312   2.722
 3314SOL     H113700   5.467   0.292   2.791
 3314SOL     H213701   5.520   0.241   2.659
 3314SOL    EPW13702   5.520   0.299   2.723
 3315SOL      O13703   4.154   0.284   2.234
 3315SOL     H113704   4.128   0.246   2.150
 3315SOL     H213705   4.091   0.354   2.250
 3315SOL    EPW13706   4.143   0.287   2.225
 3316SOL      O13707   3.989   1.245   2.271
 3316SOL     H113708   3.937   1.313   2.227
 3316SOL     H213709   3.986   1.171   2.211
 3316SOL    EPW13710   3.981   1.244   2.258
 3317SOL      O13711   4.651   1.708   2.049
 3317SOL     H113712   4.606   1.724   2.132
 3317SOL     H213713   4.582   1.673   1.991
 3317SOL    EPW13714   4.637   1.705   2.051
 3318SOL      O13715   5.586   0.481   2.024
 3318SOL     H113716   5.495   0.483   2.052
 3318SOL     H213717   5.631   0.543   2.082
 3318SOL    EPW13718   5.579   0.489   2.034
 3319SOL      O13719   5.331   1.084   2.374
 3319SOL     H113720   5.241   1.084   2.409
 3319SOL     H213721   5.324   1.130   2.291
 3319SOL    EPW13722   5.318   1.090   2.368
 3320SOL      O13723   5.131   0.719   3.446
 3320SOL     H113724   5.200   0.657   3.423
 3320SOL     H213725   5.056   0.693   3.393
 3320SOL    EPW13726   5.131   0.706   3.437
 3321SOL      O13727   3.872   1.599   2.998
 3321SOL     H113728   3.855   1.545   3.075
 3321SOL     H213729   3.860   1.689   3.028
 3321SOL    EPW13730   3.869   1.603   3.012
 3322SOL      O13731   4.867   1.106   3.438
 3322SOL     H113732   4.852   1.199   3.423
 3322SOL     H213733   4.962   1.096   3.438
 3322SOL    EPW13734   4.876   1.116   3.435
 3323SOL      O13735   4.663   0.530   3.639
 3323SOL     H113736   4.753   0.531   3.606
 3323SOL     H213737   4.622   0.455   3.597
 3323SOL    EPW13738   4.669   0.520   3.630
 3324SOL      O13739   5.238   1.062   2.766
 3324SOL     H113740   5.241   0.996   2.697
 3324SOL     H213741   5.323   1.105   2.762
 3324SOL    EPW13742   5.250   1.058   2.757
 3325SOL      O13743   4.858   0.665   2.335
 3325SOL     H113744   4.884   0.689   2.246
 3325SOL     H213745   4.840   0.572   2.331
 3325SOL    EPW13746   4.860   0.657   2.322
 3326SOL      O13747   5.523   1.285   2.186
 3326SOL     H113748   5.479   1.326   2.261
 3326SOL     H213749   5.580   1.353   2.151
 3326SOL    EPW13750   5.525   1.299   2.191
 3327SOL      O13751   4.443   0.334   3.589
 3327SOL     H113752   4.453   0.260   3.529
 3327SOL     H213753   4.479   0.303   3.672
 3327SOL    EPW13754   4.449   0.320   3.591
 3328SOL      O13755   4.179   1.701   2.504
 3328SOL     H113756   4.211   1.789   2.482
 3328SOL     H213757   4.132   1.673   2.426
 3328SOL    EPW13758   4.178   1.709   2.491
 3329SOL      O13759   5.563   0.063   2.553
 3329SOL     H113760   5.617   0.014   2.615
 3329SOL     H213761   5.506  -0.003   2.514
 3329SOL    EPW13762   5.563   0.047   2.555
 3330SOL      O13763   3.895   1.761   2.081
 3330SOL     H113764   3.924   1.851   2.073
 3330SOL     H213765   3.845   1.744   2.002
 3330SOL    EPW13766   3.893   1.769   2.070
 3331SOL      O13767   4.682   0.016   2.966
 3331SOL     H113768   4.641   0.094   2.928
 3331SOL     H213769   4.776   0.034   2.961
 3331SOL    EPW13770   4.688   0.028   2.961
 3332SOL      O13771   5.299   1.569   2.052
 3332SOL     H113772   5.347   1.638   2.098
 3332SOL     H213773   5.220   1.613   2.021
 3332SOL    EPW13774   5.294   1.583   2.055
 3333SOL      O13775   4.697   0.694   1.996
 3333SOL     H113776   4.699   0.641   1.917
 3333SOL     H213777   4.785   0.731   2.002
 3333SOL    EPW13778   4.709   0.693   1.985
 3334SOL      O13779   5.311   0.620   2.332
 3334SOL     H113780   5.350   0.620   2.419
 3334SOL     H213781   5.252   0.696   2.332
 3334SOL    EPW13782   5.308   0.631   2.343
 3335SOL      O13783   4.628   0.987   3.461
 3335SOL     H113784   4.605   0.967   3.551
 3335SOL     H213785   4.713   1.031   3.466
 3335SOL    EPW13786   4.635   0.990   3.473
 3336SOL      O13787   4.708   0.124   3.221
 3336SOL     H113788   4.714   0.086   3.134
 3336SOL     H213789   4.697   0.218   3.206
 3336SOL    EPW13790   4.709   0.132   3.209
 3337SOL      O13791   4.797   0.613   3.055
 3337SOL     H113792   4.872   0.642   3.002
 3337SOL     H213793   4.729   0.678   3.039
 3337SOL    EPW13794   4.798   0.625   3.045
 3338SOL      O13795   5.347   0.581   3.332
 3338SOL     H113796   5.328   0.490   3.311
 3338SOL     H213797   5.325   0.630   3.253
 3338SOL    EPW13798   5.342   0.574   3.319
 3339SOL      O13799   5.489   1.675   3.236
 3339SOL     H113800   5.417   1.637   3.287
 3339SOL     H213801   5.506   1.760   3.277
 3339SOL    EPW13802   5.483   1.680   3.248
 3340SOL      O13803   4.794   0.319   3.438
 3340SOL     H113804   4.760   0.358   3.357
 3340SOL     H213805   4.772   0.227   3.431
 3340SOL    EPW13806   4.787   0.312   3.428
 3341SOL      O13807   5.203   1.133   3.514
 3341SOL     H113808   5.285   1.174   3.544
 3341SOL     H213809   5.166   1.095   3.594
 3341SOL    EPW13810   5.209   1.134   3.529
 3342SOL      O13811   5.498   0.506   2.498
 3342SOL     H113812   5.587   0.475   2.515
 3342SOL     H213813   5.441   0.446   2.546
 3342SOL    EPW13814   5.501   0.494   2.507
 3343SOL      O13815   3.924   0.220   2.527
 3343SOL     H113816   3.915   0.160   2.453
 3343SOL     H213817   3.857   0.191   2.590
 3343SOL    EPW13818   3.914   0.207   2.525
 3344SOL      O13819   4.867   1.313   2.088
 3344SOL     H113820   4.817   1.315   2.170
 3344SOL     H213821   4.801   1.331   2.020
 3344SOL    EPW13822   4.853   1.315   2.090
 3345SOL      O13823   3.871   0.393   2.890
 3345SOL     H113824   3.843   0.484   2.899
 3345SOL     H213825   3.808   0.354   2.829
 3345SOL    EPW13826   3.858   0.399   2.884
 3346SOL      O13827   4.330   1.731   2.196
 3346SOL     H113828   4.251   1.689   2.229
 3346SOL     H213829   4.396   1.714   2.263
 3346SOL    EPW13830   4.329   1.723   2.209
 3347SOL      O13831   5.458   1.251   3.593
 3347SOL     H113832   5.508   1.177   3.625
 3347SOL     H213833   5.404   1.278   3.668
 3347SOL    EPW13834   5.458   1.245   3.606
 3348SOL      O13835   4.466   1.146   1.903
 3348SOL     H113836   4.388   1.092   1.890
 3348SOL     H213837   4.437   1.219   1.956
 3348SOL    EPW13838   4.452   1.148   1.908
 3349SOL      O13839   5.592   0.886   3.095
 3349SOL     H113840   5.608   0.924   3.008
 3349SOL     H213841   5.626   0.952   3.156
 3349SOL    EPW13842   5.599   0.899   3.091
 3350SOL      O13843   5.384   1.595   2.764
 3350SOL     H113844   5.413   1.662   2.825
 3350SOL     H213845   5.365   1.519   2.819
 3350SOL    EPW13846   5.386   1.595   2.779
 3351SOL      O13847   5.047   1.662   1.971
 3351SOL     H113848   4.973   1.625   2.021
 3351SOL     H213849   5.055   1.752   2.004
 3351SOL    EPW13850   5.038   1.669   1.983
 3352SOL      O13851   3.855   0.668   3.060
 3352SOL     H113852   3.917   0.698   3.126
 3352SOL     H213853   3.789   0.737   3.054
 3352SOL    EPW13854   3.854   0.681   3.067
 3353SOL      O13855   5.271   1.336   1.913
 3353SOL     H113856   5.218   1.385   1.849
 3353SOL     H213857   5.302   1.402   1.974
 3353SOL    EPW13858   5.269   1.350   1.911
 3354SOL      O13859   4.496   0.225   1.968
 3354SOL     H113860   4.444   0.145   1.956
 3354SOL     H213861   4.583   0.202   1.936
 3354SOL    EPW13862   4.499   0.211   1.962
 3355SOL      O13863   3.950   1.777   3.512
 3355SOL     H113864   3.924   1.845   3.450
 3355SOL     H213865   3.998   1.714   3.460
 3355SOL    EPW13866   3.952   1.777   3.498
 3356SOL      O13867   4.002   1.096   3.019
 3356SOL     H113868   4.055   1.171   3.044
 3356SOL     H213869   3.921   1.134   2.985
 3356SOL    EPW13870   3.998   1.111   3.019
 3357SOL      O13871   4.542   1.000   3.007
 3357SOL     H113872   4.570   0.909   3.019
 3357SOL     H213873   4.471   0.994   2.943
 3357SOL    EPW13874   4.535   0.988   3.002
 3358SOL      O13875   3.857   0.865   2.425
 3358SOL     H113876   3.948   0.880   2.452
 3358SOL     H213877   3.860   0.786   2.371
 3358SOL    EPW13878   3.869   0.857   2.423
 3359SOL      O13879   4.093   0.573   3.679
 3359SOL     H113880   4.040   0.653   3.686
 3359SOL     H213881   4.163   0.585   3.744
 3359SOL    EPW13882   4.095   0.586   3.687
 3360SOL      O13883   4.479   0.123   3.386
 3360SOL     H113884   4.456   0.031   3.388
 3360SOL     H213885   4.565   0.125   3.343
 3360SOL    EPW13886   4.486   0.113   3.382
 3361SOL      O13887   4.163   0.647   3.425
 3361SOL     H113888   4.243   0.697   3.411
 3361SOL     H213889   4.154   0.641   3.520
 3361SOL    EPW13890   4.172   0.653   3.435
 3362SOL      O13891   4.484   1.797   2.799
 3362SOL     H113892   4.573   1.812   2.829
 3362SOL     H213893   4.479   1.844   2.715
 3362SOL    EPW13894   4.494   1.805   2.792
 3363SOL      O13895   5.140   0.172   3.696
 3363SOL     H113896   5.196   0.099   3.722
 3363SOL     H213897   5.110   0.210   3.778
 3363SOL    EPW13898   5.144   0.167   3.709
 3364SOL      O13899   3.865   1.477   2.464
 3364SOL     H113900   3.837   1.516   2.546
 3364SOL     H213901   3.885   1.386   2.486
 3364SOL    EPW13902   3.863   1.469   2.477
 3365SOL      O13903   4.698   1.520   2.499
 3365SOL     H113904   4.781   1.474   2.483
 3365SOL     H213905   4.688   1.519   2.595
 3365SOL    EPW13906   4.708   1.513   2.509
 3366SOL      O13907   5.530   0.665   2.813
 3366SOL     H113908   5.619   0.695   2.795
 3366SOL     H213909   5.510   0.605   2.742
 3366SOL    EPW13910   5.539   0.662   2.802
 3367SOL      O13911   5.381   0.844   3.693
 3367SOL     H113912   5.436   0.768   3.674
 3367SOL     H213913   5.383   0.852   3.788
 3367SOL    EPW13914   5.389   0.835   3.701
 3368SOL      O13915   4.431   1.577   1.904
 3368SOL     H113916   4.371   1.646   1.874
 3368SOL     H213917   4.376   1.519   1.957
 3368SOL    EPW13918   4.415   1.579   1.906
 3369SOL      O13919   4.869   0.222   2.127
 3369SOL     H113920   4.802   0.198   2.064
 3369SOL     H213921   4.934   0.271   2.076
 3369SOL    EPW13922   4.869   0.224   2.112
 3370SOL      O13923   4.676   0.406   3.212
 3370SOL     H113924   4.595   0.447   3.240
 3370SOL     H213925   4.723   0.474   3.164
 3370SOL    EPW13926   4.671   0.421   3.210
 3371SOL      O13927   4.936   0.744   2.835
 3371SOL     H113928   4.949   0.838   2.845
 3371SOL     H213929   4.897   0.734   2.749
 3371SOL    EPW13930   4.932   0.755   2.825
 3372SOL      O13931   4.388   0.939   2.639
 3372SOL     H113932   4.299   0.930   2.672
 3372SOL     H213933   4.392   1.029   2.607
 3372SOL    EPW13934   4.377   0.950   2.639
 3373SOL      O13935   5.187   0.522   2.634
 3373SOL     H113936   5.132   0.443   2.633
 3373SOL     H213937   5.169   0.563   2.718
 3373SOL    EPW13938   5.177   0.517   2.643
 3374SOL      O13939   4.158   0.209   3.451
 3374SOL     H113940   4.079   0.227   3.503
 3374SOL     H213941   4.153   0.271   3.378
 3374SOL    EPW13942   4.148   0.219   3.448
 3375SOL      O13943   4.806   0.726   2.591
 3375SOL     H113944   4.743   0.658   2.615
 3375SOL     H213945   4.826   0.707   2.499
 3375SOL    EPW13946   4.800   0.713   2.583
 3376SOL      O13947   4.062   1.621   2.293
 3376SOL     H113948   4.023   1.668   2.219
 3376SOL     H213949   3.996   1.556   2.318
 3376SOL    EPW13950   4.049   1.619   2.287
 3377SOL      O13951   4.554   1.030   2.317
 3377SOL     H113952   4.556   1.004   2.224
 3377SOL     H213953   4.612   0.967   2.360
 3377SOL    EPW13954   4.562   1.019   2.311
 3378SOL      O13955   5.107   1.590   3.089
 3378SOL     H113956   5.032   1.636   3.127
 3378SOL     H213957   5.089   1.497   3.106
 3378SOL    EPW13958   5.096   1.584   3.097
 3379SOL      O13959   5.111   1.798   2.519
 3379SOL     H113960   5.054   1.751   2.458
 3379SOL     H213961   5.197   1.759   2.506
 3379SOL    EPW13962   5.114   1.789   2.509
 3380SOL      O13963   5.064   0.274   2.650
 3380SOL     H113964   5.092   0.206   2.711
 3380SOL     H213965   4.978   0.245   2.620
 3380SOL    EPW13966   5.057   0.261   2.654
 3381SOL      O13967   3.869   1.208   2.584
 3381SOL     H113968   3.933   1.240   2.647
 3381SOL     H213969   3.918   1.144   2.532
 3381SOL    EPW13970   3.884   1.204   2.585
 3382SOL      O13971   4.369   1.284   3.566
 3382SOL     H113972   4.417   1.367   3.553
 3382SOL     H213973   4.426   1.232   3.622
 3382SOL    EPW13974   4.383   1.288   3.572
 3383SOL      O13975   3.945   1.526   3.706
 3383SOL     H113976   4.001   1.450   3.721
 3383SOL     H213977   3.894   1.504   3.628
 3383SOL    EPW13978   3.945   1.513   3.697
 3384SOL      O13979   5.044   0.378   1.985
 3384SOL     H113980   5.017   0.444   1.921
 3384SOL     H213981   5.114   0.421   2.035
 3384SOL    EPW13982   5.049   0.391   1.982
 3385SOL      O13983   4.712   0.083   1.922
 3385SOL     H113984   4.768   0.075   1.844
 3385SOL     H213985   4.689  -0.007   1.944
 3385SOL    EPW13986   4.717   0.070   1.915
 3386SOL      O13987   5.217   0.934   2.127
 3386SOL     H113988   5.184   1.023   2.117
 3386SOL     H213989   5.182   0.905   2.212
 3386SOL    EPW13990   5.207   0.943   2.138
 3387SOL      O13991   4.830   1.363   3.315
 3387SOL     H113992   4.741   1.369   3.283
 3387SOL     H213993   4.874   1.442   3.283
 3387SOL    EPW13994   4.825   1.373   3.307
 3388SOL      O13995   4.123   0.031   3.657
 3388SOL     H113996   4.051  -0.004   3.605
 3388SOL     H213997   4.181   0.072   3.592
 3388SOL    EPW13998   4.121   0.032   3.642
 3389SOL      O13999   4.147   1.521   2.956
 3389SOL     H114000   4.192   1.583   3.013
 3389SOL     H214001   4.054   1.540   2.969
 3389SOL    EPW14002   4.140   1.531   2.963
 3390SOL      O14003   5.587   1.050   3.310
 3390SOL     H114004   5.502   1.063   3.269
 3390SOL     H214005   5.567   1.014   3.397
 3390SOL    EPW14006   5.574   1.046   3.315
 3391SOL      O14007   4.569   1.589   3.064
 3391SOL     H114008   4.593   1.578   2.973
 3391SOL     H214009   4.492   1.646   3.062
 3391SOL    EPW14010   4.561   1.594   3.053
 3392SOL      O14011   4.211   0.972   1.919
 3392SOL     H114012   4.134   0.985   1.975
 3392SOL     H214013   4.175   0.936   1.838
 3392SOL    EPW14014   4.197   0.968   1.916
 3393SOL      O14015   4.864   0.945   2.162
 3393SOL     H114016   4.774   0.966   2.137
 3393SOL     H214017   4.891   1.018   2.218
 3393SOL    EPW14018   4.856   0.957   2.165
 3394SOL      O14019   4.364   1.294   2.854
 3394SOL     H114020   4.357   1.273   2.948
 3394SOL     H214021   4.282   1.262   2.817
 3394SOL    EPW14022   4.352   1.288   2.861
 3395SOL      O14023   5.228   0.304   3.256
 3395SOL     H114024   5.175   0.306   3.336
 3395SOL     H214025   5.213   0.217   3.219
 3395SOL    EPW14026   5.220   0.294   3.261
 3396SOL      O14027   5.564   0.228   3.129
 3396SOL     H114028   5.545   0.295   3.064
 3396SOL     H214029   5.621   0.166   3.084
 3396SOL    EPW14030   5.568   0.229   3.115
 3397SOL      O14031   3.810   1.386   3.517
 3397SOL     H114032   3.854   1.319   3.463
 3397SOL     H214033   3.725   1.348   3.537
 3397SOL    EPW14034   3.805   1.372   3.513
 3398SOL      O14035   4.493   0.061   2.569
 3398SOL     H114036   4.422   0.122   2.551
 3398SOL     H214037   4.544   0.058   2.488
 3398SOL    EPW14038   4.489   0.067   2.556
 3399SOL      O14039   4.251   1.301   2.318
 3399SOL     H114040   4.244   1.333   2.408
 3399SOL     H214041   4.161   1.285   2.290
 3399SOL    EPW14042   4.239   1.303   2.325
 3400SOL      O14043   4.846   1.694   3.227
 3400SOL     H114044   4.766   1.679   3.177
 3400SOL     H214045   4.853   1.789   3.234
 3400SOL    EPW14046   4.837   1.705   3.221
 3401SOL      O14047   4.960   1.659   2.717
 3401SOL     H114048   5.007   1.732   2.676
 3401SOL     H214049   4.881   1.698   2.753
 3401SOL    EPW14050   4.955   1.674   2.716
 3402SOL      O14051   5.368   1.754   2.992
 3402SOL     H114052   5.411   1.724   3.072
 3402SOL     H214053   5.287   1.702   2.989
 3402SOL    EPW14054   5.363   1.743   3.002
 3403SOL      O14055   4.453   0.718   3.699
 3403SOL     H114056   4.523   0.660   3.671
 3403SOL     H214057   4.396   0.663   3.754
 3403SOL    EPW14058   4.455   0.705   3.703
 3404SOL      O14059   5.240   0.930   3.332
 3404SOL     H114060   5.245   0.983   3.412
 3404SOL     H214061   5.202   0.847   3.360
 3404SOL    EPW14062   5.236   0.925   3.347
 3405SOL      O14063   4.880   0.065   3.578
 3405SOL     H114064   4.875  -0.028   3.559
 3405SOL     H214065   4.963   0.076   3.624
 3405SOL    EPW14066   4.888   0.054   3.582
 3406SOL      O14067   4.254   0.585   2.032
 3406SOL     H114068   4.220   0.641   2.102
 3406SOL     H214069   4.325   0.535   2.072
 3406SOL    EPW14070   4.260   0.586   2.046
 3407SOL      O14071   5.350   1.336   2.854
 3407SOL     H114072   5.385   1.318   2.767
 3407SOL     H214073   5.255   1.337   2.841
 3407SOL    EPW14074   5.342   1.333   2.841
 3408SOL      O14075   4.779   0.984   3.223
 3408SOL     H114076   4.822   1.019   3.301
 3408SOL     H214077   4.762   1.061   3.169
 3408SOL    EPW14078   4.782   0.999   3.226
 3409SOL      O14079   5.310   0.471   2.096
 3409SOL     H114080   5.302   0.542   2.033
 3409SOL     H214081   5.328   0.515   2.179
 3409SOL    EPW14082   5.311   0.485   2.098
 3410SOL      O14083   4.170   0.126   2.525
 3410SOL     H114084   4.220   0.169   2.456
 3410SOL     H214085   4.085   0.170   2.525
 3410SOL    EPW14086   4.167   0.139   2.516
 3411SOL      O14087   3.929   1.188   3.385
 3411SOL     H114088   3.957   1.141   3.463
 3411SOL     H214089   3.850   1.143   3.356
 3411SOL    EPW14090   3.922   1.177   3.391
 3412SOL      O14091   4.979   0.733   2.071
 3412SOL     H114092   5.026   0.751   1.990
 3412SOL     H214093   4.945   0.817   2.099
 3412SOL    EPW14094   4.981   0.747   2.064
 3413SOL      O14095   4.092   0.911   2.565
 3413SOL     H114096   4.150   0.967   2.513
 3413SOL     H214097   4.136   0.826   2.567
 3413SOL    EPW14098   4.105   0.908   2.558
 3414SOL      O14099   5.232   0.263   2.402
 3414SOL     H114100   5.154   0.213   2.427
 3414SOL     H214101   5.203   0.354   2.402
 3414SOL    EPW14102   5.218   0.267   2.405
 3415SOL      O14103   4.818   0.225   2.561
 3415SOL     H114104   4.838   0.300   2.505
 3415SOL     H214105   4.798   0.264   2.646
 3415SOL    EPW14106   4.819   0.241   2.565
 3416SOL      O14107   4.714   1.475   1.893
 3416SOL     H114108   4.741   1.553   1.845
 3416SOL     H214109   4.621   1.490   1.912
 3416SOL    EPW14110   4.705   1.488   1.889
 3417SOL      O14111   5.578   0.998   3.580
 3417SOL     H114112   5.491   0.978   3.616
 3417SOL     H214113   5.632   0.924   3.605
 3417SOL    EPW14114   5.573   0.987   3.588
 3418SOL      O14115   3.799   1.511   2.737
 3418SOL     H114116   3.831   1.515   2.828
 3418SOL     H214117   3.704   1.519   2.745
 3418SOL    EPW14118   3.791   1.514   2.750
 3419SOL      O14119   3.754   0.637   2.284
 3419SOL     H114120   3.694   0.609   2.354
 3419SOL     H214121   3.828   0.577   2.290
 3419SOL    EPW14122   3.756   0.626   2.293
 3420SOL      O14123   5.322   1.849   3.718
 3420SOL     H114124   5.367   1.773   3.683
 3420SOL     H214125   5.360   1.862   3.805
 3420SOL    EPW14126   5.332   1.842   3.724
 3421SOL      O14127   4.922   1.368   2.444
 3421SOL     H114128   4.945   1.319   2.522
 3421SOL     H214129   5.003   1.410   2.416
 3421SOL    EPW14130   4.935   1.368   2.451
 3422SOL      O14131   4.180   0.376   3.173
 3422SOL     H114132   4.213   0.457   3.213
 3422SOL     H214133   4.153   0.402   3.085
 3422SOL    EPW14134   4.179   0.390   3.167
 3423SOL      O14135   4.134   0.343   2.909
 3423SOL     H114136   4.164   0.257   2.880
 3423SOL     H214137   4.039   0.336   2.912
 3423SOL    EPW14138   4.126   0.332   2.907
 3424SOL      O14139   4.963   0.552   3.600
 3424SOL     H114140   5.015   0.487   3.553
 3424SOL     H214141   4.921   0.603   3.530
 3424SOL    EPW14142   4.964   0.549   3.583
 3425SOL      O14143   5.062   0.347   3.461
 3425SOL     H114144   4.969   0.331   3.448
 3425SOL     H214145   5.088   0.285   3.529
 3425SOL    EPW14146   5.052   0.337   3.468
 3426SOL      O14147   4.277   0.121   2.800
 3426SOL     H114148   4.287   0.030   2.826
 3426SOL     H214149   4.233   0.117   2.715
 3426SOL    EPW14150   4.273   0.109   2.792
 3427SOL      O14151   4.371   1.736   3.346
 3427SOL     H114152   4.288   1.721   3.391
 3427SOL     H214153   4.430   1.669   3.381
 3427SOL    EPW14154   4.369   1.726   3.356
 3428SOL      O14155   5.428   0.443   2.971
 3428SOL     H114156   5.361   0.476   3.031
 3428SOL     H214157   5.471   0.521   2.937
 3428SOL    EPW14158   5.426   0.458   2.975
 3429SOL      O14159   5.606   1.163   2.941
 3429SOL     H114160   5.599   1.103   2.866
 3429SOL     H214161   5.532   1.223   2.930
 3429SOL    EPW14162   5.596   1.163   2.930
 3430SOL      O14163   4.988   1.025   2.859
 3430SOL     H114164   5.002   0.997   2.950
 3430SOL     H214165   5.074   1.056   2.831
 3430SOL    EPW14166   5.001   1.026   2.868
 3431SOL      O14167   5.071   0.520   3.138
 3431SOL     H114168   5.092   0.521   3.045
 3431SOL     H214169   5.116   0.442   3.171
 3431SOL    EPW14170   5.078   0.510   3.130
 3432SOL      O14171   5.564   0.651   3.680
 3432SOL     H114172   5.601   0.596   3.749
 3432SOL     H214173   5.589   0.608   3.598
 3432SOL    EPW14174   5.571   0.639   3.679
 3433SOL      O14175   5.111   0.949   3.731
 3433SOL     H114176   5.177   0.897   3.685
 3433SOL     H214177   5.131   0.936   3.824
 3433SOL    EPW14178   5.122   0.940   3.738
 3434SOL      O14179   5.062   0.035   2.080
 3434SOL     H114180   5.136   0.079   2.123
 3434SOL     H214181   4.986   0.089   2.102
 3434SOL    EPW14182   5.062   0.047   2.088
 3435SOL      O14183   5.122   0.810   2.358
 3435SOL     H114184   5.037   0.780   2.328
 3435SOL     H214185   5.114   0.817   2.453
 3435SOL    EPW14186   5.110   0.808   2.367
 3436SOL      O14187   4.198   1.273   3.089
 3436SOL     H114188   4.210   1.300   3.180
 3436SOL     H214189   4.179   1.354   3.042
 3436SOL    EPW14190   4.197   1.288   3.094
 3437SOL      O14191   4.482   0.253   2.912
 3437SOL     H114192   4.455   0.255   3.003
 3437SOL     H214193   4.412   0.205   2.867
 3437SOL    EPW14194   4.470   0.249   2.919
 3438SOL      O14195   4.336   1.745   3.074
 3438SOL     H114196   4.388   1.822   3.051
 3438SOL     H214197   4.345   1.737   3.169
 3438SOL    EPW14198   4.345   1.752   3.085
 3439SOL      O14199   5.238   1.330   3.306
 3439SOL     H114200   5.223   1.259   3.369
 3439SOL     H214201   5.284   1.288   3.234
 3439SOL    EPW14202   5.244   1.314   3.306
 3440SOL      O14203   4.312   1.061   3.423
 3440SOL     H114204   4.349   1.066   3.335
 3440SOL     H214205   4.351   1.134   3.470
 3440SOL    EPW14206   4.322   1.071   3.418
 3441SOL      O14207   4.492   1.104   3.235
 3441SOL     H114208   4.551   1.050   3.288
 3441SOL     H214209   4.507   1.076   3.145
 3441SOL    EPW14210   4.502   1.093   3.231
 3442SOL      O14211   4.495   0.476   2.084
 3442SOL     H114212   4.568   0.525   2.047
 3442SOL     H214213   4.511   0.385   2.058
 3442SOL    EPW14214   4.507   0.471   2.077
 3443SOL      O14215   5.303   1.593   3.407
 3443SOL     H114216   5.345   1.578   3.492
 3443SOL     H214217   5.294   1.506   3.369
 3443SOL    EPW14218   5.307   1.581   3.414
 3444SOL      O14219   4.963   0.072   2.998
 3444SOL     H114220   5.018   0.081   2.920
 3444SOL     H214221   5.018   0.106   3.069
 3444SOL    EPW14222   4.977   0.077   2.997
 3445SOL      O14223   3.970   0.985   2.182
 3445SOL     H114224   3.907   1.001   2.111
 3445SOL     H214225   3.917   0.948   2.253
 3445SOL    EPW14226   3.955   0.982   2.182
 3446SOL      O14227   4.326   1.339   2.041
 3446SOL     H114228   4.341   1.315   2.133
 3446SOL     H214229   4.234   1.317   2.025
 3446SOL    EPW14230   4.316   1.332   2.051
 3447SOL      O14231   4.865   1.570   2.193
 3447SOL     H114232   4.873   1.488   2.144
 3447SOL     H214233   4.784   1.609   2.160
 3447SOL    EPW14234   4.855   1.565   2.183
 3448SOL      O14235   4.124   1.728   2.762
 3448SOL     H114236   4.128   1.639   2.797
 3448SOL     H214237   4.150   1.719   2.671
 3448SOL    EPW14238   4.127   1.716   2.754
 3449SOL      O14239   4.741   1.206   3.005
 3449SOL     H114240   4.673   1.140   3.021
 3449SOL     H214241   4.759   1.200   2.912
 3449SOL    EPW14242   4.734   1.197   2.996
 3450SOL      O14243   3.830   1.481   3.256
 3450SOL     H114244   3.820   1.439   3.342
 3450SOL     H214245   3.751   1.534   3.246
 3450SOL    EPW14246   3.819   1.482   3.267
 3451SOL      O14247   4.734   0.345   2.826
 3451SOL     H114248   4.664   0.297   2.871
 3451SOL     H214249   4.766   0.408   2.890
 3451SOL    EPW14250   4.729   0.347   2.840
 3452SOL      O14251   4.385   0.781   3.446
 3452SOL     H114252   4.378   0.876   3.434
 3452SOL     H214253   4.394   0.770   3.541
 3452SOL    EPW14254   4.386   0.793   3.456
 3453SOL      O14255   4.106   1.296   3.704
 3453SOL     H114256   4.178   1.298   3.641
 3453SOL     H214257   4.076   1.205   3.703
 3453SOL    EPW14258   4.111   1.285   3.696
 3454SOL      O14259   5.190   0.059   3.171
 3454SOL     H114260   5.261   0.005   3.135
 3454SOL     H214261   5.189   0.038   3.264
 3454SOL    EPW14262   5.199   0.050   3.179
 3455SOL      O14263   5.390   1.589   3.655
 3455SOL     H114264   5.363   1.586   3.746
 3455SOL     H214265   5.486   1.593   3.658
 3455SOL    EPW14266   5.400   1.589   3.667
 3456SOL      O14267   4.201   0.451   2.639
 3456SOL     H114268   4.272   0.399   2.602
 3456SOL     H214269   4.187   0.416   2.726
 3456SOL    EPW14270   4.209   0.440   2.646
 3457SOL      O14271   3.756   1.786   3.711
 3457SOL     H114272   3.806   1.764   3.633
 3457SOL     H214273   3.764   1.881   3.719
 3457SOL    EPW14274   3.764   1.795   3.702
 3458SOL      O14275   4.517   1.544   2.715
 3458SOL     H114276   4.445   1.481   2.728
 3458SOL     H214277   4.478   1.629   2.733
 3458SOL    EPW14278   4.501   1.547   2.718
 3459SOL      O14279   4.837   0.392   2.363
 3459SOL     H114280   4.859   0.329   2.295
 3459SOL     H214281   4.742   0.384   2.374
 3459SOL    EPW14282   4.827   0.383   2.355
 3460SOL      O14283   3.922   0.082   2.295
 3460SOL     H114284   3.993   0.103   2.234
 3460SOL     H214285   3.876   0.010   2.253
 3460SOL    EPW14286   3.926   0.076   2.281
 3461SOL      O14287   3.753   0.549   3.438
 3461SOL     H114288   3.817   0.615   3.413
 3461SOL     H214289   3.672   0.576   3.395
 3461SOL    EPW14290   3.751   0.561   3.430
 3462SOL      O14291   5.491   1.456   2.395
 3462SOL     H114292   5.461   1.389   2.456
 3462SOL     H214293   5.585   1.462   2.409
 3462SOL    EPW14294   5.499   1.448   2.405
 3463SOL      O14295   5.047   1.133   2.325
 3463SOL     H114296   5.019   1.219   2.358
 3463SOL     H214297   5.075   1.149   2.235
 3463SOL    EPW14298   5.047   1.147   2.317
 3464SOL      O14299   4.709   0.053   2.378
 3464SOL     H114300   4.746   0.112   2.443
 3464SOL     H214301   4.686   0.109   2.304
 3464SOL    EPW14302   4.710   0.068   2.377
 3465SOL      O14303   5.562   0.935   2.800
 3465SOL     H114304   5.553   0.967   2.711
 3465SOL     H214305   5.515   0.851   2.800
 3465SOL    EPW14306   5.555   0.928   2.790
 3466SOL      O14307   3.938   0.775   3.379
 3466SOL     H114308   3.959   0.844   3.317
 3466SOL     H214309   4.018   0.722   3.384
 3466SOL    EPW14310   3.951   0.776   3.373
 3467SOL      O14311   5.474   0.866   2.501
 3467SOL     H114312   5.568   0.855   2.489
 3467SOL     H214313   5.450   0.938   2.442
 3467SOL    EPW14314   5.484   0.874   2.492
 3468SOL      O14315   3.923   0.790   3.646
 3468SOL     H114316   3.849   0.734   3.672
 3468SOL     H214317   3.918   0.793   3.551
 3468SOL    EPW14318   3.912   0.783   3.636
 3469SOL      O14319   4.089   0.077   3.096
 3469SOL     H114320   4.132   0.161   3.116
 3469SOL     H214321   4.162   0.015   3.089
 3469SOL    EPW14322   4.104   0.080   3.097
 3470SOL      O14323   4.130   0.744   2.274
 3470SOL     H114324   4.130   0.839   2.259
 3470SOL     H214325   4.207   0.728   2.328
 3470SOL    EPW14326   4.140   0.755   2.279
 3471SOL      O14327   4.906   0.603   3.338
 3471SOL     H114328   4.942   0.576   3.254
 3471SOL     H214329   4.819   0.637   3.317
 3471SOL    EPW14330   4.900   0.604   3.325
 3472SOL      O14331   3.889   0.475   2.563
 3472SOL     H114332   3.951   0.482   2.636
 3472SOL     H214333   3.889   0.382   2.540
 3472SOL    EPW14334   3.897   0.464   2.570
 3473SOL      O14335   5.436   1.815   2.095
 3473SOL     H114336   5.503   1.848   2.035
 3473SOL     H214337   5.393   1.894   2.129
 3473SOL    EPW14338   5.438   1.830   2.091
 3474SOL      O14339   4.571   0.736   3.047
 3474SOL     H114340   4.529   0.654   3.023
 3474SOL     H214341   4.572   0.735   3.143
 3474SOL    EPW14342   4.564   0.725   3.056
 3475SOL      O14343   5.242   1.869   3.446
 3475SOL     H114344   5.245   1.775   3.429
 3475SOL     H214345   5.265   1.877   3.538
 3475SOL    EPW14346   5.245   1.857   3.456
 3476SOL      O14347   4.375   0.206   3.152
 3476SOL     H114348   4.306   0.269   3.173
 3476SOL     H214349   4.402   0.170   3.237
 3476SOL    EPW14350   4.369   0.209   3.165
 3477SOL      O14351   3.758   1.047   2.021
 3477SOL     H114352   3.727   1.112   2.084
 3477SOL     H214353   3.707   0.969   2.040
 3477SOL    EPW14354   3.748   1.044   2.031
 3478SOL      O14355   5.170   0.059   2.769
 3478SOL     H114356   5.258   0.068   2.806
 3478SOL     H214357   5.180   0.000   2.695
 3478SOL    EPW14358   5.184   0.053   2.763
 3479SOL      O14359   5.202   0.798   2.613
 3479SOL     H114360   5.282   0.813   2.562
 3479SOL     H214361   5.195   0.703   2.619
 3479SOL    EPW14362   5.211   0.787   2.608
 3480SOL      O14363   4.342   1.847   1.963
 3480SOL     H114364   4.247   1.847   1.955
 3480SOL     H214365   4.358   1.793   2.041
 3480SOL    EPW14366   4.332   1.841   1.972
 3481SOL      O14367   4.652   0.724   3.310
 3481SOL     H114368   4.721   0.791   3.307
 3481SOL     H214369   4.585   0.762   3.366
 3481SOL    EPW14370   4.653   0.737   3.317
 3482SOL      O14371   4.070   1.024   3.558
 3482SOL     H114372   4.024   0.940   3.560
 3482SOL     H214373   4.127   1.018   3.482
 3482SOL    EPW14374   4.072   1.012   3.550
 3483SOL      O14375   5.187   0.667   1.879
 3483SOL     H114376   5.115   0.643   1.821
 3483SOL     H214377   5.253   0.704   1.821
 3483SOL    EPW14378   5.186   0.669   1.864
 3484SOL      O14379   4.321   1.399   2.559
 3484SOL     H114380   4.386   1.332   2.580
 3484SOL     H214381   4.373   1.476   2.536
 3484SOL    EPW14382   4.336   1.401   2.558
 3485SOL      O14383   4.582   0.564   2.689
 3485SOL     H114384   4.522   0.582   2.761
 3485SOL     H214385   4.616   0.476   2.708
 3485SOL    EPW14386   4.578   0.554   2.702
 3486SOL      O14387   5.523   0.063   3.358
 3486SOL     H114388   5.444   0.109   3.386
 3486SOL     H214389   5.558   0.117   3.287
 3486SOL    EPW14390   5.517   0.076   3.352
 3487SOL      O14391   4.807   1.147   2.708
 3487SOL     H114392   4.899   1.128   2.726
 3487SOL     H214393   4.780   1.077   2.648
 3487SOL    EPW14394   4.815   1.135   2.702
 3488SOL      O14395   4.600   0.967   2.063
 3488SOL     H114396   4.586   0.879   2.028
 3488SOL     H214397   4.551   1.024   2.004
 3488SOL    EPW14398   4.592   0.962   2.051
 3489SOL      O14399   5.081   1.385   2.804
 3489SOL     H114400   5.054   1.469   2.769
 3489SOL     H214401   5.041   1.380   2.891
 3489SOL    EPW14402   5.074   1.394   2.810
 3490SOL      O14403   5.000   1.333   3.072
 3490SOL     H114404   5.011   1.300   3.161
 3490SOL     H214405   4.919   1.292   3.041
 3490SOL    EPW14406   4.990   1.325   3.078
 3491SOL      O14407   4.013   0.691   2.842
 3491SOL     H114408   3.963   0.690   2.923
 3491SOL     H214409   4.033   0.783   2.826
 3491SOL    EPW14410   4.009   0.703   2.850
 3492SOL      O14411   5.080   1.455   3.604
 3492SOL     H114412   5.080   1.549   3.620
 3492SOL     H214413   5.125   1.445   3.520
 3492SOL    EPW14414   5.086   1.465   3.595
 3493SOL      O14415   5.319   0.173   2.165
 3493SOL     H114416   5.312   0.177   2.260
 3493SOL     H214417   5.331   0.264   2.138
 3493SOL    EPW14418   5.320   0.186   2.173
 3494SOL      O14419   4.608   0.736   2.279
 3494SOL     H114420   4.588   0.722   2.186
 3494SOL     H214421   4.701   0.715   2.286
 3494SOL    EPW14422   4.618   0.731   2.268
 3495SOL      O14423   3.935   0.359   3.583
 3495SOL     H114424   3.892   0.418   3.520
 3495SOL     H214425   4.003   0.414   3.623
 3495SOL    EPW14426   3.939   0.374   3.580
 3496SOL      O14427   5.047   0.979   3.128
 3496SOL     H114428   5.110   0.976   3.201
 3496SOL     H214429   4.963   0.997   3.170
 3496SOL    EPW14430   5.043   0.981   3.143
 3497SOL      O14431   4.591   1.694   2.317
 3497SOL     H114432   4.649   1.765   2.344
 3497SOL     H214433   4.614   1.622   2.375
 3497SOL    EPW14434   4.602   1.694   2.328
 3498SOL      O14435   5.386   0.156   2.907
 3498SOL     H114436   5.431   0.074   2.926
 3498SOL     H214437   5.406   0.212   2.983
 3498SOL    EPW14438   5.396   0.152   2.919
 3499SOL      O14439   3.834  -0.001   3.006
 3499SOL     H114440   3.825   0.000   2.911
 3499SOL     H214441   3.928   0.011   3.021
 3499SOL    EPW14442   3.846   0.002   2.997
 3500SOL      O14443   5.471   1.192   2.626
 3500SOL     H114444   5.450   1.138   2.549
 3500SOL     H214445   5.567   1.190   2.630
 3500SOL    EPW14446   5.480   1.185   2.615
 3501SOL      O14447   4.163   1.337   3.369
 3501SOL     H114448   4.084   1.287   3.392
 3501SOL     H214449   4.233   1.296   3.419
 3501SOL    EPW14450   4.161   1.325   3.379
 3502SOL      O14451   4.047   0.126   2.052
 3502SOL     H114452   3.976   0.181   2.020
 3502SOL     H214453   4.089   0.092   1.973
 3502SOL    EPW14454   4.043   0.128   2.038
 3503SOL      O14455   5.171   0.623   2.888
 3503SOL     H114456   5.094   0.669   2.854
 3503SOL     H214457   5.228   0.692   2.922
 3503SOL    EPW14458   5.168   0.638   2.888
 3504SOL      O14459   3.803   0.225   1.901
 3504SOL     H114460   3.770   0.304   1.945
 3504SOL     H214461   3.858   0.258   1.830
 3504SOL    EPW14462   3.806   0.239   1.898
 3505SOL      O14463   3.837   1.482   2.090
 3505SOL     H114464   3.854   1.566   2.132
 3505SOL     H214465   3.872   1.491   2.002
 3505SOL    EPW14466   3.842   1.495   2.084
 3506SOL      O14467   5.109   1.571   2.307
 3506SOL     H114468   5.172   1.561   2.236
 3506SOL     H214469   5.026   1.591   2.262
 3506SOL    EPW14470   5.106   1.572   2.292
 3507SOL      O14471   5.472   0.839   3.993
 3507SOL     H114472   5.513   0.781   4.058
 3507SOL     H214473   5.379   0.831   4.010
 3507SOL    EPW14474   5.466   0.831   4.003
 3508SOL      O14475   5.382   1.725   4.364
 3508SOL     H114476   5.394   1.671   4.442
 3508SOL     H214477   5.419   1.673   4.293
 3508SOL    EPW14478   5.388   1.710   4.365
 3509SOL      O14479   5.105   1.170   3.941
 3509SOL     H114480   5.023   1.206   3.907
 3509SOL     H214481   5.173   1.213   3.890
 3509SOL    EPW14482   5.103   1.180   3.929
 3510SOL      O14483   4.657   1.311   4.134
 3510SOL     H114484   4.634   1.373   4.202
 3510SOL     H214485   4.614   1.229   4.160
 3510SOL    EPW14486   4.649   1.307   4.145
 3511SOL      O14487   4.154   0.284   4.102
 3511SOL     H114488   4.128   0.246   4.018
 3511SOL     H214489   4.091   0.354   4.118
 3511SOL    EPW14490   4.143   0.287   4.093
 3512SOL      O14491   3.989   1.245   4.139
 3512SOL     H114492   3.937   1.313   4.095
 3512SOL     H214493   3.986   1.171   4.079
 3512SOL    EPW14494   3.981   1.244   4.126
 3513SOL      O14495   4.651   1.708   3.917
 3513SOL     H114496   4.606   1.724   4.000
 3513SOL     H214497   4.582   1.673   3.859
 3513SOL    EPW14498   4.637   1.705   3.919
 3514SOL      O14499   5.586   0.481   3.892
 3514SOL     H114500   5.495   0.483   3.920
 3514SOL     H214501   5.631   0.543   3.950
 3514SOL    EPW14502   5.579   0.489   3.902
 3515SOL      O14503   5.331   1.084   4.242
 3515SOL     H114504   5.241   1.084   4.277
 3515SOL     H214505   5.324   1.130   4.159
 3515SOL    EPW14506   5.318   1.090   4.236
 3516SOL      O14507   5.523   1.285   4.054
 3516SOL     H114508   5.479   1.326   4.129
 3516SOL     H214509   5.580   1.353   4.019
 3516SOL    EPW14510   5.525   1.299   4.059
 3517SOL      O14511   3.895   1.761   3.949
 3517SOL     H114512   3.924   1.851   3.941
 3517SOL     H214513   3.845   1.744   3.870
 3517SOL    EPW14514   3.893   1.769   3.938
 3518SOL      O14515   5.299   1.569   3.920
 3518SOL     H114516   5.347   1.638   3.966
 3518SOL     H214517   5.220   1.613   3.889
 3518SOL    EPW14518   5.294   1.583   3.923
 3519SOL      O14519   4.697   0.694   3.864
 3519SOL     H114520   4.699   0.641   3.785
 3519SOL     H214521   4.785   0.731   3.870
 3519SOL    EPW14522   4.709   0.693   3.853
 3520SOL      O14523   4.867   1.313   3.956
 3520SOL     H114524   4.817   1.315   4.038
 3520SOL     H214525   4.801   1.331   3.888
 3520SOL    EPW14526   4.853   1.315   3.958
 3521SOL      O14527   4.330   1.731   4.064
 3521SOL     H114528   4.251   1.689   4.097
 3521SOL     H214529   4.396   1.714   4.131
 3521SOL    EPW14530   4.329   1.723   4.077
 3522SOL      O14531   4.466   1.146   3.771
 3522SOL     H114532   4.388   1.092   3.758
 3522SOL     H214533   4.437   1.219   3.824
 3522SOL    EPW14534   4.452   1.148   3.776
 3523SOL      O14535   5.047   1.662   3.839
 3523SOL     H114536   4.973   1.625   3.889
 3523SOL     H214537   5.055   1.752   3.872
 3523SOL    EPW14538   5.038   1.669   3.851
 3524SOL      O14539   5.271   1.336   3.781
 3524SOL     H114540   5.218   1.385   3.717
 3524SOL     H214541   5.302   1.402   3.842
 3524SOL    EPW14542   5.269   1.350   3.779
 3525SOL      O14543   4.496   0.225   3.836
 3525SOL     H114544   4.444   0.145   3.824
 3525SOL     H214545   4.583   0.202   3.804
 3525SOL    EPW14546   4.499   0.211   3.830
 3526SOL      O14547   4.431   1.577   3.772
 3526SOL     H114548   4.371   1.646   3.742
 3526SOL     H214549   4.376   1.519   3.825
 3526SOL    EPW14550   4.415   1.579   3.774
 3527SOL      O14551   4.869   0.222   3.995
 3527SOL     H114552   4.802   0.198   3.932
 3527SOL     H214553   4.934   0.271   3.944
 3527SOL    EPW14554   4.869   0.224   3.980
 3528SOL      O14555   4.554   1.030   4.185
 3528SOL     H114556   4.556   1.004   4.092
 3528SOL     H214557   4.612   0.967   4.228
 3528SOL    EPW14558   4.562   1.019   4.179
 3529SOL      O14559   3.869   1.208   4.452
 3529SOL     H114560   3.933   1.240   4.515
 3529SOL     H214561   3.918   1.144   4.400
 3529SOL    EPW14562   3.884   1.204   4.453
 3530SOL      O14563   5.044   0.378   3.853
 3530SOL     H114564   5.017   0.444   3.789
 3530SOL     H214565   5.114   0.421   3.903
 3530SOL    EPW14566   5.049   0.391   3.850
 3531SOL      O14567   4.712   0.083   3.790
 3531SOL     H114568   4.768   0.075   3.712
 3531SOL     H214569   4.689  -0.007   3.812
 3531SOL    EPW14570   4.717   0.070   3.783
 3532SOL      O14571   5.217   0.934   3.995
 3532SOL     H114572   5.184   1.023   3.985
 3532SOL     H214573   5.182   0.905   4.080
 3532SOL    EPW14574   5.207   0.943   4.006
 3533SOL      O14575   4.211   0.972   3.787
 3533SOL     H114576   4.134   0.985   3.843
 3533SOL     H214577   4.175   0.936   3.706
 3533SOL    EPW14578   4.197   0.968   3.784
 3534SOL      O14579   4.254   0.585   3.900
 3534SOL     H114580   4.220   0.641   3.970
 3534SOL     H214581   4.325   0.535   3.940
 3534SOL    EPW14582   4.260   0.586   3.914
 3535SOL      O14583   5.310   0.471   3.964
 3535SOL     H114584   5.302   0.542   3.901
 3535SOL     H214585   5.328   0.515   4.047
 3535SOL    EPW14586   5.311   0.485   3.966
 3536SOL      O14587   4.979   0.733   3.939
 3536SOL     H114588   5.026   0.751   3.858
 3536SOL     H214589   4.945   0.817   3.967
 3536SOL    EPW14590   4.981   0.747   3.932
 3537SOL      O14591   4.714   1.475   3.761
 3537SOL     H114592   4.741   1.553   3.713
 3537SOL     H214593   4.621   1.490   3.780
 3537SOL    EPW14594   4.705   1.488   3.757
 3538SOL      O14595   5.062   0.035   3.948
 3538SOL     H114596   5.136   0.079   3.991
 3538SOL     H214597   4.986   0.089   3.970
 3538SOL    EPW14598   5.062   0.047   3.956
 3539SOL      O14599   4.495   0.476   3.952
 3539SOL     H114600   4.568   0.525   3.915
 3539SOL     H214601   4.511   0.385   3.926
 3539SOL    EPW14602   4.507   0.471   3.945
 3540SOL      O14603   4.326   1.339   3.909
 3540SOL     H114604   4.341   1.315   4.001
 3540SOL     H214605   4.234   1.317   3.893
 3540SOL    EPW14606   4.316   1.332   3.919
 3541SOL      O14607   4.865   1.570   4.061
 3541SOL     H114608   4.873   1.488   4.012
 3541SOL     H214609   4.784   1.609   4.028
 3541SOL    EPW14610   4.855   1.565   4.051
 3542SOL      O14611   3.922   0.082   4.163
 3542SOL     H114612   3.993   0.103   4.102
 3542SOL     H214613   3.876   0.010   4.121
 3542SOL    EPW14614   3.926   0.076   4.149
 3543SOL      O14615   5.047   1.133   4.193
 3543SOL     H114616   5.019   1.219   4.226
 3543SOL     H214617   5.075   1.149   4.103
 3543SOL    EPW14618   5.047   1.147   4.185
 3544SOL      O14619   5.436   1.815   3.963
 3544SOL     H114620   5.503   1.848   3.903
 3544SOL     H214621   5.393   1.894   3.997
 3544SOL    EPW14622   5.438   1.830   3.959
 3545SOL      O14623   3.758   1.047   3.889
 3545SOL     H114624   3.727   1.112   3.952
 3545SOL     H214625   3.707   0.969   3.908
 3545SOL    EPW14626   3.748   1.044   3.899
 3546SOL      O14627   4.342   1.847   3.831
 3546SOL     H114628   4.247   1.847   3.823
 3546SOL     H214629   4.358   1.793   3.909
 3546SOL    EPW14630   4.332   1.841   3.840
 3547SOL      O14631   5.187   0.667   3.747
 3547SOL     H114632   5.115   0.643   3.689
 3547SOL     H214633   5.253   0.704   3.689
 3547SOL    EPW14634   5.186   0.669   3.732
 3548SOL      O14635   4.321   1.399   4.427
 3548SOL     H114636   4.386   1.332   4.448
 3548SOL     H214637   4.373   1.476   4.404
 3548SOL    EPW14638   4.336   1.401   4.426
 3549SOL      O14639   4.600   0.967   3.931
 3549SOL     H114640   4.586   0.879   3.896
 3549SOL     H214641   4.551   1.024   3.872
 3549SOL    EPW14642   4.592   0.962   3.919
 3550SOL      O14643   5.319   0.173   4.033
 3550SOL     H114644   5.312   0.177   4.128
 3550SOL     H214645   5.331   0.264   4.006
 3550SOL    EPW14646   5.320   0.186   4.041
 3551SOL      O14647   4.608   0.736   4.147
 3551SOL     H114648   4.588   0.722   4.054
 3551SOL     H214649   4.701   0.715   4.154
 3551SOL    EPW14650   4.618   0.731   4.136
 3552SOL      O14651   4.591   1.694   4.185
 3552SOL     H114652   4.649   1.765   4.212
 3552SOL     H214653   4.614   1.622   4.243
 3552SOL    EPW14654   4.602   1.694   4.196
 3553SOL      O14655   4.047   0.126   3.920
 3553SOL     H114656   3.976   0.181   3.888
 3553SOL     H214657   4.089   0.092   3.841
 3553SOL    EPW14658   4.043   0.128   3.906
 3554SOL      O14659   3.803   0.225   3.769
 3554SOL     H114660   3.770   0.304   3.813
 3554SOL     H214661   3.858   0.258   3.698
 3554SOL    EPW14662   3.806   0.239   3.766
 3555SOL      O14663   3.837   1.482   3.958
 3555SOL     H114664   3.854   1.566   4.000
 3555SOL     H214665   3.872   1.491   3.870
 3555SOL    EPW14666   3.842   1.495   3.952
 3556SOL      O14667   5.109   1.571   4.175
 3556SOL     H114668   5.172   1.561   4.104
 3556SOL     H214669   5.026   1.591   4.130
 3556SOL    EPW14670   5.106   1.572   4.160
 3557SOL      O14671   5.338   2.639   1.252
 3557SOL     H114672   5.293   2.706   1.303
 3557SOL     H214673   5.426   2.675   1.238
 3557SOL    EPW14674   5.344   2.652   1.256
 3558SOL      O14675   4.266   2.890   0.486
 3558SOL     H114676   4.356   2.865   0.470
 3558SOL     H214677   4.262   2.983   0.463
 3558SOL    EPW14678   4.278   2.899   0.481
 3559SOL      O14679   5.382   3.593   0.628
 3559SOL     H114680   5.394   3.539   0.706
 3559SOL     H214681   5.419   3.541   0.557
 3559SOL    EPW14682   5.388   3.578   0.629
 3560SOL      O14683   4.761   3.478   1.629
 3560SOL     H114684   4.802   3.514   1.550
 3560SOL     H214685   4.796   3.389   1.636
 3560SOL    EPW14686   4.772   3.471   1.620
 3561SOL      O14687   5.318   3.033   1.233
 3561SOL     H114688   5.239   2.998   1.191
 3561SOL     H214689   5.345   3.105   1.177
 3561SOL    EPW14690   5.311   3.038   1.220
 3562SOL      O14691   4.550   2.346   0.499
 3562SOL     H114692   4.525   2.434   0.527
 3562SOL     H214693   4.547   2.349   0.403
 3562SOL    EPW14694   4.546   2.358   0.491
 3563SOL      O14695   3.992   2.374   0.427
 3563SOL     H114696   4.024   2.462   0.409
 3563SOL     H214697   3.980   2.372   0.522
 3563SOL    EPW14698   3.995   2.386   0.439
 3564SOL      O14699   4.070   2.787   1.328
 3564SOL     H114700   4.133   2.734   1.279
 3564SOL     H214701   4.051   2.861   1.271
 3564SOL    EPW14702   4.076   2.789   1.315
 3565SOL      O14703   4.391   2.129   0.514
 3565SOL     H114704   4.449   2.205   0.516
 3565SOL     H214705   4.326   2.150   0.447
 3565SOL    EPW14706   4.390   2.141   0.505
 3566SOL      O14707   4.478   3.056   0.689
 3566SOL     H114708   4.558   3.059   0.741
 3566SOL     H214709   4.506   3.023   0.603
 3566SOL    EPW14710   4.492   3.052   0.684
 3567SOL      O14711   4.503   3.397   1.592
 3567SOL     H114712   4.587   3.423   1.631
 3567SOL     H214713   4.527   3.341   1.518
 3567SOL    EPW14714   4.517   3.393   1.587
 3568SOL      O14715   4.255   2.560   0.680
 3568SOL     H114716   4.240   2.480   0.731
 3568SOL     H214717   4.337   2.595   0.714
 3568SOL    EPW14718   4.263   2.552   0.692
 3569SOL      O14719   4.592   3.246   1.365
 3569SOL     H114720   4.556   3.312   1.305
 3569SOL     H214721   4.520   3.184   1.378
 3569SOL    EPW14722   4.578   3.246   1.359
 3570SOL      O14723   4.397   2.386   1.057
 3570SOL     H114724   4.303   2.382   1.075
 3570SOL     H214725   4.427   2.295   1.066
 3570SOL    EPW14726   4.388   2.374   1.060
 3571SOL      O14727   4.143   2.800   0.961
 3571SOL     H114728   4.098   2.807   0.877
 3571SOL     H214729   4.123   2.883   1.005
 3571SOL    EPW14730   4.135   2.812   0.955
 3572SOL      O14731   3.840   3.646   0.836
 3572SOL     H114732   3.929   3.638   0.871
 3572SOL     H214733   3.804   3.558   0.841
 3572SOL    EPW14734   3.847   3.633   0.841
 3573SOL      O14735   4.104   3.173   0.871
 3573SOL     H114736   4.080   3.226   0.947
 3573SOL     H214737   4.160   3.231   0.819
 3573SOL    EPW14738   4.108   3.188   0.874
 3574SOL      O14739   4.666   2.817   0.681
 3574SOL     H114740   4.580   2.804   0.721
 3574SOL     H214741   4.719   2.744   0.713
 3574SOL    EPW14742   4.662   2.806   0.690
 3575SOL      O14743   4.074   3.469   1.466
 3575SOL     H114744   3.982   3.445   1.451
 3575SOL     H214745   4.118   3.386   1.483
 3575SOL    EPW14746   4.068   3.454   1.465
 3576SOL      O14747   4.657   3.179   0.398
 3576SOL     H114748   4.634   3.241   0.466
 3576SOL     H214749   4.614   3.097   0.424
 3576SOL    EPW14750   4.649   3.175   0.409
 3577SOL      O14751   5.530   2.180   0.854
 3577SOL     H114752   5.467   2.160   0.923
 3577SOL     H214753   5.520   2.109   0.791
 3577SOL    EPW14754   5.520   2.167   0.855
 3578SOL      O14755   5.331   2.952   0.506
 3578SOL     H114756   5.241   2.952   0.541
 3578SOL     H214757   5.324   2.998   0.423
 3578SOL    EPW14758   5.318   2.958   0.500
 3579SOL      O14759   5.131   2.587   1.578
 3579SOL     H114760   5.200   2.525   1.555
 3579SOL     H214761   5.056   2.561   1.525
 3579SOL    EPW14762   5.131   2.574   1.569
 3580SOL      O14763   3.872   3.467   1.130
 3580SOL     H114764   3.855   3.413   1.207
 3580SOL     H214765   3.860   3.557   1.160
 3580SOL    EPW14766   3.869   3.471   1.144
 3581SOL      O14767   4.867   2.974   1.570
 3581SOL     H114768   4.852   3.067   1.555
 3581SOL     H214769   4.962   2.964   1.570
 3581SOL    EPW14770   4.876   2.984   1.567
 3582SOL      O14771   4.663   2.398   1.771
 3582SOL     H114772   4.753   2.399   1.738
 3582SOL     H214773   4.622   2.323   1.729
 3582SOL    EPW14774   4.669   2.388   1.762
 3583SOL      O14775   5.238   2.930   0.898
 3583SOL     H114776   5.241   2.864   0.829
 3583SOL     H214777   5.323   2.973   0.894
 3583SOL    EPW14778   5.250   2.926   0.889
 3584SOL      O14779   4.858   2.533   0.467
 3584SOL     H114780   4.884   2.557   0.378
 3584SOL     H214781   4.840   2.440   0.463
 3584SOL    EPW14782   4.860   2.525   0.454
 3585SOL      O14783   4.443   2.202   1.721
 3585SOL     H114784   4.453   2.128   1.661
 3585SOL     H214785   4.479   2.171   1.804
 3585SOL    EPW14786   4.449   2.188   1.723
 3586SOL      O14787   4.179   3.569   0.636
 3586SOL     H114788   4.211   3.657   0.614
 3586SOL     H214789   4.132   3.541   0.558
 3586SOL    EPW14790   4.178   3.577   0.623
 3587SOL      O14791   5.563   1.931   0.685
 3587SOL     H114792   5.617   1.882   0.747
 3587SOL     H214793   5.506   1.865   0.646
 3587SOL    EPW14794   5.563   1.915   0.687
 3588SOL      O14795   4.682   1.884   1.098
 3588SOL     H114796   4.641   1.962   1.060
 3588SOL     H214797   4.776   1.902   1.093
 3588SOL    EPW14798   4.688   1.896   1.093
 3589SOL      O14799   5.299   3.437   0.184
 3589SOL     H114800   5.347   3.506   0.230
 3589SOL     H214801   5.220   3.481   0.153
 3589SOL    EPW14802   5.294   3.451   0.187
 3590SOL      O14803   5.311   2.488   0.464
 3590SOL     H114804   5.350   2.488   0.551
 3590SOL     H214805   5.252   2.564   0.464
 3590SOL    EPW14806   5.308   2.499   0.475
 3591SOL      O14807   4.628   2.855   1.593
 3591SOL     H114808   4.605   2.835   1.683
 3591SOL     H214809   4.713   2.899   1.598
 3591SOL    EPW14810   4.635   2.858   1.605
 3592SOL      O14811   4.708   1.992   1.353
 3592SOL     H114812   4.714   1.954   1.266
 3592SOL     H214813   4.697   2.086   1.338
 3592SOL    EPW14814   4.709   2.000   1.341
 3593SOL      O14815   4.797   2.481   1.187
 3593SOL     H114816   4.872   2.510   1.134
 3593SOL     H214817   4.729   2.546   1.171
 3593SOL    EPW14818   4.798   2.493   1.177
 3594SOL      O14819   5.347   2.449   1.464
 3594SOL     H114820   5.328   2.358   1.443
 3594SOL     H214821   5.325   2.498   1.385
 3594SOL    EPW14822   5.342   2.442   1.451
 3595SOL      O14823   5.489   3.543   1.368
 3595SOL     H114824   5.417   3.505   1.419
 3595SOL     H214825   5.506   3.628   1.409
 3595SOL    EPW14826   5.483   3.548   1.380
 3596SOL      O14827   4.794   2.187   1.570
 3596SOL     H114828   4.760   2.226   1.489
 3596SOL     H214829   4.772   2.095   1.563
 3596SOL    EPW14830   4.787   2.180   1.560
 3597SOL      O14831   5.203   3.001   1.646
 3597SOL     H114832   5.285   3.042   1.676
 3597SOL     H214833   5.166   2.963   1.726
 3597SOL    EPW14834   5.209   3.002   1.661
 3598SOL      O14835   5.498   2.374   0.630
 3598SOL     H114836   5.587   2.343   0.647
 3598SOL     H214837   5.441   2.314   0.678
 3598SOL    EPW14838   5.501   2.362   0.639
 3599SOL      O14839   3.924   2.088   0.659
 3599SOL     H114840   3.915   2.028   0.585
 3599SOL     H214841   3.857   2.059   0.722
 3599SOL    EPW14842   3.914   2.075   0.657
 3600SOL      O14843   3.871   2.261   1.022
 3600SOL     H114844   3.843   2.352   1.031
 3600SOL     H214845   3.808   2.222   0.961
 3600SOL    EPW14846   3.858   2.267   1.016
 3601SOL      O14847   4.330   3.599   0.328
 3601SOL     H114848   4.251   3.557   0.361
 3601SOL     H214849   4.396   3.582   0.395
 3601SOL    EPW14850   4.329   3.591   0.341
 3602SOL      O14851   5.458   3.119   1.725
 3602SOL     H114852   5.508   3.045   1.757
 3602SOL     H214853   5.404   3.146   1.800
 3602SOL    EPW14854   5.458   3.113   1.738
 3603SOL      O14855   5.592   2.754   1.227
 3603SOL     H114856   5.608   2.792   1.140
 3603SOL     H214857   5.626   2.820   1.288
 3603SOL    EPW14858   5.599   2.767   1.223
 3604SOL      O14859   5.384   3.463   0.896
 3604SOL     H114860   5.413   3.530   0.957
 3604SOL     H214861   5.365   3.387   0.951
 3604SOL    EPW14862   5.386   3.463   0.911
 3605SOL      O14863   3.855   2.536   1.192
 3605SOL     H114864   3.917   2.566   1.258
 3605SOL     H214865   3.789   2.605   1.186
 3605SOL    EPW14866   3.854   2.549   1.199
 3606SOL      O14867   3.950   3.645   1.644
 3606SOL     H114868   3.924   3.713   1.582
 3606SOL     H214869   3.998   3.582   1.592
 3606SOL    EPW14870   3.952   3.645   1.630
 3607SOL      O14871   4.002   2.964   1.151
 3607SOL     H114872   4.055   3.039   1.176
 3607SOL     H214873   3.921   3.002   1.117
 3607SOL    EPW14874   3.998   2.979   1.151
 3608SOL      O14875   4.542   2.868   1.139
 3608SOL     H114876   4.570   2.777   1.151
 3608SOL     H214877   4.471   2.862   1.075
 3608SOL    EPW14878   4.535   2.856   1.134
 3609SOL      O14879   3.857   2.733   0.557
 3609SOL     H114880   3.948   2.748   0.584
 3609SOL     H214881   3.860   2.654   0.503
 3609SOL    EPW14882   3.869   2.725   0.555
 3610SOL      O14883   4.093   2.441   1.811
 3610SOL     H114884   4.040   2.521   1.818
 3610SOL     H214885   4.163   2.453   1.876
 3610SOL    EPW14886   4.095   2.454   1.819
 3611SOL      O14887   4.479   1.991   1.518
 3611SOL     H114888   4.456   1.899   1.520
 3611SOL     H214889   4.565   1.993   1.475
 3611SOL    EPW14890   4.486   1.981   1.514
 3612SOL      O14891   4.163   2.515   1.557
 3612SOL     H114892   4.243   2.565   1.543
 3612SOL     H214893   4.154   2.509   1.652
 3612SOL    EPW14894   4.172   2.521   1.567
 3613SOL      O14895   4.484   3.665   0.931
 3613SOL     H114896   4.573   3.680   0.961
 3613SOL     H214897   4.479   3.712   0.847
 3613SOL    EPW14898   4.494   3.673   0.924
 3614SOL      O14899   5.140   2.040   1.828
 3614SOL     H114900   5.196   1.967   1.854
 3614SOL     H214901   5.110   2.078   1.910
 3614SOL    EPW14902   5.144   2.035   1.841
 3615SOL      O14903   3.865   3.345   0.596
 3615SOL     H114904   3.837   3.384   0.678
 3615SOL     H214905   3.885   3.254   0.618
 3615SOL    EPW14906   3.863   3.337   0.609
 3616SOL      O14907   4.698   3.388   0.631
 3616SOL     H114908   4.781   3.342   0.615
 3616SOL     H214909   4.688   3.387   0.727
 3616SOL    EPW14910   4.708   3.381   0.641
 3617SOL      O14911   5.530   2.533   0.945
 3617SOL     H114912   5.619   2.563   0.927
 3617SOL     H214913   5.510   2.473   0.874
 3617SOL    EPW14914   5.539   2.530   0.934
 3618SOL      O14915   5.381   2.712   1.825
 3618SOL     H114916   5.436   2.636   1.806
 3618SOL     H214917   5.383   2.720   1.920
 3618SOL    EPW14918   5.389   2.703   1.833
 3619SOL      O14919   4.676   2.274   1.344
 3619SOL     H114920   4.595   2.315   1.372
 3619SOL     H214921   4.723   2.342   1.296
 3619SOL    EPW14922   4.671   2.289   1.342
 3620SOL      O14923   4.936   2.612   0.967
 3620SOL     H114924   4.949   2.706   0.977
 3620SOL     H214925   4.897   2.602   0.881
 3620SOL    EPW14926   4.932   2.623   0.957
 3621SOL      O14927   4.388   2.807   0.771
 3621SOL     H114928   4.299   2.798   0.804
 3621SOL     H214929   4.392   2.897   0.739
 3621SOL    EPW14930   4.377   2.818   0.771
 3622SOL      O14931   5.187   2.390   0.766
 3622SOL     H114932   5.132   2.311   0.765
 3622SOL     H214933   5.169   2.431   0.850
 3622SOL    EPW14934   5.177   2.385   0.775
 3623SOL      O14935   4.158   2.077   1.583
 3623SOL     H114936   4.079   2.095   1.635
 3623SOL     H214937   4.153   2.139   1.510
 3623SOL    EPW14938   4.148   2.087   1.580
 3624SOL      O14939   4.806   2.594   0.723
 3624SOL     H114940   4.743   2.526   0.747
 3624SOL     H214941   4.826   2.575   0.631
 3624SOL    EPW14942   4.800   2.581   0.715
 3625SOL      O14943   4.554   2.898   0.449
 3625SOL     H114944   4.556   2.872   0.356
 3625SOL     H214945   4.612   2.835   0.492
 3625SOL    EPW14946   4.562   2.887   0.443
 3626SOL      O14947   5.107   3.458   1.221
 3626SOL     H114948   5.032   3.504   1.259
 3626SOL     H214949   5.089   3.365   1.238
 3626SOL    EPW14950   5.096   3.452   1.229
 3627SOL      O14951   5.111   3.666   0.651
 3627SOL     H114952   5.054   3.619   0.590
 3627SOL     H214953   5.197   3.627   0.638
 3627SOL    EPW14954   5.114   3.657   0.641
 3628SOL      O14955   5.064   2.142   0.782
 3628SOL     H114956   5.092   2.074   0.843
 3628SOL     H214957   4.978   2.113   0.752
 3628SOL    EPW14958   5.057   2.129   0.786
 3629SOL      O14959   3.869   3.076   0.716
 3629SOL     H114960   3.933   3.108   0.779
 3629SOL     H214961   3.918   3.012   0.664
 3629SOL    EPW14962   3.884   3.072   0.717
 3630SOL      O14963   4.369   3.152   1.698
 3630SOL     H114964   4.417   3.235   1.685
 3630SOL     H214965   4.426   3.100   1.754
 3630SOL    EPW14966   4.383   3.156   1.704
 3631SOL      O14967   3.945   3.394   1.838
 3631SOL     H114968   4.001   3.318   1.853
 3631SOL     H214969   3.894   3.372   1.760
 3631SOL    EPW14970   3.945   3.381   1.829
 3632SOL      O14971   4.712   1.951   0.054
 3632SOL     H114972   4.768   1.943  -0.024
 3632SOL     H214973   4.689   1.861   0.076
 3632SOL    EPW14974   4.717   1.938   0.047
 3633SOL      O14975   4.830   3.231   1.447
 3633SOL     H114976   4.741   3.237   1.415
 3633SOL     H214977   4.874   3.310   1.415
 3633SOL    EPW14978   4.825   3.241   1.439
 3634SOL      O14979   4.123   1.899   1.789
 3634SOL     H114980   4.051   1.864   1.737
 3634SOL     H214981   4.181   1.940   1.724
 3634SOL    EPW14982   4.121   1.900   1.774
 3635SOL      O14983   4.147   3.389   1.088
 3635SOL     H114984   4.192   3.451   1.145
 3635SOL     H214985   4.054   3.408   1.101
 3635SOL    EPW14986   4.140   3.399   1.095
 3636SOL      O14987   5.587   2.918   1.442
 3636SOL     H114988   5.502   2.931   1.401
 3636SOL     H214989   5.567   2.882   1.529
 3636SOL    EPW14990   5.574   2.914   1.447
 3637SOL      O14991   4.569   3.457   1.196
 3637SOL     H114992   4.593   3.446   1.105
 3637SOL     H214993   4.492   3.514   1.194
 3637SOL    EPW14994   4.561   3.462   1.185
 3638SOL      O14995   4.211   2.840   0.051
 3638SOL     H114996   4.134   2.853   0.107
 3638SOL     H214997   4.175   2.804  -0.030
 3638SOL    EPW14998   4.197   2.836   0.048
 3639SOL      O14999   4.364   3.162   0.986
 3639SOL     H115000   4.357   3.141   1.080
 3639SOL     H215001   4.282   3.130   0.949
 3639SOL    EPW15002   4.352   3.156   0.993
 3640SOL      O15003   5.228   2.172   1.388
 3640SOL     H115004   5.175   2.174   1.468
 3640SOL     H215005   5.213   2.085   1.351
 3640SOL    EPW15006   5.220   2.162   1.393
 3641SOL      O15007   5.564   2.096   1.261
 3641SOL     H115008   5.545   2.163   1.196
 3641SOL     H215009   5.621   2.034   1.216
 3641SOL    EPW15010   5.568   2.097   1.247
 3642SOL      O15011   3.810   3.254   1.649
 3642SOL     H115012   3.854   3.187   1.595
 3642SOL     H215013   3.725   3.216   1.669
 3642SOL    EPW15014   3.805   3.240   1.645
 3643SOL      O15015   4.493   1.929   0.701
 3643SOL     H115016   4.422   1.990   0.683
 3643SOL     H215017   4.544   1.926   0.620
 3643SOL    EPW15018   4.489   1.935   0.688
 3644SOL      O15019   4.251   3.169   0.450
 3644SOL     H115020   4.244   3.201   0.540
 3644SOL     H215021   4.161   3.153   0.422
 3644SOL    EPW15022   4.239   3.171   0.457
 3645SOL      O15023   4.846   3.562   1.359
 3645SOL     H115024   4.766   3.547   1.309
 3645SOL     H215025   4.853   3.657   1.366
 3645SOL    EPW15026   4.837   3.573   1.353
 3646SOL      O15027   4.960   3.527   0.849
 3646SOL     H115028   5.007   3.600   0.808
 3646SOL     H215029   4.881   3.566   0.885
 3646SOL    EPW15030   4.955   3.542   0.848
 3647SOL      O15031   5.368   3.622   1.124
 3647SOL     H115032   5.411   3.592   1.204
 3647SOL     H215033   5.287   3.570   1.121
 3647SOL    EPW15034   5.363   3.611   1.134
 3648SOL      O15035   4.453   2.586   1.831
 3648SOL     H115036   4.523   2.528   1.803
 3648SOL     H215037   4.396   2.531   1.886
 3648SOL    EPW15038   4.455   2.573   1.835
 3649SOL      O15039   5.240   2.798   1.464
 3649SOL     H115040   5.245   2.851   1.544
 3649SOL     H215041   5.202   2.715   1.492
 3649SOL    EPW15042   5.236   2.793   1.479
 3650SOL      O15043   4.880   1.933   1.710
 3650SOL     H115044   4.875   1.840   1.691
 3650SOL     H215045   4.963   1.944   1.756
 3650SOL    EPW15046   4.888   1.922   1.714
 3651SOL      O15047   5.350   3.204   0.986
 3651SOL     H115048   5.385   3.186   0.899
 3651SOL     H215049   5.255   3.205   0.973
 3651SOL    EPW15050   5.342   3.201   0.973
 3652SOL      O15051   4.779   2.852   1.355
 3652SOL     H115052   4.822   2.887   1.433
 3652SOL     H215053   4.762   2.929   1.301
 3652SOL    EPW15054   4.782   2.867   1.358
 3653SOL      O15055   4.170   1.994   0.657
 3653SOL     H115056   4.220   2.037   0.588
 3653SOL     H215057   4.085   2.038   0.657
 3653SOL    EPW15058   4.167   2.007   0.648
 3654SOL      O15059   3.929   3.056   1.517
 3654SOL     H115060   3.957   3.009   1.595
 3654SOL     H215061   3.850   3.011   1.488
 3654SOL    EPW15062   3.922   3.045   1.523
 3655SOL      O15063   4.437   2.383   1.484
 3655SOL     H115064   4.409   2.471   1.508
 3655SOL     H215065   4.406   2.327   1.555
 3655SOL    EPW15066   4.429   2.386   1.496
 3656SOL      O15067   4.979   2.601   0.203
 3656SOL     H115068   5.026   2.619   0.122
 3656SOL     H215069   4.945   2.685   0.231
 3656SOL    EPW15070   4.981   2.615   0.196
 3657SOL      O15071   4.092   2.779   0.697
 3657SOL     H115072   4.150   2.835   0.645
 3657SOL     H215073   4.136   2.694   0.699
 3657SOL    EPW15074   4.105   2.776   0.690
 3658SOL      O15075   5.232   2.131   0.534
 3658SOL     H115076   5.154   2.081   0.559
 3658SOL     H215077   5.203   2.222   0.534
 3658SOL    EPW15078   5.218   2.135   0.537
 3659SOL      O15079   4.818   2.093   0.693
 3659SOL     H115080   4.838   2.168   0.637
 3659SOL     H215081   4.798   2.132   0.778
 3659SOL    EPW15082   4.819   2.109   0.697
 3660SOL      O15083   4.714   3.343   0.025
 3660SOL     H115084   4.741   3.421  -0.023
 3660SOL     H215085   4.621   3.358   0.044
 3660SOL    EPW15086   4.705   3.356   0.021
 3661SOL      O15087   5.578   2.866   1.712
 3661SOL     H115088   5.491   2.846   1.748
 3661SOL     H215089   5.632   2.792   1.737
 3661SOL    EPW15090   5.573   2.855   1.720
 3662SOL      O15091   3.799   3.379   0.869
 3662SOL     H115092   3.831   3.383   0.960
 3662SOL     H215093   3.704   3.387   0.877
 3662SOL    EPW15094   3.791   3.382   0.882
 3663SOL      O15095   3.754   2.505   0.416
 3663SOL     H115096   3.694   2.477   0.486
 3663SOL     H215097   3.828   2.445   0.422
 3663SOL    EPW15098   3.756   2.494   0.425
 3664SOL      O15099   5.322   3.717   1.850
 3664SOL     H115100   5.367   3.641   1.815
 3664SOL     H215101   5.360   3.730   1.937
 3664SOL    EPW15102   5.332   3.710   1.856
 3665SOL      O15103   4.922   3.236   0.576
 3665SOL     H115104   4.945   3.187   0.654
 3665SOL     H215105   5.003   3.278   0.548
 3665SOL    EPW15106   4.935   3.236   0.583
 3666SOL      O15107   4.180   2.244   1.305
 3666SOL     H115108   4.213   2.325   1.345
 3666SOL     H215109   4.153   2.270   1.217
 3666SOL    EPW15110   4.179   2.258   1.299
 3667SOL      O15111   4.134   2.211   1.041
 3667SOL     H115112   4.164   2.125   1.012
 3667SOL     H215113   4.039   2.204   1.044
 3667SOL    EPW15114   4.126   2.200   1.039
 3668SOL      O15115   4.963   2.420   1.732
 3668SOL     H115116   5.015   2.355   1.685
 3668SOL     H215117   4.921   2.471   1.662
 3668SOL    EPW15118   4.964   2.417   1.715
 3669SOL      O15119   5.062   2.215   1.593
 3669SOL     H115120   4.969   2.199   1.580
 3669SOL     H215121   5.088   2.153   1.661
 3669SOL    EPW15122   5.052   2.205   1.600
 3670SOL      O15123   4.277   1.989   0.932
 3670SOL     H115124   4.287   1.898   0.958
 3670SOL     H215125   4.233   1.985   0.847
 3670SOL    EPW15126   4.273   1.977   0.924
 3671SOL      O15127   4.371   3.604   1.478
 3671SOL     H115128   4.288   3.589   1.523
 3671SOL     H215129   4.430   3.537   1.513
 3671SOL    EPW15130   4.369   3.594   1.488
 3672SOL      O15131   5.428   2.311   1.103
 3672SOL     H115132   5.361   2.344   1.163
 3672SOL     H215133   5.471   2.389   1.069
 3672SOL    EPW15134   5.426   2.326   1.107
 3673SOL      O15135   5.606   3.031   1.073
 3673SOL     H115136   5.599   2.971   0.998
 3673SOL     H215137   5.532   3.091   1.062
 3673SOL    EPW15138   5.596   3.031   1.062
 3674SOL      O15139   4.988   2.893   0.991
 3674SOL     H115140   5.002   2.865   1.082
 3674SOL     H215141   5.074   2.924   0.963
 3674SOL    EPW15142   5.001   2.894   1.000
 3675SOL      O15143   5.071   2.388   1.270
 3675SOL     H115144   5.092   2.389   1.177
 3675SOL     H215145   5.116   2.310   1.303
 3675SOL    EPW15146   5.078   2.378   1.262
 3676SOL      O15147   5.564   2.519   1.812
 3676SOL     H115148   5.601   2.464   1.881
 3676SOL     H215149   5.589   2.476   1.730
 3676SOL    EPW15150   5.571   2.507   1.811
 3677SOL      O15151   5.111   2.817   1.863
 3677SOL     H115152   5.177   2.765   1.817
 3677SOL     H215153   5.131   2.804   1.956
 3677SOL    EPW15154   5.122   2.808   1.870
 3678SOL      O15155   5.122   2.678   0.490
 3678SOL     H115156   5.037   2.648   0.460
 3678SOL     H215157   5.114   2.685   0.585
 3678SOL    EPW15158   5.110   2.676   0.499
 3679SOL      O15159   4.198   3.141   1.221
 3679SOL     H115160   4.210   3.168   1.312
 3679SOL     H215161   4.179   3.222   1.174
 3679SOL    EPW15162   4.197   3.156   1.226
 3680SOL      O15163   4.482   2.121   1.044
 3680SOL     H115164   4.455   2.123   1.135
 3680SOL     H215165   4.412   2.073   0.999
 3680SOL    EPW15166   4.470   2.117   1.051
 3681SOL      O15167   4.336   3.613   1.206
 3681SOL     H115168   4.388   3.690   1.183
 3681SOL     H215169   4.345   3.605   1.301
 3681SOL    EPW15170   4.345   3.620   1.217
 3682SOL      O15171   5.238   3.198   1.438
 3682SOL     H115172   5.223   3.127   1.501
 3682SOL     H215173   5.284   3.156   1.366
 3682SOL    EPW15174   5.244   3.182   1.438
 3683SOL      O15175   4.312   2.929   1.555
 3683SOL     H115176   4.349   2.934   1.467
 3683SOL     H215177   4.351   3.002   1.602
 3683SOL    EPW15178   4.322   2.939   1.550
 3684SOL      O15179   4.492   2.972   1.367
 3684SOL     H115180   4.551   2.918   1.420
 3684SOL     H215181   4.507   2.944   1.277
 3684SOL    EPW15182   4.502   2.961   1.363
 3685SOL      O15183   5.303   3.461   1.539
 3685SOL     H115184   5.345   3.446   1.624
 3685SOL     H215185   5.294   3.374   1.501
 3685SOL    EPW15186   5.307   3.449   1.546
 3686SOL      O15187   4.963   1.940   1.130
 3686SOL     H115188   5.018   1.949   1.052
 3686SOL     H215189   5.018   1.974   1.201
 3686SOL    EPW15190   4.977   1.945   1.129
 3687SOL      O15191   4.124   3.596   0.894
 3687SOL     H115192   4.128   3.507   0.929
 3687SOL     H215193   4.150   3.587   0.803
 3687SOL    EPW15194   4.127   3.584   0.886
 3688SOL      O15195   4.741   3.074   1.137
 3688SOL     H115196   4.673   3.008   1.153
 3688SOL     H215197   4.759   3.068   1.044
 3688SOL    EPW15198   4.734   3.065   1.128
 3689SOL      O15199   3.830   3.349   1.388
 3689SOL     H115200   3.820   3.307   1.474
 3689SOL     H215201   3.751   3.402   1.378
 3689SOL    EPW15202   3.819   3.350   1.399
 3690SOL      O15203   4.734   2.213   0.958
 3690SOL     H115204   4.664   2.165   1.003
 3690SOL     H215205   4.766   2.276   1.022
 3690SOL    EPW15206   4.729   2.215   0.972
 3691SOL      O15207   4.385   2.649   1.578
 3691SOL     H115208   4.378   2.744   1.566
 3691SOL     H215209   4.394   2.638   1.673
 3691SOL    EPW15210   4.386   2.661   1.588
 3692SOL      O15211   4.106   3.164   1.836
 3692SOL     H115212   4.178   3.166   1.773
 3692SOL     H215213   4.076   3.073   1.835
 3692SOL    EPW15214   4.111   3.153   1.828
 3693SOL      O15215   5.190   1.927   1.303
 3693SOL     H115216   5.261   1.873   1.267
 3693SOL     H215217   5.189   1.906   1.396
 3693SOL    EPW15218   5.199   1.918   1.311
 3694SOL      O15219   5.390   3.457   1.787
 3694SOL     H115220   5.363   3.454   1.878
 3694SOL     H215221   5.486   3.461   1.790
 3694SOL    EPW15222   5.400   3.457   1.799
 3695SOL      O15223   4.201   2.319   0.771
 3695SOL     H115224   4.272   2.267   0.734
 3695SOL     H215225   4.187   2.284   0.858
 3695SOL    EPW15226   4.209   2.308   0.778
 3696SOL      O15227   3.756   3.654   1.843
 3696SOL     H115228   3.806   3.632   1.765
 3696SOL     H215229   3.764   3.749   1.851
 3696SOL    EPW15230   3.764   3.663   1.834
 3697SOL      O15231   4.517   3.412   0.847
 3697SOL     H115232   4.445   3.349   0.860
 3697SOL     H215233   4.478   3.497   0.865
 3697SOL    EPW15234   4.501   3.415   0.850
 3698SOL      O15235   4.837   2.260   0.495
 3698SOL     H115236   4.859   2.197   0.427
 3698SOL     H215237   4.742   2.252   0.506
 3698SOL    EPW15238   4.827   2.251   0.487
 3699SOL      O15239   3.922   1.950   0.427
 3699SOL     H115240   3.993   1.971   0.366
 3699SOL     H215241   3.876   1.878   0.385
 3699SOL    EPW15242   3.926   1.944   0.413
 3700SOL      O15243   3.753   2.417   1.570
 3700SOL     H115244   3.817   2.483   1.545
 3700SOL     H215245   3.672   2.444   1.527
 3700SOL    EPW15246   3.751   2.429   1.562
 3701SOL      O15247   5.491   3.324   0.527
 3701SOL     H115248   5.461   3.257   0.588
 3701SOL     H215249   5.585   3.330   0.541
 3701SOL    EPW15250   5.499   3.316   0.537
 3702SOL      O15251   5.047   3.001   0.457
 3702SOL     H115252   5.019   3.087   0.490
 3702SOL     H215253   5.075   3.017   0.367
 3702SOL    EPW15254   5.047   3.015   0.449
 3703SOL      O15255   4.709   1.921   0.510
 3703SOL     H115256   4.746   1.980   0.575
 3703SOL     H215257   4.686   1.977   0.436
 3703SOL    EPW15258   4.710   1.936   0.509
 3704SOL      O15259   5.562   2.803   0.932
 3704SOL     H115260   5.553   2.835   0.843
 3704SOL     H215261   5.515   2.719   0.932
 3704SOL    EPW15262   5.555   2.796   0.922
 3705SOL      O15263   3.938   2.643   1.511
 3705SOL     H115264   3.959   2.712   1.449
 3705SOL     H215265   4.018   2.590   1.516
 3705SOL    EPW15266   3.951   2.644   1.505
 3706SOL      O15267   5.474   2.734   0.633
 3706SOL     H115268   5.568   2.723   0.621
 3706SOL     H215269   5.450   2.806   0.574
 3706SOL    EPW15270   5.484   2.742   0.624
 3707SOL      O15271   3.923   2.658   1.778
 3707SOL     H115272   3.849   2.602   1.804
 3707SOL     H215273   3.918   2.661   1.683
 3707SOL    EPW15274   3.912   2.651   1.768
 3708SOL      O15275   4.089   1.945   1.228
 3708SOL     H115276   4.132   2.029   1.248
 3708SOL     H215277   4.162   1.883   1.221
 3708SOL    EPW15278   4.104   1.948   1.229
 3709SOL      O15279   4.130   2.612   0.406
 3709SOL     H115280   4.130   2.707   0.391
 3709SOL     H215281   4.207   2.596   0.460
 3709SOL    EPW15282   4.140   2.623   0.411
 3710SOL      O15283   4.906   2.471   1.470
 3710SOL     H115284   4.942   2.444   1.386
 3710SOL     H215285   4.819   2.505   1.449
 3710SOL    EPW15286   4.900   2.472   1.457
 3711SOL      O15287   3.889   2.343   0.695
 3711SOL     H115288   3.951   2.350   0.768
 3711SOL     H215289   3.889   2.250   0.672
 3711SOL    EPW15290   3.897   2.332   0.702
 3712SOL      O15291   5.436   3.683   0.227
 3712SOL     H115292   5.503   3.716   0.167
 3712SOL     H215293   5.393   3.762   0.261
 3712SOL    EPW15294   5.438   3.698   0.223
 3713SOL      O15295   4.571   2.604   1.179
 3713SOL     H115296   4.529   2.522   1.155
 3713SOL     H215297   4.572   2.603   1.275
 3713SOL    EPW15298   4.564   2.593   1.188
 3714SOL      O15299   5.242   3.737   1.578
 3714SOL     H115300   5.245   3.643   1.561
 3714SOL     H215301   5.265   3.745   1.670
 3714SOL    EPW15302   5.245   3.725   1.588
 3715SOL      O15303   4.375   2.074   1.284
 3715SOL     H115304   4.306   2.137   1.305
 3715SOL     H215305   4.402   2.038   1.369
 3715SOL    EPW15306   4.369   2.077   1.297
 3716SOL      O15307   5.170   1.927   0.901
 3716SOL     H115308   5.258   1.936   0.938
 3716SOL     H215309   5.180   1.868   0.827
 3716SOL    EPW15310   5.184   1.921   0.895
 3717SOL      O15311   5.202   2.666   0.745
 3717SOL     H115312   5.282   2.681   0.694
 3717SOL     H215313   5.195   2.571   0.751
 3717SOL    EPW15314   5.211   2.655   0.740
 3718SOL      O15315   4.652   2.592   1.442
 3718SOL     H115316   4.721   2.659   1.439
 3718SOL     H215317   4.585   2.630   1.498
 3718SOL    EPW15318   4.653   2.605   1.449
 3719SOL      O15319   4.070   2.892   1.690
 3719SOL     H115320   4.024   2.808   1.692
 3719SOL     H215321   4.127   2.886   1.614
 3719SOL    EPW15322   4.072   2.880   1.682
 3720SOL      O15323   4.321   3.267   0.691
 3720SOL     H115324   4.386   3.200   0.712
 3720SOL     H215325   4.373   3.344   0.668
 3720SOL    EPW15326   4.336   3.269   0.690
 3721SOL      O15327   4.582   2.432   0.821
 3721SOL     H115328   4.522   2.450   0.893
 3721SOL     H215329   4.616   2.344   0.840
 3721SOL    EPW15330   4.578   2.422   0.834
 3722SOL      O15331   5.523   1.931   1.490
 3722SOL     H115332   5.444   1.977   1.518
 3722SOL     H215333   5.558   1.985   1.419
 3722SOL    EPW15334   5.517   1.944   1.484
 3723SOL      O15335   4.807   3.015   0.840
 3723SOL     H115336   4.899   2.996   0.858
 3723SOL     H215337   4.780   2.945   0.780
 3723SOL    EPW15338   4.815   3.003   0.834
 3724SOL      O15339   5.081   3.253   0.936
 3724SOL     H115340   5.054   3.337   0.901
 3724SOL     H215341   5.041   3.248   1.023
 3724SOL    EPW15342   5.074   3.262   0.942
 3725SOL      O15343   5.000   3.201   1.204
 3725SOL     H115344   5.011   3.168   1.293
 3725SOL     H215345   4.919   3.160   1.173
 3725SOL    EPW15346   4.990   3.193   1.210
 3726SOL      O15347   4.013   2.559   0.974
 3726SOL     H115348   3.963   2.558   1.055
 3726SOL     H215349   4.033   2.651   0.958
 3726SOL    EPW15350   4.009   2.571   0.982
 3727SOL      O15351   5.080   3.323   1.736
 3727SOL     H115352   5.080   3.417   1.752
 3727SOL     H215353   5.125   3.313   1.652
 3727SOL    EPW15354   5.086   3.333   1.727
 3728SOL      O15355   3.935   2.227   1.715
 3728SOL     H115356   3.892   2.286   1.652
 3728SOL     H215357   4.003   2.282   1.755
 3728SOL    EPW15358   3.939   2.242   1.712
 3729SOL      O15359   5.047   2.847   1.260
 3729SOL     H115360   5.110   2.844   1.333
 3729SOL     H215361   4.963   2.865   1.302
 3729SOL    EPW15362   5.043   2.849   1.275
 3730SOL      O15363   4.591   3.562   0.449
 3730SOL     H115364   4.649   3.633   0.476
 3730SOL     H215365   4.614   3.490   0.507
 3730SOL    EPW15366   4.602   3.562   0.460
 3731SOL      O15367   5.386   2.024   1.039
 3731SOL     H115368   5.431   1.942   1.058
 3731SOL     H215369   5.406   2.080   1.115
 3731SOL    EPW15370   5.396   2.020   1.051
 3732SOL      O15371   3.834   1.867   1.138
 3732SOL     H115372   3.825   1.868   1.043
 3732SOL     H215373   3.928   1.879   1.153
 3732SOL    EPW15374   3.846   1.870   1.129
 3733SOL      O15375   5.471   3.060   0.758
 3733SOL     H115376   5.450   3.006   0.681
 3733SOL     H215377   5.567   3.058   0.762
 3733SOL    EPW15378   5.480   3.053   0.747
 3734SOL      O15379   4.163   3.205   1.501
 3734SOL     H115380   4.084   3.155   1.524
 3734SOL     H215381   4.233   3.164   1.551
 3734SOL    EPW15382   4.161   3.193   1.511
 3735SOL      O15383   4.047   1.994   0.184
 3735SOL     H115384   3.976   2.049   0.152
 3735SOL     H215385   4.089   1.960   0.105
 3735SOL    EPW15386   4.043   1.996   0.170
 3736SOL      O15387   5.171   2.491   1.020
 3736SOL     H115388   5.094   2.537   0.986
 3736SOL     H215389   5.228   2.560   1.054
 3736SOL    EPW15390   5.168   2.506   1.020
 3737SOL      O15391   5.472   2.707   2.125
 3737SOL     H115392   5.513   2.649   2.190
 3737SOL     H215393   5.379   2.699   2.142
 3737SOL    EPW15394   5.466   2.699   2.135
 3738SOL      O15395   5.338   2.639   3.120
 3738SOL     H115396   5.293   2.706   3.171
 3738SOL     H215397   5.426   2.675   3.106
 3738SOL    EPW15398   5.344   2.652   3.124
 3739SOL      O15399   4.266   2.890   2.354
 3739SOL     H115400   4.356   2.865   2.338
 3739SOL     H215401   4.262   2.983   2.331
 3739SOL    EPW15402   4.278   2.899   2.349
 3740SOL      O15403   4.761   3.478   3.497
 3740SOL     H115404   4.802   3.514   3.418
 3740SOL     H215405   4.796   3.389   3.504
 3740SOL    EPW15406   4.772   3.471   3.488
 3741SOL      O15407   5.318   3.033   3.101
 3741SOL     H115408   5.239   2.998   3.059
 3741SOL     H215409   5.345   3.105   3.045
 3741SOL    EPW15410   5.311   3.038   3.088
 3742SOL      O15411   4.550   2.346   2.367
 3742SOL     H115412   4.525   2.434   2.395
 3742SOL     H215413   4.547   2.349   2.271
 3742SOL    EPW15414   4.546   2.358   2.359
 3743SOL      O15415   3.992   2.374   2.295
 3743SOL     H115416   4.024   2.462   2.277
 3743SOL     H215417   3.980   2.372   2.390
 3743SOL    EPW15418   3.995   2.386   2.307
 3744SOL      O15419   4.070   2.787   3.196
 3744SOL     H115420   4.133   2.734   3.147
 3744SOL     H215421   4.051   2.861   3.139
 3744SOL    EPW15422   4.076   2.789   3.183
 3745SOL      O15423   4.391   2.129   2.382
 3745SOL     H115424   4.449   2.205   2.384
 3745SOL     H215425   4.326   2.150   2.315
 3745SOL    EPW15426   4.390   2.141   2.373
 3746SOL      O15427   4.503   3.397   3.460
 3746SOL     H115428   4.587   3.423   3.499
 3746SOL     H215429   4.527   3.341   3.386
 3746SOL    EPW15430   4.517   3.393   3.455
 3747SOL      O15431   4.255   2.560   2.548
 3747SOL     H115432   4.240   2.480   2.599
 3747SOL     H215433   4.337   2.595   2.582
 3747SOL    EPW15434   4.263   2.552   2.560
 3748SOL      O15435   4.592   3.246   3.233
 3748SOL     H115436   4.556   3.312   3.173
 3748SOL     H215437   4.520   3.184   3.246
 3748SOL    EPW15438   4.578   3.246   3.227
 3749SOL      O15439   4.397   2.386   2.925
 3749SOL     H115440   4.303   2.382   2.943
 3749SOL     H215441   4.427   2.295   2.934
 3749SOL    EPW15442   4.388   2.374   2.928
 3750SOL      O15443   4.143   2.800   2.829
 3750SOL     H115444   4.098   2.807   2.745
 3750SOL     H215445   4.123   2.883   2.873
 3750SOL    EPW15446   4.135   2.812   2.823
 3751SOL      O15447   4.104   3.173   2.739
 3751SOL     H115448   4.080   3.226   2.815
 3751SOL     H215449   4.160   3.231   2.687
 3751SOL    EPW15450   4.108   3.188   2.742
 3752SOL      O15451   4.666   2.817   2.549
 3752SOL     H115452   4.580   2.804   2.589
 3752SOL     H215453   4.719   2.744   2.581
 3752SOL    EPW15454   4.662   2.806   2.558
 3753SOL      O15455   4.074   3.469   3.334
 3753SOL     H115456   3.982   3.445   3.319
 3753SOL     H215457   4.118   3.386   3.351
 3753SOL    EPW15458   4.068   3.454   3.333
 3754SOL      O15459   5.530   2.180   2.722
 3754SOL     H115460   5.467   2.160   2.791
 3754SOL     H215461   5.520   2.109   2.659
 3754SOL    EPW15462   5.520   2.167   2.723
 3755SOL      O15463   4.154   2.152   2.234
 3755SOL     H115464   4.128   2.114   2.150
 3755SOL     H215465   4.091   2.222   2.250
 3755SOL    EPW15466   4.143   2.155   2.225
 3756SOL      O15467   3.989   3.113   2.271
 3756SOL     H115468   3.937   3.181   2.227
 3756SOL     H215469   3.986   3.039   2.211
 3756SOL    EPW15470   3.981   3.112   2.258
 3757SOL      O15471   4.651   3.576   2.049
 3757SOL     H115472   4.606   3.592   2.132
 3757SOL     H215473   4.582   3.541   1.991
 3757SOL    EPW15474   4.637   3.573   2.051
 3758SOL      O15475   5.586   2.349   2.024
 3758SOL     H115476   5.495   2.351   2.052
 3758SOL     H215477   5.631   2.411   2.082
 3758SOL    EPW15478   5.579   2.357   2.034
 3759SOL      O15479   5.331   2.952   2.374
 3759SOL     H115480   5.241   2.952   2.409
 3759SOL     H215481   5.324   2.998   2.291
 3759SOL    EPW15482   5.318   2.958   2.368
 3760SOL      O15483   5.131   2.587   3.446
 3760SOL     H115484   5.200   2.525   3.423
 3760SOL     H215485   5.056   2.561   3.393
 3760SOL    EPW15486   5.131   2.574   3.437
 3761SOL      O15487   3.872   3.467   2.998
 3761SOL     H115488   3.855   3.413   3.075
 3761SOL     H215489   3.860   3.557   3.028
 3761SOL    EPW15490   3.869   3.471   3.012
 3762SOL      O15491   4.867   2.974   3.438
 3762SOL     H115492   4.852   3.067   3.423
 3762SOL     H215493   4.962   2.964   3.438
 3762SOL    EPW15494   4.876   2.984   3.435
 3763SOL      O15495   4.663   2.398   3.639
 3763SOL     H115496   4.753   2.399   3.606
 3763SOL     H215497   4.622   2.323   3.597
 3763SOL    EPW15498   4.669   2.388   3.630
 3764SOL      O15499   5.238   2.930   2.766
 3764SOL     H115500   5.241   2.864   2.697
 3764SOL     H215501   5.323   2.973   2.762
 3764SOL    EPW15502   5.250   2.926   2.757
 3765SOL      O15503   4.858   2.533   2.335
 3765SOL     H115504   4.884   2.557   2.246
 3765SOL     H215505   4.840   2.440   2.331
 3765SOL    EPW15506   4.860   2.525   2.322
 3766SOL      O15507   5.523   3.153   2.186
 3766SOL     H115508   5.479   3.194   2.261
 3766SOL     H215509   5.580   3.221   2.151
 3766SOL    EPW15510   5.525   3.167   2.191
 3767SOL      O15511   4.443   2.202   3.589
 3767SOL     H115512   4.453   2.128   3.529
 3767SOL     H215513   4.479   2.171   3.672
 3767SOL    EPW15514   4.449   2.188   3.591
 3768SOL      O15515   5.563   1.931   2.553
 3768SOL     H115516   5.617   1.882   2.615
 3768SOL     H215517   5.506   1.865   2.514
 3768SOL    EPW15518   5.563   1.915   2.555
 3769SOL      O15519   3.895   3.629   2.081
 3769SOL     H115520   3.924   3.719   2.073
 3769SOL     H215521   3.845   3.612   2.002
 3769SOL    EPW15522   3.893   3.637   2.070
 3770SOL      O15523   4.682   1.884   2.966
 3770SOL     H115524   4.641   1.962   2.928
 3770SOL     H215525   4.776   1.902   2.961
 3770SOL    EPW15526   4.688   1.896   2.961
 3771SOL      O15527   4.697   2.562   1.996
 3771SOL     H115528   4.699   2.509   1.917
 3771SOL     H215529   4.785   2.599   2.002
 3771SOL    EPW15530   4.709   2.561   1.985
 3772SOL      O15531   5.311   2.488   2.332
 3772SOL     H115532   5.350   2.488   2.419
 3772SOL     H215533   5.252   2.564   2.332
 3772SOL    EPW15534   5.308   2.499   2.343
 3773SOL      O15535   4.628   2.855   3.461
 3773SOL     H115536   4.605   2.835   3.551
 3773SOL     H215537   4.713   2.899   3.466
 3773SOL    EPW15538   4.635   2.858   3.473
 3774SOL      O15539   4.708   1.992   3.221
 3774SOL     H115540   4.714   1.954   3.134
 3774SOL     H215541   4.697   2.086   3.206
 3774SOL    EPW15542   4.709   2.000   3.209
 3775SOL      O15543   4.797   2.481   3.055
 3775SOL     H115544   4.872   2.510   3.002
 3775SOL     H215545   4.729   2.546   3.039
 3775SOL    EPW15546   4.798   2.493   3.045
 3776SOL      O15547   5.347   2.449   3.332
 3776SOL     H115548   5.328   2.358   3.311
 3776SOL     H215549   5.325   2.498   3.253
 3776SOL    EPW15550   5.342   2.442   3.319
 3777SOL      O15551   5.489   3.543   3.236
 3777SOL     H115552   5.417   3.505   3.287
 3777SOL     H215553   5.506   3.628   3.277
 3777SOL    EPW15554   5.483   3.548   3.248
 3778SOL      O15555   4.794   2.187   3.438
 3778SOL     H115556   4.760   2.226   3.357
 3778SOL     H215557   4.772   2.095   3.431
 3778SOL    EPW15558   4.787   2.180   3.428
 3779SOL      O15559   5.498   2.374   2.498
 3779SOL     H115560   5.587   2.343   2.515
 3779SOL     H215561   5.441   2.314   2.546
 3779SOL    EPW15562   5.501   2.362   2.507
 3780SOL      O15563   3.924   2.088   2.527
 3780SOL     H115564   3.915   2.028   2.453
 3780SOL     H215565   3.857   2.059   2.590
 3780SOL    EPW15566   3.914   2.075   2.525
 3781SOL      O15567   3.871   2.261   2.890
 3781SOL     H115568   3.843   2.352   2.899
 3781SOL     H215569   3.808   2.222   2.829
 3781SOL    EPW15570   3.858   2.267   2.884
 3782SOL      O15571   4.330   3.599   2.196
 3782SOL     H115572   4.251   3.557   2.229
 3782SOL     H215573   4.396   3.582   2.263
 3782SOL    EPW15574   4.329   3.591   2.209
 3783SOL      O15575   5.458   3.119   3.593
 3783SOL     H115576   5.508   3.045   3.625
 3783SOL     H215577   5.404   3.146   3.668
 3783SOL    EPW15578   5.458   3.113   3.606
 3784SOL      O15579   4.466   3.014   1.903
 3784SOL     H115580   4.388   2.960   1.890
 3784SOL     H215581   4.437   3.087   1.956
 3784SOL    EPW15582   4.452   3.016   1.908
 3785SOL      O15583   5.592   2.754   3.095
 3785SOL     H115584   5.608   2.792   3.008
 3785SOL     H215585   5.626   2.820   3.156
 3785SOL    EPW15586   5.599   2.767   3.091
 3786SOL      O15587   5.047   3.530   1.971
 3786SOL     H115588   4.973   3.493   2.021
 3786SOL     H215589   5.055   3.620   2.004
 3786SOL    EPW15590   5.038   3.537   1.983
 3787SOL      O15591   3.855   2.536   3.060
 3787SOL     H115592   3.917   2.566   3.126
 3787SOL     H215593   3.789   2.605   3.054
 3787SOL    EPW15594   3.854   2.549   3.067
 3788SOL      O15595   5.271   3.204   1.913
 3788SOL     H115596   5.218   3.253   1.849
 3788SOL     H215597   5.302   3.270   1.974
 3788SOL    EPW15598   5.269   3.218   1.911
 3789SOL      O15599   4.496   2.093   1.968
 3789SOL     H115600   4.444   2.013   1.956
 3789SOL     H215601   4.583   2.070   1.936
 3789SOL    EPW15602   4.499   2.079   1.962
 3790SOL      O15603   3.950   3.645   3.512
 3790SOL     H115604   3.924   3.713   3.450
 3790SOL     H215605   3.998   3.582   3.460
 3790SOL    EPW15606   3.952   3.645   3.498
 3791SOL      O15607   4.002   2.964   3.019
 3791SOL     H115608   4.055   3.039   3.044
 3791SOL     H215609   3.921   3.002   2.985
 3791SOL    EPW15610   3.998   2.979   3.019
 3792SOL      O15611   4.542   2.868   3.007
 3792SOL     H115612   4.570   2.777   3.019
 3792SOL     H215613   4.471   2.862   2.943
 3792SOL    EPW15614   4.535   2.856   3.002
 3793SOL      O15615   3.857   2.733   2.425
 3793SOL     H115616   3.948   2.748   2.452
 3793SOL     H215617   3.860   2.654   2.371
 3793SOL    EPW15618   3.869   2.725   2.423
 3794SOL      O15619   4.093   2.441   3.679
 3794SOL     H115620   4.040   2.521   3.686
 3794SOL     H215621   4.163   2.453   3.744
 3794SOL    EPW15622   4.095   2.454   3.687
 3795SOL      O15623   4.479   1.991   3.386
 3795SOL     H115624   4.456   1.899   3.388
 3795SOL     H215625   4.565   1.993   3.343
 3795SOL    EPW15626   4.486   1.981   3.382
 3796SOL      O15627   4.163   2.515   3.425
 3796SOL     H115628   4.243   2.565   3.411
 3796SOL     H215629   4.154   2.509   3.520
 3796SOL    EPW15630   4.172   2.521   3.435
 3797SOL      O15631   5.140   2.040   3.696
 3797SOL     H115632   5.196   1.967   3.722
 3797SOL     H215633   5.110   2.078   3.778
 3797SOL    EPW15634   5.144   2.035   3.709
 3798SOL      O15635   3.865   3.345   2.464
 3798SOL     H115636   3.837   3.384   2.546
 3798SOL     H215637   3.885   3.254   2.486
 3798SOL    EPW15638   3.863   3.337   2.477
 3799SOL      O15639   5.530   2.533   2.813
 3799SOL     H115640   5.619   2.563   2.795
 3799SOL     H215641   5.510   2.473   2.742
 3799SOL    EPW15642   5.539   2.530   2.802
 3800SOL      O15643   5.381   2.712   3.693
 3800SOL     H115644   5.436   2.636   3.674
 3800SOL     H215645   5.383   2.720   3.788
 3800SOL    EPW15646   5.389   2.703   3.701
 3801SOL      O15647   4.431   3.445   1.904
 3801SOL     H115648   4.371   3.514   1.874
 3801SOL     H215649   4.376   3.387   1.957
 3801SOL    EPW15650   4.415   3.447   1.906
 3802SOL      O15651   4.869   2.090   2.127
 3802SOL     H115652   4.802   2.066   2.064
 3802SOL     H215653   4.934   2.139   2.076
 3802SOL    EPW15654   4.869   2.092   2.112
 3803SOL      O15655   4.676   2.274   3.212
 3803SOL     H115656   4.595   2.315   3.240
 3803SOL     H215657   4.723   2.342   3.164
 3803SOL    EPW15658   4.671   2.289   3.210
 3804SOL      O15659   4.936   2.612   2.835
 3804SOL     H115660   4.949   2.706   2.845
 3804SOL     H215661   4.897   2.602   2.749
 3804SOL    EPW15662   4.932   2.623   2.825
 3805SOL      O15663   4.388   2.807   2.639
 3805SOL     H115664   4.299   2.798   2.672
 3805SOL     H215665   4.392   2.897   2.607
 3805SOL    EPW15666   4.377   2.818   2.639
 3806SOL      O15667   5.187   2.390   2.634
 3806SOL     H115668   5.132   2.311   2.633
 3806SOL     H215669   5.169   2.431   2.718
 3806SOL    EPW15670   5.177   2.385   2.643
 3807SOL      O15671   4.158   2.077   3.451
 3807SOL     H115672   4.079   2.095   3.503
 3807SOL     H215673   4.153   2.139   3.378
 3807SOL    EPW15674   4.148   2.087   3.448
 3808SOL      O15675   4.806   2.594   2.591
 3808SOL     H115676   4.743   2.526   2.615
 3808SOL     H215677   4.826   2.575   2.499
 3808SOL    EPW15678   4.800   2.581   2.583
 3809SOL      O15679   4.062   3.489   2.293
 3809SOL     H115680   4.023   3.536   2.219
 3809SOL     H215681   3.996   3.424   2.318
 3809SOL    EPW15682   4.049   3.487   2.287
 3810SOL      O15683   4.554   2.898   2.317
 3810SOL     H115684   4.556   2.872   2.224
 3810SOL     H215685   4.612   2.835   2.360
 3810SOL    EPW15686   4.562   2.887   2.311
 3811SOL      O15687   5.107   3.458   3.089
 3811SOL     H115688   5.032   3.504   3.127
 3811SOL     H215689   5.089   3.365   3.106
 3811SOL    EPW15690   5.096   3.452   3.097
 3812SOL      O15691   5.064   2.142   2.650
 3812SOL     H115692   5.092   2.074   2.711
 3812SOL     H215693   4.978   2.113   2.620
 3812SOL    EPW15694   5.057   2.129   2.654
 3813SOL      O15695   3.869   3.076   2.584
 3813SOL     H115696   3.933   3.108   2.647
 3813SOL     H215697   3.918   3.012   2.532
 3813SOL    EPW15698   3.884   3.072   2.585
 3814SOL      O15699   4.369   3.152   3.566
 3814SOL     H115700   4.417   3.235   3.553
 3814SOL     H215701   4.426   3.100   3.622
 3814SOL    EPW15702   4.383   3.156   3.572
 3815SOL      O15703   3.945   3.394   3.706
 3815SOL     H115704   4.001   3.318   3.721
 3815SOL     H215705   3.894   3.372   3.628
 3815SOL    EPW15706   3.945   3.381   3.697
 3816SOL      O15707   5.044   2.246   1.985
 3816SOL     H115708   5.017   2.312   1.921
 3816SOL     H215709   5.114   2.289   2.035
 3816SOL    EPW15710   5.049   2.259   1.982
 3817SOL      O15711   4.712   1.951   1.922
 3817SOL     H115712   4.768   1.943   1.844
 3817SOL     H215713   4.689   1.861   1.944
 3817SOL    EPW15714   4.717   1.938   1.915
 3818SOL      O15715   5.217   2.802   2.127
 3818SOL     H115716   5.184   2.891   2.117
 3818SOL     H215717   5.182   2.773   2.212
 3818SOL    EPW15718   5.207   2.811   2.138
 3819SOL      O15719   4.830   3.231   3.315
 3819SOL     H115720   4.741   3.237   3.283
 3819SOL     H215721   4.874   3.310   3.283
 3819SOL    EPW15722   4.825   3.241   3.307
 3820SOL      O15723   4.123   1.899   3.657
 3820SOL     H115724   4.051   1.864   3.605
 3820SOL     H215725   4.181   1.940   3.592
 3820SOL    EPW15726   4.121   1.900   3.642
 3821SOL      O15727   4.147   3.389   2.956
 3821SOL     H115728   4.192   3.451   3.013
 3821SOL     H215729   4.054   3.408   2.969
 3821SOL    EPW15730   4.140   3.399   2.963
 3822SOL      O15731   5.587   2.918   3.310
 3822SOL     H115732   5.502   2.931   3.269
 3822SOL     H215733   5.567   2.882   3.397
 3822SOL    EPW15734   5.574   2.914   3.315
 3823SOL      O15735   4.569   3.457   3.064
 3823SOL     H115736   4.593   3.446   2.973
 3823SOL     H215737   4.492   3.514   3.062
 3823SOL    EPW15738   4.561   3.462   3.053
 3824SOL      O15739   4.211   2.840   1.919
 3824SOL     H115740   4.134   2.853   1.975
 3824SOL     H215741   4.175   2.804   1.838
 3824SOL    EPW15742   4.197   2.836   1.916
 3825SOL      O15743   4.864   2.813   2.162
 3825SOL     H115744   4.774   2.834   2.137
 3825SOL     H215745   4.891   2.886   2.218
 3825SOL    EPW15746   4.856   2.825   2.165
 3826SOL      O15747   4.364   3.162   2.854
 3826SOL     H115748   4.357   3.141   2.948
 3826SOL     H215749   4.282   3.130   2.817
 3826SOL    EPW15750   4.352   3.156   2.861
 3827SOL      O15751   5.228   2.172   3.256
 3827SOL     H115752   5.175   2.174   3.336
 3827SOL     H215753   5.213   2.085   3.219
 3827SOL    EPW15754   5.220   2.162   3.261
 3828SOL      O15755   5.564   2.096   3.129
 3828SOL     H115756   5.545   2.163   3.064
 3828SOL     H215757   5.621   2.034   3.084
 3828SOL    EPW15758   5.568   2.097   3.115
 3829SOL      O15759   3.810   3.254   3.517
 3829SOL     H115760   3.854   3.187   3.463
 3829SOL     H215761   3.725   3.216   3.537
 3829SOL    EPW15762   3.805   3.240   3.513
 3830SOL      O15763   4.493   1.929   2.569
 3830SOL     H115764   4.422   1.990   2.551
 3830SOL     H215765   4.544   1.926   2.488
 3830SOL    EPW15766   4.489   1.935   2.556
 3831SOL      O15767   4.846   3.562   3.227
 3831SOL     H115768   4.766   3.547   3.177
 3831SOL     H215769   4.853   3.657   3.234
 3831SOL    EPW15770   4.837   3.573   3.221
 3832SOL      O15771   4.453   2.586   3.699
 3832SOL     H115772   4.523   2.528   3.671
 3832SOL     H215773   4.396   2.531   3.754
 3832SOL    EPW15774   4.455   2.573   3.703
 3833SOL      O15775   5.240   2.798   3.332
 3833SOL     H115776   5.245   2.851   3.412
 3833SOL     H215777   5.202   2.715   3.360
 3833SOL    EPW15778   5.236   2.793   3.347
 3834SOL      O15779   4.880   1.933   3.578
 3834SOL     H115780   4.875   1.840   3.559
 3834SOL     H215781   4.963   1.944   3.624
 3834SOL    EPW15782   4.888   1.922   3.582
 3835SOL      O15783   4.254   2.453   2.032
 3835SOL     H115784   4.220   2.509   2.102
 3835SOL     H215785   4.325   2.403   2.072
 3835SOL    EPW15786   4.260   2.454   2.046
 3836SOL      O15787   5.350   3.204   2.854
 3836SOL     H115788   5.385   3.186   2.767
 3836SOL     H215789   5.255   3.205   2.841
 3836SOL    EPW15790   5.342   3.201   2.841
 3837SOL      O15791   4.779   2.852   3.223
 3837SOL     H115792   4.822   2.887   3.301
 3837SOL     H215793   4.762   2.929   3.169
 3837SOL    EPW15794   4.782   2.867   3.226
 3838SOL      O15795   5.310   2.339   2.096
 3838SOL     H115796   5.302   2.410   2.033
 3838SOL     H215797   5.328   2.383   2.179
 3838SOL    EPW15798   5.311   2.353   2.098
 3839SOL      O15799   4.170   1.994   2.525
 3839SOL     H115800   4.220   2.037   2.456
 3839SOL     H215801   4.085   2.038   2.525
 3839SOL    EPW15802   4.167   2.007   2.516
 3840SOL      O15803   3.929   3.056   3.385
 3840SOL     H115804   3.957   3.009   3.463
 3840SOL     H215805   3.850   3.011   3.356
 3840SOL    EPW15806   3.922   3.045   3.391
 3841SOL      O15807   4.437   2.383   3.352
 3841SOL     H115808   4.409   2.471   3.376
 3841SOL     H215809   4.406   2.327   3.423
 3841SOL    EPW15810   4.429   2.386   3.364
 3842SOL      O15811   4.979   2.601   2.071
 3842SOL     H115812   5.026   2.619   1.990
 3842SOL     H215813   4.945   2.685   2.099
 3842SOL    EPW15814   4.981   2.615   2.064
 3843SOL      O15815   4.092   2.779   2.565
 3843SOL     H115816   4.150   2.835   2.513
 3843SOL     H215817   4.136   2.694   2.567
 3843SOL    EPW15818   4.105   2.776   2.558
 3844SOL      O15819   5.232   2.131   2.402
 3844SOL     H115820   5.154   2.081   2.427
 3844SOL     H215821   5.203   2.222   2.402
 3844SOL    EPW15822   5.218   2.135   2.405
 3845SOL      O15823   4.818   2.093   2.561
 3845SOL     H115824   4.838   2.168   2.505
 3845SOL     H215825   4.798   2.132   2.646
 3845SOL    EPW15826   4.819   2.109   2.565
 3846SOL      O15827   4.714   3.343   1.893
 3846SOL     H115828   4.741   3.421   1.845
 3846SOL     H215829   4.621   3.358   1.912
 3846SOL    EPW15830   4.705   3.356   1.889
 3847SOL      O15831   5.578   2.866   3.580
 3847SOL     H115832   5.491   2.846   3.616
 3847SOL     H215833   5.632   2.792   3.605
 3847SOL    EPW15834   5.573   2.855   3.588
 3848SOL      O15835   3.799   3.379   2.737
 3848SOL     H115836   3.831   3.383   2.828
 3848SOL     H215837   3.704   3.387   2.745
 3848SOL    EPW15838   3.791   3.382   2.750
 3849SOL      O15839   3.754   2.505   2.284
 3849SOL     H115840   3.694   2.477   2.354
 3849SOL     H215841   3.828   2.445   2.290
 3849SOL    EPW15842   3.756   2.494   2.293
 3850SOL      O15843   5.322   3.717   3.718
 3850SOL     H115844   5.367   3.641   3.683
 3850SOL     H215845   5.360   3.730   3.805
 3850SOL    EPW15846   5.332   3.710   3.724
 3851SOL      O15847   4.180   2.244   3.173
 3851SOL     H115848   4.213   2.325   3.213
 3851SOL     H215849   4.153   2.270   3.085
 3851SOL    EPW15850   4.179   2.258   3.167
 3852SOL      O15851   4.134   2.211   2.909
 3852SOL     H115852   4.164   2.125   2.880
 3852SOL     H215853   4.039   2.204   2.912
 3852SOL    EPW15854   4.126   2.200   2.907
 3853SOL      O15855   4.963   2.420   3.600
 3853SOL     H115856   5.015   2.355   3.553
 3853SOL     H215857   4.921   2.471   3.530
 3853SOL    EPW15858   4.964   2.417   3.583
 3854SOL      O15859   5.062   2.215   3.461
 3854SOL     H115860   4.969   2.199   3.448
 3854SOL     H215861   5.088   2.153   3.529
 3854SOL    EPW15862   5.052   2.205   3.468
 3855SOL      O15863   4.277   1.989   2.800
 3855SOL     H115864   4.287   1.898   2.826
 3855SOL     H215865   4.233   1.985   2.715
 3855SOL    EPW15866   4.273   1.977   2.792
 3856SOL      O15867   4.371   3.604   3.346
 3856SOL     H115868   4.288   3.589   3.391
 3856SOL     H215869   4.430   3.537   3.381
 3856SOL    EPW15870   4.369   3.594   3.356
 3857SOL      O15871   5.428   2.311   2.971
 3857SOL     H115872   5.361   2.344   3.031
 3857SOL     H215873   5.471   2.389   2.937
 3857SOL    EPW15874   5.426   2.326   2.975
 3858SOL      O15875   5.606   3.031   2.941
 3858SOL     H115876   5.599   2.971   2.866
 3858SOL     H215877   5.532   3.091   2.930
 3858SOL    EPW15878   5.596   3.031   2.930
 3859SOL      O15879   4.988   2.893   2.859
 3859SOL     H115880   5.002   2.865   2.950
 3859SOL     H215881   5.074   2.924   2.831
 3859SOL    EPW15882   5.001   2.894   2.868
 3860SOL      O15883   5.071   2.388   3.138
 3860SOL     H115884   5.092   2.389   3.045
 3860SOL     H215885   5.116   2.310   3.171
 3860SOL    EPW15886   5.078   2.378   3.130
 3861SOL      O15887   5.564   2.519   3.680
 3861SOL     H115888   5.601   2.464   3.749
 3861SOL     H215889   5.589   2.476   3.598
 3861SOL    EPW15890   5.571   2.507   3.679
 3862SOL      O15891   5.111   2.817   3.731
 3862SOL     H115892   5.177   2.765   3.685
 3862SOL     H215893   5.131   2.804   3.824
 3862SOL    EPW15894   5.122   2.808   3.738
 3863SOL      O15895   5.062   1.903   2.080
 3863SOL     H115896   5.136   1.947   2.123
 3863SOL     H215897   4.986   1.957   2.102
 3863SOL    EPW15898   5.062   1.915   2.088
 3864SOL      O15899   5.122   2.678   2.358
 3864SOL     H115900   5.037   2.648   2.328
 3864SOL     H215901   5.114   2.685   2.453
 3864SOL    EPW15902   5.110   2.676   2.367
 3865SOL      O15903   4.198   3.141   3.089
 3865SOL     H115904   4.210   3.168   3.180
 3865SOL     H215905   4.179   3.222   3.042
 3865SOL    EPW15906   4.197   3.156   3.094
 3866SOL      O15907   4.482   2.121   2.912
 3866SOL     H115908   4.455   2.123   3.003
 3866SOL     H215909   4.412   2.073   2.867
 3866SOL    EPW15910   4.470   2.117   2.919
 3867SOL      O15911   4.336   3.613   3.074
 3867SOL     H115912   4.388   3.690   3.051
 3867SOL     H215913   4.345   3.605   3.169
 3867SOL    EPW15914   4.345   3.620   3.085
 3868SOL      O15915   5.238   3.198   3.306
 3868SOL     H115916   5.223   3.127   3.369
 3868SOL     H215917   5.284   3.156   3.234
 3868SOL    EPW15918   5.244   3.182   3.306
 3869SOL      O15919   4.312   2.929   3.423
 3869SOL     H115920   4.349   2.934   3.335
 3869SOL     H215921   4.351   3.002   3.470
 3869SOL    EPW15922   4.322   2.939   3.418
 3870SOL      O15923   4.492   2.972   3.235
 3870SOL     H115924   4.551   2.918   3.288
 3870SOL     H215925   4.507   2.944   3.145
 3870SOL    EPW15926   4.502   2.961   3.231
 3871SOL      O15927   4.495   2.344   2.084
 3871SOL     H115928   4.568   2.393   2.047
 3871SOL     H215929   4.511   2.253   2.058
 3871SOL    EPW15930   4.507   2.339   2.077
 3872SOL      O15931   5.303   3.461   3.407
 3872SOL     H115932   5.345   3.446   3.492
 3872SOL     H215933   5.294   3.374   3.369
 3872SOL    EPW15934   5.307   3.449   3.414
 3873SOL      O15935   4.963   1.940   2.998
 3873SOL     H115936   5.018   1.949   2.920
 3873SOL     H215937   5.018   1.974   3.069
 3873SOL    EPW15938   4.977   1.945   2.997
 3874SOL      O15939   3.970   2.853   2.182
 3874SOL     H115940   3.907   2.869   2.111
 3874SOL     H215941   3.917   2.816   2.253
 3874SOL    EPW15942   3.955   2.850   2.182
 3875SOL      O15943   4.741   3.074   3.005
 3875SOL     H115944   4.673   3.008   3.021
 3875SOL     H215945   4.759   3.068   2.912
 3875SOL    EPW15946   4.734   3.065   2.996
 3876SOL      O15947   3.830   3.349   3.256
 3876SOL     H115948   3.820   3.307   3.342
 3876SOL     H215949   3.751   3.402   3.246
 3876SOL    EPW15950   3.819   3.350   3.267
 3877SOL      O15951   4.734   2.213   2.826
 3877SOL     H115952   4.664   2.165   2.871
 3877SOL     H215953   4.766   2.276   2.890
 3877SOL    EPW15954   4.729   2.215   2.840
 3878SOL      O15955   4.385   2.649   3.446
 3878SOL     H115956   4.378   2.744   3.434
 3878SOL     H215957   4.394   2.638   3.541
 3878SOL    EPW15958   4.386   2.661   3.456
 3879SOL      O15959   4.106   3.164   3.704
 3879SOL     H115960   4.178   3.166   3.641
 3879SOL     H215961   4.076   3.073   3.703
 3879SOL    EPW15962   4.111   3.153   3.696
 3880SOL      O15963   5.190   1.927   3.171
 3880SOL     H115964   5.261   1.873   3.135
 3880SOL     H215965   5.189   1.906   3.264
 3880SOL    EPW15966   5.199   1.918   3.179
 3881SOL      O15967   5.390   3.457   3.655
 3881SOL     H115968   5.363   3.454   3.746
 3881SOL     H215969   5.486   3.461   3.658
 3881SOL    EPW15970   5.400   3.457   3.667
 3882SOL      O15971   4.201   2.319   2.639
 3882SOL     H115972   4.272   2.267   2.602
 3882SOL     H215973   4.187   2.284   2.726
 3882SOL    EPW15974   4.209   2.308   2.646
 3883SOL      O15975   3.756   3.654   3.711
 3883SOL     H115976   3.806   3.632   3.633
 3883SOL     H215977   3.764   3.749   3.719
 3883SOL    EPW15978   3.764   3.663   3.702
 3884SOL      O15979   4.837   2.260   2.363
 3884SOL     H115980   4.859   2.197   2.295
 3884SOL     H215981   4.742   2.252   2.374
 3884SOL    EPW15982   4.827   2.251   2.355
 3885SOL      O15983   3.922   1.950   2.295
 3885SOL     H115984   3.993   1.971   2.234
 3885SOL     H215985   3.876   1.878   2.253
 3885SOL    EPW15986   3.926   1.944   2.281
 3886SOL      O15987   3.753   2.417   3.438
 3886SOL     H115988   3.817   2.483   3.413
 3886SOL     H215989   3.672   2.444   3.395
 3886SOL    EPW15990   3.751   2.429   3.430
 3887SOL      O15991   4.709   1.921   2.378
 3887SOL     H115992   4.746   1.980   2.443
 3887SOL     H215993   4.686   1.977   2.304
 3887SOL    EPW15994   4.710   1.936   2.377
 3888SOL      O15995   5.562   2.803   2.800
 3888SOL     H115996   5.553   2.835   2.711
 3888SOL     H215997   5.515   2.719   2.800
 3888SOL    EPW15998   5.555   2.796   2.790
 3889SOL      O15999   3.938   2.643   3.379
 3889SOL     H116000   3.959   2.712   3.317
 3889SOL     H216001   4.018   2.590   3.384
 3889SOL    EPW16002   3.951   2.644   3.373
 3890SOL      O16003   5.474   2.734   2.501
 3890SOL     H116004   5.568   2.723   2.489
 3890SOL     H216005   5.450   2.806   2.442
 3890SOL    EPW16006   5.484   2.742   2.492
 3891SOL      O16007   3.923   2.658   3.646
 3891SOL     H116008   3.849   2.602   3.672
 3891SOL     H216009   3.918   2.661   3.551
 3891SOL    EPW16010   3.912   2.651   3.636
 3892SOL      O16011   4.089   1.945   3.096
 3892SOL     H116012   4.132   2.029   3.116
 3892SOL     H216013   4.162   1.883   3.089
 3892SOL    EPW16014   4.104   1.948   3.097
 3893SOL      O16015   4.130   2.612   2.274
 3893SOL     H116016   4.130   2.707   2.259
 3893SOL     H216017   4.207   2.596   2.328
 3893SOL    EPW16018   4.140   2.623   2.279
 3894SOL      O16019   4.906   2.471   3.338
 3894SOL     H116020   4.942   2.444   3.254
 3894SOL     H216021   4.819   2.505   3.317
 3894SOL    EPW16022   4.900   2.472   3.325
 3895SOL      O16023   3.889   2.343   2.563
 3895SOL     H116024   3.951   2.350   2.636
 3895SOL     H216025   3.889   2.250   2.540
 3895SOL    EPW16026   3.897   2.332   2.570
 3896SOL      O16027   4.571   2.604   3.047
 3896SOL     H116028   4.529   2.522   3.023
 3896SOL     H216029   4.572   2.603   3.143
 3896SOL    EPW16030   4.564   2.593   3.056
 3897SOL      O16031   4.375   2.074   3.152
 3897SOL     H116032   4.306   2.137   3.173
 3897SOL     H216033   4.402   2.038   3.237
 3897SOL    EPW16034   4.369   2.077   3.165
 3898SOL      O16035   3.758   2.915   2.021
 3898SOL     H116036   3.727   2.980   2.084
 3898SOL     H216037   3.707   2.837   2.040
 3898SOL    EPW16038   3.748   2.912   2.031
 3899SOL      O16039   5.170   1.927   2.769
 3899SOL     H116040   5.258   1.936   2.806
 3899SOL     H216041   5.180   1.868   2.695
 3899SOL    EPW16042   5.184   1.921   2.763
 3900SOL      O16043   5.202   2.666   2.613
 3900SOL     H116044   5.282   2.681   2.562
 3900SOL     H216045   5.195   2.571   2.619
 3900SOL    EPW16046   5.211   2.655   2.608
 3901SOL      O16047   4.342   3.715   1.963
 3901SOL     H116048   4.247   3.715   1.955
 3901SOL     H216049   4.358   3.661   2.041
 3901SOL    EPW16050   4.332   3.709   1.972
 3902SOL      O16051   4.652   2.592   3.310
 3902SOL     H116052   4.721   2.659   3.307
 3902SOL     H216053   4.585   2.630   3.366
 3902SOL    EPW16054   4.653   2.605   3.317
 3903SOL      O16055   4.070   2.892   3.558
 3903SOL     H116056   4.024   2.808   3.560
 3903SOL     H216057   4.127   2.886   3.482
 3903SOL    EPW16058   4.072   2.880   3.550
 3904SOL      O16059   5.187   2.535   1.879
 3904SOL     H116060   5.115   2.511   1.821
 3904SOL     H216061   5.253   2.572   1.821
 3904SOL    EPW16062   5.186   2.537   1.864
 3905SOL      O16063   4.582   2.432   2.689
 3905SOL     H116064   4.522   2.450   2.761
 3905SOL     H216065   4.616   2.344   2.708
 3905SOL    EPW16066   4.578   2.422   2.702
 3906SOL      O16067   5.523   1.931   3.358
 3906SOL     H116068   5.444   1.977   3.386
 3906SOL     H216069   5.558   1.985   3.287
 3906SOL    EPW16070   5.517   1.944   3.352
 3907SOL      O16071   4.807   3.015   2.708
 3907SOL     H116072   4.899   2.996   2.726
 3907SOL     H216073   4.780   2.945   2.648
 3907SOL    EPW16074   4.815   3.003   2.702
 3908SOL      O16075   4.600   2.835   2.063
 3908SOL     H116076   4.586   2.747   2.028
 3908SOL     H216077   4.551   2.892   2.004
 3908SOL    EPW16078   4.592   2.830   2.051
 3909SOL      O16079   5.081   3.253   2.804
 3909SOL     H116080   5.054   3.337   2.769
 3909SOL     H216081   5.041   3.248   2.891
 3909SOL    EPW16082   5.074   3.262   2.810
 3910SOL      O16083   5.000   3.201   3.072
 3910SOL     H116084   5.011   3.168   3.161
 3910SOL     H216085   4.919   3.160   3.041
 3910SOL    EPW16086   4.990   3.193   3.078
 3911SOL      O16087   4.013   2.559   2.842
 3911SOL     H116088   3.963   2.558   2.923
 3911SOL     H216089   4.033   2.651   2.826
 3911SOL    EPW16090   4.009   2.571   2.850
 3912SOL      O16091   5.080   3.323   3.604
 3912SOL     H116092   5.080   3.417   3.620
 3912SOL     H216093   5.125   3.313   3.520
 3912SOL    EPW16094   5.086   3.333   3.595
 3913SOL      O16095   5.319   2.041   2.165
 3913SOL     H116096   5.312   2.045   2.260
 3913SOL     H216097   5.331   2.132   2.138
 3913SOL    EPW16098   5.320   2.054   2.173
 3914SOL      O16099   4.608   2.604   2.279
 3914SOL     H116100   4.588   2.590   2.186
 3914SOL     H216101   4.701   2.583   2.286
 3914SOL    EPW16102   4.618   2.599   2.268
 3915SOL      O16103   3.935   2.227   3.583
 3915SOL     H116104   3.892   2.286   3.520
 3915SOL     H216105   4.003   2.282   3.623
 3915SOL    EPW16106   3.939   2.242   3.580
 3916SOL      O16107   5.047   2.847   3.128
 3916SOL     H116108   5.110   2.844   3.201
 3916SOL     H216109   4.963   2.865   3.170
 3916SOL    EPW16110   5.043   2.849   3.143
 3917SOL      O16111   5.386   2.024   2.907
 3917SOL     H116112   5.431   1.942   2.926
 3917SOL     H216113   5.406   2.080   2.983
 3917SOL    EPW16114   5.396   2.020   2.919
 3918SOL      O16115   3.834   1.867   3.006
 3918SOL     H116116   3.825   1.868   2.911
 3918SOL     H216117   3.928   1.879   3.021
 3918SOL    EPW16118   3.846   1.870   2.997
 3919SOL      O16119   5.471   3.060   2.626
 3919SOL     H116120   5.450   3.006   2.549
 3919SOL     H216121   5.567   3.058   2.630
 3919SOL    EPW16122   5.480   3.053   2.615
 3920SOL      O16123   4.163   3.205   3.369
 3920SOL     H116124   4.084   3.155   3.392
 3920SOL     H216125   4.233   3.164   3.419
 3920SOL    EPW16126   4.161   3.193   3.379
 3921SOL      O16127   4.047   1.994   2.052
 3921SOL     H116128   3.976   2.049   2.020
 3921SOL     H216129   4.089   1.960   1.973
 3921SOL    EPW16130   4.043   1.996   2.038
 3922SOL      O16131   5.171   2.491   2.888
 3922SOL     H116132   5.094   2.537   2.854
 3922SOL     H216133   5.228   2.560   2.922
 3922SOL    EPW16134   5.168   2.506   2.888
 3923SOL      O16135   3.803   2.093   1.901
 3923SOL     H116136   3.770   2.172   1.945
 3923SOL     H216137   3.858   2.126   1.830
 3923SOL    EPW16138   3.806   2.107   1.898
 3924SOL      O16139   3.837   3.350   2.090
 3924SOL     H116140   3.854   3.434   2.132
 3924SOL     H216141   3.872   3.359   2.002
 3924SOL    EPW16142   3.842   3.363   2.084
 3925SOL      O16143   5.472   2.707   3.993
 3925SOL     H116144   5.513   2.649   4.058
 3925SOL     H216145   5.379   2.699   4.010
 3925SOL    EPW16146   5.466   2.699   4.003
 3926SOL      O16147   5.105   3.038   3.941
 3926SOL     H116148   5.023   3.074   3.907
 3926SOL     H216149   5.173   3.081   3.890
 3926SOL    EPW16150   5.103   3.048   3.929
 3927SOL      O16151   4.657   3.179   4.134
 3927SOL     H116152   4.634   3.241   4.202
 3927SOL     H216153   4.614   3.097   4.160
 3927SOL    EPW16154   4.649   3.175   4.145
 3928SOL      O16155   4.154   2.152   4.102
 3928SOL     H116156   4.128   2.114   4.018
 3928SOL     H216157   4.091   2.222   4.118
 3928SOL    EPW16158   4.143   2.155   4.093
 3929SOL      O16159   4.651   3.576   3.917
 3929SOL     H116160   4.606   3.592   4.000
 3929SOL     H216161   4.582   3.541   3.859
 3929SOL    EPW16162   4.637   3.573   3.919
 3930SOL      O16163   5.586   2.349   3.892
 3930SOL     H116164   5.495   2.351   3.920
 3930SOL     H216165   5.631   2.411   3.950
 3930SOL    EPW16166   5.579   2.357   3.902
 3931SOL      O16167   5.523   3.153   4.054
 3931SOL     H116168   5.479   3.194   4.129
 3931SOL     H216169   5.580   3.221   4.019
 3931SOL    EPW16170   5.525   3.167   4.059
 3932SOL      O16171   3.895   3.629   3.949
 3932SOL     H116172   3.924   3.719   3.941
 3932SOL     H216173   3.845   3.612   3.870
 3932SOL    EPW16174   3.893   3.637   3.938
 3933SOL      O16175   5.299   3.437   3.920
 3933SOL     H116176   5.347   3.506   3.966
 3933SOL     H216177   5.220   3.481   3.889
 3933SOL    EPW16178   5.294   3.451   3.923
 3934SOL      O16179   4.697   2.562   3.864
 3934SOL     H116180   4.699   2.509   3.785
 3934SOL     H216181   4.785   2.599   3.870
 3934SOL    EPW16182   4.709   2.561   3.853
 3935SOL      O16183   4.867   3.181   3.956
 3935SOL     H116184   4.817   3.183   4.038
 3935SOL     H216185   4.801   3.199   3.888
 3935SOL    EPW16186   4.853   3.183   3.958
 3936SOL      O16187   4.466   3.014   3.771
 3936SOL     H116188   4.388   2.960   3.758
 3936SOL     H216189   4.437   3.087   3.824
 3936SOL    EPW16190   4.452   3.016   3.776
 3937SOL      O16191   5.047   3.530   3.839
 3937SOL     H116192   4.973   3.493   3.889
 3937SOL     H216193   5.055   3.620   3.872
 3937SOL    EPW16194   5.038   3.537   3.851
 3938SOL      O16195   5.271   3.204   3.781
 3938SOL     H116196   5.218   3.253   3.717
 3938SOL     H216197   5.302   3.270   3.842
 3938SOL    EPW16198   5.269   3.218   3.779
 3939SOL      O16199   4.496   2.093   3.836
 3939SOL     H116200   4.444   2.013   3.824
 3939SOL     H216201   4.583   2.070   3.804
 3939SOL    EPW16202   4.499   2.079   3.830
 3940SOL      O16203   4.431   3.445   3.772
 3940SOL     H116204   4.371   3.514   3.742
 3940SOL     H216205   4.376   3.387   3.825
 3940SOL    EPW16206   4.415   3.447   3.774
 3941SOL      O16207   4.869   2.090   3.995
 3941SOL     H116208   4.802   2.066   3.932
 3941SOL     H216209   4.934   2.139   3.944
 3941SOL    EPW16210   4.869   2.092   3.980
 3942SOL      O16211   4.062   3.489   4.161
 3942SOL     H116212   4.023   3.536   4.087
 3942SOL     H216213   3.996   3.424   4.186
 3942SOL    EPW16214   4.049   3.487   4.155
 3943SOL      O16215   4.554   2.898   4.185
 3943SOL     H116216   4.556   2.872   4.092
 3943SOL     H216217   4.612   2.835   4.228
 3943SOL    EPW16218   4.562   2.887   4.179
 3944SOL      O16219   5.044   2.246   3.853
 3944SOL     H116220   5.017   2.312   3.789
 3944SOL     H216221   5.114   2.289   3.903
 3944SOL    EPW16222   5.049   2.259   3.850
 3945SOL      O16223   4.712   1.951   3.790
 3945SOL     H116224   4.768   1.943   3.712
 3945SOL     H216225   4.689   1.861   3.812
 3945SOL    EPW16226   4.717   1.938   3.783
 3946SOL      O16227   5.217   2.802   3.995
 3946SOL     H116228   5.184   2.891   3.985
 3946SOL     H216229   5.182   2.773   4.080
 3946SOL    EPW16230   5.207   2.811   4.006
 3947SOL      O16231   4.211   2.840   3.787
 3947SOL     H116232   4.134   2.853   3.843
 3947SOL     H216233   4.175   2.804   3.706
 3947SOL    EPW16234   4.197   2.836   3.784
 3948SOL      O16235   4.254   2.453   3.900
 3948SOL     H116236   4.220   2.509   3.970
 3948SOL     H216237   4.325   2.403   3.940
 3948SOL    EPW16238   4.260   2.454   3.914
 3949SOL      O16239   5.310   2.339   3.964
 3949SOL     H116240   5.302   2.410   3.901
 3949SOL     H216241   5.328   2.383   4.047
 3949SOL    EPW16242   5.311   2.353   3.966
 3950SOL      O16243   4.979   2.601   3.939
 3950SOL     H116244   5.026   2.619   3.858
 3950SOL     H216245   4.945   2.685   3.967
 3950SOL    EPW16246   4.981   2.615   3.932
 3951SOL      O16247   4.714   3.343   3.761
 3951SOL     H116248   4.741   3.421   3.713
 3951SOL     H216249   4.621   3.358   3.780
 3951SOL    EPW16250   4.705   3.356   3.757
 3952SOL      O16251   5.062   1.903   3.948
 3952SOL     H116252   5.136   1.947   3.991
 3952SOL     H216253   4.986   1.957   3.970
 3952SOL    EPW16254   5.062   1.915   3.956
 3953SOL      O16255   4.495   2.344   3.952
 3953SOL     H116256   4.568   2.393   3.915
 3953SOL     H216257   4.511   2.253   3.926
 3953SOL    EPW16258   4.507   2.339   3.945
 3954SOL      O16259   4.326   3.207   3.909
 3954SOL     H116260   4.341   3.183   4.001
 3954SOL     H216261   4.234   3.185   3.893
 3954SOL    EPW16262   4.316   3.200   3.919
 3955SOL      O16263   4.865   3.438   4.061
 3955SOL     H116264   4.873   3.356   4.012
 3955SOL     H216265   4.784   3.477   4.028
 3955SOL    EPW16266   4.855   3.433   4.051
 3956SOL      O16267   3.922   1.950   4.163
 3956SOL     H116268   3.993   1.971   4.102
 3956SOL     H216269   3.876   1.878   4.121
 3956SOL    EPW16270   3.926   1.944   4.149
 3957SOL      O16271   5.436   3.683   3.963
 3957SOL     H116272   5.503   3.716   3.903
 3957SOL     H216273   5.393   3.762   3.997
 3957SOL    EPW16274   5.438   3.698   3.959
 3958SOL      O16275   3.758   2.915   3.889
 3958SOL     H116276   3.727   2.980   3.952
 3958SOL     H216277   3.707   2.837   3.908
 3958SOL    EPW16278   3.748   2.912   3.899
 3959SOL      O16279   4.342   3.715   3.831
 3959SOL     H116280   4.247   3.715   3.823
 3959SOL     H216281   4.358   3.661   3.909
 3959SOL    EPW16282   4.332   3.709   3.840
 3960SOL      O16283   5.187   2.535   3.747
 3960SOL     H116284   5.115   2.511   3.689
 3960SOL     H216285   5.253   2.572   3.689
 3960SOL    EPW16286   5.186   2.537   3.732
 3961SOL      O16287   4.600   2.835   3.931
 3961SOL     H116288   4.586   2.747   3.896
 3961SOL     H216289   4.551   2.892   3.872
 3961SOL    EPW16290   4.592   2.830   3.919
 3962SOL      O16291   5.319   2.041   4.033
 3962SOL     H116292   5.312   2.045   4.128
 3962SOL     H216293   5.331   2.132   4.006
 3962SOL    EPW16294   5.320   2.054   4.041
 3963SOL      O16295   4.608   2.604   4.147
 3963SOL     H116296   4.588   2.590   4.054
 3963SOL     H216297   4.701   2.583   4.154
 3963SOL    EPW16298   4.618   2.599   4.136
 3964SOL      O16299   4.047   1.994   3.920
 3964SOL     H116300   3.976   2.049   3.888
 3964SOL     H216301   4.089   1.960   3.841
 3964SOL    EPW16302   4.043   1.996   3.906
 3965SOL      O16303   3.803   2.093   3.769
 3965SOL     H116304   3.770   2.172   3.813
 3965SOL     H216305   3.858   2.126   3.698
 3965SOL    EPW16306   3.806   2.107   3.766
 3966SOL      O16307   3.837   3.350   3.958
 3966SOL     H116308   3.854   3.434   4.000
 3966SOL     H216309   3.872   3.359   3.870
 3966SOL    EPW16310   3.842   3.363   3.952
 3967SOL      O16311   5.109   3.439   4.175
 3967SOL     H116312   5.172   3.429   4.104
 3967SOL     H216313   5.026   3.459   4.130
 3967SOL    EPW16314   5.106   3.440   4.160
 3968SOL      O16315   5.472   4.575   0.257
 3968SOL     H116316   5.513   4.517   0.322
 3968SOL     H216317   5.379   4.567   0.274
 3968SOL    EPW16318   5.466   4.567   0.267
 3969SOL      O16319   5.338   4.507   1.252
 3969SOL     H116320   5.293   4.574   1.303
 3969SOL     H216321   5.426   4.543   1.238
 3969SOL    EPW16322   5.344   4.520   1.256
 3970SOL      O16323   4.266   4.758   0.486
 3970SOL     H116324   4.356   4.733   0.470
 3970SOL     H216325   4.262   4.851   0.463
 3970SOL    EPW16326   4.278   4.767   0.481
 3971SOL      O16327   5.382   5.461   0.628
 3971SOL     H116328   5.394   5.407   0.706
 3971SOL     H216329   5.419   5.409   0.557
 3971SOL    EPW16330   5.388   5.446   0.629
 3972SOL      O16331   5.318   4.901   1.233
 3972SOL     H116332   5.239   4.866   1.191
 3972SOL     H216333   5.345   4.973   1.177
 3972SOL    EPW16334   5.311   4.906   1.220
 3973SOL      O16335   4.550   4.214   0.499
 3973SOL     H116336   4.525   4.302   0.527
 3973SOL     H216337   4.547   4.217   0.403
 3973SOL    EPW16338   4.546   4.226   0.491
 3974SOL      O16339   3.992   4.242   0.427
 3974SOL     H116340   4.024   4.330   0.409
 3974SOL     H216341   3.980   4.240   0.522
 3974SOL    EPW16342   3.995   4.254   0.439
 3975SOL      O16343   4.391   3.997   0.514
 3975SOL     H116344   4.449   4.073   0.516
 3975SOL     H216345   4.326   4.018   0.447
 3975SOL    EPW16346   4.390   4.009   0.505
 3976SOL      O16347   4.478   4.924   0.689
 3976SOL     H116348   4.558   4.927   0.741
 3976SOL     H216349   4.506   4.891   0.603
 3976SOL    EPW16350   4.492   4.920   0.684
 3977SOL      O16351   4.255   4.428   0.680
 3977SOL     H116352   4.240   4.348   0.731
 3977SOL     H216353   4.337   4.463   0.714
 3977SOL    EPW16354   4.263   4.420   0.692
 3978SOL      O16355   3.840   5.514   0.836
 3978SOL     H116356   3.929   5.506   0.871
 3978SOL     H216357   3.804   5.426   0.841
 3978SOL    EPW16358   3.847   5.501   0.841
 3979SOL      O16359   4.104   5.041   0.871
 3979SOL     H116360   4.080   5.094   0.947
 3979SOL     H216361   4.160   5.099   0.819
 3979SOL    EPW16362   4.108   5.056   0.874
 3980SOL      O16363   4.666   4.685   0.681
 3980SOL     H116364   4.580   4.672   0.721
 3980SOL     H216365   4.719   4.612   0.713
 3980SOL    EPW16366   4.662   4.674   0.690
 3981SOL      O16367   4.074   5.337   1.466
 3981SOL     H116368   3.982   5.313   1.451
 3981SOL     H216369   4.118   5.254   1.483
 3981SOL    EPW16370   4.068   5.322   1.465
 3982SOL      O16371   4.657   5.047   0.398
 3982SOL     H116372   4.634   5.109   0.466
 3982SOL     H216373   4.614   4.965   0.424
 3982SOL    EPW16374   4.649   5.043   0.409
 3983SOL      O16375   5.530   4.048   0.854
 3983SOL     H116376   5.467   4.028   0.923
 3983SOL     H216377   5.520   3.977   0.791
 3983SOL    EPW16378   5.520   4.035   0.855
 3984SOL      O16379   4.154   4.020   0.366
 3984SOL     H116380   4.128   3.982   0.282
 3984SOL     H216381   4.091   4.090   0.382
 3984SOL    EPW16382   4.143   4.023   0.357
 3985SOL      O16383   5.331   4.820   0.506
 3985SOL     H116384   5.241   4.820   0.541
 3985SOL     H216385   5.324   4.866   0.423
 3985SOL    EPW16386   5.318   4.826   0.500
 3986SOL      O16387   5.131   4.455   1.578
 3986SOL     H116388   5.200   4.393   1.555
 3986SOL     H216389   5.056   4.429   1.525
 3986SOL    EPW16390   5.131   4.442   1.569
 3987SOL      O16391   3.872   5.335   1.130
 3987SOL     H116392   3.855   5.281   1.207
 3987SOL     H216393   3.860   5.425   1.160
 3987SOL    EPW16394   3.869   5.339   1.144
 3988SOL      O16395   4.867   4.842   1.570
 3988SOL     H116396   4.852   4.935   1.555
 3988SOL     H216397   4.962   4.832   1.570
 3988SOL    EPW16398   4.876   4.852   1.567
 3989SOL      O16399   4.663   4.266   1.771
 3989SOL     H116400   4.753   4.267   1.738
 3989SOL     H216401   4.622   4.191   1.729
 3989SOL    EPW16402   4.669   4.256   1.762
 3990SOL      O16403   5.238   4.798   0.898
 3990SOL     H116404   5.241   4.732   0.829
 3990SOL     H216405   5.323   4.841   0.894
 3990SOL    EPW16406   5.250   4.794   0.889
 3991SOL      O16407   4.443   4.070   1.721
 3991SOL     H116408   4.453   3.996   1.661
 3991SOL     H216409   4.479   4.039   1.804
 3991SOL    EPW16410   4.449   4.056   1.723
 3992SOL      O16411   4.179   5.437   0.636
 3992SOL     H116412   4.211   5.525   0.614
 3992SOL     H216413   4.132   5.409   0.558
 3992SOL    EPW16414   4.178   5.445   0.623
 3993SOL      O16415   5.563   3.799   0.685
 3993SOL     H116416   5.617   3.750   0.747
 3993SOL     H216417   5.506   3.733   0.646
 3993SOL    EPW16418   5.563   3.783   0.687
 3994SOL      O16419   4.682   3.752   1.098
 3994SOL     H116420   4.641   3.830   1.060
 3994SOL     H216421   4.776   3.770   1.093
 3994SOL    EPW16422   4.688   3.764   1.093
 3995SOL      O16423   5.299   5.305   0.184
 3995SOL     H116424   5.347   5.374   0.230
 3995SOL     H216425   5.220   5.349   0.153
 3995SOL    EPW16426   5.294   5.319   0.187
 3996SOL      O16427   5.311   4.356   0.464
 3996SOL     H116428   5.350   4.356   0.551
 3996SOL     H216429   5.252   4.432   0.464
 3996SOL    EPW16430   5.308   4.367   0.475
 3997SOL      O16431   4.628   4.723   1.593
 3997SOL     H116432   4.605   4.703   1.683
 3997SOL     H216433   4.713   4.767   1.598
 3997SOL    EPW16434   4.635   4.726   1.605
 3998SOL      O16435   4.708   3.860   1.353
 3998SOL     H116436   4.714   3.822   1.266
 3998SOL     H216437   4.697   3.954   1.338
 3998SOL    EPW16438   4.709   3.868   1.341
 3999SOL      O16439   4.797   4.349   1.187
 3999SOL     H116440   4.872   4.378   1.134
 3999SOL     H216441   4.729   4.414   1.171
 3999SOL    EPW16442   4.798   4.361   1.177
 4000SOL      O16443   5.347   4.317   1.464
 4000SOL     H116444   5.328   4.226   1.443
 4000SOL     H216445   5.325   4.366   1.385
 4000SOL    EPW16446   5.342   4.310   1.451
 4001SOL      O16447   5.489   5.411   1.368
 4001SOL     H116448   5.417   5.373   1.419
 4001SOL     H216449   5.506   5.496   1.409
 4001SOL    EPW16450   5.483   5.416   1.380
 4002SOL      O16451   4.794   4.055   1.570
 4002SOL     H116452   4.760   4.094   1.489
 4002SOL     H216453   4.772   3.963   1.563
 4002SOL    EPW16454   4.787   4.048   1.560
 4003SOL      O16455   5.203   4.869   1.646
 4003SOL     H116456   5.285   4.910   1.676
 4003SOL     H216457   5.166   4.831   1.726
 4003SOL    EPW16458   5.209   4.870   1.661
 4004SOL      O16459   5.498   4.242   0.630
 4004SOL     H116460   5.587   4.211   0.647
 4004SOL     H216461   5.441   4.182   0.678
 4004SOL    EPW16462   5.501   4.230   0.639
 4005SOL      O16463   3.924   3.956   0.659
 4005SOL     H116464   3.915   3.896   0.585
 4005SOL     H216465   3.857   3.927   0.722
 4005SOL    EPW16466   3.914   3.943   0.657
 4006SOL      O16467   4.330   5.467   0.328
 4006SOL     H116468   4.251   5.425   0.361
 4006SOL     H216469   4.396   5.450   0.395
 4006SOL    EPW16470   4.329   5.459   0.341
 4007SOL      O16471   5.458   4.987   1.725
 4007SOL     H116472   5.508   4.913   1.757
 4007SOL     H216473   5.404   5.014   1.800
 4007SOL    EPW16474   5.458   4.981   1.738
 4008SOL      O16475   5.592   4.622   1.227
 4008SOL     H116476   5.608   4.660   1.140
 4008SOL     H216477   5.626   4.688   1.288
 4008SOL    EPW16478   5.599   4.635   1.223
 4009SOL      O16479   5.384   5.331   0.896
 4009SOL     H116480   5.413   5.398   0.957
 4009SOL     H216481   5.365   5.255   0.951
 4009SOL    EPW16482   5.386   5.331   0.911
 4010SOL      O16483   3.950   5.513   1.644
 4010SOL     H116484   3.924   5.581   1.582
 4010SOL     H216485   3.998   5.450   1.592
 4010SOL    EPW16486   3.952   5.513   1.630
 4011SOL      O16487   4.002   4.832   1.151
 4011SOL     H116488   4.055   4.907   1.176
 4011SOL     H216489   3.921   4.870   1.117
 4011SOL    EPW16490   3.998   4.847   1.151
 4012SOL      O16491   3.857   4.601   0.557
 4012SOL     H116492   3.948   4.616   0.584
 4012SOL     H216493   3.860   4.522   0.503
 4012SOL    EPW16494   3.869   4.593   0.555
 4013SOL      O16495   4.093   4.309   1.811
 4013SOL     H116496   4.040   4.389   1.818
 4013SOL     H216497   4.163   4.321   1.876
 4013SOL    EPW16498   4.095   4.322   1.819
 4014SOL      O16499   4.479   3.859   1.518
 4014SOL     H116500   4.456   3.767   1.520
 4014SOL     H216501   4.565   3.861   1.475
 4014SOL    EPW16502   4.486   3.849   1.514
 4015SOL      O16503   4.484   5.533   0.931
 4015SOL     H116504   4.573   5.548   0.961
 4015SOL     H216505   4.479   5.580   0.847
 4015SOL    EPW16506   4.494   5.541   0.924
 4016SOL      O16507   5.140   3.908   1.828
 4016SOL     H116508   5.196   3.835   1.854
 4016SOL     H216509   5.110   3.946   1.910
 4016SOL    EPW16510   5.144   3.903   1.841
 4017SOL      O16511   3.865   5.213   0.596
 4017SOL     H116512   3.837   5.252   0.678
 4017SOL     H216513   3.885   5.122   0.618
 4017SOL    EPW16514   3.863   5.205   0.609
 4018SOL      O16515   4.698   5.256   0.631
 4018SOL     H116516   4.781   5.210   0.615
 4018SOL     H216517   4.688   5.255   0.727
 4018SOL    EPW16518   4.708   5.249   0.641
 4019SOL      O16519   5.530   4.401   0.945
 4019SOL     H116520   5.619   4.431   0.927
 4019SOL     H216521   5.510   4.341   0.874
 4019SOL    EPW16522   5.539   4.398   0.934
 4020SOL      O16523   5.381   4.580   1.825
 4020SOL     H116524   5.436   4.504   1.806
 4020SOL     H216525   5.383   4.588   1.920
 4020SOL    EPW16526   5.389   4.571   1.833
 4021SOL      O16527   4.676   4.142   1.344
 4021SOL     H116528   4.595   4.183   1.372
 4021SOL     H216529   4.723   4.210   1.296
 4021SOL    EPW16530   4.671   4.157   1.342
 4022SOL      O16531   4.936   4.480   0.967
 4022SOL     H116532   4.949   4.574   0.977
 4022SOL     H216533   4.897   4.470   0.881
 4022SOL    EPW16534   4.932   4.491   0.957
 4023SOL      O16535   5.187   4.258   0.766
 4023SOL     H116536   5.132   4.179   0.765
 4023SOL     H216537   5.169   4.299   0.850
 4023SOL    EPW16538   5.177   4.253   0.775
 4024SOL      O16539   4.158   3.945   1.583
 4024SOL     H116540   4.079   3.963   1.635
 4024SOL     H216541   4.153   4.007   1.510
 4024SOL    EPW16542   4.148   3.955   1.580
 4025SOL      O16543   4.806   4.462   0.723
 4025SOL     H116544   4.743   4.394   0.747
 4025SOL     H216545   4.826   4.443   0.631
 4025SOL    EPW16546   4.800   4.449   0.715
 4026SOL      O16547   4.554   4.766   0.449
 4026SOL     H116548   4.556   4.740   0.356
 4026SOL     H216549   4.612   4.703   0.492
 4026SOL    EPW16550   4.562   4.755   0.443
 4027SOL      O16551   5.107   5.326   1.221
 4027SOL     H116552   5.032   5.372   1.259
 4027SOL     H216553   5.089   5.233   1.238
 4027SOL    EPW16554   5.096   5.320   1.229
 4028SOL      O16555   5.111   5.534   0.651
 4028SOL     H116556   5.054   5.487   0.590
 4028SOL     H216557   5.197   5.495   0.638
 4028SOL    EPW16558   5.114   5.525   0.641
 4029SOL      O16559   5.064   4.010   0.782
 4029SOL     H116560   5.092   3.942   0.843
 4029SOL     H216561   4.978   3.981   0.752
 4029SOL    EPW16562   5.057   3.997   0.786
 4030SOL      O16563   3.869   4.944   0.716
 4030SOL     H116564   3.933   4.976   0.779
 4030SOL     H216565   3.918   4.880   0.664
 4030SOL    EPW16566   3.884   4.940   0.717
 4031SOL      O16567   4.123   3.767   1.789
 4031SOL     H116568   4.051   3.732   1.737
 4031SOL     H216569   4.181   3.808   1.724
 4031SOL    EPW16570   4.121   3.768   1.774
 4032SOL      O16571   4.147   5.257   1.088
 4032SOL     H116572   4.192   5.319   1.145
 4032SOL     H216573   4.054   5.276   1.101
 4032SOL    EPW16574   4.140   5.267   1.095
 4033SOL      O16575   5.587   4.786   1.442
 4033SOL     H116576   5.502   4.799   1.401
 4033SOL     H216577   5.567   4.750   1.529
 4033SOL    EPW16578   5.574   4.782   1.447
 4034SOL      O16579   4.569   5.325   1.196
 4034SOL     H116580   4.593   5.314   1.105
 4034SOL     H216581   4.492   5.382   1.194
 4034SOL    EPW16582   4.561   5.330   1.185
 4035SOL      O16583   5.228   4.040   1.388
 4035SOL     H116584   5.175   4.042   1.468
 4035SOL     H216585   5.213   3.953   1.351
 4035SOL    EPW16586   5.220   4.030   1.393
 4036SOL      O16587   5.564   3.964   1.261
 4036SOL     H116588   5.545   4.031   1.196
 4036SOL     H216589   5.621   3.902   1.216
 4036SOL    EPW16590   5.568   3.965   1.247
 4037SOL      O16591   4.493   3.797   0.701
 4037SOL     H116592   4.422   3.858   0.683
 4037SOL     H216593   4.544   3.794   0.620
 4037SOL    EPW16594   4.489   3.803   0.688
 4038SOL      O16595   4.251   5.037   0.450
 4038SOL     H116596   4.244   5.069   0.540
 4038SOL     H216597   4.161   5.021   0.422
 4038SOL    EPW16598   4.239   5.039   0.457
 4039SOL      O16599   4.846   5.430   1.359
 4039SOL     H116600   4.766   5.415   1.309
 4039SOL     H216601   4.853   5.525   1.366
 4039SOL    EPW16602   4.837   5.441   1.353
 4040SOL      O16603   4.960   5.395   0.849
 4040SOL     H116604   5.007   5.468   0.808
 4040SOL     H216605   4.881   5.434   0.885
 4040SOL    EPW16606   4.955   5.410   0.848
 4041SOL      O16607   5.368   5.490   1.124
 4041SOL     H116608   5.411   5.460   1.204
 4041SOL     H216609   5.287   5.438   1.121
 4041SOL    EPW16610   5.363   5.479   1.134
 4042SOL      O16611   4.453   4.454   1.831
 4042SOL     H116612   4.523   4.396   1.803
 4042SOL     H216613   4.396   4.399   1.886
 4042SOL    EPW16614   4.455   4.441   1.835
 4043SOL      O16615   5.240   4.666   1.464
 4043SOL     H116616   5.245   4.719   1.544
 4043SOL     H216617   5.202   4.583   1.492
 4043SOL    EPW16618   5.236   4.661   1.479
 4044SOL      O16619   4.880   3.801   1.710
 4044SOL     H116620   4.875   3.708   1.691
 4044SOL     H216621   4.963   3.812   1.756
 4044SOL    EPW16622   4.888   3.790   1.714
 4045SOL      O16623   5.350   5.072   0.986
 4045SOL     H116624   5.385   5.054   0.899
 4045SOL     H216625   5.255   5.073   0.973
 4045SOL    EPW16626   5.342   5.069   0.973
 4046SOL      O16627   4.170   3.862   0.657
 4046SOL     H116628   4.220   3.905   0.588
 4046SOL     H216629   4.085   3.906   0.657
 4046SOL    EPW16630   4.167   3.875   0.648
 4047SOL      O16631   4.437   4.251   1.484
 4047SOL     H116632   4.409   4.339   1.508
 4047SOL     H216633   4.406   4.195   1.555
 4047SOL    EPW16634   4.429   4.254   1.496
 4048SOL      O16635   4.092   4.647   0.697
 4048SOL     H116636   4.150   4.703   0.645
 4048SOL     H216637   4.136   4.562   0.699
 4048SOL    EPW16638   4.105   4.644   0.690
 4049SOL      O16639   5.232   3.999   0.534
 4049SOL     H116640   5.154   3.949   0.559
 4049SOL     H216641   5.203   4.090   0.534
 4049SOL    EPW16642   5.218   4.003   0.537
 4050SOL      O16643   4.818   3.961   0.693
 4050SOL     H116644   4.838   4.036   0.637
 4050SOL     H216645   4.798   4.000   0.778
 4050SOL    EPW16646   4.819   3.977   0.697
 4051SOL      O16647   4.714   5.211   0.025
 4051SOL     H116648   4.741   5.289  -0.023
 4051SOL     H216649   4.621   5.226   0.044
 4051SOL    EPW16650   4.705   5.224   0.021
 4052SOL      O16651   5.578   4.734   1.712
 4052SOL     H116652   5.491   4.714   1.748
 4052SOL     H216653   5.632   4.660   1.737
 4052SOL    EPW16654   5.573   4.723   1.720
 4053SOL      O16655   3.799   5.247   0.869
 4053SOL     H116656   3.831   5.251   0.960
 4053SOL     H216657   3.704   5.255   0.877
 4053SOL    EPW16658   3.791   5.250   0.882
 4054SOL      O16659   3.754   4.373   0.416
 4054SOL     H116660   3.694   4.345   0.486
 4054SOL     H216661   3.828   4.313   0.422
 4054SOL    EPW16662   3.756   4.362   0.425
 4055SOL      O16663   5.322   5.585   1.850
 4055SOL     H116664   5.367   5.509   1.815
 4055SOL     H216665   5.360   5.598   1.937
 4055SOL    EPW16666   5.332   5.578   1.856
 4056SOL      O16667   4.922   5.104   0.576
 4056SOL     H116668   4.945   5.055   0.654
 4056SOL     H216669   5.003   5.146   0.548
 4056SOL    EPW16670   4.935   5.104   0.583
 4057SOL      O16671   4.180   4.112   1.305
 4057SOL     H116672   4.213   4.193   1.345
 4057SOL     H216673   4.153   4.138   1.217
 4057SOL    EPW16674   4.179   4.126   1.299
 4058SOL      O16675   4.963   4.288   1.732
 4058SOL     H116676   5.015   4.223   1.685
 4058SOL     H216677   4.921   4.339   1.662
 4058SOL    EPW16678   4.964   4.285   1.715
 4059SOL      O16679   5.062   4.083   1.593
 4059SOL     H116680   4.969   4.067   1.580
 4059SOL     H216681   5.088   4.021   1.661
 4059SOL    EPW16682   5.052   4.073   1.600
 4060SOL      O16683   4.371   5.472   1.478
 4060SOL     H116684   4.288   5.457   1.523
 4060SOL     H216685   4.430   5.405   1.513
 4060SOL    EPW16686   4.369   5.462   1.488
 4061SOL      O16687   5.428   4.179   1.103
 4061SOL     H116688   5.361   4.212   1.163
 4061SOL     H216689   5.471   4.257   1.069
 4061SOL    EPW16690   5.426   4.194   1.107
 4062SOL      O16691   5.606   4.899   1.073
 4062SOL     H116692   5.599   4.839   0.998
 4062SOL     H216693   5.532   4.959   1.062
 4062SOL    EPW16694   5.596   4.899   1.062
 4063SOL      O16695   4.988   4.761   0.991
 4063SOL     H116696   5.002   4.733   1.082
 4063SOL     H216697   5.074   4.792   0.963
 4063SOL    EPW16698   5.001   4.762   1.000
 4064SOL      O16699   5.071   4.256   1.270
 4064SOL     H116700   5.092   4.257   1.177
 4064SOL     H216701   5.116   4.178   1.303
 4064SOL    EPW16702   5.078   4.246   1.262
 4065SOL      O16703   5.564   4.387   1.812
 4065SOL     H116704   5.601   4.332   1.881
 4065SOL     H216705   5.589   4.344   1.730
 4065SOL    EPW16706   5.571   4.375   1.811
 4066SOL      O16707   5.111   4.685   1.863
 4066SOL     H116708   5.177   4.633   1.817
 4066SOL     H216709   5.131   4.672   1.956
 4066SOL    EPW16710   5.122   4.676   1.870
 4067SOL      O16711   5.122   4.546   0.490
 4067SOL     H116712   5.037   4.516   0.460
 4067SOL     H216713   5.114   4.553   0.585
 4067SOL    EPW16714   5.110   4.544   0.499
 4068SOL      O16715   4.482   3.989   1.044
 4068SOL     H116716   4.455   3.991   1.135
 4068SOL     H216717   4.412   3.941   0.999
 4068SOL    EPW16718   4.470   3.985   1.051
 4069SOL      O16719   4.336   5.481   1.206
 4069SOL     H116720   4.388   5.558   1.183
 4069SOL     H216721   4.345   5.473   1.301
 4069SOL    EPW16722   4.345   5.488   1.217
 4070SOL      O16723   5.238   5.066   1.438
 4070SOL     H116724   5.223   4.995   1.501
 4070SOL     H216725   5.284   5.024   1.366
 4070SOL    EPW16726   5.244   5.050   1.438
 4071SOL      O16727   5.303   5.329   1.539
 4071SOL     H116728   5.345   5.314   1.624
 4071SOL     H216729   5.294   5.242   1.501
 4071SOL    EPW16730   5.307   5.317   1.546
 4072SOL      O16731   4.963   3.808   1.130
 4072SOL     H116732   5.018   3.817   1.052
 4072SOL     H216733   5.018   3.842   1.201
 4072SOL    EPW16734   4.977   3.813   1.129
 4073SOL      O16735   3.970   4.721   0.314
 4073SOL     H116736   3.907   4.737   0.243
 4073SOL     H216737   3.917   4.684   0.385
 4073SOL    EPW16738   3.955   4.718   0.314
 4074SOL      O16739   4.124   5.464   0.894
 4074SOL     H116740   4.128   5.375   0.929
 4074SOL     H216741   4.150   5.455   0.803
 4074SOL    EPW16742   4.127   5.452   0.886
 4075SOL      O16743   3.830   5.217   1.388
 4075SOL     H116744   3.820   5.175   1.474
 4075SOL     H216745   3.751   5.270   1.378
 4075SOL    EPW16746   3.819   5.218   1.399
 4076SOL      O16747   4.734   4.081   0.958
 4076SOL     H116748   4.664   4.033   1.003
 4076SOL     H216749   4.766   4.144   1.022
 4076SOL    EPW16750   4.729   4.083   0.972
 4077SOL      O16751   5.190   3.795   1.303
 4077SOL     H116752   5.261   3.741   1.267
 4077SOL     H216753   5.189   3.774   1.396
 4077SOL    EPW16754   5.199   3.786   1.311
 4078SOL      O16755   5.390   5.325   1.787
 4078SOL     H116756   5.363   5.322   1.878
 4078SOL     H216757   5.486   5.329   1.790
 4078SOL    EPW16758   5.400   5.325   1.799
 4079SOL      O16759   4.517   5.280   0.847
 4079SOL     H116760   4.445   5.217   0.860
 4079SOL     H216761   4.478   5.365   0.865
 4079SOL    EPW16762   4.501   5.283   0.850
 4080SOL      O16763   4.837   4.128   0.495
 4080SOL     H116764   4.859   4.065   0.427
 4080SOL     H216765   4.742   4.120   0.506
 4080SOL    EPW16766   4.827   4.119   0.487
 4081SOL      O16767   3.922   3.818   0.427
 4081SOL     H116768   3.993   3.839   0.366
 4081SOL     H216769   3.876   3.746   0.385
 4081SOL    EPW16770   3.926   3.812   0.413
 4082SOL      O16771   5.491   5.192   0.527
 4082SOL     H116772   5.461   5.125   0.588
 4082SOL     H216773   5.585   5.198   0.541
 4082SOL    EPW16774   5.499   5.184   0.537
 4083SOL      O16775   5.047   4.869   0.457
 4083SOL     H116776   5.019   4.955   0.490
 4083SOL     H216777   5.075   4.885   0.367
 4083SOL    EPW16778   5.047   4.883   0.449
 4084SOL      O16779   4.709   3.789   0.510
 4084SOL     H116780   4.746   3.848   0.575
 4084SOL     H216781   4.686   3.845   0.436
 4084SOL    EPW16782   4.710   3.804   0.509
 4085SOL      O16783   5.562   4.671   0.932
 4085SOL     H116784   5.553   4.703   0.843
 4085SOL     H216785   5.515   4.587   0.932
 4085SOL    EPW16786   5.555   4.664   0.922
 4086SOL      O16787   5.474   4.602   0.633
 4086SOL     H116788   5.568   4.591   0.621
 4086SOL     H216789   5.450   4.674   0.574
 4086SOL    EPW16790   5.484   4.610   0.624
 4087SOL      O16791   4.130   4.480   0.406
 4087SOL     H116792   4.130   4.575   0.391
 4087SOL     H216793   4.207   4.464   0.460
 4087SOL    EPW16794   4.140   4.491   0.411
 4088SOL      O16795   4.906   4.339   1.470
 4088SOL     H116796   4.942   4.312   1.386
 4088SOL     H216797   4.819   4.373   1.449
 4088SOL    EPW16798   4.900   4.340   1.457
 4089SOL      O16799   5.436   5.551   0.227
 4089SOL     H116800   5.503   5.584   0.167
 4089SOL     H216801   5.393   5.630   0.261
 4089SOL    EPW16802   5.438   5.566   0.223
 4090SOL      O16803   4.571   4.472   1.179
 4090SOL     H116804   4.529   4.390   1.155
 4090SOL     H216805   4.572   4.471   1.275
 4090SOL    EPW16806   4.564   4.461   1.188
 4091SOL      O16807   5.242   5.605   1.578
 4091SOL     H116808   5.245   5.511   1.561
 4091SOL     H216809   5.265   5.613   1.670
 4091SOL    EPW16810   5.245   5.593   1.588
 4092SOL      O16811   4.375   3.942   1.284
 4092SOL     H116812   4.306   4.005   1.305
 4092SOL     H216813   4.402   3.906   1.369
 4092SOL    EPW16814   4.369   3.945   1.297
 4093SOL      O16815   5.170   3.795   0.901
 4093SOL     H116816   5.258   3.804   0.938
 4093SOL     H216817   5.180   3.736   0.827
 4093SOL    EPW16818   5.184   3.789   0.895
 4094SOL      O16819   5.202   4.534   0.745
 4094SOL     H116820   5.282   4.549   0.694
 4094SOL     H216821   5.195   4.439   0.751
 4094SOL    EPW16822   5.211   4.523   0.740
 4095SOL      O16823   4.652   4.460   1.442
 4095SOL     H116824   4.721   4.527   1.439
 4095SOL     H216825   4.585   4.498   1.498
 4095SOL    EPW16826   4.653   4.473   1.449
 4096SOL      O16827   4.321   5.135   0.691
 4096SOL     H116828   4.386   5.068   0.712
 4096SOL     H216829   4.373   5.212   0.668
 4096SOL    EPW16830   4.336   5.137   0.690
 4097SOL      O16831   4.582   4.300   0.821
 4097SOL     H116832   4.522   4.318   0.893
 4097SOL     H216833   4.616   4.212   0.840
 4097SOL    EPW16834   4.578   4.290   0.834
 4098SOL      O16835   5.523   3.799   1.490
 4098SOL     H116836   5.444   3.845   1.518
 4098SOL     H216837   5.558   3.853   1.419
 4098SOL    EPW16838   5.517   3.812   1.484
 4099SOL      O16839   4.807   4.883   0.840
 4099SOL     H116840   4.899   4.864   0.858
 4099SOL     H216841   4.780   4.813   0.780
 4099SOL    EPW16842   4.815   4.871   0.834
 4100SOL      O16843   5.081   5.121   0.936
 4100SOL     H116844   5.054   5.205   0.901
 4100SOL     H216845   5.041   5.116   1.023
 4100SOL    EPW16846   5.074   5.130   0.942
 4101SOL      O16847   4.608   4.472   0.411
 4101SOL     H116848   4.588   4.458   0.318
 4101SOL     H216849   4.701   4.451   0.418
 4101SOL    EPW16850   4.618   4.467   0.400
 4102SOL      O16851   3.935   4.095   1.715
 4102SOL     H116852   3.892   4.154   1.652
 4102SOL     H216853   4.003   4.150   1.755
 4102SOL    EPW16854   3.939   4.110   1.712
 4103SOL      O16855   5.047   4.715   1.260
 4103SOL     H116856   5.110   4.712   1.333
 4103SOL     H216857   4.963   4.733   1.302
 4103SOL    EPW16858   5.043   4.717   1.275
 4104SOL      O16859   4.591   5.430   0.449
 4104SOL     H116860   4.649   5.501   0.476
 4104SOL     H216861   4.614   5.358   0.507
 4104SOL    EPW16862   4.602   5.430   0.460
 4105SOL      O16863   5.386   3.892   1.039
 4105SOL     H116864   5.431   3.810   1.058
 4105SOL     H216865   5.406   3.948   1.115
 4105SOL    EPW16866   5.396   3.888   1.051
 4106SOL      O16867   5.471   4.928   0.758
 4106SOL     H116868   5.450   4.874   0.681
 4106SOL     H216869   5.567   4.926   0.762
 4106SOL    EPW16870   5.480   4.921   0.747
 4107SOL      O16871   4.047   3.862   0.184
 4107SOL     H116872   3.976   3.917   0.152
 4107SOL     H216873   4.089   3.828   0.105
 4107SOL    EPW16874   4.043   3.864   0.170
 4108SOL      O16875   5.171   4.359   1.020
 4108SOL     H116876   5.094   4.405   0.986
 4108SOL     H216877   5.228   4.428   1.054
 4108SOL    EPW16878   5.168   4.374   1.020
 4109SOL      O16879   5.472   4.575   2.125
 4109SOL     H116880   5.513   4.517   2.190
 4109SOL     H216881   5.379   4.567   2.142
 4109SOL    EPW16882   5.466   4.567   2.135
 4110SOL      O16883   5.338   4.507   3.120
 4110SOL     H116884   5.293   4.574   3.171
 4110SOL     H216885   5.426   4.543   3.106
 4110SOL    EPW16886   5.344   4.520   3.124
 4111SOL      O16887   5.382   5.461   2.496
 4111SOL     H116888   5.394   5.407   2.574
 4111SOL     H216889   5.419   5.409   2.425
 4111SOL    EPW16890   5.388   5.446   2.497
 4112SOL      O16891   4.761   5.346   3.497
 4112SOL     H116892   4.802   5.382   3.418
 4112SOL     H216893   4.796   5.257   3.504
 4112SOL    EPW16894   4.772   5.339   3.488
 4113SOL      O16895   5.318   4.901   3.101
 4113SOL     H116896   5.239   4.866   3.059
 4113SOL     H216897   5.345   4.973   3.045
 4113SOL    EPW16898   5.311   4.906   3.088
 4114SOL      O16899   4.070   4.655   3.196
 4114SOL     H116900   4.133   4.602   3.147
 4114SOL     H216901   4.051   4.729   3.139
 4114SOL    EPW16902   4.076   4.657   3.183
 4115SOL      O16903   4.478   4.924   2.557
 4115SOL     H116904   4.558   4.927   2.609
 4115SOL     H216905   4.506   4.891   2.471
 4115SOL    EPW16906   4.492   4.920   2.552
 4116SOL      O16907   4.503   5.265   3.460
 4116SOL     H116908   4.587   5.291   3.499
 4116SOL     H216909   4.527   5.209   3.386
 4116SOL    EPW16910   4.517   5.261   3.455
 4117SOL      O16911   4.592   5.114   3.233
 4117SOL     H116912   4.556   5.180   3.173
 4117SOL     H216913   4.520   5.052   3.246
 4117SOL    EPW16914   4.578   5.114   3.227
 4118SOL      O16915   3.840   5.514   2.704
 4118SOL     H116916   3.929   5.506   2.739
 4118SOL     H216917   3.804   5.426   2.709
 4118SOL    EPW16918   3.847   5.501   2.709
 4119SOL      O16919   4.104   5.041   2.739
 4119SOL     H116920   4.080   5.094   2.815
 4119SOL     H216921   4.160   5.099   2.687
 4119SOL    EPW16922   4.108   5.056   2.742
 4120SOL      O16923   4.074   5.337   3.334
 4120SOL     H116924   3.982   5.313   3.319
 4120SOL     H216925   4.118   5.254   3.351
 4120SOL    EPW16926   4.068   5.322   3.333
 4121SOL      O16927   4.154   4.020   2.234
 4121SOL     H116928   4.128   3.982   2.150
 4121SOL     H216929   4.091   4.090   2.250
 4121SOL    EPW16930   4.143   4.023   2.225
 4122SOL      O16931   4.651   5.444   2.049
 4122SOL     H116932   4.606   5.460   2.132
 4122SOL     H216933   4.582   5.409   1.991
 4122SOL    EPW16934   4.637   5.441   2.051
 4123SOL      O16935   5.586   4.217   2.024
 4123SOL     H116936   5.495   4.219   2.052
 4123SOL     H216937   5.631   4.279   2.082
 4123SOL    EPW16938   5.579   4.225   2.034
 4124SOL      O16939   5.331   4.820   2.374
 4124SOL     H116940   5.241   4.820   2.409
 4124SOL     H216941   5.324   4.866   2.291
 4124SOL    EPW16942   5.318   4.826   2.368
 4125SOL      O16943   5.131   4.455   3.446
 4125SOL     H116944   5.200   4.393   3.423
 4125SOL     H216945   5.056   4.429   3.393
 4125SOL    EPW16946   5.131   4.442   3.437
 4126SOL      O16947   3.872   5.335   2.998
 4126SOL     H116948   3.855   5.281   3.075
 4126SOL     H216949   3.860   5.425   3.028
 4126SOL    EPW16950   3.869   5.339   3.012
 4127SOL      O16951   4.867   4.842   3.438
 4127SOL     H116952   4.852   4.935   3.423
 4127SOL     H216953   4.962   4.832   3.438
 4127SOL    EPW16954   4.876   4.852   3.435
 4128SOL      O16955   4.663   4.266   3.639
 4128SOL     H116956   4.753   4.267   3.606
 4128SOL     H216957   4.622   4.191   3.597
 4128SOL    EPW16958   4.669   4.256   3.630
 4129SOL      O16959   5.523   5.021   2.186
 4129SOL     H116960   5.479   5.062   2.261
 4129SOL     H216961   5.580   5.089   2.151
 4129SOL    EPW16962   5.525   5.035   2.191
 4130SOL      O16963   4.443   4.070   3.589
 4130SOL     H116964   4.453   3.996   3.529
 4130SOL     H216965   4.479   4.039   3.672
 4130SOL    EPW16966   4.449   4.056   3.591
 4131SOL      O16967   4.179   5.437   2.504
 4131SOL     H116968   4.211   5.525   2.482
 4131SOL     H216969   4.132   5.409   2.426
 4131SOL    EPW16970   4.178   5.445   2.491
 4132SOL      O16971   3.895   5.497   2.081
 4132SOL     H116972   3.924   5.587   2.073
 4132SOL     H216973   3.845   5.480   2.002
 4132SOL    EPW16974   3.893   5.505   2.070
 4133SOL      O16975   4.682   3.752   2.966
 4133SOL     H116976   4.641   3.830   2.928
 4133SOL     H216977   4.776   3.770   2.961
 4133SOL    EPW16978   4.688   3.764   2.961
 4134SOL      O16979   5.299   5.305   2.052
 4134SOL     H116980   5.347   5.374   2.098
 4134SOL     H216981   5.220   5.349   2.021
 4134SOL    EPW16982   5.294   5.319   2.055
 4135SOL      O16983   4.628   4.723   3.461
 4135SOL     H116984   4.605   4.703   3.551
 4135SOL     H216985   4.713   4.767   3.466
 4135SOL    EPW16986   4.635   4.726   3.473
 4136SOL      O16987   4.708   3.860   3.221
 4136SOL     H116988   4.714   3.822   3.134
 4136SOL     H216989   4.697   3.954   3.206
 4136SOL    EPW16990   4.709   3.868   3.209
 4137SOL      O16991   4.797   4.349   3.055
 4137SOL     H116992   4.872   4.378   3.002
 4137SOL     H216993   4.729   4.414   3.039
 4137SOL    EPW16994   4.798   4.361   3.045
 4138SOL      O16995   5.347   4.317   3.332
 4138SOL     H116996   5.328   4.226   3.311
 4138SOL     H216997   5.325   4.366   3.253
 4138SOL    EPW16998   5.342   4.310   3.319
 4139SOL      O16999   5.489   5.411   3.236
 4139SOL     H117000   5.417   5.373   3.287
 4139SOL     H217001   5.506   5.496   3.277
 4139SOL    EPW17002   5.483   5.416   3.248
 4140SOL      O17003   4.794   4.055   3.438
 4140SOL     H117004   4.760   4.094   3.357
 4140SOL     H217005   4.772   3.963   3.431
 4140SOL    EPW17006   4.787   4.048   3.428
 4141SOL      O17007   5.203   4.869   3.514
 4141SOL     H117008   5.285   4.910   3.544
 4141SOL     H217009   5.166   4.831   3.594
 4141SOL    EPW17010   5.209   4.870   3.529
 4142SOL      O17011   3.924   3.956   2.527
 4142SOL     H117012   3.915   3.896   2.453
 4142SOL     H217013   3.857   3.927   2.590
 4142SOL    EPW17014   3.914   3.943   2.525
 4143SOL      O17015   4.330   5.467   2.196
 4143SOL     H117016   4.251   5.425   2.229
 4143SOL     H217017   4.396   5.450   2.263
 4143SOL    EPW17018   4.329   5.459   2.209
 4144SOL      O17019   5.458   4.987   3.593
 4144SOL     H117020   5.508   4.913   3.625
 4144SOL     H217021   5.404   5.014   3.668
 4144SOL    EPW17022   5.458   4.981   3.606
 4145SOL      O17023   5.592   4.622   3.095
 4145SOL     H117024   5.608   4.660   3.008
 4145SOL     H217025   5.626   4.688   3.156
 4145SOL    EPW17026   5.599   4.635   3.091
 4146SOL      O17027   5.384   5.331   2.764
 4146SOL     H117028   5.413   5.398   2.825
 4146SOL     H217029   5.365   5.255   2.819
 4146SOL    EPW17030   5.386   5.331   2.779
 4147SOL      O17031   3.855   4.404   3.060
 4147SOL     H117032   3.917   4.434   3.126
 4147SOL     H217033   3.789   4.473   3.054
 4147SOL    EPW17034   3.854   4.417   3.067
 4148SOL      O17035   5.271   5.072   1.913
 4148SOL     H117036   5.218   5.121   1.849
 4148SOL     H217037   5.302   5.138   1.974
 4148SOL    EPW17038   5.269   5.086   1.911
 4149SOL      O17039   4.496   3.961   1.968
 4149SOL     H117040   4.444   3.881   1.956
 4149SOL     H217041   4.583   3.938   1.936
 4149SOL    EPW17042   4.499   3.947   1.962
 4150SOL      O17043   3.950   5.513   3.512
 4150SOL     H117044   3.924   5.581   3.450
 4150SOL     H217045   3.998   5.450   3.460
 4150SOL    EPW17046   3.952   5.513   3.498
 4151SOL      O17047   4.002   4.832   3.019
 4151SOL     H117048   4.055   4.907   3.044
 4151SOL     H217049   3.921   4.870   2.985
 4151SOL    EPW17050   3.998   4.847   3.019
 4152SOL      O17051   4.542   4.736   3.007
 4152SOL     H117052   4.570   4.645   3.019
 4152SOL     H217053   4.471   4.730   2.943
 4152SOL    EPW17054   4.535   4.724   3.002
 4153SOL      O17055   3.857   4.601   2.425
 4153SOL     H117056   3.948   4.616   2.452
 4153SOL     H217057   3.860   4.522   2.371
 4153SOL    EPW17058   3.869   4.593   2.423
 4154SOL      O17059   4.093   4.309   3.679
 4154SOL     H117060   4.040   4.389   3.686
 4154SOL     H217061   4.163   4.321   3.744
 4154SOL    EPW17062   4.095   4.322   3.687
 4155SOL      O17063   4.479   3.859   3.386
 4155SOL     H117064   4.456   3.767   3.388
 4155SOL     H217065   4.565   3.861   3.343
 4155SOL    EPW17066   4.486   3.849   3.382
 4156SOL      O17067   4.163   4.383   3.425
 4156SOL     H117068   4.243   4.433   3.411
 4156SOL     H217069   4.154   4.377   3.520
 4156SOL    EPW17070   4.172   4.389   3.435
 4157SOL      O17071   4.484   5.533   2.799
 4157SOL     H117072   4.573   5.548   2.829
 4157SOL     H217073   4.479   5.580   2.715
 4157SOL    EPW17074   4.494   5.541   2.792
 4158SOL      O17075   5.140   3.908   3.696
 4158SOL     H117076   5.196   3.835   3.722
 4158SOL     H217077   5.110   3.946   3.778
 4158SOL    EPW17078   5.144   3.903   3.709
 4159SOL      O17079   5.530   4.401   2.813
 4159SOL     H117080   5.619   4.431   2.795
 4159SOL     H217081   5.510   4.341   2.742
 4159SOL    EPW17082   5.539   4.398   2.802
 4160SOL      O17083   5.381   4.580   3.693
 4160SOL     H117084   5.436   4.504   3.674
 4160SOL     H217085   5.383   4.588   3.788
 4160SOL    EPW17086   5.389   4.571   3.701
 4161SOL      O17087   4.431   5.313   1.904
 4161SOL     H117088   4.371   5.382   1.874
 4161SOL     H217089   4.376   5.255   1.957
 4161SOL    EPW17090   4.415   5.315   1.906
 4162SOL      O17091   4.676   4.142   3.212
 4162SOL     H117092   4.595   4.183   3.240
 4162SOL     H217093   4.723   4.210   3.164
 4162SOL    EPW17094   4.671   4.157   3.210
 4163SOL      O17095   4.158   3.945   3.451
 4163SOL     H117096   4.079   3.963   3.503
 4163SOL     H217097   4.153   4.007   3.378
 4163SOL    EPW17098   4.148   3.955   3.448
 4164SOL      O17099   4.062   5.357   2.293
 4164SOL     H117100   4.023   5.404   2.219
 4164SOL     H217101   3.996   5.292   2.318
 4164SOL    EPW17102   4.049   5.355   2.287
 4165SOL      O17103   5.107   5.326   3.089
 4165SOL     H117104   5.032   5.372   3.127
 4165SOL     H217105   5.089   5.233   3.106
 4165SOL    EPW17106   5.096   5.320   3.097
 4166SOL      O17107   5.111   5.534   2.519
 4166SOL     H117108   5.054   5.487   2.458
 4166SOL     H217109   5.197   5.495   2.506
 4166SOL    EPW17110   5.114   5.525   2.509
 4167SOL      O17111   4.369   5.020   3.566
 4167SOL     H117112   4.417   5.103   3.553
 4167SOL     H217113   4.426   4.968   3.622
 4167SOL    EPW17114   4.383   5.024   3.572
 4168SOL      O17115   3.945   5.262   3.706
 4168SOL     H117116   4.001   5.186   3.721
 4168SOL     H217117   3.894   5.240   3.628
 4168SOL    EPW17118   3.945   5.249   3.697
 4169SOL      O17119   5.044   4.114   1.985
 4169SOL     H117120   5.017   4.180   1.921
 4169SOL     H217121   5.114   4.157   2.035
 4169SOL    EPW17122   5.049   4.127   1.982
 4170SOL      O17123   4.712   3.819   1.922
 4170SOL     H117124   4.768   3.811   1.844
 4170SOL     H217125   4.689   3.729   1.944
 4170SOL    EPW17126   4.717   3.806   1.915
 4171SOL      O17127   5.217   4.670   2.127
 4171SOL     H117128   5.184   4.759   2.117
 4171SOL     H217129   5.182   4.641   2.212
 4171SOL    EPW17130   5.207   4.679   2.138
 4172SOL      O17131   4.830   5.099   3.315
 4172SOL     H117132   4.741   5.105   3.283
 4172SOL     H217133   4.874   5.178   3.283
 4172SOL    EPW17134   4.825   5.109   3.307
 4173SOL      O17135   4.123   3.767   3.657
 4173SOL     H117136   4.051   3.732   3.605
 4173SOL     H217137   4.181   3.808   3.592
 4173SOL    EPW17138   4.121   3.768   3.642
 4174SOL      O17139   4.147   5.257   2.956
 4174SOL     H117140   4.192   5.319   3.013
 4174SOL     H217141   4.054   5.276   2.969
 4174SOL    EPW17142   4.140   5.267   2.963
 4175SOL      O17143   5.587   4.786   3.310
 4175SOL     H117144   5.502   4.799   3.269
 4175SOL     H217145   5.567   4.750   3.397
 4175SOL    EPW17146   5.574   4.782   3.315
 4176SOL      O17147   4.569   5.325   3.064
 4176SOL     H117148   4.593   5.314   2.973
 4176SOL     H217149   4.492   5.382   3.062
 4176SOL    EPW17150   4.561   5.330   3.053
 4177SOL      O17151   4.364   5.030   2.854
 4177SOL     H117152   4.357   5.009   2.948
 4177SOL     H217153   4.282   4.998   2.817
 4177SOL    EPW17154   4.352   5.024   2.861
 4178SOL      O17155   5.564   3.964   3.129
 4178SOL     H117156   5.545   4.031   3.064
 4178SOL     H217157   5.621   3.902   3.084
 4178SOL    EPW17158   5.568   3.965   3.115
 4179SOL      O17159   3.810   5.122   3.517
 4179SOL     H117160   3.854   5.055   3.463
 4179SOL     H217161   3.725   5.084   3.537
 4179SOL    EPW17162   3.805   5.108   3.513
 4180SOL      O17163   4.251   5.037   2.318
 4180SOL     H117164   4.244   5.069   2.408
 4180SOL     H217165   4.161   5.021   2.290
 4180SOL    EPW17166   4.239   5.039   2.325
 4181SOL      O17167   4.846   5.430   3.227
 4181SOL     H117168   4.766   5.415   3.177
 4181SOL     H217169   4.853   5.525   3.234
 4181SOL    EPW17170   4.837   5.441   3.221
 4182SOL      O17171   4.960   5.395   2.717
 4182SOL     H117172   5.007   5.468   2.676
 4182SOL     H217173   4.881   5.434   2.753
 4182SOL    EPW17174   4.955   5.410   2.716
 4183SOL      O17175   5.368   5.490   2.992
 4183SOL     H117176   5.411   5.460   3.072
 4183SOL     H217177   5.287   5.438   2.989
 4183SOL    EPW17178   5.363   5.479   3.002
 4184SOL      O17179   4.453   4.454   3.699
 4184SOL     H117180   4.523   4.396   3.671
 4184SOL     H217181   4.396   4.399   3.754
 4184SOL    EPW17182   4.455   4.441   3.703
 4185SOL      O17183   5.240   4.666   3.332
 4185SOL     H117184   5.245   4.719   3.412
 4185SOL     H217185   5.202   4.583   3.360
 4185SOL    EPW17186   5.236   4.661   3.347
 4186SOL      O17187   4.880   3.801   3.578
 4186SOL     H117188   4.875   3.708   3.559
 4186SOL     H217189   4.963   3.812   3.624
 4186SOL    EPW17190   4.888   3.790   3.582
 4187SOL      O17191   5.350   5.072   2.854
 4187SOL     H117192   5.385   5.054   2.767
 4187SOL     H217193   5.255   5.073   2.841
 4187SOL    EPW17194   5.342   5.069   2.841
 4188SOL      O17195   4.779   4.720   3.223
 4188SOL     H117196   4.822   4.755   3.301
 4188SOL     H217197   4.762   4.797   3.169
 4188SOL    EPW17198   4.782   4.735   3.226
 4189SOL      O17199   5.310   4.207   2.096
 4189SOL     H117200   5.302   4.278   2.033
 4189SOL     H217201   5.328   4.251   2.179
 4189SOL    EPW17202   5.311   4.221   2.098
 4190SOL      O17203   3.929   4.924   3.385
 4190SOL     H117204   3.957   4.877   3.463
 4190SOL     H217205   3.850   4.879   3.356
 4190SOL    EPW17206   3.922   4.913   3.391
 4191SOL      O17207   4.437   4.251   3.352
 4191SOL     H117208   4.409   4.339   3.376
 4191SOL     H217209   4.406   4.195   3.423
 4191SOL    EPW17210   4.429   4.254   3.364
 4192SOL      O17211   5.578   4.734   3.580
 4192SOL     H117212   5.491   4.714   3.616
 4192SOL     H217213   5.632   4.660   3.605
 4192SOL    EPW17214   5.573   4.723   3.588
 4193SOL      O17215   3.799   5.247   2.737
 4193SOL     H117216   3.831   5.251   2.828
 4193SOL     H217217   3.704   5.255   2.745
 4193SOL    EPW17218   3.791   5.250   2.750
 4194SOL      O17219   3.754   4.373   2.284
 4194SOL     H117220   3.694   4.345   2.354
 4194SOL     H217221   3.828   4.313   2.290
 4194SOL    EPW17222   3.756   4.362   2.293
 4195SOL      O17223   5.322   5.585   3.718
 4195SOL     H117224   5.367   5.509   3.683
 4195SOL     H217225   5.360   5.598   3.805
 4195SOL    EPW17226   5.332   5.578   3.724
 4196SOL      O17227   4.180   4.112   3.173
 4196SOL     H117228   4.213   4.193   3.213
 4196SOL     H217229   4.153   4.138   3.085
 4196SOL    EPW17230   4.179   4.126   3.167
 4197SOL      O17231   4.963   4.288   3.600
 4197SOL     H117232   5.015   4.223   3.553
 4197SOL     H217233   4.921   4.339   3.530
 4197SOL    EPW17234   4.964   4.285   3.583
 4198SOL      O17235   5.062   4.083   3.461
 4198SOL     H117236   4.969   4.067   3.448
 4198SOL     H217237   5.088   4.021   3.529
 4198SOL    EPW17238   5.052   4.073   3.468
 4199SOL      O17239   4.371   5.472   3.346
 4199SOL     H117240   4.288   5.457   3.391
 4199SOL     H217241   4.430   5.405   3.381
 4199SOL    EPW17242   4.369   5.462   3.356
 4200SOL      O17243   5.606   4.899   2.941
 4200SOL     H117244   5.599   4.839   2.866
 4200SOL     H217245   5.532   4.959   2.930
 4200SOL    EPW17246   5.596   4.899   2.930
 4201SOL      O17247   5.071   4.256   3.138
 4201SOL     H117248   5.092   4.257   3.045
 4201SOL     H217249   5.116   4.178   3.171
 4201SOL    EPW17250   5.078   4.246   3.130
 4202SOL      O17251   5.564   4.387   3.680
 4202SOL     H117252   5.601   4.332   3.749
 4202SOL     H217253   5.589   4.344   3.598
 4202SOL    EPW17254   5.571   4.375   3.679
 4203SOL      O17255   5.111   4.685   3.731
 4203SOL     H117256   5.177   4.633   3.685
 4203SOL     H217257   5.131   4.672   3.824
 4203SOL    EPW17258   5.122   4.676   3.738
 4204SOL      O17259   4.198   5.009   3.089
 4204SOL     H117260   4.210   5.036   3.180
 4204SOL     H217261   4.179   5.090   3.042
 4204SOL    EPW17262   4.197   5.024   3.094
 4205SOL      O17263   4.482   3.989   2.912
 4205SOL     H117264   4.455   3.991   3.003
 4205SOL     H217265   4.412   3.941   2.867
 4205SOL    EPW17266   4.470   3.985   2.919
 4206SOL      O17267   4.336   5.481   3.074
 4206SOL     H117268   4.388   5.558   3.051
 4206SOL     H217269   4.345   5.473   3.169
 4206SOL    EPW17270   4.345   5.488   3.085
 4207SOL      O17271   5.238   5.066   3.306
 4207SOL     H117272   5.223   4.995   3.369
 4207SOL     H217273   5.284   5.024   3.234
 4207SOL    EPW17274   5.244   5.050   3.306
 4208SOL      O17275   4.312   4.797   3.423
 4208SOL     H117276   4.349   4.802   3.335
 4208SOL     H217277   4.351   4.870   3.470
 4208SOL    EPW17278   4.322   4.807   3.418
 4209SOL      O17279   4.492   4.840   3.235
 4209SOL     H117280   4.551   4.786   3.288
 4209SOL     H217281   4.507   4.812   3.145
 4209SOL    EPW17282   4.502   4.829   3.231
 4210SOL      O17283   5.303   5.329   3.407
 4210SOL     H117284   5.345   5.314   3.492
 4210SOL     H217285   5.294   5.242   3.369
 4210SOL    EPW17286   5.307   5.317   3.414
 4211SOL      O17287   4.963   3.808   2.998
 4211SOL     H117288   5.018   3.817   2.920
 4211SOL     H217289   5.018   3.842   3.069
 4211SOL    EPW17290   4.977   3.813   2.997
 4212SOL      O17291   4.124   5.464   2.762
 4212SOL     H117292   4.128   5.375   2.797
 4212SOL     H217293   4.150   5.455   2.671
 4212SOL    EPW17294   4.127   5.452   2.754
 4213SOL      O17295   4.741   4.942   3.005
 4213SOL     H117296   4.673   4.876   3.021
 4213SOL     H217297   4.759   4.936   2.912
 4213SOL    EPW17298   4.734   4.933   2.996
 4214SOL      O17299   3.830   5.217   3.256
 4214SOL     H117300   3.820   5.175   3.342
 4214SOL     H217301   3.751   5.270   3.246
 4214SOL    EPW17302   3.819   5.218   3.267
 4215SOL      O17303   4.734   4.081   2.826
 4215SOL     H117304   4.664   4.033   2.871
 4215SOL     H217305   4.766   4.144   2.890
 4215SOL    EPW17306   4.729   4.083   2.840
 4216SOL      O17307   4.385   4.517   3.446
 4216SOL     H117308   4.378   4.612   3.434
 4216SOL     H217309   4.394   4.506   3.541
 4216SOL    EPW17310   4.386   4.529   3.456
 4217SOL      O17311   4.106   5.032   3.704
 4217SOL     H117312   4.178   5.034   3.641
 4217SOL     H217313   4.076   4.941   3.703
 4217SOL    EPW17314   4.111   5.021   3.696
 4218SOL      O17315   5.390   5.325   3.655
 4218SOL     H117316   5.363   5.322   3.746
 4218SOL     H217317   5.486   5.329   3.658
 4218SOL    EPW17318   5.400   5.325   3.667
 4219SOL      O17319   3.756   5.522   3.711
 4219SOL     H117320   3.806   5.500   3.633
 4219SOL     H217321   3.764   5.617   3.719
 4219SOL    EPW17322   3.764   5.531   3.702
 4220SOL      O17323   4.517   5.280   2.715
 4220SOL     H117324   4.445   5.217   2.728
 4220SOL     H217325   4.478   5.365   2.733
 4220SOL    EPW17326   4.501   5.283   2.718
 4221SOL      O17327   3.922   3.818   2.295
 4221SOL     H117328   3.993   3.839   2.234
 4221SOL     H217329   3.876   3.746   2.253
 4221SOL    EPW17330   3.926   3.812   2.281
 4222SOL      O17331   3.753   4.285   3.438
 4222SOL     H117332   3.817   4.351   3.413
 4222SOL     H217333   3.672   4.312   3.395
 4222SOL    EPW17334   3.751   4.297   3.430
 4223SOL      O17335   5.491   5.192   2.395
 4223SOL     H117336   5.461   5.125   2.456
 4223SOL     H217337   5.585   5.198   2.409
 4223SOL    EPW17338   5.499   5.184   2.405
 4224SOL      O17339   3.938   4.511   3.379
 4224SOL     H117340   3.959   4.580   3.317
 4224SOL     H217341   4.018   4.458   3.384
 4224SOL    EPW17342   3.951   4.512   3.373
 4225SOL      O17343   3.923   4.526   3.646
 4225SOL     H117344   3.849   4.470   3.672
 4225SOL     H217345   3.918   4.529   3.551
 4225SOL    EPW17346   3.912   4.519   3.636
 4226SOL      O17347   4.089   3.813   3.096
 4226SOL     H117348   4.132   3.897   3.116
 4226SOL     H217349   4.162   3.751   3.089
 4226SOL    EPW17350   4.104   3.816   3.097
 4227SOL      O17351   4.906   4.339   3.338
 4227SOL     H117352   4.942   4.312   3.254
 4227SOL     H217353   4.819   4.373   3.317
 4227SOL    EPW17354   4.900   4.340   3.325
 4228SOL      O17355   5.436   5.551   2.095
 4228SOL     H117356   5.503   5.584   2.035
 4228SOL     H217357   5.393   5.630   2.129
 4228SOL    EPW17358   5.438   5.566   2.091
 4229SOL      O17359   4.571   4.472   3.047
 4229SOL     H117360   4.529   4.390   3.023
 4229SOL     H217361   4.572   4.471   3.143
 4229SOL    EPW17362   4.564   4.461   3.056
 4230SOL      O17363   5.242   5.605   3.446
 4230SOL     H117364   5.245   5.511   3.429
 4230SOL     H217365   5.265   5.613   3.538
 4230SOL    EPW17366   5.245   5.593   3.456
 4231SOL      O17367   4.375   3.942   3.152
 4231SOL     H117368   4.306   4.005   3.173
 4231SOL     H217369   4.402   3.906   3.237
 4231SOL    EPW17370   4.369   3.945   3.165
 4232SOL      O17371   4.342   5.583   1.963
 4232SOL     H117372   4.247   5.583   1.955
 4232SOL     H217373   4.358   5.529   2.041
 4232SOL    EPW17374   4.332   5.577   1.972
 4233SOL      O17375   4.652   4.460   3.310
 4233SOL     H117376   4.721   4.527   3.307
 4233SOL     H217377   4.585   4.498   3.366
 4233SOL    EPW17378   4.653   4.473   3.317
 4234SOL      O17379   4.070   4.760   3.558
 4234SOL     H117380   4.024   4.676   3.560
 4234SOL     H217381   4.127   4.754   3.482
 4234SOL    EPW17382   4.072   4.748   3.550
 4235SOL      O17383   5.187   4.403   1.879
 4235SOL     H117384   5.115   4.379   1.821
 4235SOL     H217385   5.253   4.440   1.821
 4235SOL    EPW17386   5.186   4.405   1.864
 4236SOL      O17387   4.321   5.135   2.559
 4236SOL     H117388   4.386   5.068   2.580
 4236SOL     H217389   4.373   5.212   2.536
 4236SOL    EPW17390   4.336   5.137   2.558
 4237SOL      O17391   4.582   4.300   2.689
 4237SOL     H117392   4.522   4.318   2.761
 4237SOL     H217393   4.616   4.212   2.708
 4237SOL    EPW17394   4.578   4.290   2.702
 4238SOL      O17395   5.523   3.799   3.358
 4238SOL     H117396   5.444   3.845   3.386
 4238SOL     H217397   5.558   3.853   3.287
 4238SOL    EPW17398   5.517   3.812   3.352
 4239SOL      O17399   5.081   5.121   2.804
 4239SOL     H117400   5.054   5.205   2.769
 4239SOL     H217401   5.041   5.116   2.891
 4239SOL    EPW17402   5.074   5.130   2.810
 4240SOL      O17403   5.000   5.069   3.072
 4240SOL     H117404   5.011   5.036   3.161
 4240SOL     H217405   4.919   5.028   3.041
 4240SOL    EPW17406   4.990   5.061   3.078
 4241SOL      O17407   5.080   5.191   3.604
 4241SOL     H117408   5.080   5.285   3.620
 4241SOL     H217409   5.125   5.181   3.520
 4241SOL    EPW17410   5.086   5.201   3.595
 4242SOL      O17411   3.935   4.095   3.583
 4242SOL     H117412   3.892   4.154   3.520
 4242SOL     H217413   4.003   4.150   3.623
 4242SOL    EPW17414   3.939   4.110   3.580
 4243SOL      O17415   5.047   4.715   3.128
 4243SOL     H117416   5.110   4.712   3.201
 4243SOL     H217417   4.963   4.733   3.170
 4243SOL    EPW17418   5.043   4.717   3.143
 4244SOL      O17419   4.591   5.430   2.317
 4244SOL     H117420   4.649   5.501   2.344
 4244SOL     H217421   4.614   5.358   2.375
 4244SOL    EPW17422   4.602   5.430   2.328
 4245SOL      O17423   3.834   3.735   3.006
 4245SOL     H117424   3.825   3.736   2.911
 4245SOL     H217425   3.928   3.747   3.021
 4245SOL    EPW17426   3.846   3.738   2.997
 4246SOL      O17427   5.471   4.928   2.626
 4246SOL     H117428   5.450   4.874   2.549
 4246SOL     H217429   5.567   4.926   2.630
 4246SOL    EPW17430   5.480   4.921   2.615
 4247SOL      O17431   4.163   5.073   3.369
 4247SOL     H117432   4.084   5.023   3.392
 4247SOL     H217433   4.233   5.032   3.419
 4247SOL    EPW17434   4.161   5.061   3.379
 4248SOL      O17435   4.047   3.862   2.052
 4248SOL     H117436   3.976   3.917   2.020
 4248SOL     H217437   4.089   3.828   1.973
 4248SOL    EPW17438   4.043   3.864   2.038
 4249SOL      O17439   3.803   3.961   1.901
 4249SOL     H117440   3.770   4.040   1.945
 4249SOL     H217441   3.858   3.994   1.830
 4249SOL    EPW17442   3.806   3.975   1.898
 4250SOL      O17443   5.109   5.307   2.307
 4250SOL     H117444   5.172   5.297   2.236
 4250SOL     H217445   5.026   5.327   2.262
 4250SOL    EPW17446   5.106   5.308   2.292
 4251SOL      O17447   5.105   4.906   3.941
 4251SOL     H117448   5.023   4.942   3.907
 4251SOL     H217449   5.173   4.949   3.890
 4251SOL    EPW17450   5.103   4.916   3.929
 4252SOL      O17451   4.657   5.047   4.134
 4252SOL     H117452   4.634   5.109   4.202
 4252SOL     H217453   4.614   4.965   4.160
 4252SOL    EPW17454   4.649   5.043   4.145
 4253SOL      O17455   4.154   4.020   4.102
 4253SOL     H117456   4.128   3.982   4.018
 4253SOL     H217457   4.091   4.090   4.118
 4253SOL    EPW17458   4.143   4.023   4.093
 4254SOL      O17459   4.651   5.444   3.917
 4254SOL     H117460   4.606   5.460   4.000
 4254SOL     H217461   4.582   5.409   3.859
 4254SOL    EPW17462   4.637   5.441   3.919
 4255SOL      O17463   5.586   4.217   3.892
 4255SOL     H117464   5.495   4.219   3.920
 4255SOL     H217465   5.631   4.279   3.950
 4255SOL    EPW17466   5.579   4.225   3.902
 4256SOL      O17467   5.523   5.021   4.054
 4256SOL     H117468   5.479   5.062   4.129
 4256SOL     H217469   5.580   5.089   4.019
 4256SOL    EPW17470   5.525   5.035   4.059
 4257SOL      O17471   3.895   5.497   3.949
 4257SOL     H117472   3.924   5.587   3.941
 4257SOL     H217473   3.845   5.480   3.870
 4257SOL    EPW17474   3.893   5.505   3.938
 4258SOL      O17475   5.299   5.305   3.920
 4258SOL     H117476   5.347   5.374   3.966
 4258SOL     H217477   5.220   5.349   3.889
 4258SOL    EPW17478   5.294   5.319   3.923
 4259SOL      O17479   4.697   4.430   3.864
 4259SOL     H117480   4.699   4.377   3.785
 4259SOL     H217481   4.785   4.467   3.870
 4259SOL    EPW17482   4.709   4.429   3.853
 4260SOL      O17483   4.867   5.049   3.956
 4260SOL     H117484   4.817   5.051   4.038
 4260SOL     H217485   4.801   5.067   3.888
 4260SOL    EPW17486   4.853   5.051   3.958
 4261SOL      O17487   4.466   4.882   3.771
 4261SOL     H117488   4.388   4.828   3.758
 4261SOL     H217489   4.437   4.955   3.824
 4261SOL    EPW17490   4.452   4.884   3.776
 4262SOL      O17491   5.047   5.398   3.839
 4262SOL     H117492   4.973   5.361   3.889
 4262SOL     H217493   5.055   5.488   3.872
 4262SOL    EPW17494   5.038   5.405   3.851
 4263SOL      O17495   5.271   5.072   3.781
 4263SOL     H117496   5.218   5.121   3.717
 4263SOL     H217497   5.302   5.138   3.842
 4263SOL    EPW17498   5.269   5.086   3.779
 4264SOL      O17499   4.496   3.961   3.836
 4264SOL     H117500   4.444   3.881   3.824
 4264SOL     H217501   4.583   3.938   3.804
 4264SOL    EPW17502   4.499   3.947   3.830
 4265SOL      O17503   4.431   5.313   3.772
 4265SOL     H117504   4.371   5.382   3.742
 4265SOL     H217505   4.376   5.255   3.825
 4265SOL    EPW17506   4.415   5.315   3.774
 4266SOL      O17507   4.869   3.958   3.995
 4266SOL     H117508   4.802   3.934   3.932
 4266SOL     H217509   4.934   4.007   3.944
 4266SOL    EPW17510   4.869   3.960   3.980
 4267SOL      O17511   4.062   5.357   4.161
 4267SOL     H117512   4.023   5.404   4.087
 4267SOL     H217513   3.996   5.292   4.186
 4267SOL    EPW17514   4.049   5.355   4.155
 4268SOL      O17515   4.554   4.766   4.185
 4268SOL     H117516   4.556   4.740   4.092
 4268SOL     H217517   4.612   4.703   4.228
 4268SOL    EPW17518   4.562   4.755   4.179
 4269SOL      O17519   5.044   4.114   3.853
 4269SOL     H117520   5.017   4.180   3.789
 4269SOL     H217521   5.114   4.157   3.903
 4269SOL    EPW17522   5.049   4.127   3.850
 4270SOL      O17523   4.712   3.819   3.790
 4270SOL     H117524   4.768   3.811   3.712
 4270SOL     H217525   4.689   3.729   3.812
 4270SOL    EPW17526   4.717   3.806   3.783
 4271SOL      O17527   5.217   4.670   3.995
 4271SOL     H117528   5.184   4.759   3.985
 4271SOL     H217529   5.182   4.641   4.080
 4271SOL    EPW17530   5.207   4.679   4.006
 4272SOL      O17531   4.211   4.708   3.787
 4272SOL     H117532   4.134   4.721   3.843
 4272SOL     H217533   4.175   4.672   3.706
 4272SOL    EPW17534   4.197   4.704   3.784
 4273SOL      O17535   4.864   4.681   4.030
 4273SOL     H117536   4.774   4.702   4.005
 4273SOL     H217537   4.891   4.754   4.086
 4273SOL    EPW17538   4.856   4.693   4.033
 4274SOL      O17539   4.254   4.321   3.900
 4274SOL     H117540   4.220   4.377   3.970
 4274SOL     H217541   4.325   4.271   3.940
 4274SOL    EPW17542   4.260   4.322   3.914
 4275SOL      O17543   5.310   4.207   3.964
 4275SOL     H117544   5.302   4.278   3.901
 4275SOL     H217545   5.328   4.251   4.047
 4275SOL    EPW17546   5.311   4.221   3.966
 4276SOL      O17547   4.979   4.469   3.939
 4276SOL     H117548   5.026   4.487   3.858
 4276SOL     H217549   4.945   4.553   3.967
 4276SOL    EPW17550   4.981   4.483   3.932
 4277SOL      O17551   4.714   5.211   3.761
 4277SOL     H117552   4.741   5.289   3.713
 4277SOL     H217553   4.621   5.226   3.780
 4277SOL    EPW17554   4.705   5.224   3.757
 4278SOL      O17555   5.062   3.771   3.948
 4278SOL     H117556   5.136   3.815   3.991
 4278SOL     H217557   4.986   3.825   3.970
 4278SOL    EPW17558   5.062   3.783   3.956
 4279SOL      O17559   5.122   4.546   4.226
 4279SOL     H117560   5.037   4.516   4.196
 4279SOL     H217561   5.114   4.553   4.321
 4279SOL    EPW17562   5.110   4.544   4.235
 4280SOL      O17563   4.495   4.212   3.952
 4280SOL     H117564   4.568   4.261   3.915
 4280SOL     H217565   4.511   4.121   3.926
 4280SOL    EPW17566   4.507   4.207   3.945
 4281SOL      O17567   3.970   4.721   4.050
 4281SOL     H117568   3.907   4.737   3.979
 4281SOL     H217569   3.917   4.684   4.121
 4281SOL    EPW17570   3.955   4.718   4.050
 4282SOL      O17571   4.326   5.075   3.909
 4282SOL     H117572   4.341   5.051   4.001
 4282SOL     H217573   4.234   5.053   3.893
 4282SOL    EPW17574   4.316   5.068   3.919
 4283SOL      O17575   4.865   5.306   4.061
 4283SOL     H117576   4.873   5.224   4.012
 4283SOL     H217577   4.784   5.345   4.028
 4283SOL    EPW17578   4.855   5.301   4.051
 4284SOL      O17579   3.922   3.818   4.163
 4284SOL     H117580   3.993   3.839   4.102
 4284SOL     H217581   3.876   3.746   4.121
 4284SOL    EPW17582   3.926   3.812   4.149
 4285SOL      O17583   4.130   4.480   4.142
 4285SOL     H117584   4.130   4.575   4.127
 4285SOL     H217585   4.207   4.464   4.196
 4285SOL    EPW17586   4.140   4.491   4.147
 4286SOL      O17587   5.436   5.551   3.963
 4286SOL     H117588   5.503   5.584   3.903
 4286SOL     H217589   5.393   5.630   3.997
 4286SOL    EPW17590   5.438   5.566   3.959
 4287SOL      O17591   3.758   4.783   3.889
 4287SOL     H117592   3.727   4.848   3.952
 4287SOL     H217593   3.707   4.705   3.908
 4287SOL    EPW17594   3.748   4.780   3.899
 4288SOL      O17595   4.342   5.583   3.831
 4288SOL     H117596   4.247   5.583   3.823
 4288SOL     H217597   4.358   5.529   3.909
 4288SOL    EPW17598   4.332   5.577   3.840
 4289SOL      O17599   5.187   4.403   3.747
 4289SOL     H117600   5.115   4.379   3.689
 4289SOL     H217601   5.253   4.440   3.689
 4289SOL    EPW17602   5.186   4.405   3.732
 4290SOL      O17603   4.600   4.703   3.931
 4290SOL     H117604   4.586   4.615   3.896
 4290SOL     H217605   4.551   4.760   3.872
 4290SOL    EPW17606   4.592   4.698   3.919
 4291SOL      O17607   4.608   4.472   4.147
 4291SOL     H117608   4.588   4.458   4.054
 4291SOL     H217609   4.701   4.451   4.154
 4291SOL    EPW17610   4.618   4.467   4.136
 4292SOL      O17611   4.047   3.862   3.920
 4292SOL     H117612   3.976   3.917   3.888
 4292SOL     H217613   4.089   3.828   3.841
 4292SOL    EPW17614   4.043   3.864   3.906
 4293SOL      O17615   3.803   3.961   3.769
 4293SOL     H117616   3.770   4.040   3.813
 4293SOL     H217617   3.858   3.994   3.698
 4293SOL    EPW17618   3.806   3.975   3.766
 4294SOL      O17619   3.837   5.218   3.958
 4294SOL     H117620   3.854   5.302   4.000
 4294SOL     H217621   3.872   5.227   3.870
 4294SOL    EPW17622   3.842   5.231   3.952
 4295SOL      O17623   5.109   5.307   4.175
 4295SOL     H117624   5.172   5.297   4.104
 4295SOL     H217625   5.026   5.327   4.130
 4295SOL    EPW17626   5.106   5.308   4.160
 4296SOL      O17627   4.391   5.866   0.514
 4296SOL     H117628   4.449   5.942   0.516
 4296SOL     H217629   4.326   5.887   0.447
 4296SOL    EPW17630   4.390   5.878   0.505
 4297SOL      O17631   4.663   6.135   1.771
 4297SOL     H117632   4.753   6.136   1.738
 4297SOL     H217633   4.622   6.060   1.729
 4297SOL    EPW17634   4.669   6.125   1.762
 4298SOL      O17635   4.443   5.939   1.721
 4298SOL     H117636   4.453   5.865   1.661
 4298SOL     H217637   4.479   5.908   1.804
 4298SOL    EPW17638   4.449   5.925   1.723
 4299SOL      O17639   5.563   5.668   0.685
 4299SOL     H117640   5.617   5.619   0.747
 4299SOL     H217641   5.506   5.602   0.646
 4299SOL    EPW17642   5.563   5.652   0.687
 4300SOL      O17643   4.682   5.621   1.098
 4300SOL     H117644   4.641   5.699   1.060
 4300SOL     H217645   4.776   5.639   1.093
 4300SOL    EPW17646   4.688   5.633   1.093
 4301SOL      O17647   4.708   5.729   1.353
 4301SOL     H117648   4.714   5.691   1.266
 4301SOL     H217649   4.697   5.823   1.338
 4301SOL    EPW17650   4.709   5.737   1.341
 4302SOL      O17651   3.924   5.825   0.659
 4302SOL     H117652   3.915   5.765   0.585
 4302SOL     H217653   3.857   5.796   0.722
 4302SOL    EPW17654   3.914   5.812   0.657
 4303SOL      O17655   4.479   5.728   1.518
 4303SOL     H117656   4.456   5.636   1.520
 4303SOL     H217657   4.565   5.730   1.475
 4303SOL    EPW17658   4.486   5.718   1.514
 4304SOL      O17659   5.140   5.777   1.828
 4304SOL     H117660   5.196   5.704   1.854
 4304SOL     H217661   5.110   5.815   1.910
 4304SOL    EPW17662   5.144   5.772   1.841
 4305SOL      O17663   4.123   5.636   1.789
 4305SOL     H117664   4.051   5.601   1.737
 4305SOL     H217665   4.181   5.677   1.724
 4305SOL    EPW17666   4.121   5.637   1.774
 4306SOL      O17667   4.493   5.666   0.701
 4306SOL     H117668   4.422   5.727   0.683
 4306SOL     H217669   4.544   5.663   0.620
 4306SOL    EPW17670   4.489   5.672   0.688
 4307SOL      O17671   4.880   5.670   1.710
 4307SOL     H117672   4.875   5.577   1.691
 4307SOL     H217673   4.963   5.681   1.756
 4307SOL    EPW17674   4.888   5.659   1.714
 4308SOL      O17675   5.232   5.868   0.534
 4308SOL     H117676   5.154   5.818   0.559
 4308SOL     H217677   5.203   5.959   0.534
 4308SOL    EPW17678   5.218   5.872   0.537
 4309SOL      O17679   4.818   5.830   0.693
 4309SOL     H117680   4.838   5.905   0.637
 4309SOL     H217681   4.798   5.869   0.778
 4309SOL    EPW17682   4.819   5.846   0.697
 4310SOL      O17683   4.134   5.948   1.041
 4310SOL     H117684   4.164   5.862   1.012
 4310SOL     H217685   4.039   5.941   1.044
 4310SOL    EPW17686   4.126   5.937   1.039
 4311SOL      O17687   5.062   5.952   1.593
 4311SOL     H117688   4.969   5.936   1.580
 4311SOL     H217689   5.088   5.890   1.661
 4311SOL    EPW17690   5.052   5.942   1.600
 4312SOL      O17691   4.277   5.726   0.932
 4312SOL     H117692   4.287   5.635   0.958
 4312SOL     H217693   4.233   5.722   0.847
 4312SOL    EPW17694   4.273   5.714   0.924
 4313SOL      O17695   4.482   5.858   1.044
 4313SOL     H117696   4.455   5.860   1.135
 4313SOL     H217697   4.412   5.810   0.999
 4313SOL    EPW17698   4.470   5.854   1.051
 4314SOL      O17699   4.963   5.677   1.130
 4314SOL     H117700   5.018   5.686   1.052
 4314SOL     H217701   5.018   5.711   1.201
 4314SOL    EPW17702   4.977   5.682   1.129
 4315SOL      O17703   5.190   5.664   1.303
 4315SOL     H117704   5.261   5.610   1.267
 4315SOL     H217705   5.189   5.643   1.396
 4315SOL    EPW17706   5.199   5.655   1.311
 4316SOL      O17707   3.922   5.687   0.427
 4316SOL     H117708   3.993   5.708   0.366
 4316SOL     H217709   3.876   5.615   0.385
 4316SOL    EPW17710   3.926   5.681   0.413
 4317SOL      O17711   4.709   5.658   0.510
 4317SOL     H117712   4.746   5.717   0.575
 4317SOL     H217713   4.686   5.714   0.436
 4317SOL    EPW17714   4.710   5.673   0.509
 4318SOL      O17715   4.375   5.811   1.284
 4318SOL     H117716   4.306   5.874   1.305
 4318SOL     H217717   4.402   5.775   1.369
 4318SOL    EPW17718   4.369   5.814   1.297
 4319SOL      O17719   5.170   5.664   0.901
 4319SOL     H117720   5.258   5.673   0.938
 4319SOL     H217721   5.180   5.605   0.827
 4319SOL    EPW17722   5.184   5.658   0.895
 4320SOL      O17723   4.582   6.169   0.821
 4320SOL     H117724   4.522   6.187   0.893
 4320SOL     H217725   4.616   6.081   0.840
 4320SOL    EPW17726   4.578   6.159   0.834
 4321SOL      O17727   5.523   5.668   1.490
 4321SOL     H117728   5.444   5.714   1.518
 4321SOL     H217729   5.558   5.722   1.419
 4321SOL    EPW17730   5.517   5.681   1.484
 4322SOL      O17731   5.386   5.761   1.039
 4322SOL     H117732   5.431   5.679   1.058
 4322SOL     H217733   5.406   5.817   1.115
 4322SOL    EPW17734   5.396   5.757   1.051
 4323SOL      O17735   3.834   5.604   1.138
 4323SOL     H117736   3.825   5.605   1.043
 4323SOL     H217737   3.928   5.616   1.153
 4323SOL    EPW17738   3.846   5.607   1.129
 4324SOL      O17739   4.047   5.731   0.184
 4324SOL     H117740   3.976   5.786   0.152
 4324SOL     H217741   4.089   5.697   0.105
 4324SOL    EPW17742   4.043   5.733   0.170
 4325SOL      O17743   4.391   5.866   2.382
 4325SOL     H117744   4.449   5.942   2.384
 4325SOL     H217745   4.326   5.887   2.315
 4325SOL    EPW17746   4.390   5.878   2.373
 4326SOL      O17747   4.663   6.135   3.639
 4326SOL     H117748   4.753   6.136   3.606
 4326SOL     H217749   4.622   6.060   3.597
 4326SOL    EPW17750   4.669   6.125   3.630
 4327SOL      O17751   4.443   5.939   3.589
 4327SOL     H117752   4.453   5.865   3.529
 4327SOL     H217753   4.479   5.908   3.672
 4327SOL    EPW17754   4.449   5.925   3.591
 4328SOL      O17755   5.563   5.668   2.553
 4328SOL     H117756   5.617   5.619   2.615
 4328SOL     H217757   5.506   5.602   2.514
 4328SOL    EPW17758   5.563   5.652   2.555
 4329SOL      O17759   4.682   5.621   2.966
 4329SOL     H117760   4.641   5.699   2.928
 4329SOL     H217761   4.776   5.639   2.961
 4329SOL    EPW17762   4.688   5.633   2.961
 4330SOL      O17763   4.708   5.729   3.221
 4330SOL     H117764   4.714   5.691   3.134
 4330SOL     H217765   4.697   5.823   3.206
 4330SOL    EPW17766   4.709   5.737   3.209
 4331SOL      O17767   3.924   5.825   2.527
 4331SOL     H117768   3.915   5.765   2.453
 4331SOL     H217769   3.857   5.796   2.590
 4331SOL    EPW17770   3.914   5.812   2.525
 4332SOL      O17771   4.479   5.728   3.386
 4332SOL     H117772   4.456   5.636   3.388
 4332SOL     H217773   4.565   5.730   3.343
 4332SOL    EPW17774   4.486   5.718   3.382
 4333SOL      O17775   5.140   5.777   3.696
 4333SOL     H117776   5.196   5.704   3.722
 4333SOL     H217777   5.110   5.815   3.778
 4333SOL    EPW17778   5.144   5.772   3.709
 4334SOL      O17779   4.712   5.688   1.922
 4334SOL     H117780   4.768   5.680   1.844
 4334SOL     H217781   4.689   5.598   1.944
 4334SOL    EPW17782   4.717   5.675   1.915
 4335SOL      O17783   4.123   5.636   3.657
 4335SOL     H117784   4.051   5.601   3.605
 4335SOL     H217785   4.181   5.677   3.592
 4335SOL    EPW17786   4.121   5.637   3.642
 4336SOL      O17787   4.493   5.666   2.569
 4336SOL     H117788   4.422   5.727   2.551
 4336SOL     H217789   4.544   5.663   2.488
 4336SOL    EPW17790   4.489   5.672   2.556
 4337SOL      O17791   4.880   5.670   3.578
 4337SOL     H117792   4.875   5.577   3.559
 4337SOL     H217793   4.963   5.681   3.624
 4337SOL    EPW17794   4.888   5.659   3.582
 4338SOL      O17795   4.170   5.731   2.525
 4338SOL     H117796   4.220   5.774   2.456
 4338SOL     H217797   4.085   5.775   2.525
 4338SOL    EPW17798   4.167   5.744   2.516
 4339SOL      O17799   5.232   5.868   2.402
 4339SOL     H117800   5.154   5.818   2.427
 4339SOL     H217801   5.203   5.959   2.402
 4339SOL    EPW17802   5.218   5.872   2.405
 4340SOL      O17803   4.818   5.830   2.561
 4340SOL     H117804   4.838   5.905   2.505
 4340SOL     H217805   4.798   5.869   2.646
 4340SOL    EPW17806   4.819   5.846   2.565
 4341SOL      O17807   4.134   5.948   2.909
 4341SOL     H117808   4.164   5.862   2.880
 4341SOL     H217809   4.039   5.941   2.912
 4341SOL    EPW17810   4.126   5.937   2.907
 4342SOL      O17811   5.062   5.952   3.461
 4342SOL     H117812   4.969   5.936   3.448
 4342SOL     H217813   5.088   5.890   3.529
 4342SOL    EPW17814   5.052   5.942   3.468
 4343SOL      O17815   4.277   5.726   2.800
 4343SOL     H117816   4.287   5.635   2.826
 4343SOL     H217817   4.233   5.722   2.715
 4343SOL    EPW17818   4.273   5.714   2.792
 4344SOL      O17819   5.062   5.640   2.080
 4344SOL     H117820   5.136   5.684   2.123
 4344SOL     H217821   4.986   5.694   2.102
 4344SOL    EPW17822   5.062   5.652   2.088
 4345SOL      O17823   4.482   5.858   2.912
 4345SOL     H117824   4.455   5.860   3.003
 4345SOL     H217825   4.412   5.810   2.867
 4345SOL    EPW17826   4.470   5.854   2.919
 4346SOL      O17827   4.963   5.677   2.998
 4346SOL     H117828   5.018   5.686   2.920
 4346SOL     H217829   5.018   5.711   3.069
 4346SOL    EPW17830   4.977   5.682   2.997
 4347SOL      O17831   5.190   5.664   3.171
 4347SOL     H117832   5.261   5.610   3.135
 4347SOL     H217833   5.189   5.643   3.264
 4347SOL    EPW17834   5.199   5.655   3.179
 4348SOL      O17835   3.922   5.687   2.295
 4348SOL     H117836   3.993   5.708   2.234
 4348SOL     H217837   3.876   5.615   2.253
 4348SOL    EPW17838   3.926   5.681   2.281
 4349SOL      O17839   4.709   5.658   2.378
 4349SOL     H117840   4.746   5.717   2.443
 4349SOL     H217841   4.686   5.714   2.304
 4349SOL    EPW17842   4.710   5.673   2.377
 4350SOL      O17843   4.375   5.811   3.152
 4350SOL     H117844   4.306   5.874   3.173
 4350SOL     H217845   4.402   5.775   3.237
 4350SOL    EPW17846   4.369   5.814   3.165
 4351SOL      O17847   5.170   5.664   2.769
 4351SOL     H117848   5.258   5.673   2.806
 4351SOL     H217849   5.180   5.605   2.695
 4351SOL    EPW17850   5.184   5.658   2.763
 4352SOL      O17851   4.582   6.169   2.689
 4352SOL     H117852   4.522   6.187   2.761
 4352SOL     H217853   4.616   6.081   2.708
 4352SOL    EPW17854   4.578   6.159   2.702
 4353SOL      O17855   5.523   5.668   3.358
 4353SOL     H117856   5.444   5.714   3.386
 4353SOL     H217857   5.558   5.722   3.287
 4353SOL    EPW17858   5.517   5.681   3.352
 4354SOL      O17859   5.319   5.778   2.165
 4354SOL     H117860   5.312   5.782   2.260
 4354SOL     H217861   5.331   5.869   2.138
 4354SOL    EPW17862   5.320   5.791   2.173
 4355SOL      O17863   5.386   5.761   2.907
 4355SOL     H117864   5.431   5.679   2.926
 4355SOL     H217865   5.406   5.817   2.983
 4355SOL    EPW17866   5.396   5.757   2.919
 4356SOL      O17867   3.834   5.604   3.006
 4356SOL     H117868   3.825   5.605   2.911
 4356SOL     H217869   3.928   5.616   3.021
 4356SOL    EPW17870   3.846   5.607   2.997
 4357SOL      O17871   4.047   5.731   2.052
 4357SOL     H117872   3.976   5.786   2.020
 4357SOL     H217873   4.089   5.697   1.973
 4357SOL    EPW17874   4.043   5.733   2.038
 4358SOL      O17875   3.803   5.830   1.901
 4358SOL     H117876   3.770   5.909   1.945
 4358SOL     H217877   3.858   5.863   1.830
 4358SOL    EPW17878   3.806   5.844   1.898
 4359SOL      O17879   4.712   5.688   3.790
 4359SOL     H117880   4.768   5.680   3.712
 4359SOL     H217881   4.689   5.598   3.812
 4359SOL    EPW17882   4.717   5.675   3.783
 4360SOL      O17883   5.062   5.640   3.948
 4360SOL     H117884   5.136   5.684   3.991
 4360SOL     H217885   4.986   5.694   3.970
 4360SOL    EPW17886   5.062   5.652   3.956
 4361SOL      O17887   3.922   5.687   4.163
 4361SOL     H117888   3.993   5.708   4.102
 4361SOL     H217889   3.876   5.615   4.121
 4361SOL    EPW17890   3.926   5.681   4.149
 4362SOL      O17891   4.047   5.731   3.920
 4362SOL     H117892   3.976   5.786   3.888
 4362SOL     H217893   4.089   5.697   3.841
 4362SOL    EPW17894   4.043   5.733   3.906
 4363SOL      O17895   3.803   5.830   3.769
 4363SOL     H117896   3.770   5.909   3.813
 4363SOL     H217897   3.858   5.863   3.698
 4363SOL    EPW17898   3.806   5.844   3.766
 4364SOL      O17899   5.939   0.919   1.328
 4364SOL     H117900   6.002   0.866   1.279
 4364SOL     H217901   5.920   0.993   1.271
 4364SOL    EPW17902   5.945   0.921   1.315
 4365SOL      O17903   6.012   0.932   0.961
 4365SOL     H117904   5.967   0.939   0.877
 4365SOL     H217905   5.992   1.015   1.005
 4365SOL    EPW17906   6.004   0.944   0.955
 4366SOL      O17907   5.709   1.778   0.836
 4366SOL     H117908   5.798   1.770   0.871
 4366SOL     H217909   5.673   1.690   0.841
 4366SOL    EPW17910   5.716   1.765   0.841
 4367SOL      O17911   6.023   0.284   0.366
 4367SOL     H117912   5.997   0.246   0.282
 4367SOL     H217913   5.960   0.354   0.382
 4367SOL    EPW17914   6.012   0.287   0.357
 4368SOL      O17915   5.858   1.245   0.403
 4368SOL     H117916   5.806   1.313   0.359
 4368SOL     H217917   5.855   1.171   0.343
 4368SOL    EPW17918   5.850   1.244   0.390
 4369SOL      O17919   5.741   1.599   1.130
 4369SOL     H117920   5.724   1.545   1.207
 4369SOL     H217921   5.729   1.689   1.160
 4369SOL    EPW17922   5.738   1.603   1.144
 4370SOL      O17923   6.048   1.701   0.636
 4370SOL     H117924   6.080   1.789   0.614
 4370SOL     H217925   6.001   1.673   0.558
 4370SOL    EPW17926   6.047   1.709   0.623
 4371SOL      O17927   5.793   0.220   0.659
 4371SOL     H117928   5.784   0.160   0.585
 4371SOL     H217929   5.726   0.191   0.722
 4371SOL    EPW17930   5.783   0.207   0.657
 4372SOL      O17931   5.740   0.393   1.022
 4372SOL     H117932   5.712   0.484   1.031
 4372SOL     H217933   5.677   0.354   0.961
 4372SOL    EPW17934   5.727   0.399   1.016
 4373SOL      O17935   5.724   0.668   1.192
 4373SOL     H117936   5.786   0.698   1.258
 4373SOL     H217937   5.658   0.737   1.186
 4373SOL    EPW17938   5.723   0.681   1.199
 4374SOL      O17939   5.819   1.777   1.644
 4374SOL     H117940   5.793   1.845   1.582
 4374SOL     H217941   5.867   1.714   1.592
 4374SOL    EPW17942   5.821   1.777   1.630
 4375SOL      O17943   5.871   1.096   1.151
 4375SOL     H117944   5.924   1.171   1.176
 4375SOL     H217945   5.790   1.134   1.117
 4375SOL    EPW17946   5.867   1.111   1.151
 4376SOL      O17947   5.726   0.865   0.557
 4376SOL     H117948   5.817   0.880   0.584
 4376SOL     H217949   5.729   0.786   0.503
 4376SOL    EPW17950   5.738   0.857   0.555
 4377SOL      O17951   5.734   1.477   0.596
 4377SOL     H117952   5.706   1.516   0.678
 4377SOL     H217953   5.754   1.386   0.618
 4377SOL    EPW17954   5.732   1.469   0.609
 4378SOL      O17955   6.027   0.209   1.583
 4378SOL     H117956   5.948   0.227   1.635
 4378SOL     H217957   6.022   0.271   1.510
 4378SOL    EPW17958   6.017   0.219   1.580
 4379SOL      O17959   5.931   1.621   0.425
 4379SOL     H117960   5.892   1.668   0.351
 4379SOL     H217961   5.865   1.556   0.450
 4379SOL    EPW17962   5.918   1.619   0.419
 4380SOL      O17963   5.738   1.208   0.716
 4380SOL     H117964   5.802   1.240   0.779
 4380SOL     H217965   5.787   1.144   0.664
 4380SOL    EPW17966   5.753   1.204   0.717
 4381SOL      O17967   5.814   1.526   1.838
 4381SOL     H117968   5.870   1.450   1.853
 4381SOL     H217969   5.763   1.504   1.760
 4381SOL    EPW17970   5.814   1.513   1.829
 4382SOL      O17971   5.679   1.386   1.649
 4382SOL     H117972   5.723   1.319   1.595
 4382SOL     H217973   5.594   1.348   1.669
 4382SOL    EPW17974   5.674   1.372   1.645
 4383SOL      O17975   6.123   0.585   0.164
 4383SOL     H117976   6.089   0.641   0.234
 4383SOL     H217977   6.194   0.535   0.204
 4383SOL    EPW17978   6.129   0.586   0.178
 4384SOL      O17979   5.798   1.188   1.517
 4384SOL     H117980   5.826   1.141   1.595
 4384SOL     H217981   5.719   1.143   1.488
 4384SOL    EPW17982   5.791   1.177   1.523
 4385SOL      O17983   5.668   1.511   0.869
 4385SOL     H117984   5.700   1.515   0.960
 4385SOL     H217985   5.573   1.519   0.877
 4385SOL    EPW17986   5.660   1.514   0.882
 4386SOL      O17987   5.623   0.637   0.416
 4386SOL     H117988   5.563   0.609   0.486
 4386SOL     H217989   5.697   0.577   0.422
 4386SOL    EPW17990   5.625   0.626   0.425
 4387SOL      O17991   6.049   0.376   1.305
 4387SOL     H117992   6.082   0.457   1.345
 4387SOL     H217993   6.022   0.402   1.217
 4387SOL    EPW17994   6.048   0.390   1.299
 4388SOL      O17995   6.067   1.273   1.221
 4388SOL     H117996   6.079   1.300   1.312
 4388SOL     H217997   6.048   1.354   1.174
 4388SOL    EPW17998   6.066   1.288   1.226
 4389SOL      O17999   6.195   1.339   0.173
 4389SOL     H118000   6.210   1.315   0.265
 4389SOL     H218001   6.103   1.317   0.157
 4389SOL    EPW18002   6.185   1.332   0.183
 4390SOL      O18003   5.699   1.481   1.388
 4390SOL     H118004   5.689   1.439   1.474
 4390SOL     H218005   5.620   1.534   1.378
 4390SOL    EPW18006   5.688   1.482   1.399
 4391SOL      O18007   5.975   1.296   1.836
 4391SOL     H118008   6.047   1.298   1.773
 4391SOL     H218009   5.945   1.205   1.835
 4391SOL    EPW18010   5.980   1.285   1.828
 4392SOL      O18011   5.625   1.786   1.843
 4392SOL     H118012   5.675   1.764   1.765
 4392SOL     H218013   5.633   1.881   1.851
 4392SOL    EPW18014   5.633   1.795   1.834
 4393SOL      O18015   5.791   0.082   0.427
 4393SOL     H118016   5.862   0.103   0.366
 4393SOL     H218017   5.745   0.010   0.385
 4393SOL    EPW18018   5.795   0.076   0.413
 4394SOL      O18019   5.792   0.790   1.778
 4394SOL     H118020   5.718   0.734   1.804
 4394SOL     H218021   5.787   0.793   1.683
 4394SOL    EPW18022   5.781   0.783   1.768
 4395SOL      O18023   5.758   0.475   0.695
 4395SOL     H118024   5.820   0.482   0.768
 4395SOL     H218025   5.758   0.382   0.672
 4395SOL    EPW18026   5.766   0.464   0.702
 4396SOL      O18027   5.939   1.024   1.690
 4396SOL     H118028   5.893   0.940   1.692
 4396SOL     H218029   5.996   1.018   1.614
 4396SOL    EPW18030   5.941   1.012   1.682
 4397SOL      O18031   5.882   0.691   0.974
 4397SOL     H118032   5.832   0.690   1.055
 4397SOL     H218033   5.902   0.783   0.958
 4397SOL    EPW18034   5.878   0.703   0.982
 4398SOL      O18035   5.804   0.359   1.715
 4398SOL     H118036   5.761   0.418   1.652
 4398SOL     H218037   5.872   0.414   1.755
 4398SOL    EPW18038   5.808   0.374   1.712
 4399SOL      O18039   5.703  -0.001   1.138
 4399SOL     H118040   5.694   0.000   1.043
 4399SOL     H218041   5.797   0.011   1.153
 4399SOL    EPW18042   5.715   0.002   1.129
 4400SOL      O18043   5.706   1.482   0.222
 4400SOL     H118044   5.723   1.566   0.264
 4400SOL     H218045   5.741   1.491   0.134
 4400SOL    EPW18046   5.711   1.495   0.216
 4401SOL      O18047   5.939   0.919   3.196
 4401SOL     H118048   6.002   0.866   3.147
 4401SOL     H218049   5.920   0.993   3.139
 4401SOL    EPW18050   5.945   0.921   3.183
 4402SOL      O18051   5.709   1.778   2.704
 4402SOL     H118052   5.798   1.770   2.739
 4402SOL     H218053   5.673   1.690   2.709
 4402SOL    EPW18054   5.716   1.765   2.709
 4403SOL      O18055   6.023   0.284   2.234
 4403SOL     H118056   5.997   0.246   2.150
 4403SOL     H218057   5.960   0.354   2.250
 4403SOL    EPW18058   6.012   0.287   2.225
 4404SOL      O18059   5.858   1.245   2.271
 4404SOL     H118060   5.806   1.313   2.227
 4404SOL     H218061   5.855   1.171   2.211
 4404SOL    EPW18062   5.850   1.244   2.258
 4405SOL      O18063   5.741   1.599   2.998
 4405SOL     H118064   5.724   1.545   3.075
 4405SOL     H218065   5.729   1.689   3.028
 4405SOL    EPW18066   5.738   1.603   3.012
 4406SOL      O18067   6.048   1.701   2.504
 4406SOL     H118068   6.080   1.789   2.482
 4406SOL     H218069   6.001   1.673   2.426
 4406SOL    EPW18070   6.047   1.709   2.491
 4407SOL      O18071   5.764   1.761   2.081
 4407SOL     H118072   5.793   1.851   2.073
 4407SOL     H218073   5.714   1.744   2.002
 4407SOL    EPW18074   5.762   1.769   2.070
 4408SOL      O18075   5.793   0.220   2.527
 4408SOL     H118076   5.784   0.160   2.453
 4408SOL     H218077   5.726   0.191   2.590
 4408SOL    EPW18078   5.783   0.207   2.525
 4409SOL      O18079   5.740   0.393   2.890
 4409SOL     H118080   5.712   0.484   2.899
 4409SOL     H218081   5.677   0.354   2.829
 4409SOL    EPW18082   5.727   0.399   2.884
 4410SOL      O18083   5.724   0.668   3.060
 4410SOL     H118084   5.786   0.698   3.126
 4410SOL     H218085   5.658   0.737   3.054
 4410SOL    EPW18086   5.723   0.681   3.067
 4411SOL      O18087   5.819   1.777   3.512
 4411SOL     H118088   5.793   1.845   3.450
 4411SOL     H218089   5.867   1.714   3.460
 4411SOL    EPW18090   5.821   1.777   3.498
 4412SOL      O18091   5.871   1.096   3.019
 4412SOL     H118092   5.924   1.171   3.044
 4412SOL     H218093   5.790   1.134   2.985
 4412SOL    EPW18094   5.867   1.111   3.019
 4413SOL      O18095   5.726   0.865   2.425
 4413SOL     H118096   5.817   0.880   2.452
 4413SOL     H218097   5.729   0.786   2.371
 4413SOL    EPW18098   5.738   0.857   2.423
 4414SOL      O18099   5.734   1.477   2.464
 4414SOL     H118100   5.706   1.516   2.546
 4414SOL     H218101   5.754   1.386   2.486
 4414SOL    EPW18102   5.732   1.469   2.477
 4415SOL      O18103   6.027   0.209   3.451
 4415SOL     H118104   5.948   0.227   3.503
 4415SOL     H218105   6.022   0.271   3.378
 4415SOL    EPW18106   6.017   0.219   3.448
 4416SOL      O18107   5.931   1.621   2.293
 4416SOL     H118108   5.892   1.668   2.219
 4416SOL     H218109   5.865   1.556   2.318
 4416SOL    EPW18110   5.918   1.619   2.287
 4417SOL      O18111   5.738   1.208   2.584
 4417SOL     H118112   5.802   1.240   2.647
 4417SOL     H218113   5.787   1.144   2.532
 4417SOL    EPW18114   5.753   1.204   2.585
 4418SOL      O18115   5.814   1.526   3.706
 4418SOL     H118116   5.870   1.450   3.721
 4418SOL     H218117   5.763   1.504   3.628
 4418SOL    EPW18118   5.814   1.513   3.697
 4419SOL      O18119   5.679   1.386   3.517
 4419SOL     H118120   5.723   1.319   3.463
 4419SOL     H218121   5.594   1.348   3.537
 4419SOL    EPW18122   5.674   1.372   3.513
 4420SOL      O18123   6.123   0.585   2.032
 4420SOL     H118124   6.089   0.641   2.102
 4420SOL     H218125   6.194   0.535   2.072
 4420SOL    EPW18126   6.129   0.586   2.046
 4421SOL      O18127   5.798   1.188   3.385
 4421SOL     H118128   5.826   1.141   3.463
 4421SOL     H218129   5.719   1.143   3.356
 4421SOL    EPW18130   5.791   1.177   3.391
 4422SOL      O18131   5.668   1.511   2.737
 4422SOL     H118132   5.700   1.515   2.828
 4422SOL     H218133   5.573   1.519   2.745
 4422SOL    EPW18134   5.660   1.514   2.750
 4423SOL      O18135   5.623   0.637   2.284
 4423SOL     H118136   5.563   0.609   2.354
 4423SOL     H218137   5.697   0.577   2.290
 4423SOL    EPW18138   5.625   0.626   2.293
 4424SOL      O18139   6.049   0.376   3.173
 4424SOL     H118140   6.082   0.457   3.213
 4424SOL     H218141   6.022   0.402   3.085
 4424SOL    EPW18142   6.048   0.390   3.167
 4425SOL      O18143   6.067   1.273   3.089
 4425SOL     H118144   6.079   1.300   3.180
 4425SOL     H218145   6.048   1.354   3.042
 4425SOL    EPW18146   6.066   1.288   3.094
 4426SOL      O18147   6.195   1.339   2.041
 4426SOL     H118148   6.210   1.315   2.133
 4426SOL     H218149   6.103   1.317   2.025
 4426SOL    EPW18150   6.185   1.332   2.051
 4427SOL      O18151   5.699   1.481   3.256
 4427SOL     H118152   5.689   1.439   3.342
 4427SOL     H218153   5.620   1.534   3.246
 4427SOL    EPW18154   5.688   1.482   3.267
 4428SOL      O18155   5.975   1.296   3.704
 4428SOL     H118156   6.047   1.298   3.641
 4428SOL     H218157   5.945   1.205   3.703
 4428SOL    EPW18158   5.980   1.285   3.696
 4429SOL      O18159   5.625   1.786   3.711
 4429SOL     H118160   5.675   1.764   3.633
 4429SOL     H218161   5.633   1.881   3.719
 4429SOL    EPW18162   5.633   1.795   3.702
 4430SOL      O18163   5.791   0.082   2.295
 4430SOL     H118164   5.862   0.103   2.234
 4430SOL     H218165   5.745   0.010   2.253
 4430SOL    EPW18166   5.795   0.076   2.281
 4431SOL      O18167   5.792   0.790   3.646
 4431SOL     H118168   5.718   0.734   3.672
 4431SOL     H218169   5.787   0.793   3.551
 4431SOL    EPW18170   5.781   0.783   3.636
 4432SOL      O18171   5.758   0.475   2.563
 4432SOL     H118172   5.820   0.482   2.636
 4432SOL     H218173   5.758   0.382   2.540
 4432SOL    EPW18174   5.766   0.464   2.570
 4433SOL      O18175   5.627   1.047   2.021
 4433SOL     H118176   5.596   1.112   2.084
 4433SOL     H218177   5.576   0.969   2.040
 4433SOL    EPW18178   5.617   1.044   2.031
 4434SOL      O18179   5.939   1.024   3.558
 4434SOL     H118180   5.893   0.940   3.560
 4434SOL     H218181   5.996   1.018   3.482
 4434SOL    EPW18182   5.941   1.012   3.550
 4435SOL      O18183   5.882   0.691   2.842
 4435SOL     H118184   5.832   0.690   2.923
 4435SOL     H218185   5.902   0.783   2.826
 4435SOL    EPW18186   5.878   0.703   2.850
 4436SOL      O18187   5.804   0.359   3.583
 4436SOL     H118188   5.761   0.418   3.520
 4436SOL     H218189   5.872   0.414   3.623
 4436SOL    EPW18190   5.808   0.374   3.580
 4437SOL      O18191   5.703  -0.001   3.006
 4437SOL     H118192   5.694   0.000   2.911
 4437SOL     H218193   5.797   0.011   3.021
 4437SOL    EPW18194   5.715   0.002   2.997
 4438SOL      O18195   5.672   0.225   1.901
 4438SOL     H118196   5.639   0.304   1.945
 4438SOL     H218197   5.727   0.258   1.830
 4438SOL    EPW18198   5.675   0.239   1.898
 4439SOL      O18199   5.706   1.482   2.090
 4439SOL     H118200   5.723   1.566   2.132
 4439SOL     H218201   5.741   1.491   2.002
 4439SOL    EPW18202   5.711   1.495   2.084
 4440SOL      O18203   6.023   0.284   4.102
 4440SOL     H118204   5.997   0.246   4.018
 4440SOL     H218205   5.960   0.354   4.118
 4440SOL    EPW18206   6.012   0.287   4.093
 4441SOL      O18207   5.858   1.245   4.139
 4441SOL     H118208   5.806   1.313   4.095
 4441SOL     H218209   5.855   1.171   4.079
 4441SOL    EPW18210   5.850   1.244   4.126
 4442SOL      O18211   5.764   1.761   3.949
 4442SOL     H118212   5.793   1.851   3.941
 4442SOL     H218213   5.714   1.744   3.870
 4442SOL    EPW18214   5.762   1.769   3.938
 4443SOL      O18215   5.738   1.208   4.452
 4443SOL     H118216   5.802   1.240   4.515
 4443SOL     H218217   5.787   1.144   4.400
 4443SOL    EPW18218   5.753   1.204   4.453
 4444SOL      O18219   6.123   0.585   3.900
 4444SOL     H118220   6.089   0.641   3.970
 4444SOL     H218221   6.194   0.535   3.940
 4444SOL    EPW18222   6.129   0.586   3.914
 4445SOL      O18223   6.195   1.339   3.909
 4445SOL     H118224   6.210   1.315   4.001
 4445SOL     H218225   6.103   1.317   3.893
 4445SOL    EPW18226   6.185   1.332   3.919
 4446SOL      O18227   5.791   0.082   4.163
 4446SOL     H118228   5.862   0.103   4.102
 4446SOL     H218229   5.745   0.010   4.121
 4446SOL    EPW18230   5.795   0.076   4.149
 4447SOL      O18231   5.758   0.475   4.431
 4447SOL     H118232   5.820   0.482   4.504
 4447SOL     H218233   5.758   0.382   4.408
 4447SOL    EPW18234   5.766   0.464   4.438
 4448SOL      O18235   5.627   1.047   3.889
 4448SOL     H118236   5.596   1.112   3.952
 4448SOL     H218237   5.576   0.969   3.908
 4448SOL    EPW18238   5.617   1.044   3.899
 4449SOL      O18239   5.672   0.225   3.769
 4449SOL     H118240   5.639   0.304   3.813
 4449SOL     H218241   5.727   0.258   3.698
 4449SOL    EPW18242   5.675   0.239   3.766
 4450SOL      O18243   5.706   1.482   3.958
 4450SOL     H118244   5.723   1.566   4.000
 4450SOL     H218245   5.741   1.491   3.870
 4450SOL    EPW18246   5.711   1.495   3.952
 4451SOL      O18247   5.939   2.787   1.328
 4451SOL     H118248   6.002   2.734   1.279
 4451SOL     H218249   5.920   2.861   1.271
 4451SOL    EPW18250   5.945   2.789   1.315
 4452SOL      O18251   6.012   2.800   0.961
 4452SOL     H118252   5.967   2.807   0.877
 4452SOL     H218253   5.992   2.883   1.005
 4452SOL    EPW18254   6.004   2.812   0.955
 4453SOL      O18255   5.709   3.646   0.836
 4453SOL     H118256   5.798   3.638   0.871
 4453SOL     H218257   5.673   3.558   0.841
 4453SOL    EPW18258   5.716   3.633   0.841
 4454SOL      O18259   6.023   2.152   0.366
 4454SOL     H118260   5.997   2.114   0.282
 4454SOL     H218261   5.960   2.222   0.382
 4454SOL    EPW18262   6.012   2.155   0.357
 4455SOL      O18263   5.858   3.113   0.403
 4455SOL     H118264   5.806   3.181   0.359
 4455SOL     H218265   5.855   3.039   0.343
 4455SOL    EPW18266   5.850   3.112   0.390
 4456SOL      O18267   5.741   3.467   1.130
 4456SOL     H118268   5.724   3.413   1.207
 4456SOL     H218269   5.729   3.557   1.160
 4456SOL    EPW18270   5.738   3.471   1.144
 4457SOL      O18271   6.048   3.569   0.636
 4457SOL     H118272   6.080   3.657   0.614
 4457SOL     H218273   6.001   3.541   0.558
 4457SOL    EPW18274   6.047   3.577   0.623
 4458SOL      O18275   5.764   3.629   0.213
 4458SOL     H118276   5.793   3.719   0.205
 4458SOL     H218277   5.714   3.612   0.134
 4458SOL    EPW18278   5.762   3.637   0.202
 4459SOL      O18279   5.793   2.088   0.659
 4459SOL     H118280   5.784   2.028   0.585
 4459SOL     H218281   5.726   2.059   0.722
 4459SOL    EPW18282   5.783   2.075   0.657
 4460SOL      O18283   5.740   2.261   1.022
 4460SOL     H118284   5.712   2.352   1.031
 4460SOL     H218285   5.677   2.222   0.961
 4460SOL    EPW18286   5.727   2.267   1.016
 4461SOL      O18287   5.724   2.536   1.192
 4461SOL     H118288   5.786   2.566   1.258
 4461SOL     H218289   5.658   2.605   1.186
 4461SOL    EPW18290   5.723   2.549   1.199
 4462SOL      O18291   5.819   3.645   1.644
 4462SOL     H118292   5.793   3.713   1.582
 4462SOL     H218293   5.867   3.582   1.592
 4462SOL    EPW18294   5.821   3.645   1.630
 4463SOL      O18295   5.871   2.964   1.151
 4463SOL     H118296   5.924   3.039   1.176
 4463SOL     H218297   5.790   3.002   1.117
 4463SOL    EPW18298   5.867   2.979   1.151
 4464SOL      O18299   5.726   2.733   0.557
 4464SOL     H118300   5.817   2.748   0.584
 4464SOL     H218301   5.729   2.654   0.503
 4464SOL    EPW18302   5.738   2.725   0.555
 4465SOL      O18303   5.734   3.345   0.596
 4465SOL     H118304   5.706   3.384   0.678
 4465SOL     H218305   5.754   3.254   0.618
 4465SOL    EPW18306   5.732   3.337   0.609
 4466SOL      O18307   6.027   2.077   1.583
 4466SOL     H118308   5.948   2.095   1.635
 4466SOL     H218309   6.022   2.139   1.510
 4466SOL    EPW18310   6.017   2.087   1.580
 4467SOL      O18311   5.931   3.489   0.425
 4467SOL     H118312   5.892   3.536   0.351
 4467SOL     H218313   5.865   3.424   0.450
 4467SOL    EPW18314   5.918   3.487   0.419
 4468SOL      O18315   5.738   3.076   0.716
 4468SOL     H118316   5.802   3.108   0.779
 4468SOL     H218317   5.787   3.012   0.664
 4468SOL    EPW18318   5.753   3.072   0.717
 4469SOL      O18319   5.814   3.394   1.838
 4469SOL     H118320   5.870   3.318   1.853
 4469SOL     H218321   5.763   3.372   1.760
 4469SOL    EPW18322   5.814   3.381   1.829
 4470SOL      O18323   5.679   3.254   1.649
 4470SOL     H118324   5.723   3.187   1.595
 4470SOL     H218325   5.594   3.216   1.669
 4470SOL    EPW18326   5.674   3.240   1.645
 4471SOL      O18327   6.123   2.453   0.164
 4471SOL     H118328   6.089   2.509   0.234
 4471SOL     H218329   6.194   2.403   0.204
 4471SOL    EPW18330   6.129   2.454   0.178
 4472SOL      O18331   5.798   3.056   1.517
 4472SOL     H118332   5.826   3.009   1.595
 4472SOL     H218333   5.719   3.011   1.488
 4472SOL    EPW18334   5.791   3.045   1.523
 4473SOL      O18335   5.668   3.379   0.869
 4473SOL     H118336   5.700   3.383   0.960
 4473SOL     H218337   5.573   3.387   0.877
 4473SOL    EPW18338   5.660   3.382   0.882
 4474SOL      O18339   5.623   2.505   0.416
 4474SOL     H118340   5.563   2.477   0.486
 4474SOL     H218341   5.697   2.445   0.422
 4474SOL    EPW18342   5.625   2.494   0.425
 4475SOL      O18343   6.049   2.244   1.305
 4475SOL     H118344   6.082   2.325   1.345
 4475SOL     H218345   6.022   2.270   1.217
 4475SOL    EPW18346   6.048   2.258   1.299
 4476SOL      O18347   6.146   1.989   0.932
 4476SOL     H118348   6.156   1.898   0.958
 4476SOL     H218349   6.102   1.985   0.847
 4476SOL    EPW18350   6.142   1.977   0.924
 4477SOL      O18351   6.067   3.141   1.221
 4477SOL     H118352   6.079   3.168   1.312
 4477SOL     H218353   6.048   3.222   1.174
 4477SOL    EPW18354   6.066   3.156   1.226
 4478SOL      O18355   6.195   3.207   0.173
 4478SOL     H118356   6.210   3.183   0.265
 4478SOL     H218357   6.103   3.185   0.157
 4478SOL    EPW18358   6.185   3.200   0.183
 4479SOL      O18359   5.699   3.349   1.388
 4479SOL     H118360   5.689   3.307   1.474
 4479SOL     H218361   5.620   3.402   1.378
 4479SOL    EPW18362   5.688   3.350   1.399
 4480SOL      O18363   5.975   3.164   1.836
 4480SOL     H118364   6.047   3.166   1.773
 4480SOL     H218365   5.945   3.073   1.835
 4480SOL    EPW18366   5.980   3.153   1.828
 4481SOL      O18367   5.625   3.654   1.843
 4481SOL     H118368   5.675   3.632   1.765
 4481SOL     H218369   5.633   3.749   1.851
 4481SOL    EPW18370   5.633   3.663   1.834
 4482SOL      O18371   5.791   1.950   0.427
 4482SOL     H118372   5.862   1.971   0.366
 4482SOL     H218373   5.745   1.878   0.385
 4482SOL    EPW18374   5.795   1.944   0.413
 4483SOL      O18375   5.792   2.658   1.778
 4483SOL     H118376   5.718   2.602   1.804
 4483SOL     H218377   5.787   2.661   1.683
 4483SOL    EPW18378   5.781   2.651   1.768
 4484SOL      O18379   5.758   2.343   0.695
 4484SOL     H118380   5.820   2.350   0.768
 4484SOL     H218381   5.758   2.250   0.672
 4484SOL    EPW18382   5.766   2.332   0.702
 4485SOL      O18383   5.939   2.892   1.690
 4485SOL     H118384   5.893   2.808   1.692
 4485SOL     H218385   5.996   2.886   1.614
 4485SOL    EPW18386   5.941   2.880   1.682
 4486SOL      O18387   5.882   2.559   0.974
 4486SOL     H118388   5.832   2.558   1.055
 4486SOL     H218389   5.902   2.651   0.958
 4486SOL    EPW18390   5.878   2.571   0.982
 4487SOL      O18391   5.804   2.227   1.715
 4487SOL     H118392   5.761   2.286   1.652
 4487SOL     H218393   5.872   2.282   1.755
 4487SOL    EPW18394   5.808   2.242   1.712
 4488SOL      O18395   5.703   1.867   1.138
 4488SOL     H118396   5.694   1.868   1.043
 4488SOL     H218397   5.797   1.879   1.153
 4488SOL    EPW18398   5.715   1.870   1.129
 4489SOL      O18399   5.939   2.787   3.196
 4489SOL     H118400   6.002   2.734   3.147
 4489SOL     H218401   5.920   2.861   3.139
 4489SOL    EPW18402   5.945   2.789   3.183
 4490SOL      O18403   6.012   2.800   2.829
 4490SOL     H118404   5.967   2.807   2.745
 4490SOL     H218405   5.992   2.883   2.873
 4490SOL    EPW18406   6.004   2.812   2.823
 4491SOL      O18407   6.023   2.152   2.234
 4491SOL     H118408   5.997   2.114   2.150
 4491SOL     H218409   5.960   2.222   2.250
 4491SOL    EPW18410   6.012   2.155   2.225
 4492SOL      O18411   5.858   3.113   2.271
 4492SOL     H118412   5.806   3.181   2.227
 4492SOL     H218413   5.855   3.039   2.211
 4492SOL    EPW18414   5.850   3.112   2.258
 4493SOL      O18415   5.741   3.467   2.998
 4493SOL     H118416   5.724   3.413   3.075
 4493SOL     H218417   5.729   3.557   3.028
 4493SOL    EPW18418   5.738   3.471   3.012
 4494SOL      O18419   6.048   3.569   2.504
 4494SOL     H118420   6.080   3.657   2.482
 4494SOL     H218421   6.001   3.541   2.426
 4494SOL    EPW18422   6.047   3.577   2.491
 4495SOL      O18423   5.764   3.629   2.081
 4495SOL     H118424   5.793   3.719   2.073
 4495SOL     H218425   5.714   3.612   2.002
 4495SOL    EPW18426   5.762   3.637   2.070
 4496SOL      O18427   5.793   2.088   2.527
 4496SOL     H118428   5.784   2.028   2.453
 4496SOL     H218429   5.726   2.059   2.590
 4496SOL    EPW18430   5.783   2.075   2.525
 4497SOL      O18431   5.740   2.261   2.890
 4497SOL     H118432   5.712   2.352   2.899
 4497SOL     H218433   5.677   2.222   2.829
 4497SOL    EPW18434   5.727   2.267   2.884
 4498SOL      O18435   5.724   2.536   3.060
 4498SOL     H118436   5.786   2.566   3.126
 4498SOL     H218437   5.658   2.605   3.054
 4498SOL    EPW18438   5.723   2.549   3.067
 4499SOL      O18439   5.819   3.645   3.512
 4499SOL     H118440   5.793   3.713   3.450
 4499SOL     H218441   5.867   3.582   3.460
 4499SOL    EPW18442   5.821   3.645   3.498
 4500SOL      O18443   5.871   2.964   3.019
 4500SOL     H118444   5.924   3.039   3.044
 4500SOL     H218445   5.790   3.002   2.985
 4500SOL    EPW18446   5.867   2.979   3.019
 4501SOL      O18447   5.726   2.733   2.425
 4501SOL     H118448   5.817   2.748   2.452
 4501SOL     H218449   5.729   2.654   2.371
 4501SOL    EPW18450   5.738   2.725   2.423
 4502SOL      O18451   6.027   2.077   3.451
 4502SOL     H118452   5.948   2.095   3.503
 4502SOL     H218453   6.022   2.139   3.378
 4502SOL    EPW18454   6.017   2.087   3.448
 4503SOL      O18455   5.931   3.489   2.293
 4503SOL     H118456   5.892   3.536   2.219
 4503SOL     H218457   5.865   3.424   2.318
 4503SOL    EPW18458   5.918   3.487   2.287
 4504SOL      O18459   5.738   3.076   2.584
 4504SOL     H118460   5.802   3.108   2.647
 4504SOL     H218461   5.787   3.012   2.532
 4504SOL    EPW18462   5.753   3.072   2.585
 4505SOL      O18463   5.814   3.394   3.706
 4505SOL     H118464   5.870   3.318   3.721
 4505SOL     H218465   5.763   3.372   3.628
 4505SOL    EPW18466   5.814   3.381   3.697
 4506SOL      O18467   5.679   3.254   3.517
 4506SOL     H118468   5.723   3.187   3.463
 4506SOL     H218469   5.594   3.216   3.537
 4506SOL    EPW18470   5.674   3.240   3.513
 4507SOL      O18471   6.123   2.453   2.032
 4507SOL     H118472   6.089   2.509   2.102
 4507SOL     H218473   6.194   2.403   2.072
 4507SOL    EPW18474   6.129   2.454   2.046
 4508SOL      O18475   5.798   3.056   3.385
 4508SOL     H118476   5.826   3.009   3.463
 4508SOL     H218477   5.719   3.011   3.356
 4508SOL    EPW18478   5.791   3.045   3.391
 4509SOL      O18479   5.623   2.505   2.284
 4509SOL     H118480   5.563   2.477   2.354
 4509SOL     H218481   5.697   2.445   2.290
 4509SOL    EPW18482   5.625   2.494   2.293
 4510SOL      O18483   6.049   2.244   3.173
 4510SOL     H118484   6.082   2.325   3.213
 4510SOL     H218485   6.022   2.270   3.085
 4510SOL    EPW18486   6.048   2.258   3.167
 4511SOL      O18487   6.146   1.989   2.800
 4511SOL     H118488   6.156   1.898   2.826
 4511SOL     H218489   6.102   1.985   2.715
 4511SOL    EPW18490   6.142   1.977   2.792
 4512SOL      O18491   6.067   3.141   3.089
 4512SOL     H118492   6.079   3.168   3.180
 4512SOL     H218493   6.048   3.222   3.042
 4512SOL    EPW18494   6.066   3.156   3.094
 4513SOL      O18495   6.195   3.207   2.041
 4513SOL     H118496   6.210   3.183   2.133
 4513SOL     H218497   6.103   3.185   2.025
 4513SOL    EPW18498   6.185   3.200   2.051
 4514SOL      O18499   5.699   3.349   3.256
 4514SOL     H118500   5.689   3.307   3.342
 4514SOL     H218501   5.620   3.402   3.246
 4514SOL    EPW18502   5.688   3.350   3.267
 4515SOL      O18503   5.975   3.164   3.704
 4515SOL     H118504   6.047   3.166   3.641
 4515SOL     H218505   5.945   3.073   3.703
 4515SOL    EPW18506   5.980   3.153   3.696
 4516SOL      O18507   5.625   3.654   3.711
 4516SOL     H118508   5.675   3.632   3.633
 4516SOL     H218509   5.633   3.749   3.719
 4516SOL    EPW18510   5.633   3.663   3.702
 4517SOL      O18511   5.791   1.950   2.295
 4517SOL     H118512   5.862   1.971   2.234
 4517SOL     H218513   5.745   1.878   2.253
 4517SOL    EPW18514   5.795   1.944   2.281
 4518SOL      O18515   5.792   2.658   3.646
 4518SOL     H118516   5.718   2.602   3.672
 4518SOL     H218517   5.787   2.661   3.551
 4518SOL    EPW18518   5.781   2.651   3.636
 4519SOL      O18519   5.758   2.343   2.563
 4519SOL     H118520   5.820   2.350   2.636
 4519SOL     H218521   5.758   2.250   2.540
 4519SOL    EPW18522   5.766   2.332   2.570
 4520SOL      O18523   5.627   2.915   2.021
 4520SOL     H118524   5.596   2.980   2.084
 4520SOL     H218525   5.576   2.837   2.040
 4520SOL    EPW18526   5.617   2.912   2.031
 4521SOL      O18527   5.939   2.892   3.558
 4521SOL     H118528   5.893   2.808   3.560
 4521SOL     H218529   5.996   2.886   3.482
 4521SOL    EPW18530   5.941   2.880   3.550
 4522SOL      O18531   5.882   2.559   2.842
 4522SOL     H118532   5.832   2.558   2.923
 4522SOL     H218533   5.902   2.651   2.826
 4522SOL    EPW18534   5.878   2.571   2.850
 4523SOL      O18535   5.804   2.227   3.583
 4523SOL     H118536   5.761   2.286   3.520
 4523SOL     H218537   5.872   2.282   3.623
 4523SOL    EPW18538   5.808   2.242   3.580
 4524SOL      O18539   5.703   1.867   3.006
 4524SOL     H118540   5.694   1.868   2.911
 4524SOL     H218541   5.797   1.879   3.021
 4524SOL    EPW18542   5.715   1.870   2.997
 4525SOL      O18543   5.672   2.093   1.901
 4525SOL     H118544   5.639   2.172   1.945
 4525SOL     H218545   5.727   2.126   1.830
 4525SOL    EPW18546   5.675   2.107   1.898
 4526SOL      O18547   5.706   3.350   2.090
 4526SOL     H118548   5.723   3.434   2.132
 4526SOL     H218549   5.741   3.359   2.002
 4526SOL    EPW18550   5.711   3.363   2.084
 4527SOL      O18551   6.023   2.152   4.102
 4527SOL     H118552   5.997   2.114   4.018
 4527SOL     H218553   5.960   2.222   4.118
 4527SOL    EPW18554   6.012   2.155   4.093
 4528SOL      O18555   5.764   3.629   3.949
 4528SOL     H118556   5.793   3.719   3.941
 4528SOL     H218557   5.714   3.612   3.870
 4528SOL    EPW18558   5.762   3.637   3.938
 4529SOL      O18559   5.931   3.489   4.161
 4529SOL     H118560   5.892   3.536   4.087
 4529SOL     H218561   5.865   3.424   4.186
 4529SOL    EPW18562   5.918   3.487   4.155
 4530SOL      O18563   6.123   2.453   3.900
 4530SOL     H118564   6.089   2.509   3.970
 4530SOL     H218565   6.194   2.403   3.940
 4530SOL    EPW18566   6.129   2.454   3.914
 4531SOL      O18567   6.195   3.207   3.909
 4531SOL     H118568   6.210   3.183   4.001
 4531SOL     H218569   6.103   3.185   3.893
 4531SOL    EPW18570   6.185   3.200   3.919
 4532SOL      O18571   5.791   1.950   4.163
 4532SOL     H118572   5.862   1.971   4.102
 4532SOL     H218573   5.745   1.878   4.121
 4532SOL    EPW18574   5.795   1.944   4.149
 4533SOL      O18575   5.758   2.343   4.431
 4533SOL     H118576   5.820   2.350   4.504
 4533SOL     H218577   5.758   2.250   4.408
 4533SOL    EPW18578   5.766   2.332   4.438
 4534SOL      O18579   5.627   2.915   3.889
 4534SOL     H118580   5.596   2.980   3.952
 4534SOL     H218581   5.576   2.837   3.908
 4534SOL    EPW18582   5.617   2.912   3.899
 4535SOL      O18583   5.672   2.093   3.769
 4535SOL     H118584   5.639   2.172   3.813
 4535SOL     H218585   5.727   2.126   3.698
 4535SOL    EPW18586   5.675   2.107   3.766
 4536SOL      O18587   5.706   3.350   3.958
 4536SOL     H118588   5.723   3.434   4.000
 4536SOL     H218589   5.741   3.359   3.870
 4536SOL    EPW18590   5.711   3.363   3.952
 4537SOL      O18591   5.939   4.655   1.328
 4537SOL     H118592   6.002   4.602   1.279
 4537SOL     H218593   5.920   4.729   1.271
 4537SOL    EPW18594   5.945   4.657   1.315
 4538SOL      O18595   6.012   4.668   0.961
 4538SOL     H118596   5.967   4.675   0.877
 4538SOL     H218597   5.992   4.751   1.005
 4538SOL    EPW18598   6.004   4.680   0.955
 4539SOL      O18599   5.709   5.514   0.836
 4539SOL     H118600   5.798   5.506   0.871
 4539SOL     H218601   5.673   5.426   0.841
 4539SOL    EPW18602   5.716   5.501   0.841
 4540SOL      O18603   6.023   4.020   0.366
 4540SOL     H118604   5.997   3.982   0.282
 4540SOL     H218605   5.960   4.090   0.382
 4540SOL    EPW18606   6.012   4.023   0.357
 4541SOL      O18607   5.858   4.981   0.403
 4541SOL     H118608   5.806   5.049   0.359
 4541SOL     H218609   5.855   4.907   0.343
 4541SOL    EPW18610   5.850   4.980   0.390
 4542SOL      O18611   5.741   5.335   1.130
 4542SOL     H118612   5.724   5.281   1.207
 4542SOL     H218613   5.729   5.425   1.160
 4542SOL    EPW18614   5.738   5.339   1.144
 4543SOL      O18615   6.048   5.437   0.636
 4543SOL     H118616   6.080   5.525   0.614
 4543SOL     H218617   6.001   5.409   0.558
 4543SOL    EPW18618   6.047   5.445   0.623
 4544SOL      O18619   5.764   5.497   0.213
 4544SOL     H118620   5.793   5.587   0.205
 4544SOL     H218621   5.714   5.480   0.134
 4544SOL    EPW18622   5.762   5.505   0.202
 4545SOL      O18623   5.793   3.956   0.659
 4545SOL     H118624   5.784   3.896   0.585
 4545SOL     H218625   5.726   3.927   0.722
 4545SOL    EPW18626   5.783   3.943   0.657
 4546SOL      O18627   5.740   4.129   1.022
 4546SOL     H118628   5.712   4.220   1.031
 4546SOL     H218629   5.677   4.090   0.961
 4546SOL    EPW18630   5.727   4.135   1.016
 4547SOL      O18631   5.724   4.404   1.192
 4547SOL     H118632   5.786   4.434   1.258
 4547SOL     H218633   5.658   4.473   1.186
 4547SOL    EPW18634   5.723   4.417   1.199
 4548SOL      O18635   5.819   5.513   1.644
 4548SOL     H118636   5.793   5.581   1.582
 4548SOL     H218637   5.867   5.450   1.592
 4548SOL    EPW18638   5.821   5.513   1.630
 4549SOL      O18639   5.871   4.832   1.151
 4549SOL     H118640   5.924   4.907   1.176
 4549SOL     H218641   5.790   4.870   1.117
 4549SOL    EPW18642   5.867   4.847   1.151
 4550SOL      O18643   5.726   4.601   0.557
 4550SOL     H118644   5.817   4.616   0.584
 4550SOL     H218645   5.729   4.522   0.503
 4550SOL    EPW18646   5.738   4.593   0.555
 4551SOL      O18647   5.734   5.213   0.596
 4551SOL     H118648   5.706   5.252   0.678
 4551SOL     H218649   5.754   5.122   0.618
 4551SOL    EPW18650   5.732   5.205   0.609
 4552SOL      O18651   6.027   3.945   1.583
 4552SOL     H118652   5.948   3.963   1.635
 4552SOL     H218653   6.022   4.007   1.510
 4552SOL    EPW18654   6.017   3.955   1.580
 4553SOL      O18655   5.931   5.357   0.425
 4553SOL     H118656   5.892   5.404   0.351
 4553SOL     H218657   5.865   5.292   0.450
 4553SOL    EPW18658   5.918   5.355   0.419
 4554SOL      O18659   5.738   4.944   0.716
 4554SOL     H118660   5.802   4.976   0.779
 4554SOL     H218661   5.787   4.880   0.664
 4554SOL    EPW18662   5.753   4.940   0.717
 4555SOL      O18663   5.814   5.262   1.838
 4555SOL     H118664   5.870   5.186   1.853
 4555SOL     H218665   5.763   5.240   1.760
 4555SOL    EPW18666   5.814   5.249   1.829
 4556SOL      O18667   5.679   5.122   1.649
 4556SOL     H118668   5.723   5.055   1.595
 4556SOL     H218669   5.594   5.084   1.669
 4556SOL    EPW18670   5.674   5.108   1.645
 4557SOL      O18671   5.798   4.924   1.517
 4557SOL     H118672   5.826   4.877   1.595
 4557SOL     H218673   5.719   4.879   1.488
 4557SOL    EPW18674   5.791   4.913   1.523
 4558SOL      O18675   5.668   5.247   0.869
 4558SOL     H118676   5.700   5.251   0.960
 4558SOL     H218677   5.573   5.255   0.877
 4558SOL    EPW18678   5.660   5.250   0.882
 4559SOL      O18679   5.623   4.373   0.416
 4559SOL     H118680   5.563   4.345   0.486
 4559SOL     H218681   5.697   4.313   0.422
 4559SOL    EPW18682   5.625   4.362   0.425
 4560SOL      O18683   6.049   4.112   1.305
 4560SOL     H118684   6.082   4.193   1.345
 4560SOL     H218685   6.022   4.138   1.217
 4560SOL    EPW18686   6.048   4.126   1.299
 4561SOL      O18687   6.146   3.857   0.932
 4561SOL     H118688   6.156   3.766   0.958
 4561SOL     H218689   6.102   3.853   0.847
 4561SOL    EPW18690   6.142   3.845   0.924
 4562SOL      O18691   6.067   5.009   1.221
 4562SOL     H118692   6.079   5.036   1.312
 4562SOL     H218693   6.048   5.090   1.174
 4562SOL    EPW18694   6.066   5.024   1.226
 4563SOL      O18695   6.195   5.075   0.173
 4563SOL     H118696   6.210   5.051   0.265
 4563SOL     H218697   6.103   5.053   0.157
 4563SOL    EPW18698   6.185   5.068   0.183
 4564SOL      O18699   5.699   5.217   1.388
 4564SOL     H118700   5.689   5.175   1.474
 4564SOL     H218701   5.620   5.270   1.378
 4564SOL    EPW18702   5.688   5.218   1.399
 4565SOL      O18703   5.975   5.032   1.836
 4565SOL     H118704   6.047   5.034   1.773
 4565SOL     H218705   5.945   4.941   1.835
 4565SOL    EPW18706   5.980   5.021   1.828
 4566SOL      O18707   5.625   5.522   1.843
 4566SOL     H118708   5.675   5.500   1.765
 4566SOL     H218709   5.633   5.617   1.851
 4566SOL    EPW18710   5.633   5.531   1.834
 4567SOL      O18711   5.791   3.818   0.427
 4567SOL     H118712   5.862   3.839   0.366
 4567SOL     H218713   5.745   3.746   0.385
 4567SOL    EPW18714   5.795   3.812   0.413
 4568SOL      O18715   5.792   4.526   1.778
 4568SOL     H118716   5.718   4.470   1.804
 4568SOL     H218717   5.787   4.529   1.683
 4568SOL    EPW18718   5.781   4.519   1.768
 4569SOL      O18719   5.758   4.211   0.695
 4569SOL     H118720   5.820   4.218   0.768
 4569SOL     H218721   5.758   4.118   0.672
 4569SOL    EPW18722   5.766   4.200   0.702
 4570SOL      O18723   5.939   4.760   1.690
 4570SOL     H118724   5.893   4.676   1.692
 4570SOL     H218725   5.996   4.754   1.614
 4570SOL    EPW18726   5.941   4.748   1.682
 4571SOL      O18727   5.882   4.427   0.974
 4571SOL     H118728   5.832   4.426   1.055
 4571SOL     H218729   5.902   4.519   0.958
 4571SOL    EPW18730   5.878   4.439   0.982
 4572SOL      O18731   5.804   4.095   1.715
 4572SOL     H118732   5.761   4.154   1.652
 4572SOL     H218733   5.872   4.150   1.755
 4572SOL    EPW18734   5.808   4.110   1.712
 4573SOL      O18735   5.703   3.735   1.138
 4573SOL     H118736   5.694   3.736   1.043
 4573SOL     H218737   5.797   3.747   1.153
 4573SOL    EPW18738   5.715   3.738   1.129
 4574SOL      O18739   5.939   4.655   3.196
 4574SOL     H118740   6.002   4.602   3.147
 4574SOL     H218741   5.920   4.729   3.139
 4574SOL    EPW18742   5.945   4.657   3.183
 4575SOL      O18743   6.012   4.668   2.829
 4575SOL     H118744   5.967   4.675   2.745
 4575SOL     H218745   5.992   4.751   2.873
 4575SOL    EPW18746   6.004   4.680   2.823
 4576SOL      O18747   5.709   5.514   2.704
 4576SOL     H118748   5.798   5.506   2.739
 4576SOL     H218749   5.673   5.426   2.709
 4576SOL    EPW18750   5.716   5.501   2.709
 4577SOL      O18751   6.023   4.020   2.234
 4577SOL     H118752   5.997   3.982   2.150
 4577SOL     H218753   5.960   4.090   2.250
 4577SOL    EPW18754   6.012   4.023   2.225
 4578SOL      O18755   5.858   4.981   2.271
 4578SOL     H118756   5.806   5.049   2.227
 4578SOL     H218757   5.855   4.907   2.211
 4578SOL    EPW18758   5.850   4.980   2.258
 4579SOL      O18759   5.741   5.335   2.998
 4579SOL     H118760   5.724   5.281   3.075
 4579SOL     H218761   5.729   5.425   3.028
 4579SOL    EPW18762   5.738   5.339   3.012
 4580SOL      O18763   6.048   5.437   2.504
 4580SOL     H118764   6.080   5.525   2.482
 4580SOL     H218765   6.001   5.409   2.426
 4580SOL    EPW18766   6.047   5.445   2.491
 4581SOL      O18767   5.764   5.497   2.081
 4581SOL     H118768   5.793   5.587   2.073
 4581SOL     H218769   5.714   5.480   2.002
 4581SOL    EPW18770   5.762   5.505   2.070
 4582SOL      O18771   5.793   3.956   2.527
 4582SOL     H118772   5.784   3.896   2.453
 4582SOL     H218773   5.726   3.927   2.590
 4582SOL    EPW18774   5.783   3.943   2.525
 4583SOL      O18775   5.724   4.404   3.060
 4583SOL     H118776   5.786   4.434   3.126
 4583SOL     H218777   5.658   4.473   3.054
 4583SOL    EPW18778   5.723   4.417   3.067
 4584SOL      O18779   5.819   5.513   3.512
 4584SOL     H118780   5.793   5.581   3.450
 4584SOL     H218781   5.867   5.450   3.460
 4584SOL    EPW18782   5.821   5.513   3.498
 4585SOL      O18783   5.871   4.832   3.019
 4585SOL     H118784   5.924   4.907   3.044
 4585SOL     H218785   5.790   4.870   2.985
 4585SOL    EPW18786   5.867   4.847   3.019
 4586SOL      O18787   5.726   4.601   2.425
 4586SOL     H118788   5.817   4.616   2.452
 4586SOL     H218789   5.729   4.522   2.371
 4586SOL    EPW18790   5.738   4.593   2.423
 4587SOL      O18791   5.734   5.213   2.464
 4587SOL     H118792   5.706   5.252   2.546
 4587SOL     H218793   5.754   5.122   2.486
 4587SOL    EPW18794   5.732   5.205   2.477
 4588SOL      O18795   6.027   3.945   3.451
 4588SOL     H118796   5.948   3.963   3.503
 4588SOL     H218797   6.022   4.007   3.378
 4588SOL    EPW18798   6.017   3.955   3.448
 4589SOL      O18799   5.931   5.357   2.293
 4589SOL     H118800   5.892   5.404   2.219
 4589SOL     H218801   5.865   5.292   2.318
 4589SOL    EPW18802   5.918   5.355   2.287
 4590SOL      O18803   5.738   4.944   2.584
 4590SOL     H118804   5.802   4.976   2.647
 4590SOL     H218805   5.787   4.880   2.532
 4590SOL    EPW18806   5.753   4.940   2.585
 4591SOL      O18807   5.814   5.262   3.706
 4591SOL     H118808   5.870   5.186   3.721
 4591SOL     H218809   5.763   5.240   3.628
 4591SOL    EPW18810   5.814   5.249   3.697
 4592SOL      O18811   5.679   5.122   3.517
 4592SOL     H118812   5.723   5.055   3.463
 4592SOL     H218813   5.594   5.084   3.537
 4592SOL    EPW18814   5.674   5.108   3.513
 4593SOL      O18815   6.123   4.321   2.032
 4593SOL     H118816   6.089   4.377   2.102
 4593SOL     H218817   6.194   4.271   2.072
 4593SOL    EPW18818   6.129   4.322   2.046
 4594SOL      O18819   5.798   4.924   3.385
 4594SOL     H118820   5.826   4.877   3.463
 4594SOL     H218821   5.719   4.879   3.356
 4594SOL    EPW18822   5.791   4.913   3.391
 4595SOL      O18823   5.668   5.247   2.737
 4595SOL     H118824   5.700   5.251   2.828
 4595SOL     H218825   5.573   5.255   2.745
 4595SOL    EPW18826   5.660   5.250   2.750
 4596SOL      O18827   5.623   4.373   2.284
 4596SOL     H118828   5.563   4.345   2.354
 4596SOL     H218829   5.697   4.313   2.290
 4596SOL    EPW18830   5.625   4.362   2.293
 4597SOL      O18831   6.049   4.112   3.173
 4597SOL     H118832   6.082   4.193   3.213
 4597SOL     H218833   6.022   4.138   3.085
 4597SOL    EPW18834   6.048   4.126   3.167
 4598SOL      O18835   6.146   3.857   2.800
 4598SOL     H118836   6.156   3.766   2.826
 4598SOL     H218837   6.102   3.853   2.715
 4598SOL    EPW18838   6.142   3.845   2.792
 4599SOL      O18839   6.067   5.009   3.089
 4599SOL     H118840   6.079   5.036   3.180
 4599SOL     H218841   6.048   5.090   3.042
 4599SOL    EPW18842   6.066   5.024   3.094
 4600SOL      O18843   6.195   5.075   2.041
 4600SOL     H118844   6.210   5.051   2.133
 4600SOL     H218845   6.103   5.053   2.025
 4600SOL    EPW18846   6.185   5.068   2.051
 4601SOL      O18847   5.699   5.217   3.256
 4601SOL     H118848   5.689   5.175   3.342
 4601SOL     H218849   5.620   5.270   3.246
 4601SOL    EPW18850   5.688   5.218   3.267
 4602SOL      O18851   5.975   5.032   3.704
 4602SOL     H118852   6.047   5.034   3.641
 4602SOL     H218853   5.945   4.941   3.703
 4602SOL    EPW18854   5.980   5.021   3.696
 4603SOL      O18855   5.625   5.522   3.711
 4603SOL     H118856   5.675   5.500   3.633
 4603SOL     H218857   5.633   5.617   3.719
 4603SOL    EPW18858   5.633   5.531   3.702
 4604SOL      O18859   5.791   3.818   2.295
 4604SOL     H118860   5.862   3.839   2.234
 4604SOL     H218861   5.745   3.746   2.253
 4604SOL    EPW18862   5.795   3.812   2.281
 4605SOL      O18863   5.792   4.526   3.646
 4605SOL     H118864   5.718   4.470   3.672
 4605SOL     H218865   5.787   4.529   3.551
 4605SOL    EPW18866   5.781   4.519   3.636
 4606SOL      O18867   5.758   4.211   2.563
 4606SOL     H118868   5.820   4.218   2.636
 4606SOL     H218869   5.758   4.118   2.540
 4606SOL    EPW18870   5.766   4.200   2.570
 4607SOL      O18871   5.627   4.783   2.021
 4607SOL     H118872   5.596   4.848   2.084
 4607SOL     H218873   5.576   4.705   2.040
 4607SOL    EPW18874   5.617   4.780   2.031
 4608SOL      O18875   5.939   4.760   3.558
 4608SOL     H118876   5.893   4.676   3.560
 4608SOL     H218877   5.996   4.754   3.482
 4608SOL    EPW18878   5.941   4.748   3.550
 4609SOL      O18879   5.882   4.427   2.842
 4609SOL     H118880   5.832   4.426   2.923
 4609SOL     H218881   5.902   4.519   2.826
 4609SOL    EPW18882   5.878   4.439   2.850
 4610SOL      O18883   5.804   4.095   3.583
 4610SOL     H118884   5.761   4.154   3.520
 4610SOL     H218885   5.872   4.150   3.623
 4610SOL    EPW18886   5.808   4.110   3.580
 4611SOL      O18887   5.703   3.735   3.006
 4611SOL     H118888   5.694   3.736   2.911
 4611SOL     H218889   5.797   3.747   3.021
 4611SOL    EPW18890   5.715   3.738   2.997
 4612SOL      O18891   5.672   3.961   1.901
 4612SOL     H118892   5.639   4.040   1.945
 4612SOL     H218893   5.727   3.994   1.830
 4612SOL    EPW18894   5.675   3.975   1.898
 4613SOL      O18895   5.706   5.218   2.090
 4613SOL     H118896   5.723   5.302   2.132
 4613SOL     H218897   5.741   5.227   2.002
 4613SOL    EPW18898   5.711   5.231   2.084
 4614SOL      O18899   6.023   4.020   4.102
 4614SOL     H118900   5.997   3.982   4.018
 4614SOL     H218901   5.960   4.090   4.118
 4614SOL    EPW18902   6.012   4.023   4.093
 4615SOL      O18903   5.764   5.497   3.949
 4615SOL     H118904   5.793   5.587   3.941
 4615SOL     H218905   5.714   5.480   3.870
 4615SOL    EPW18906   5.762   5.505   3.938
 4616SOL      O18907   5.931   5.357   4.161
 4616SOL     H118908   5.892   5.404   4.087
 4616SOL     H218909   5.865   5.292   4.186
 4616SOL    EPW18910   5.918   5.355   4.155
 4617SOL      O18911   6.123   4.321   3.900
 4617SOL     H118912   6.089   4.377   3.970
 4617SOL     H218913   6.194   4.271   3.940
 4617SOL    EPW18914   6.129   4.322   3.914
 4618SOL      O18915   5.623   4.373   4.152
 4618SOL     H118916   5.563   4.345   4.222
 4618SOL     H218917   5.697   4.313   4.158
 4618SOL    EPW18918   5.625   4.362   4.161
 4619SOL      O18919   6.195   5.075   3.909
 4619SOL     H118920   6.210   5.051   4.001
 4619SOL     H218921   6.103   5.053   3.893
 4619SOL    EPW18922   6.185   5.068   3.919
 4620SOL      O18923   5.791   3.818   4.163
 4620SOL     H118924   5.862   3.839   4.102
 4620SOL     H218925   5.745   3.746   4.121
 4620SOL    EPW18926   5.795   3.812   4.149
 4621SOL      O18927   5.627   4.783   3.889
 4621SOL     H118928   5.596   4.848   3.952
 4621SOL     H218929   5.576   4.705   3.908
 4621SOL    EPW18930   5.617   4.780   3.899
 4622SOL      O18931   5.672   3.961   3.769
 4622SOL     H118932   5.639   4.040   3.813
 4622SOL     H218933   5.727   3.994   3.698
 4622SOL    EPW18934   5.675   3.975   3.766
 4623SOL      O18935   5.706   5.218   3.958
 4623SOL     H118936   5.723   5.302   4.000
 4623SOL     H218937   5.741   5.227   3.870
 4623SOL    EPW18938   5.711   5.231   3.952
 4624SOL      O18939   5.793   5.825   0.659
 4624SOL     H118940   5.784   5.765   0.585
 4624SOL     H218941   5.726   5.796   0.722
 4624SOL    EPW18942   5.783   5.812   0.657
 4625SOL      O18943   6.027   5.814   1.583
 4625SOL     H118944   5.948   5.832   1.635
 4625SOL     H218945   6.022   5.876   1.510
 4625SOL    EPW18946   6.017   5.824   1.580
 4626SOL      O18947   6.049   5.981   1.305
 4626SOL     H118948   6.082   6.062   1.345
 4626SOL     H218949   6.022   6.007   1.217
 4626SOL    EPW18950   6.048   5.995   1.299
 4627SOL      O18951   6.146   5.726   0.932
 4627SOL     H118952   6.156   5.635   0.958
 4627SOL     H218953   6.102   5.722   0.847
 4627SOL    EPW18954   6.142   5.714   0.924
 4628SOL      O18955   5.791   5.687   0.427
 4628SOL     H118956   5.862   5.708   0.366
 4628SOL     H218957   5.745   5.615   0.385
 4628SOL    EPW18958   5.795   5.681   0.413
 4629SOL      O18959   5.804   5.964   1.715
 4629SOL     H118960   5.761   6.023   1.652
 4629SOL     H218961   5.872   6.019   1.755
 4629SOL    EPW18962   5.808   5.979   1.712
 4630SOL      O18963   5.703   5.604   1.138
 4630SOL     H118964   5.694   5.605   1.043
 4630SOL     H218965   5.797   5.616   1.153
 4630SOL    EPW18966   5.715   5.607   1.129
 4631SOL      O18967   5.793   5.825   2.527
 4631SOL     H118968   5.784   5.765   2.453
 4631SOL     H218969   5.726   5.796   2.590
 4631SOL    EPW18970   5.783   5.812   2.525
 4632SOL      O18971   6.027   5.814   3.451
 4632SOL     H118972   5.948   5.832   3.503
 4632SOL     H218973   6.022   5.876   3.378
 4632SOL    EPW18974   6.017   5.824   3.448
 4633SOL      O18975   6.049   5.981   3.173
 4633SOL     H118976   6.082   6.062   3.213
 4633SOL     H218977   6.022   6.007   3.085
 4633SOL    EPW18978   6.048   5.995   3.167
 4634SOL      O18979   6.146   5.726   2.800
 4634SOL     H118980   6.156   5.635   2.826
 4634SOL     H218981   6.102   5.722   2.715
 4634SOL    EPW18982   6.142   5.714   2.792
 4635SOL      O18983   5.791   5.687   2.295
 4635SOL     H118984   5.862   5.708   2.234
 4635SOL     H218985   5.745   5.615   2.253
 4635SOL    EPW18986   5.795   5.681   2.281
 4636SOL      O18987   5.804   5.964   3.583
 4636SOL     H118988   5.761   6.023   3.520
 4636SOL     H218989   5.872   6.019   3.623
 4636SOL    EPW18990   5.808   5.979   3.580
 4637SOL      O18991   5.703   5.604   3.006
 4637SOL     H118992   5.694   5.605   2.911
 4637SOL     H218993   5.797   5.616   3.021
 4637SOL    EPW18994   5.715   5.607   2.997
 4638SOL      O18995   5.672   5.830   1.901
 4638SOL     H118996   5.639   5.909   1.945
 4638SOL     H218997   5.727   5.863   1.830
 4638SOL    EPW18998   5.675   5.844   1.898
 4639SOL      O18999   5.791   5.687   4.163
 4639SOL     H119000   5.862   5.708   4.102
 4639SOL     H219001   5.745   5.615   4.121
 4639SOL    EPW19002   5.795   5.681   4.149
 4640SOL      O19003   5.672   5.830   3.769
 4640SOL     H119004   5.639   5.909   3.813
 4640SOL     H219005   5.727   5.863   3.698
 4640SOL    EPW19006   5.675   5.844   3.766
 4641Mg2+    Mg19007   1.200   0.744   2.835
 4642Mg2+    Mg19008   0.193   4.924   1.517
 4643Mg2+    Mg19009   0.649   4.517   3.446
 4644Mg2+    Mg19010   0.972   5.729   1.353
 4645Mg2+    Mg19011   2.990   0.665   2.335
 4646Mg2+    Mg19012   2.386   0.585   2.032
 4647Mg2+    Mg19013   2.703   0.736   3.047
 4648Mg2+    Mg19014   1.890   2.915   0.153
 4649Mg2+    Mg19015   3.194   1.903   2.080
 4650Mg2+    Mg19016   2.529   4.254   1.057
 4651Mg2+    Mg19017   4.437   0.515   3.352
 4652Mg2+    Mg19018   6.012   0.932   2.829
 4653CL-     CL19019   1.435   0.623   1.020
 4654CL-     CL19020   0.311   1.994   3.920
 4655CL-     CL19021   1.870   4.899   1.073
 4656CL-     CL19022   0.266   4.832   3.019
 4657CL-     CL19023   0.398   5.948   1.041
 4658CL-     CL19024   3.054   1.368   4.312
 4659CL-     CL19025   3.239   3.458   3.089
 4660CL-     CL19026   5.203   3.001   3.514
 4661CL-     CL19027   4.170   5.731   0.657
   5.87690   5.87690   4.15559   0.00000   0.00000   0.00000   0.00000   2.93845   2.93845
