exampleRNA-OH_solv_GMX.gro created by acpype (v: 2023.10.27) on Tue Apr  7 09:36:02 2026
 510
    1   A5 HO5'    1   1.762   1.873   1.724
    1   A5  O5'    2   1.762   1.962   1.688
    1   A5  C5'    3   1.767   1.956   1.546
    1   A5  H5'    4   1.689   1.908   1.515
    1   A5 H5''    5   1.847   1.909   1.520
    1   A5  C4'    6   1.766   2.094   1.485
    1   A5  H4'    7   1.759   2.085   1.388
    1   A5  O4'    8   1.652   2.168   1.533
    1   A5  C1'    9   1.683   2.306   1.540
    1   A5  H1'   10   1.626   2.354   1.478
    1   A5   N9   11   1.658   2.355   1.677
    1   A5   C8   12   1.638   2.280   1.790
    1   A5   H8   13   1.641   2.187   1.791
    1   A5   N7   14   1.614   2.351   1.898
    1   A5   C5   15   1.618   2.482   1.852
    1   A5   C6   16   1.600   2.605   1.918
    1   A5   N6   17   1.574   2.615   2.048
    1   A5  H61   18   1.562   2.693   2.083
    1   A5  H62   19   1.571   2.545   2.097
    1   A5   N1   20   1.610   2.718   1.845
    1   A5   C2   21   1.635   2.707   1.713
    1   A5   H2   22   1.641   2.788   1.667
    1   A5   N3   23   1.654   2.597   1.640
    1   A5   C4   24   1.644   2.486   1.716
    1   A5  C3'   25   1.885   2.183   1.518
    1   A5  H3'   26   1.909   2.172   1.611
    1   A5  C2'   27   1.829   2.323   1.496
    1   A5  H2'   28   1.875   2.388   1.551
    1   A5  O2'   29   1.831   2.359   1.359
    1   A5 HO2'   30   1.909   2.352   1.329
    1   A5  O3'   31   1.999   2.155   1.438
    2    G    P   32   2.145   2.193   1.493
    2    G  OP1   33   2.245   2.148   1.392
    2    G  OP2   34   2.156   2.148   1.634
    2    G  O5'   35   2.147   2.352   1.491
    2    G  C5'   36   2.166   2.423   1.369
    2    G  H5'   37   2.100   2.392   1.306
    2    G H5''   38   2.254   2.401   1.336
    2    G  C4'   39   2.152   2.571   1.389
    2    G  H4'   40   2.152   2.614   1.302
    2    G  O4'   41   2.027   2.600   1.455
    2    G  C1'   42   2.040   2.714   1.536
    2    G  H1'   43   1.980   2.783   1.503
    2    G   N9   44   2.002   2.680   1.674
    2    G   C8   45   1.984   2.556   1.729
    2    G   H8   46   1.997   2.477   1.682
    2    G   N7   47   1.948   2.561   1.854
    2    G   C5   48   1.940   2.696   1.883
    2    G   C6   49   1.906   2.764   2.002
    2    G   O6   50   1.874   2.714   2.111
    2    G   N1   51   1.911   2.902   1.986
    2    G   H1   52   1.891   2.950   2.055
    2    G   C2   53   1.945   2.968   1.871
    2    G   N2   54   1.945   3.101   1.876
    2    G  H21   55   1.924   3.140   1.949
    2    G  H22   56   1.966   3.147   1.807
    2    G   N3   57   1.978   2.905   1.759
    2    G   C4   58   1.973   2.771   1.772
    2    G  C3'   59   2.256   2.638   1.477
    2    G  H3'   60   2.275   2.580   1.553
    2    G  C2'   61   2.184   2.763   1.526
    2    G  H2'   62   2.218   2.792   1.611
    2    G  O2'   63   2.190   2.867   1.429
    2    G HO2'   64   2.270   2.883   1.409
    2    G  O3'   65   2.377   2.665   1.409
    3    C    P   66   2.514   2.681   1.492
    3    C  OP1   67   2.624   2.704   1.395
    3    C  OP2   68   2.521   2.570   1.590
    3    C  O5'   69   2.493   2.817   1.573
    3    C  C5'   70   2.510   2.942   1.509
    3    C  H5'   71   2.452   2.946   1.432
    3    C H5''   72   2.602   2.948   1.478
    3    C  C4'   73   2.479   3.057   1.602
    3    C  H4'   74   2.477   3.138   1.550
    3    C  O4'   75   2.349   3.037   1.664
    3    C  C1'   76   2.347   3.098   1.792
    3    C  H1'   77   2.283   3.170   1.790
    3    C   N1   78   2.306   2.998   1.894
    3    C   C6   79   2.307   2.865   1.863
    3    C   H6   80   2.335   2.838   1.779
    3    C   C5   81   2.269   2.772   1.952
    3    C   H5   82   2.271   2.681   1.931
    3    C   C4   83   2.227   2.816   2.081
    3    C   N4   84   2.189   2.723   2.170
    3    C  H41   85   2.193   2.640   2.148
    3    C  H42   86   2.162   2.747   2.248
    3    C   N3   87   2.225   2.945   2.112
    3    C   C2   88   2.263   3.040   2.022
    3    C   O2   89   2.260   3.160   2.053
    3    C  C3'   90   2.573   3.076   1.720
    3    C  H3'   91   2.594   2.989   1.758
    3    C  C2'   92   2.487   3.156   1.818
    3    C  H2'   93   2.515   3.141   1.909
    3    C  O2'   94   2.486   3.294   1.784
    3    C HO2'   95   2.565   3.322   1.779
    3    C  O3'   96   2.694   3.141   1.685
    4    G    P   97   2.825   3.118   1.775
    4    G  OP1   98   2.936   3.196   1.717
    4    G  OP2   99   2.840   2.972   1.798
    4    G  O5'  100   2.788   3.186   1.914
    4    G  C5'  101   2.797   3.327   1.930
    4    G  H5'  102   2.743   3.369   1.862
    4    G H5''  103   2.889   3.353   1.917
    4    G  C4'  104   2.749   3.371   2.066
    4    G  H4'  105   2.744   3.468   2.067
    4    G  O4'  106   2.617   3.317   2.090
    4    G  C1'  107   2.600   3.292   2.228
    4    G  H1'  108   2.528   3.348   2.261
    4    G   N9  109   2.562   3.151   2.247
    4    G   C8  110   2.567   3.049   2.156
    4    G   H8  111   2.597   3.059   2.069
    4    G   N7  112   2.523   2.936   2.204
    4    G   C5  113   2.488   2.966   2.335
    4    G   C6  114   2.435   2.885   2.438
    4    G   O6  115   2.408   2.764   2.432
    4    G   N1  116   2.414   2.957   2.555
    4    G   H1  117   2.382   2.914   2.622
    4    G   C2  118   2.440   3.090   2.572
    4    G   N2  119   2.414   3.141   2.693
    4    G  H21  120   2.381   3.090   2.753
    4    G  H22  121   2.429   3.224   2.709
    4    G   N3  122   2.490   3.167   2.477
    4    G   C4  123   2.511   3.099   2.363
    4    G  C3'  124   2.831   3.324   2.185
    4    G  H3'  125   2.858   3.232   2.171
    4    G  C2'  126   2.730   3.329   2.299
    4    G  H2'  127   2.751   3.265   2.368
    4    G  O2'  128   2.717   3.461   2.351
    4    G HO2'  129   2.792   3.489   2.375
    4    G  O3'  130   2.946   3.402   2.208
    5    C    P  131   3.070   3.339   2.289
    5    C  OP1  132   3.177   3.442   2.296
    5    C  OP2  133   3.099   3.205   2.232
    5    C  O5'  134   3.014   3.319   2.436
    5    C  C5'  135   3.006   3.428   2.526
    5    C  H5'  136   2.949   3.496   2.488
    5    C H5''  137   3.095   3.465   2.537
    5    C  C4'  138   2.951   3.386   2.661
    5    C  H4'  139   2.936   3.467   2.713
    5    C  O4'  140   2.826   3.316   2.644
    5    C  C1'  141   2.808   3.223   2.749
    5    C  H1'  142   2.732   3.252   2.802
    5    C   N1  143   2.779   3.089   2.693
    5    C   C6  144   2.798   3.065   2.560
    5    C   H6  145   2.831   3.133   2.506
    5    C   C5  146   2.772   2.946   2.505
    5    C   H5  147   2.785   2.930   2.415
    5    C   C4  148   2.722   2.843   2.590
    5    C   N4  149   2.696   2.724   2.536
    5    C  H41  150   2.716   2.710   2.454
    5    C  H42  151   2.660   2.661   2.584
    5    C   N3  152   2.702   2.865   2.720
    5    C   C2  153   2.729   2.986   2.776
    5    C   O2  154   2.710   3.006   2.897
    5    C  C3'  155   3.036   3.289   2.741
    5    C  H3'  156   3.071   3.221   2.682
    5    C  C2'  157   2.934   3.227   2.836
    5    C  H2'  158   2.961   3.139   2.864
    5    C  O2'  159   2.909   3.312   2.947
    5    C HO2'  160   2.981   3.330   2.986
    5    C  O3'  161   3.144   3.351   2.808
    6    U    P  162   3.275   3.265   2.841
    6    U  OP1  163   3.372   3.353   2.912
    6    U  OP2  164   3.315   3.193   2.717
    6    U  O5'  165   3.224   3.157   2.946
    6    U  C5'  166   3.207   3.192   3.083
    6    U  H5'  167   3.146   3.266   3.088
    6    U H5''  168   3.293   3.220   3.117
    6    U  C4'  169   3.154   3.077   3.164
    6    U  H4'  170   3.133   3.109   3.253
    6    U  O4'  171   3.032   3.026   3.105
    6    U  C1'  172   3.018   2.889   3.137
    6    U  H1'  173   2.941   2.879   3.195
    6    U   N1  174   2.993   2.812   3.013
    6    U   C6  175   3.018   2.861   2.887
    6    U   H6  176   3.053   2.947   2.879
    6    U   C5  177   2.994   2.790   2.776
    6    U   H5  178   3.012   2.826   2.692
    6    U   C4  179   2.940   2.657   2.789
    6    U   O4  180   2.913   2.582   2.695
    6    U   N3  181   2.917   2.614   2.918
    6    U   H3  182   2.884   2.534   2.928
    6    U   C2  183   2.941   2.685   3.032
    6    U   O2  184   2.919   2.641   3.144
    6    U  C3'  185   3.243   2.954   3.176
    6    U  H3'  186   3.283   2.934   3.090
    6    U  C2'  187   3.143   2.844   3.212
    6    U  H2'  188   3.175   2.757   3.183
    6    U  O2'  189   3.116   2.844   3.351
    6    U HO2'  190   3.054   2.790   3.367
    6    U  O3'  191   3.346   2.969   3.271
    7    U    P  192   3.482   2.886   3.254
    7    U  OP1  193   3.561   2.901   3.379
    7    U  OP2  194   3.541   2.923   3.123
    7    U  O5'  195   3.434   2.735   3.246
    7    U  C5'  196   3.410   2.660   3.364
    7    U  H5'  197   3.343   2.706   3.416
    7    U H5''  198   3.492   2.657   3.415
    7    U  C4'  199   3.361   2.520   3.335
    7    U  H4'  200   3.335   2.479   3.418
    7    U  O4'  201   3.245   2.526   3.249
    7    U  C1'  202   3.240   2.411   3.167
    7    U  H1'  203   3.159   2.362   3.187
    7    U   N1  204   3.239   2.453   3.025
    7    U   C6  205   3.294   2.572   2.984
    7    U   H6  206   3.333   2.628   3.048
    7    U   C5  207   3.295   2.611   2.856
    7    U   H5  208   3.333   2.692   2.831
    7    U   C4  209   3.236   2.525   2.757
    7    U   O4  210   3.229   2.548   2.637
    7    U   N3  211   3.182   2.407   2.805
    7    U   H3  212   3.146   2.353   2.747
    7    U   C2  213   3.180   2.365   2.936
    7    U   O2  214   3.131   2.259   2.971
    7    U  C3'  215   3.456   2.428   3.261
    7    U  H3'  216   3.500   2.476   3.190
    7    U  C2'  217   3.362   2.325   3.200
    7    U  H2'  218   3.400   2.284   3.121
    7    U  O2'  219   3.324   2.227   3.296
    7    U HO2'  220   3.250   2.194   3.275
    7    U  O3'  221   3.555   2.370   3.344
    8    U    P  222   3.697   2.328   3.282
    8    U  OP1  223   3.804   2.403   3.352
    8    U  OP2  224   3.684   2.338   3.135
    8    U  O5'  225   3.710   2.172   3.316
    8    U  C5'  226   3.638   2.075   3.241
    8    U  H5'  227   3.675   2.069   3.152
    8    U H5''  228   3.546   2.103   3.236
    8    U  C4'  229   3.644   1.939   3.306
    8    U  H4'  230   3.732   1.901   3.292
    8    U  O4'  231   3.622   1.954   3.449
    8    U  C1'  232   3.505   1.884   3.487
    8    U  H1'  233   3.530   1.798   3.523
    8    U   N1  234   3.437   1.963   3.590
    8    U   C6  235   3.438   2.101   3.584
    8    U   H6  236   3.481   2.142   3.512
    8    U   C5  237   3.378   2.178   3.676
    8    U   H5  238   3.380   2.271   3.668
    8    U   C4  239   3.312   2.115   3.787
    8    U   O4  240   3.254   2.173   3.878
    8    U   N3  241   3.316   1.977   3.788
    8    U   H3  242   3.277   1.936   3.854
    8    U   C2  243   3.377   1.896   3.695
    8    U   O2  244   3.376   1.774   3.703
    8    U  C3'  245   3.537   1.841   3.258
    8    U  H3'  246   3.509   1.861   3.167
    8    U  C2'  247   3.425   1.864   3.358
    8    U  H2'  248   3.378   1.946   3.336
    8    U  O2'  249   3.333   1.758   3.369
    8    U HO2'  250   3.290   1.751   3.297
    8    U  O3'  251   3.585   1.707   3.270
    9    C    P  252   3.664   1.638   3.149
    9    C  OP1  253   3.671   1.492   3.177
    9    C  OP2  254   3.790   1.714   3.124
    9    C  O5'  255   3.568   1.661   3.024
    9    C  C5'  256   3.440   1.601   3.019
    9    C  H5'  257   3.393   1.619   3.103
    9    C H5''  258   3.451   1.505   3.010
    9    C  C4'  259   3.357   1.653   2.904
    9    C  H4'  260   3.268   1.616   2.912
    9    C  O4'  261   3.349   1.798   2.913
    9    C  C1'  262   3.386   1.854   2.789
    9    C  H1'  263   3.307   1.861   2.732
    9    C   N1  264   3.444   1.988   2.809
    9    C   C6  265   3.565   2.010   2.869
    9    C   H6  266   3.615   1.937   2.900
    9    C   C5  267   3.614   2.134   2.883
    9    C   H5  268   3.696   2.150   2.923
    9    C   C4  269   3.535   2.242   2.833
    9    C   N4  270   3.578   2.368   2.844
    9    C  H41  271   3.531   2.433   2.814
    9    C  H42  272   3.654   2.383   2.882
    9    C   N3  273   3.417   2.222   2.775
    9    C   C2  274   3.369   2.096   2.760
    9    C   O2  275   3.259   2.076   2.706
    9    C  C3'  276   3.412   1.622   2.765
    9    C  H3'  277   3.474   1.549   2.765
    9    C  C2'  278   3.480   1.753   2.726
    9    C  H2'  279   3.567   1.758   2.768
    9    C  O2'  280   3.494   1.773   2.586
    9    C HO2'  281   3.419   1.768   2.549
    9    C  O3'  282   3.303   1.598   2.676
   10    G    P  283   3.253   1.447   2.652
   10    G  OP1  284   3.373   1.359   2.654
   10    G  OP2  285   3.161   1.446   2.534
   10    G  O5'  286   3.164   1.415   2.780
   10    G  C5'  287   3.035   1.471   2.796
   10    G  H5'  288   2.979   1.442   2.722
   10    G H5''  289   3.043   1.568   2.793
   10    G  C4'  290   2.975   1.429   2.928
   10    G  H4'  291   2.971   1.332   2.930
   10    G  O4'  292   3.057   1.477   3.037
   10    G  C1'  293   2.978   1.501   3.150
   10    G  H1'  294   3.004   1.439   3.220
   10    G   N9  295   3.001   1.638   3.200
   10    G   C8  296   3.002   1.676   3.332
   10    G   H8  297   2.988   1.616   3.402
   10    G   N7  298   3.025   1.803   3.349
   10    G   C5  299   3.040   1.852   3.220
   10    G   C6  300   3.066   1.985   3.176
   10    G   O6  301   3.082   2.087   3.245
   10    G   N1  302   3.074   1.991   3.038
   10    G   H1  303   3.089   2.068   3.003
   10    G   C2  304   3.057   1.884   2.953
   10    G   N2  305   3.069   1.912   2.823
   10    G  H21  306   3.051   1.852   2.765
   10    G  H22  307   3.095   1.990   2.799
   10    G   N3  308   3.033   1.760   2.993
   10    G   C4  309   3.025   1.752   3.127
   10    G  C3'  310   2.836   1.485   2.960
   10    G  H3'  311   2.832   1.578   2.932
   10    G  C2'  312   2.832   1.476   3.112
   10    G  H2'  313   2.774   1.543   3.150
   10    G  O2'  314   2.796   1.345   3.155
   10    G HO2'  315   2.726   1.321   3.115
   10    G  O3'  316   2.732   1.413   2.896
   11    A    P  317   2.615   1.490   2.817
   11    A  OP1  318   2.498   1.399   2.811
   11    A  OP2  319   2.672   1.547   2.692
   11    A  O5'  320   2.576   1.611   2.914
   11    A  C5'  321   2.509   1.586   3.037
   11    A  H5'  322   2.547   1.507   3.076
   11    A H5''  323   2.416   1.571   3.019
   11    A  C4'  324   2.527   1.702   3.133
   11    A  H4'  325   2.521   1.668   3.223
   11    A  O4'  326   2.659   1.759   3.115
   11    A  C1'  327   2.655   1.898   3.141
   11    A  H1'  328   2.715   1.919   3.214
   11    A   N9  329   2.699   1.971   3.020
   11    A   C8  330   2.705   1.925   2.891
   11    A   H8  331   2.681   1.838   2.866
   11    A   N7  332   2.748   2.015   2.806
   11    A   C5  333   2.772   2.127   2.886
   11    A   C6  334   2.819   2.256   2.856
   11    A   N6  335   2.852   2.295   2.733
   11    A  H61  336   2.881   2.375   2.721
   11    A  H62  337   2.845   2.240   2.667
   11    A   N1  338   2.831   2.344   2.958
   11    A   C2  339   2.798   2.305   3.082
   11    A   H2  340   2.808   2.369   3.149
   11    A   N3  341   2.752   2.186   3.122
   11    A   C4  342   2.741   2.101   3.018
   11    A  C3'  343   2.434   1.820   3.116
   11    A  H3'  344   2.423   1.838   3.021
   11    A  C2'  345   2.512   1.934   3.180
   11    A  H2'  346   2.485   2.020   3.144
   11    A  O2'  347   2.502   1.929   3.322
   11    A HO2'  348   2.422   1.939   3.345
   11    A  O3'  349   2.306   1.800   3.173
   12    G    P  350   2.182   1.890   3.123
   12    G  OP1  351   2.061   1.846   3.196
   12    G  OP2  352   2.184   1.892   2.974
   12    G  O5'  353   2.217   2.037   3.174
   12    G  C5'  354   2.195   2.073   3.310
   12    G  H5'  355   2.241   2.009   3.366
   12    G H5''  356   2.100   2.068   3.328
   12    G  C4'  357   2.247   2.211   3.340
   12    G  H4'  358   2.255   2.222   3.436
   12    G  O4'  359   2.379   2.227   3.282
   12    G  C1'  360   2.400   2.361   3.244
   12    G  H1'  361   2.473   2.398   3.297
   12    G   N9  362   2.436   2.366   3.102
   12    G   C8  363   2.428   2.267   3.008
   12    G   H8  364   2.395   2.181   3.026
   12    G   N7  365   2.470   2.305   2.890
   12    G   C5  366   2.509   2.437   2.909
   12    G   C6  367   2.563   2.532   2.819
   12    G   O6  368   2.588   2.516   2.699
   12    G   N1  369   2.587   2.654   2.881
   12    G   H1  370   2.621   2.717   2.833
   12    G   C2  371   2.564   2.683   3.013
   12    G   N2  372   2.593   2.806   3.054
   12    G  H21  373   2.625   2.862   2.998
   12    G  H22  374   2.580   2.830   3.136
   12    G   N3  375   2.513   2.595   3.098
   12    G   C4  376   2.488   2.476   3.040
   12    G  C3'  377   2.168   2.327   3.283
   12    G  H3'  378   2.138   2.305   3.193
   12    G  C2'  379   2.272   2.439   3.275
   12    G  H2'  380   2.250   2.501   3.204
   12    G  O2'  381   2.287   2.504   3.400
   12    G HO2'  382   2.214   2.537   3.424
   12    G  O3'  383   2.055   2.361   3.361
   13    C    P  384   1.930   2.437   3.294
   13    C  OP1  385   1.825   2.454   3.398
   13    C  OP2  386   1.899   2.369   3.166
   13    C  O5'  387   1.987   2.582   3.260
   13    C  C5'  388   1.999   2.680   3.362
   13    C  H5'  389   2.053   2.644   3.434
   13    C H5''  390   1.910   2.699   3.397
   13    C  C4'  391   2.062   2.807   3.310
   13    C  H4'  392   2.085   2.862   3.386
   13    C  O4'  393   2.183   2.775   3.236
   13    C  C1'  394   2.205   2.873   3.136
   13    C  H1'  395   2.285   2.922   3.159
   13    C   N1  396   2.224   2.808   3.004
   13    C   C6  397   2.187   2.677   2.987
   13    C   H6  398   2.148   2.631   3.058
   13    C   C5  399   2.204   2.615   2.869
   13    C   H5  400   2.178   2.526   2.857
   13    C   C4  401   2.264   2.687   2.763
   13    C   N4  402   2.281   2.625   2.646
   13    C  H41  403   2.258   2.543   2.638
   13    C  H42  404   2.317   2.667   2.579
   13    C   N3  405   2.302   2.814   2.779
   13    C   C2  406   2.284   2.878   2.898
   13    C   O2  407   2.320   2.996   2.912
   13    C  C3'  408   1.980   2.888   3.212
   13    C  H3'  409   1.936   2.828   3.150
   13    C  C2'  410   2.086   2.970   3.138
   13    C  H2'  411   2.057   2.992   3.049
   13    C  O2'  412   2.122   3.085   3.213
   13    C HO2'  413   2.053   3.131   3.229
   13    C  O3'  414   1.881   2.968   3.275
   14    G    P  415   1.750   3.012   3.193
   14    G  OP1  416   1.665   3.095   3.282
   14    G  OP2  417   1.693   2.892   3.127
   14    G  O5'  418   1.806   3.110   3.081
   14    G  C5'  419   1.835   3.245   3.111
   14    G  H5'  420   1.896   3.247   3.186
   14    G H5''  421   1.753   3.289   3.137
   14    G  C4'  422   1.897   3.316   2.994
   14    G  H4'  423   1.931   3.402   3.024
   14    G  O4'  424   2.008   3.238   2.943
   14    G  C1'  425   2.022   3.258   2.805
   14    G  H1'  426   2.107   3.302   2.789
   14    G   N9  427   2.022   3.128   2.736
   14    G   C8  428   1.986   3.005   2.785
   14    G   H8  429   1.955   2.992   2.872
   14    G   N7  430   2.000   2.910   2.698
   14    G   C5  431   2.049   2.974   2.585
   14    G   C6  432   2.084   2.923   2.457
   14    G   O6  433   2.078   2.806   2.418
   14    G   N1  434   2.130   3.024   2.372
   14    G   H1  435   2.153   3.001   2.293
   14    G   C2  436   2.140   3.156   2.405
   14    G   N2  437   2.185   3.238   2.309
   14    G  H21  438   2.208   3.204   2.234
   14    G  H22  439   2.191   3.322   2.323
   14    G   N3  440   2.107   3.205   2.524
   14    G   C4  441   2.063   3.109   2.607
   14    G  C3'  442   1.808   3.337   2.872
   14    G  H3'  443   1.754   3.257   2.858
   14    G  C2'  444   1.909   3.350   2.758
   14    G  H2'  445   1.872   3.319   2.675
   14    G  O2'  446   1.959   3.482   2.748
   14    G HO2'  447   1.896   3.535   2.738
   14    G  O3'  448   1.723   3.449   2.885
   15    C    P  449   1.588   3.457   2.797
   15    C  OP1  450   1.519   3.584   2.832
   15    C  OP2  451   1.516   3.328   2.810
   15    C  O5'  452   1.640   3.471   2.648
   15    C  C5'  453   1.684   3.597   2.598
   15    C  H5'  454   1.753   3.631   2.656
   15    C H5''  455   1.610   3.658   2.600
   15    C  C4'  456   1.738   3.585   2.458
   15    C  H4'  457   1.784   3.668   2.436
   15    C  O4'  458   1.831   3.475   2.448
   15    C  C1'  459   1.831   3.424   2.317
   15    C  H1'  460   1.917   3.446   2.277
   15    C   N1  461   1.817   3.276   2.319
   15    C   C6  462   1.776   3.213   2.434
   15    C   H6  463   1.755   3.265   2.509
   15    C   C5  464   1.764   3.080   2.440
   15    C   H5  465   1.735   3.038   2.518
   15    C   C4  466   1.796   3.004   2.325
   15    C   N4  467   1.785   2.871   2.330
   15    C  H41  468   1.756   2.835   2.402
   15    C  H42  469   1.805   2.823   2.262
   15    C   N3  470   1.837   3.064   2.213
   15    C   C2  471   1.850   3.199   2.206
   15    C   O2  472   1.889   3.254   2.102
   15    C  C3'  473   1.635   3.555   2.349
   15    C  H3'  474   1.573   3.489   2.382
   15    C  C2'  475   1.721   3.495   2.238
   15    C  H2'  476   1.670   3.433   2.184
   15    C  O2'  477   1.781   3.596   2.158
   15    C HO2'  478   1.722   3.650   2.133
   15    C  O3'  479   1.563   3.670   2.309
   16   U3    P  480   1.419   3.653   2.241
   16   U3  OP1  481   1.370   3.787   2.200
   16   U3  OP2  482   1.335   3.567   2.328
   16   U3  O5'  483   1.450   3.573   2.107
   16   U3  C5'  484   1.497   3.642   1.992
   16   U3  H5'  485   1.579   3.688   2.014
   16   U3 H5''  486   1.430   3.707   1.967
   16   U3  C4'  487   1.522   3.548   1.877
   16   U3  H4'  488   1.565   3.598   1.806
   16   U3  O4'  489   1.611   3.441   1.918
   16   U3  C1'  490   1.586   3.326   1.840
   16   U3  H1'  491   1.663   3.310   1.784
   16   U3   N1  492   1.566   3.209   1.928
   16   U3   C6  493   1.529   3.224   2.060
   16   U3   H6  494   1.517   3.310   2.094
   16   U3   C5  495   1.511   3.119   2.141
   16   U3   H5  496   1.486   3.132   2.229
   16   U3   C4  497   1.530   2.987   2.089
   16   U3   O4  498   1.515   2.883   2.154
   16   U3   N3  499   1.566   2.979   1.956
   16   U3   H3  500   1.579   2.900   1.922
   16   U3   C2  501   1.586   3.085   1.871
   16   U3   O2  502   1.619   3.071   1.755
   16   U3  C3'  503   1.402   3.475   1.822
   16   U3  H3'  504   1.346   3.443   1.895
   16   U3  C2'  505   1.465   3.355   1.751
   16   U3  H2'  506   1.405   3.280   1.749
   16   U3  O2'  507   1.510   3.389   1.622
   16   U3 HO2'  508   1.445   3.417   1.576
   16   U3  O3'  509   1.323   3.555   1.736
   16   U3 HO3'  510   1.248   3.504   1.704
    5.14499     5.11199     5.21619
