exampleRNA-OH_solv_GMX.gro created by acpype (v: 2023.10.27) on Tue Apr  7 09:36:02 2026
 13174
    1   A5 HO5'    1   1.762   1.873   1.724
    1   A5  O5'    2   1.762   1.962   1.688
    1   A5  C5'    3   1.767   1.956   1.546
    1   A5  H5'    4   1.689   1.908   1.515
    1   A5 H5''    5   1.847   1.909   1.520
    1   A5  C4'    6   1.766   2.094   1.485
    1   A5  H4'    7   1.759   2.085   1.388
    1   A5  O4'    8   1.652   2.168   1.533
    1   A5  C1'    9   1.683   2.306   1.540
    1   A5  H1'   10   1.626   2.354   1.478
    1   A5   N9   11   1.658   2.355   1.677
    1   A5   C8   12   1.638   2.280   1.790
    1   A5   H8   13   1.641   2.187   1.791
    1   A5   N7   14   1.614   2.351   1.898
    1   A5   C5   15   1.618   2.482   1.852
    1   A5   C6   16   1.600   2.605   1.918
    1   A5   N6   17   1.574   2.615   2.048
    1   A5  H61   18   1.562   2.693   2.083
    1   A5  H62   19   1.571   2.545   2.097
    1   A5   N1   20   1.610   2.718   1.845
    1   A5   C2   21   1.635   2.707   1.713
    1   A5   H2   22   1.641   2.788   1.667
    1   A5   N3   23   1.654   2.597   1.640
    1   A5   C4   24   1.644   2.486   1.716
    1   A5  C3'   25   1.885   2.183   1.518
    1   A5  H3'   26   1.909   2.172   1.611
    1   A5  C2'   27   1.829   2.323   1.496
    1   A5  H2'   28   1.875   2.388   1.551
    1   A5  O2'   29   1.831   2.359   1.359
    1   A5 HO2'   30   1.909   2.352   1.329
    1   A5  O3'   31   1.999   2.155   1.438
    2    G    P   32   2.145   2.193   1.493
    2    G  OP1   33   2.245   2.148   1.392
    2    G  OP2   34   2.156   2.148   1.634
    2    G  O5'   35   2.147   2.352   1.491
    2    G  C5'   36   2.166   2.423   1.369
    2    G  H5'   37   2.100   2.392   1.306
    2    G H5''   38   2.254   2.401   1.336
    2    G  C4'   39   2.152   2.571   1.389
    2    G  H4'   40   2.152   2.614   1.302
    2    G  O4'   41   2.027   2.600   1.455
    2    G  C1'   42   2.040   2.714   1.536
    2    G  H1'   43   1.980   2.783   1.503
    2    G   N9   44   2.002   2.680   1.674
    2    G   C8   45   1.984   2.556   1.729
    2    G   H8   46   1.997   2.477   1.682
    2    G   N7   47   1.948   2.561   1.854
    2    G   C5   48   1.940   2.696   1.883
    2    G   C6   49   1.906   2.764   2.002
    2    G   O6   50   1.874   2.714   2.111
    2    G   N1   51   1.911   2.902   1.986
    2    G   H1   52   1.891   2.950   2.055
    2    G   C2   53   1.945   2.968   1.871
    2    G   N2   54   1.945   3.101   1.876
    2    G  H21   55   1.924   3.140   1.949
    2    G  H22   56   1.966   3.147   1.807
    2    G   N3   57   1.978   2.905   1.759
    2    G   C4   58   1.973   2.771   1.772
    2    G  C3'   59   2.256   2.638   1.477
    2    G  H3'   60   2.275   2.580   1.553
    2    G  C2'   61   2.184   2.763   1.526
    2    G  H2'   62   2.218   2.792   1.611
    2    G  O2'   63   2.190   2.867   1.429
    2    G HO2'   64   2.270   2.883   1.409
    2    G  O3'   65   2.377   2.665   1.409
    3    C    P   66   2.514   2.681   1.492
    3    C  OP1   67   2.624   2.704   1.395
    3    C  OP2   68   2.521   2.570   1.590
    3    C  O5'   69   2.493   2.817   1.573
    3    C  C5'   70   2.510   2.942   1.509
    3    C  H5'   71   2.452   2.946   1.432
    3    C H5''   72   2.602   2.948   1.478
    3    C  C4'   73   2.479   3.057   1.602
    3    C  H4'   74   2.477   3.138   1.550
    3    C  O4'   75   2.349   3.037   1.664
    3    C  C1'   76   2.347   3.098   1.792
    3    C  H1'   77   2.283   3.170   1.790
    3    C   N1   78   2.306   2.998   1.894
    3    C   C6   79   2.307   2.865   1.863
    3    C   H6   80   2.335   2.838   1.779
    3    C   C5   81   2.269   2.772   1.952
    3    C   H5   82   2.271   2.681   1.931
    3    C   C4   83   2.227   2.816   2.081
    3    C   N4   84   2.189   2.723   2.170
    3    C  H41   85   2.193   2.640   2.148
    3    C  H42   86   2.162   2.747   2.248
    3    C   N3   87   2.225   2.945   2.112
    3    C   C2   88   2.263   3.040   2.022
    3    C   O2   89   2.260   3.160   2.053
    3    C  C3'   90   2.573   3.076   1.720
    3    C  H3'   91   2.594   2.989   1.758
    3    C  C2'   92   2.487   3.156   1.818
    3    C  H2'   93   2.515   3.141   1.909
    3    C  O2'   94   2.486   3.294   1.784
    3    C HO2'   95   2.565   3.322   1.779
    3    C  O3'   96   2.694   3.141   1.685
    4    G    P   97   2.825   3.118   1.775
    4    G  OP1   98   2.936   3.196   1.717
    4    G  OP2   99   2.840   2.972   1.798
    4    G  O5'  100   2.788   3.186   1.914
    4    G  C5'  101   2.797   3.327   1.930
    4    G  H5'  102   2.743   3.369   1.862
    4    G H5''  103   2.889   3.353   1.917
    4    G  C4'  104   2.749   3.371   2.066
    4    G  H4'  105   2.744   3.468   2.067
    4    G  O4'  106   2.617   3.317   2.090
    4    G  C1'  107   2.600   3.292   2.228
    4    G  H1'  108   2.528   3.348   2.261
    4    G   N9  109   2.562   3.151   2.247
    4    G   C8  110   2.567   3.049   2.156
    4    G   H8  111   2.597   3.059   2.069
    4    G   N7  112   2.523   2.936   2.204
    4    G   C5  113   2.488   2.966   2.335
    4    G   C6  114   2.435   2.885   2.438
    4    G   O6  115   2.408   2.764   2.432
    4    G   N1  116   2.414   2.957   2.555
    4    G   H1  117   2.382   2.914   2.622
    4    G   C2  118   2.440   3.090   2.572
    4    G   N2  119   2.414   3.141   2.693
    4    G  H21  120   2.381   3.090   2.753
    4    G  H22  121   2.429   3.224   2.709
    4    G   N3  122   2.490   3.167   2.477
    4    G   C4  123   2.511   3.099   2.363
    4    G  C3'  124   2.831   3.324   2.185
    4    G  H3'  125   2.858   3.232   2.171
    4    G  C2'  126   2.730   3.329   2.299
    4    G  H2'  127   2.751   3.265   2.368
    4    G  O2'  128   2.717   3.461   2.351
    4    G HO2'  129   2.792   3.489   2.375
    4    G  O3'  130   2.946   3.402   2.208
    5    C    P  131   3.070   3.339   2.289
    5    C  OP1  132   3.177   3.442   2.296
    5    C  OP2  133   3.099   3.205   2.232
    5    C  O5'  134   3.014   3.319   2.436
    5    C  C5'  135   3.006   3.428   2.526
    5    C  H5'  136   2.949   3.496   2.488
    5    C H5''  137   3.095   3.465   2.537
    5    C  C4'  138   2.951   3.386   2.661
    5    C  H4'  139   2.936   3.467   2.713
    5    C  O4'  140   2.826   3.316   2.644
    5    C  C1'  141   2.808   3.223   2.749
    5    C  H1'  142   2.732   3.252   2.802
    5    C   N1  143   2.779   3.089   2.693
    5    C   C6  144   2.798   3.065   2.560
    5    C   H6  145   2.831   3.133   2.506
    5    C   C5  146   2.772   2.946   2.505
    5    C   H5  147   2.785   2.930   2.415
    5    C   C4  148   2.722   2.843   2.590
    5    C   N4  149   2.696   2.724   2.536
    5    C  H41  150   2.716   2.710   2.454
    5    C  H42  151   2.660   2.661   2.584
    5    C   N3  152   2.702   2.865   2.720
    5    C   C2  153   2.729   2.986   2.776
    5    C   O2  154   2.710   3.006   2.897
    5    C  C3'  155   3.036   3.289   2.741
    5    C  H3'  156   3.071   3.221   2.682
    5    C  C2'  157   2.934   3.227   2.836
    5    C  H2'  158   2.961   3.139   2.864
    5    C  O2'  159   2.909   3.312   2.947
    5    C HO2'  160   2.981   3.330   2.986
    5    C  O3'  161   3.144   3.351   2.808
    6    U    P  162   3.275   3.265   2.841
    6    U  OP1  163   3.372   3.353   2.912
    6    U  OP2  164   3.315   3.193   2.717
    6    U  O5'  165   3.224   3.157   2.946
    6    U  C5'  166   3.207   3.192   3.083
    6    U  H5'  167   3.146   3.266   3.088
    6    U H5''  168   3.293   3.220   3.117
    6    U  C4'  169   3.154   3.077   3.164
    6    U  H4'  170   3.133   3.109   3.253
    6    U  O4'  171   3.032   3.026   3.105
    6    U  C1'  172   3.018   2.889   3.137
    6    U  H1'  173   2.941   2.879   3.195
    6    U   N1  174   2.993   2.812   3.013
    6    U   C6  175   3.018   2.861   2.887
    6    U   H6  176   3.053   2.947   2.879
    6    U   C5  177   2.994   2.790   2.776
    6    U   H5  178   3.012   2.826   2.692
    6    U   C4  179   2.940   2.657   2.789
    6    U   O4  180   2.913   2.582   2.695
    6    U   N3  181   2.917   2.614   2.918
    6    U   H3  182   2.884   2.534   2.928
    6    U   C2  183   2.941   2.685   3.032
    6    U   O2  184   2.919   2.641   3.144
    6    U  C3'  185   3.243   2.954   3.176
    6    U  H3'  186   3.283   2.934   3.090
    6    U  C2'  187   3.143   2.844   3.212
    6    U  H2'  188   3.175   2.757   3.183
    6    U  O2'  189   3.116   2.844   3.351
    6    U HO2'  190   3.054   2.790   3.367
    6    U  O3'  191   3.346   2.969   3.271
    7    U    P  192   3.482   2.886   3.254
    7    U  OP1  193   3.561   2.901   3.379
    7    U  OP2  194   3.541   2.923   3.123
    7    U  O5'  195   3.434   2.735   3.246
    7    U  C5'  196   3.410   2.660   3.364
    7    U  H5'  197   3.343   2.706   3.416
    7    U H5''  198   3.492   2.657   3.415
    7    U  C4'  199   3.361   2.520   3.335
    7    U  H4'  200   3.335   2.479   3.418
    7    U  O4'  201   3.245   2.526   3.249
    7    U  C1'  202   3.240   2.411   3.167
    7    U  H1'  203   3.159   2.362   3.187
    7    U   N1  204   3.239   2.453   3.025
    7    U   C6  205   3.294   2.572   2.984
    7    U   H6  206   3.333   2.628   3.048
    7    U   C5  207   3.295   2.611   2.856
    7    U   H5  208   3.333   2.692   2.831
    7    U   C4  209   3.236   2.525   2.757
    7    U   O4  210   3.229   2.548   2.637
    7    U   N3  211   3.182   2.407   2.805
    7    U   H3  212   3.146   2.353   2.747
    7    U   C2  213   3.180   2.365   2.936
    7    U   O2  214   3.131   2.259   2.971
    7    U  C3'  215   3.456   2.428   3.261
    7    U  H3'  216   3.500   2.476   3.190
    7    U  C2'  217   3.362   2.325   3.200
    7    U  H2'  218   3.400   2.284   3.121
    7    U  O2'  219   3.324   2.227   3.296
    7    U HO2'  220   3.250   2.194   3.275
    7    U  O3'  221   3.555   2.370   3.344
    8    U    P  222   3.697   2.328   3.282
    8    U  OP1  223   3.804   2.403   3.352
    8    U  OP2  224   3.684   2.338   3.135
    8    U  O5'  225   3.710   2.172   3.316
    8    U  C5'  226   3.638   2.075   3.241
    8    U  H5'  227   3.675   2.069   3.152
    8    U H5''  228   3.546   2.103   3.236
    8    U  C4'  229   3.644   1.939   3.306
    8    U  H4'  230   3.732   1.901   3.292
    8    U  O4'  231   3.622   1.954   3.449
    8    U  C1'  232   3.505   1.884   3.487
    8    U  H1'  233   3.530   1.798   3.523
    8    U   N1  234   3.437   1.963   3.590
    8    U   C6  235   3.438   2.101   3.584
    8    U   H6  236   3.481   2.142   3.512
    8    U   C5  237   3.378   2.178   3.676
    8    U   H5  238   3.380   2.271   3.668
    8    U   C4  239   3.312   2.115   3.787
    8    U   O4  240   3.254   2.173   3.878
    8    U   N3  241   3.316   1.977   3.788
    8    U   H3  242   3.277   1.936   3.854
    8    U   C2  243   3.377   1.896   3.695
    8    U   O2  244   3.376   1.774   3.703
    8    U  C3'  245   3.537   1.841   3.258
    8    U  H3'  246   3.509   1.861   3.167
    8    U  C2'  247   3.425   1.864   3.358
    8    U  H2'  248   3.378   1.946   3.336
    8    U  O2'  249   3.333   1.758   3.369
    8    U HO2'  250   3.290   1.751   3.297
    8    U  O3'  251   3.585   1.707   3.270
    9    C    P  252   3.664   1.638   3.149
    9    C  OP1  253   3.671   1.492   3.177
    9    C  OP2  254   3.790   1.714   3.124
    9    C  O5'  255   3.568   1.661   3.024
    9    C  C5'  256   3.440   1.601   3.019
    9    C  H5'  257   3.393   1.619   3.103
    9    C H5''  258   3.451   1.505   3.010
    9    C  C4'  259   3.357   1.653   2.904
    9    C  H4'  260   3.268   1.616   2.912
    9    C  O4'  261   3.349   1.798   2.913
    9    C  C1'  262   3.386   1.854   2.789
    9    C  H1'  263   3.307   1.861   2.732
    9    C   N1  264   3.444   1.988   2.809
    9    C   C6  265   3.565   2.010   2.869
    9    C   H6  266   3.615   1.937   2.900
    9    C   C5  267   3.614   2.134   2.883
    9    C   H5  268   3.696   2.150   2.923
    9    C   C4  269   3.535   2.242   2.833
    9    C   N4  270   3.578   2.368   2.844
    9    C  H41  271   3.531   2.433   2.814
    9    C  H42  272   3.654   2.383   2.882
    9    C   N3  273   3.417   2.222   2.775
    9    C   C2  274   3.369   2.096   2.760
    9    C   O2  275   3.259   2.076   2.706
    9    C  C3'  276   3.412   1.622   2.765
    9    C  H3'  277   3.474   1.549   2.765
    9    C  C2'  278   3.480   1.753   2.726
    9    C  H2'  279   3.567   1.758   2.768
    9    C  O2'  280   3.494   1.773   2.586
    9    C HO2'  281   3.419   1.768   2.549
    9    C  O3'  282   3.303   1.598   2.676
   10    G    P  283   3.253   1.447   2.652
   10    G  OP1  284   3.373   1.359   2.654
   10    G  OP2  285   3.161   1.446   2.534
   10    G  O5'  286   3.164   1.415   2.780
   10    G  C5'  287   3.035   1.471   2.796
   10    G  H5'  288   2.979   1.442   2.722
   10    G H5''  289   3.043   1.568   2.793
   10    G  C4'  290   2.975   1.429   2.928
   10    G  H4'  291   2.971   1.332   2.930
   10    G  O4'  292   3.057   1.477   3.037
   10    G  C1'  293   2.978   1.501   3.150
   10    G  H1'  294   3.004   1.439   3.220
   10    G   N9  295   3.001   1.638   3.200
   10    G   C8  296   3.002   1.676   3.332
   10    G   H8  297   2.988   1.616   3.402
   10    G   N7  298   3.025   1.803   3.349
   10    G   C5  299   3.040   1.852   3.220
   10    G   C6  300   3.066   1.985   3.176
   10    G   O6  301   3.082   2.087   3.245
   10    G   N1  302   3.074   1.991   3.038
   10    G   H1  303   3.089   2.068   3.003
   10    G   C2  304   3.057   1.884   2.953
   10    G   N2  305   3.069   1.912   2.823
   10    G  H21  306   3.051   1.852   2.765
   10    G  H22  307   3.095   1.990   2.799
   10    G   N3  308   3.033   1.760   2.993
   10    G   C4  309   3.025   1.752   3.127
   10    G  C3'  310   2.836   1.485   2.960
   10    G  H3'  311   2.832   1.578   2.932
   10    G  C2'  312   2.832   1.476   3.112
   10    G  H2'  313   2.774   1.543   3.150
   10    G  O2'  314   2.796   1.345   3.155
   10    G HO2'  315   2.726   1.321   3.115
   10    G  O3'  316   2.732   1.413   2.896
   11    A    P  317   2.615   1.490   2.817
   11    A  OP1  318   2.498   1.399   2.811
   11    A  OP2  319   2.672   1.547   2.692
   11    A  O5'  320   2.576   1.611   2.914
   11    A  C5'  321   2.509   1.586   3.037
   11    A  H5'  322   2.547   1.507   3.076
   11    A H5''  323   2.416   1.571   3.019
   11    A  C4'  324   2.527   1.702   3.133
   11    A  H4'  325   2.521   1.668   3.223
   11    A  O4'  326   2.659   1.759   3.115
   11    A  C1'  327   2.655   1.898   3.141
   11    A  H1'  328   2.715   1.919   3.214
   11    A   N9  329   2.699   1.971   3.020
   11    A   C8  330   2.705   1.925   2.891
   11    A   H8  331   2.681   1.838   2.866
   11    A   N7  332   2.748   2.015   2.806
   11    A   C5  333   2.772   2.127   2.886
   11    A   C6  334   2.819   2.256   2.856
   11    A   N6  335   2.852   2.295   2.733
   11    A  H61  336   2.881   2.375   2.721
   11    A  H62  337   2.845   2.240   2.667
   11    A   N1  338   2.831   2.344   2.958
   11    A   C2  339   2.798   2.305   3.082
   11    A   H2  340   2.808   2.369   3.149
   11    A   N3  341   2.752   2.186   3.122
   11    A   C4  342   2.741   2.101   3.018
   11    A  C3'  343   2.434   1.820   3.116
   11    A  H3'  344   2.423   1.838   3.021
   11    A  C2'  345   2.512   1.934   3.180
   11    A  H2'  346   2.485   2.020   3.144
   11    A  O2'  347   2.502   1.929   3.322
   11    A HO2'  348   2.422   1.939   3.345
   11    A  O3'  349   2.306   1.800   3.173
   12    G    P  350   2.182   1.890   3.123
   12    G  OP1  351   2.061   1.846   3.196
   12    G  OP2  352   2.184   1.892   2.974
   12    G  O5'  353   2.217   2.037   3.174
   12    G  C5'  354   2.195   2.073   3.310
   12    G  H5'  355   2.241   2.009   3.366
   12    G H5''  356   2.100   2.068   3.328
   12    G  C4'  357   2.247   2.211   3.340
   12    G  H4'  358   2.255   2.222   3.436
   12    G  O4'  359   2.379   2.227   3.282
   12    G  C1'  360   2.400   2.361   3.244
   12    G  H1'  361   2.473   2.398   3.297
   12    G   N9  362   2.436   2.366   3.102
   12    G   C8  363   2.428   2.267   3.008
   12    G   H8  364   2.395   2.181   3.026
   12    G   N7  365   2.470   2.305   2.890
   12    G   C5  366   2.509   2.437   2.909
   12    G   C6  367   2.563   2.532   2.819
   12    G   O6  368   2.588   2.516   2.699
   12    G   N1  369   2.587   2.654   2.881
   12    G   H1  370   2.621   2.717   2.833
   12    G   C2  371   2.564   2.683   3.013
   12    G   N2  372   2.593   2.806   3.054
   12    G  H21  373   2.625   2.862   2.998
   12    G  H22  374   2.580   2.830   3.136
   12    G   N3  375   2.513   2.595   3.098
   12    G   C4  376   2.488   2.476   3.040
   12    G  C3'  377   2.168   2.327   3.283
   12    G  H3'  378   2.138   2.305   3.193
   12    G  C2'  379   2.272   2.439   3.275
   12    G  H2'  380   2.250   2.501   3.204
   12    G  O2'  381   2.287   2.504   3.400
   12    G HO2'  382   2.214   2.537   3.424
   12    G  O3'  383   2.055   2.361   3.361
   13    C    P  384   1.930   2.437   3.294
   13    C  OP1  385   1.825   2.454   3.398
   13    C  OP2  386   1.899   2.369   3.166
   13    C  O5'  387   1.987   2.582   3.260
   13    C  C5'  388   1.999   2.680   3.362
   13    C  H5'  389   2.053   2.644   3.434
   13    C H5''  390   1.910   2.699   3.397
   13    C  C4'  391   2.062   2.807   3.310
   13    C  H4'  392   2.085   2.862   3.386
   13    C  O4'  393   2.183   2.775   3.236
   13    C  C1'  394   2.205   2.873   3.136
   13    C  H1'  395   2.285   2.922   3.159
   13    C   N1  396   2.224   2.808   3.004
   13    C   C6  397   2.187   2.677   2.987
   13    C   H6  398   2.148   2.631   3.058
   13    C   C5  399   2.204   2.615   2.869
   13    C   H5  400   2.178   2.526   2.857
   13    C   C4  401   2.264   2.687   2.763
   13    C   N4  402   2.281   2.625   2.646
   13    C  H41  403   2.258   2.543   2.638
   13    C  H42  404   2.317   2.667   2.579
   13    C   N3  405   2.302   2.814   2.779
   13    C   C2  406   2.284   2.878   2.898
   13    C   O2  407   2.320   2.996   2.912
   13    C  C3'  408   1.980   2.888   3.212
   13    C  H3'  409   1.936   2.828   3.150
   13    C  C2'  410   2.086   2.970   3.138
   13    C  H2'  411   2.057   2.992   3.049
   13    C  O2'  412   2.122   3.085   3.213
   13    C HO2'  413   2.053   3.131   3.229
   13    C  O3'  414   1.881   2.968   3.275
   14    G    P  415   1.750   3.012   3.193
   14    G  OP1  416   1.665   3.095   3.282
   14    G  OP2  417   1.693   2.892   3.127
   14    G  O5'  418   1.806   3.110   3.081
   14    G  C5'  419   1.835   3.245   3.111
   14    G  H5'  420   1.896   3.247   3.186
   14    G H5''  421   1.753   3.289   3.137
   14    G  C4'  422   1.897   3.316   2.994
   14    G  H4'  423   1.931   3.402   3.024
   14    G  O4'  424   2.008   3.238   2.943
   14    G  C1'  425   2.022   3.258   2.805
   14    G  H1'  426   2.107   3.302   2.789
   14    G   N9  427   2.022   3.128   2.736
   14    G   C8  428   1.986   3.005   2.785
   14    G   H8  429   1.955   2.992   2.872
   14    G   N7  430   2.000   2.910   2.698
   14    G   C5  431   2.049   2.974   2.585
   14    G   C6  432   2.084   2.923   2.457
   14    G   O6  433   2.078   2.806   2.418
   14    G   N1  434   2.130   3.024   2.372
   14    G   H1  435   2.153   3.001   2.293
   14    G   C2  436   2.140   3.156   2.405
   14    G   N2  437   2.185   3.238   2.309
   14    G  H21  438   2.208   3.204   2.234
   14    G  H22  439   2.191   3.322   2.323
   14    G   N3  440   2.107   3.205   2.524
   14    G   C4  441   2.063   3.109   2.607
   14    G  C3'  442   1.808   3.337   2.872
   14    G  H3'  443   1.754   3.257   2.858
   14    G  C2'  444   1.909   3.350   2.758
   14    G  H2'  445   1.872   3.319   2.675
   14    G  O2'  446   1.959   3.482   2.748
   14    G HO2'  447   1.896   3.535   2.738
   14    G  O3'  448   1.723   3.449   2.885
   15    C    P  449   1.588   3.457   2.797
   15    C  OP1  450   1.519   3.584   2.832
   15    C  OP2  451   1.516   3.328   2.810
   15    C  O5'  452   1.640   3.471   2.648
   15    C  C5'  453   1.684   3.597   2.598
   15    C  H5'  454   1.753   3.631   2.656
   15    C H5''  455   1.610   3.658   2.600
   15    C  C4'  456   1.738   3.585   2.458
   15    C  H4'  457   1.784   3.668   2.436
   15    C  O4'  458   1.831   3.475   2.448
   15    C  C1'  459   1.831   3.424   2.317
   15    C  H1'  460   1.917   3.446   2.277
   15    C   N1  461   1.817   3.276   2.319
   15    C   C6  462   1.776   3.213   2.434
   15    C   H6  463   1.755   3.265   2.509
   15    C   C5  464   1.764   3.080   2.440
   15    C   H5  465   1.735   3.038   2.518
   15    C   C4  466   1.796   3.004   2.325
   15    C   N4  467   1.785   2.871   2.330
   15    C  H41  468   1.756   2.835   2.402
   15    C  H42  469   1.805   2.823   2.262
   15    C   N3  470   1.837   3.064   2.213
   15    C   C2  471   1.850   3.199   2.206
   15    C   O2  472   1.889   3.254   2.102
   15    C  C3'  473   1.635   3.555   2.349
   15    C  H3'  474   1.573   3.489   2.382
   15    C  C2'  475   1.721   3.495   2.238
   15    C  H2'  476   1.670   3.433   2.184
   15    C  O2'  477   1.781   3.596   2.158
   15    C HO2'  478   1.722   3.650   2.133
   15    C  O3'  479   1.563   3.670   2.309
   16   U3    P  480   1.419   3.653   2.241
   16   U3  OP1  481   1.370   3.787   2.200
   16   U3  OP2  482   1.335   3.567   2.328
   16   U3  O5'  483   1.450   3.573   2.107
   16   U3  C5'  484   1.497   3.642   1.992
   16   U3  H5'  485   1.579   3.688   2.014
   16   U3 H5''  486   1.430   3.707   1.967
   16   U3  C4'  487   1.522   3.548   1.877
   16   U3  H4'  488   1.565   3.598   1.806
   16   U3  O4'  489   1.611   3.441   1.918
   16   U3  C1'  490   1.586   3.326   1.840
   16   U3  H1'  491   1.663   3.310   1.784
   16   U3   N1  492   1.566   3.209   1.928
   16   U3   C6  493   1.529   3.224   2.060
   16   U3   H6  494   1.517   3.310   2.094
   16   U3   C5  495   1.511   3.119   2.141
   16   U3   H5  496   1.486   3.132   2.229
   16   U3   C4  497   1.530   2.987   2.089
   16   U3   O4  498   1.515   2.883   2.154
   16   U3   N3  499   1.566   2.979   1.956
   16   U3   H3  500   1.579   2.900   1.922
   16   U3   C2  501   1.586   3.085   1.871
   16   U3   O2  502   1.619   3.071   1.755
   16   U3  C3'  503   1.402   3.475   1.822
   16   U3  H3'  504   1.346   3.443   1.895
   16   U3  C2'  505   1.465   3.355   1.751
   16   U3  H2'  506   1.405   3.280   1.749
   16   U3  O2'  507   1.510   3.389   1.622
   16   U3 HO2'  508   1.445   3.417   1.576
   16   U3  O3'  509   1.323   3.555   1.736
   16   U3 HO3'  510   1.248   3.504   1.704
   17   MG   MG  511   3.785   3.917   0.740
   18   MG   MG  512   4.963   1.931   1.197
   19   MG   MG  513   1.370   2.737   0.851
   20   MG   MG  514   2.559   3.589   3.568
   21   MG   MG  515   4.199   2.354   4.593
   22   MG   MG  516   0.919   3.239   2.038
   23   MG   MG  517   0.293   0.697   4.470
   24   MG   MG  518   2.717   4.727   2.292
   25   MG   MG  519   2.778   4.448   2.741
   26   MG   MG  520   4.462   3.688   0.250
   27  Cl-  CL-  521   4.358   4.494   4.214
   28  Cl-  CL-  522   2.213   1.786   1.710
   29  Cl-  CL-  523   4.175   2.295   3.975
   30  Cl-  CL-  524   0.341   1.376   2.674
   31  Cl-  CL-  525   3.616   1.777   4.586
   32  Cl-  CL-  526   1.030   0.855   3.463
   33  Cl-  CL-  527   3.404   0.446   0.515
   34  Cl-  CL-  528   0.399   3.661   3.871
   35  Cl-  CL-  529   4.854   1.431   0.356
   36  Cl-  CL-  530   4.281   4.686   4.004
   37  WAT    O  531   4.179   3.771   4.891
   37  WAT   H1  532   4.201   3.769   4.983
   37  WAT   H2  533   4.116   3.700   4.879
   37  WAT  EPW  534   4.173   3.762   4.901
   38  WAT    O  535   4.395   4.934   4.233
   38  WAT   H1  536   4.378   4.950   4.326
   38  WAT   H2  537   4.318   4.886   4.202
   38  WAT  EPW  538   4.383   4.930   4.241
   39  WAT    O  539   3.970   3.600   4.841
   39  WAT   H1  540   3.914   3.645   4.905
   39  WAT   H2  541   3.956   3.507   4.858
   39  WAT  EPW  542   3.961   3.594   4.851
   40  WAT    O  543   4.052   4.424   3.766
   40  WAT   H1  544   4.037   4.470   3.849
   40  WAT   H2  545   4.123   4.363   3.785
   40  WAT  EPW  546   4.059   4.422   3.779
   41  WAT    O  547   4.392   3.945   4.826
   41  WAT   H1  548   4.331   3.881   4.864
   41  WAT   H2  549   4.470   3.938   4.880
   41  WAT  EPW  550   4.394   3.936   4.838
   42  WAT    O  551   4.634   3.928   4.953
   42  WAT   H1  552   4.652   3.839   4.986
   42  WAT   H2  553   4.666   3.986   5.022
   42  WAT  EPW  554   4.640   3.924   4.966
   43  WAT    O  555   4.603   4.727   4.178
   43  WAT   H1  556   4.560   4.666   4.117
   43  WAT   H2  557   4.536   4.794   4.196
   43  WAT  EPW  558   4.589   4.728   4.172
   44  WAT    O  559   4.399   3.832   3.702
   44  WAT   H1  560   4.373   3.786   3.782
   44  WAT   H2  561   4.401   3.765   3.634
   44  WAT  EPW  562   4.396   3.818   3.704
   45  WAT    O  563   4.710   4.646   3.732
   45  WAT   H1  564   4.787   4.648   3.789
   45  WAT   H2  565   4.742   4.610   3.650
   45  WAT  EPW  566   4.724   4.642   3.729
   46  WAT    O  567   3.535   3.984   4.886
   46  WAT   H1  568   3.563   4.041   4.958
   46  WAT   H2  569   3.475   3.922   4.927
   46  WAT  EPW  570   3.531   3.983   4.901
   47  WAT    O  571   3.993   4.045   4.243
   47  WAT   H1  572   3.952   4.045   4.156
   47  WAT   H2  573   3.944   4.111   4.292
   47  WAT  EPW  574   3.981   4.053   4.238
   48  WAT    O  575   3.935   3.763   4.115
   48  WAT   H1  576   3.860   3.762   4.173
   48  WAT   H2  577   3.989   3.689   4.143
   48  WAT  EPW  578   3.933   3.754   4.126
   49  WAT    O  579   4.401   4.183   4.098
   49  WAT   H1  580   4.319   4.181   4.050
   49  WAT   H2  581   4.376   4.165   4.189
   49  WAT  EPW  582   4.388   4.181   4.103
   50  WAT    O  583   3.884   4.345   3.565
   50  WAT   H1  584   3.824   4.419   3.555
   50  WAT   H2  585   3.947   4.374   3.631
   50  WAT  EPW  586   3.884   4.359   3.572
   51  WAT    O  587   4.199   4.241   4.593
   51  WAT   H1  588   4.287   4.270   4.616
   51  WAT   H2  589   4.208   4.207   4.503
   51  WAT  EPW  590   4.211   4.240   4.584
   52  WAT    O  591   4.629   3.823   4.411
   52  WAT   H1  592   4.533   3.816   4.418
   52  WAT   H2  593   4.661   3.750   4.464
   52  WAT  EPW  594   4.621   3.813   4.419
   53  WAT    O  595   4.877   3.955   3.797
   53  WAT   H1  596   4.887   3.990   3.886
   53  WAT   H2  597   4.864   4.033   3.743
   53  WAT  EPW  598   4.876   3.969   3.802
   54  WAT    O  599   4.925   4.474   4.715
   54  WAT   H1  600   4.838   4.448   4.686
   54  WAT   H2  601   4.960   4.395   4.758
   54  WAT  EPW  602   4.919   4.460   4.717
   55  WAT    O  603   4.099   3.673   3.596
   55  WAT   H1  604   4.134   3.673   3.685
   55  WAT   H2  605   4.051   3.755   3.588
   55  WAT  EPW  606   4.098   3.683   3.606
   56  WAT    O  607   3.616   3.664   4.586
   56  WAT   H1  608   3.700   3.710   4.574
   56  WAT   H2  609   3.558   3.704   4.522
   56  WAT  EPW  610   3.620   3.675   4.577
   57  WAT    O  611   4.360   4.124   4.361
   57  WAT   H1  612   4.368   4.045   4.416
   57  WAT   H2  613   4.404   4.192   4.411
   57  WAT  EPW  614   4.366   4.122   4.375
   58  WAT    O  615   4.583   4.058   3.709
   58  WAT   H1  616   4.520   3.985   3.711
   58  WAT   H2  617   4.605   4.074   3.801
   58  WAT  EPW  618   4.578   4.051   3.721
   59  WAT    O  619   4.257   4.223   4.921
   59  WAT   H1  620   4.172   4.191   4.953
   59  WAT   H2  621   4.304   4.143   4.895
   59  WAT  EPW  622   4.252   4.208   4.922
   60  WAT    O  623   4.603   4.070   3.975
   60  WAT   H1  624   4.521   4.098   4.015
   60  WAT   H2  625   4.671   4.108   4.031
   60  WAT  EPW  626   4.601   4.078   3.988
   61  WAT    O  627   3.904   4.429   4.785
   61  WAT   H1  628   3.866   4.416   4.872
   61  WAT   H2  629   3.848   4.378   4.727
   61  WAT  EPW  630   3.892   4.421   4.788
   62  WAT    O  631   4.805   4.580   4.330
   62  WAT   H1  632   4.859   4.630   4.391
   62  WAT   H2  633   4.735   4.640   4.305
   62  WAT  EPW  634   4.803   4.594   4.335
   63  WAT    O  635   3.603   4.736   4.412
   63  WAT   H1  636   3.642   4.729   4.325
   63  WAT   H2  637   3.664   4.691   4.470
   63  WAT  EPW  638   3.616   4.730   4.409
   64  WAT    O  639   4.550   4.391   3.997
   64  WAT   H1  640   4.483   4.323   4.000
   64  WAT   H2  641   4.558   4.412   3.905
   64  WAT  EPW  642   4.543   4.385   3.986
   65  WAT    O  643   4.017   4.121   4.789
   65  WAT   H1  644   3.958   4.047   4.774
   65  WAT   H2  645   4.078   4.118   4.715
   65  WAT  EPW  646   4.017   4.111   4.778
   66  WAT    O  647   4.155   4.740   4.592
   66  WAT   H1  648   4.151   4.644   4.588
   66  WAT   H2  649   4.110   4.763   4.673
   66  WAT  EPW  650   4.149   4.731   4.602
   67  WAT    O  651   3.513   4.315   3.974
   67  WAT   H1  652   3.580   4.375   4.008
   67  WAT   H2  653   3.430   4.359   3.993
   67  WAT  EPW  654   3.511   4.329   3.981
   68  WAT    O  655   3.747   4.760   4.194
   68  WAT   H1  656   3.815   4.732   4.256
   68  WAT   H2  657   3.757   4.855   4.189
   68  WAT  EPW  658   3.757   4.769   4.202
   69  WAT    O  659   4.288   4.634   3.703
   69  WAT   H1  660   4.250   4.603   3.621
   69  WAT   H2  661   4.312   4.725   3.685
   69  WAT  EPW  662   4.286   4.641   3.690
   70  WAT    O  663   3.714   3.779   4.271
   70  WAT   H1  664   3.690   3.697   4.227
   70  WAT   H2  665   3.638   3.836   4.258
   70  WAT  EPW  666   3.701   3.776   4.264
   71  WAT    O  667   4.171   3.661   3.871
   71  WAT   H1  668   4.195   3.573   3.901
   71  WAT   H2  669   4.149   3.708   3.951
   71  WAT  EPW  670   4.171   3.655   3.885
   72  WAT    O  671   4.694   3.835   4.125
   72  WAT   H1  672   4.665   3.907   4.069
   72  WAT   H2  673   4.667   3.862   4.213
   72  WAT  EPW  674   4.687   3.848   4.129
   73  WAT    O  675   3.855   4.087   3.675
   73  WAT   H1  676   3.762   4.063   3.678
   73  WAT   H2  677   3.854   4.179   3.648
   73  WAT  EPW  678   3.843   4.096   3.672
   74  WAT    O  679   4.052   4.522   4.003
   74  WAT   H1  680   4.134   4.571   4.000
   74  WAT   H2  681   4.057   4.473   4.085
   74  WAT  EPW  682   4.063   4.522   4.013
   75  WAT    O  683   4.266   4.890   4.961
   75  WAT   H1  684   4.187   4.931   4.924
   75  WAT   H2  685   4.237   4.803   4.988
   75  WAT  EPW  686   4.252   4.884   4.959
   76  WAT    O  687   4.168   4.486   4.808
   76  WAT   H1  688   4.201   4.406   4.849
   76  WAT   H2  689   4.081   4.463   4.776
   76  WAT  EPW  690   4.161   4.473   4.809
   77  WAT    O  691   4.779   4.294   4.331
   77  WAT   H1  692   4.829   4.274   4.252
   77  WAT   H2  693   4.798   4.387   4.348
   77  WAT  EPW  694   4.788   4.303   4.323
   78  WAT    O  695   4.242   4.169   3.705
   78  WAT   H1  696   4.194   4.087   3.692
   78  WAT   H2  697   4.285   4.185   3.622
   78  WAT  EPW  698   4.241   4.160   3.693
   79  WAT    O  699   3.638   4.673   3.751
   79  WAT   H1  700   3.715   4.640   3.799
   79  WAT   H2  701   3.564   4.649   3.807
   79  WAT  EPW  702   3.639   4.665   3.764
   80  WAT    O  703   3.572   4.048   4.621
   80  WAT   H1  704   3.652   4.013   4.581
   80  WAT   H2  705   3.570   4.010   4.709
   80  WAT  EPW  706   3.582   4.039   4.627
   81  WAT    O  707   4.511   4.354   4.394
   81  WAT   H1  708   4.471   4.430   4.352
   81  WAT   H2  709   4.598   4.347   4.353
   81  WAT  EPW  710   4.517   4.363   4.383
   82  WAT    O  711   3.781   4.527   4.492
   82  WAT   H1  712   3.876   4.525   4.490
   82  WAT   H2  713   3.756   4.445   4.536
   82  WAT  EPW  714   3.790   4.516   4.498
   83  WAT    O  715   4.811   3.928   4.746
   83  WAT   H1  716   4.765   3.972   4.674
   83  WAT   H2  717   4.757   3.945   4.823
   83  WAT  EPW  718   4.798   3.936   4.747
   84  WAT    O  719   4.665   4.075   4.527
   84  WAT   H1  720   4.727   4.120   4.470
   84  WAT   H2  721   4.651   3.991   4.485
   84  WAT  EPW  722   4.671   4.070   4.514
   85  WAT    O  723   4.518   4.863   4.877
   85  WAT   H1  724   4.558   4.945   4.907
   85  WAT   H2  725   4.427   4.869   4.905
   85  WAT  EPW  726   4.512   4.874   4.884
   86  WAT    O  727   4.667   3.750   3.803
   86  WAT   H1  728   4.591   3.775   3.750
   86  WAT   H2  729   4.723   3.828   3.803
   86  WAT  EPW  730   4.665   3.763   3.796
   87  WAT    O  731   3.921   4.079   3.974
   87  WAT   H1  732   3.912   4.052   3.883
   87  WAT   H2  733   3.831   4.095   4.004
   87  WAT  EPW  734   3.908   4.078   3.966
   88  WAT    O  735   4.879   3.668   4.254
   88  WAT   H1  736   4.813   3.709   4.198
   88  WAT   H2  737   4.949   3.642   4.194
   88  WAT  EPW  738   4.880   3.670   4.239
   89  WAT    O  739   4.115   4.371   4.214
   89  WAT   H1  740   4.134   4.296   4.158
   89  WAT   H2  741   4.201   4.410   4.231
   89  WAT  EPW  742   4.129   4.366   4.209
   90  WAT    O  743   3.980   3.558   4.430
   90  WAT   H1  744   3.997   3.650   4.450
   90  WAT   H2  745   4.037   3.509   4.490
   90  WAT  EPW  746   3.989   3.563   4.440
   91  WAT    O  747   4.360   4.892   3.643
   91  WAT   H1  748   4.445   4.888   3.688
   91  WAT   H2  749   4.383   4.912   3.552
   91  WAT  EPW  750   4.374   4.894   3.637
   92  WAT    O  751   4.065   4.471   4.470
   92  WAT   H1  752   4.091   4.429   4.387
   92  WAT   H2  753   4.074   4.401   4.535
   92  WAT  EPW  754   4.070   4.456   4.467
   93  WAT    O  755   4.797   4.916   4.515
   93  WAT   H1  756   4.806   4.941   4.423
   93  WAT   H2  757   4.711   4.951   4.541
   93  WAT  EPW  758   4.787   4.924   4.507
   94  WAT    O  759   4.502   4.468   3.735
   94  WAT   H1  760   4.575   4.530   3.734
   94  WAT   H2  761   4.424   4.523   3.732
   94  WAT  EPW  762   4.502   4.483   3.735
   95  WAT    O  763   4.466   4.206   4.647
   95  WAT   H1  764   4.421   4.131   4.685
   95  WAT   H2  765   4.538   4.168   4.597
   95  WAT  EPW  766   4.469   4.192   4.646
   96  WAT    O  767   4.619   4.619   4.818
   96  WAT   H1  768   4.592   4.701   4.858
   96  WAT   H2  769   4.714   4.617   4.829
   96  WAT  EPW  770   4.628   4.629   4.825
   97  WAT    O  771   4.168   3.880   4.045
   97  WAT   H1  772   4.153   3.974   4.038
   97  WAT   H2  773   4.089   3.847   4.088
   97  WAT  EPW  774   4.156   3.888   4.050
   98  WAT    O  775   4.094   3.929   3.705
   98  WAT   H1  776   4.002   3.907   3.721
   98  WAT   H2  777   4.141   3.890   3.778
   98  WAT  EPW  778   4.088   3.921   3.716
   99  WAT    O  779   3.573   3.694   4.890
   99  WAT   H1  780   3.659   3.691   4.932
   99  WAT   H2  781   3.591   3.709   4.797
   99  WAT  EPW  782   3.586   3.696   4.884
  100  WAT    O  783   4.664   4.448   4.627
  100  WAT   H1  784   4.637   4.512   4.693
  100  WAT   H2  785   4.584   4.430   4.577
  100  WAT  EPW  786   4.651   4.454   4.629
  101  WAT    O  787   3.654   4.102   4.093
  101  WAT   H1  788   3.694   4.160   4.158
  101  WAT   H2  789   3.608   4.160   4.033
  101  WAT  EPW  790   3.653   4.117   4.094
  102  WAT    O  791   4.662   4.281   4.883
  102  WAT   H1  792   4.646   4.312   4.794
  102  WAT   H2  793   4.576   4.255   4.915
  102  WAT  EPW  794   4.649   4.282   4.876
  103  WAT    O  795   3.850   3.570   3.698
  103  WAT   H1  796   3.850   3.644   3.758
  103  WAT   H2  797   3.900   3.600   3.622
  103  WAT  EPW  798   3.857   3.583   3.696
  104  WAT    O  799   3.942   4.773   3.726
  104  WAT   H1  800   3.950   4.768   3.631
  104  WAT   H2  801   3.886   4.850   3.741
  104  WAT  EPW  802   3.936   4.782   3.716
  105  WAT    O  803   3.693   4.295   4.612
  105  WAT   H1  804   3.615   4.346   4.635
  105  WAT   H2  805   3.667   4.204   4.624
  105  WAT  EPW  806   3.680   4.290   4.616
  106  WAT    O  807   4.003   4.711   4.323
  106  WAT   H1  808   3.994   4.789   4.377
  106  WAT   H2  809   4.010   4.639   4.385
  106  WAT  EPW  810   4.002   4.712   4.338
  107  WAT    O  811   3.566   3.819   3.843
  107  WAT   H1  812   3.560   3.794   3.751
  107  WAT   H2  813   3.511   3.898   3.850
  107  WAT  EPW  814   3.558   3.826   3.832
  108  WAT    O  815   4.121   3.577   4.186
  108  WAT   H1  816   4.081   3.544   4.266
  108  WAT   H2  817   4.132   3.499   4.131
  108  WAT  EPW  818   4.117   3.563   4.189
  109  WAT    O  819   4.175   4.181   3.975
  109  WAT   H1  820   4.213   4.175   3.887
  109  WAT   H2  821   4.085   4.152   3.965
  109  WAT  EPW  822   4.169   4.177   3.962
  110  WAT    O  823   4.145   4.897   3.818
  110  WAT   H1  824   4.072   4.848   3.781
  110  WAT   H2  825   4.211   4.898   3.749
  110  WAT  EPW  826   4.144   4.891   3.805
  111  WAT    O  827   4.390   3.871   4.213
  111  WAT   H1  828   4.305   3.857   4.172
  111  WAT   H2  829   4.395   3.966   4.227
  111  WAT  EPW  830   4.380   3.881   4.210
  112  WAT    O  831   4.494   4.238   3.537
  112  WAT   H1  832   4.492   4.303   3.607
  112  WAT   H2  833   4.530   4.159   3.578
  112  WAT  EPW  834   4.499   4.236   3.551
  113  WAT    O  835   4.462   3.688   4.022
  113  WAT   H1  836   4.439   3.767   4.072
  113  WAT   H2  837   4.552   3.704   3.993
  113  WAT  EPW  838   4.470   3.700   4.025
  114  WAT    O  839   4.695   3.687   5.023
  114  WAT   H1  840   4.669   3.609   4.973
  114  WAT   H2  841   4.791   3.688   5.018
  114  WAT  EPW  842   4.704   3.677   5.016
  115  WAT    O  843   4.387   3.902   4.551
  115  WAT   H1  844   4.302   3.859   4.542
  115  WAT   H2  845   4.397   3.917   4.645
  115  WAT  EPW  846   4.377   3.898   4.562
  116  WAT    O  847   4.129   4.855   4.134
  116  WAT   H1  848   4.066   4.810   4.190
  116  WAT   H2  849   4.081   4.929   4.097
  116  WAT  EPW  850   4.115   4.859   4.137
  117  WAT    O  851   3.785   3.917   4.512
  117  WAT   H1  852   3.775   3.871   4.429
  117  WAT   H2  853   3.867   3.885   4.549
  117  WAT  EPW  854   3.794   3.907   4.506
  118  WAT    O  855   4.001   3.843   4.638
  118  WAT   H1  856   4.046   3.785   4.699
  118  WAT   H2  857   4.057   3.845   4.561
  118  WAT  EPW  858   4.014   3.836   4.636
  119  WAT    O  859   3.901   4.729   4.822
  119  WAT   H1  860   3.855   4.763   4.746
  119  WAT   H2  861   3.909   4.635   4.805
  119  WAT  EPW  862   3.896   4.721   4.810
  120  WAT    O  863   3.720   4.493   4.041
  120  WAT   H1  864   3.816   4.496   4.043
  120  WAT   H2  865   3.693   4.585   4.045
  120  WAT  EPW  866   3.729   4.505   4.042
  121  WAT    O  867   3.856   3.822   3.838
  121  WAT   H1  868   3.887   3.829   3.928
  121  WAT   H2  869   3.765   3.796   3.846
  121  WAT  EPW  870   3.849   3.820   3.850
  122  WAT    O  871   4.787   4.248   4.076
  122  WAT   H1  872   4.849   4.293   4.018
  122  WAT   H2  873   4.706   4.299   4.068
  122  WAT  EPW  874   4.785   4.260   4.068
  123  WAT    O  875   3.449   4.853   3.672
  123  WAT   H1  876   3.512   4.801   3.722
  123  WAT   H2  877   3.499   4.884   3.596
  123  WAT  EPW  878   3.464   4.851   3.669
  124  WAT    O  879   4.877   4.856   4.782
  124  WAT   H1  880   4.859   4.848   4.688
  124  WAT   H2  881   4.955   4.911   4.787
  124  WAT  EPW  882   4.884   4.862   4.770
  125  WAT    O  883   4.963   3.817   4.969
  125  WAT   H1  884   4.934   3.900   5.009
  125  WAT   H2  885   4.940   3.826   4.877
  125  WAT  EPW  886   4.956   3.829   4.963
  126  WAT    O  887   4.136   3.833   4.405
  126  WAT   H1  888   4.118   3.892   4.331
  126  WAT   H2  889   4.184   3.760   4.366
  126  WAT  EPW  890   4.140   3.831   4.390
  127  WAT    O  891   3.496   4.492   4.262
  127  WAT   H1  892   3.556   4.517   4.192
  127  WAT   H2  893   3.527   4.541   4.339
  127  WAT  EPW  894   3.508   4.501   4.263
  128  WAT    O  895   3.765   4.843   4.643
  128  WAT   H1  896   3.790   4.912   4.582
  128  WAT   H2  897   3.677   4.868   4.673
  128  WAT  EPW  898   3.757   4.855   4.639
  129  WAT    O  899   4.179   3.771   3.005
  129  WAT   H1  900   4.201   3.769   3.097
  129  WAT   H2  901   4.116   3.700   2.993
  129  WAT  EPW  902   4.173   3.762   3.015
  130  WAT    O  903   4.395   4.934   2.347
  130  WAT   H1  904   4.378   4.950   2.440
  130  WAT   H2  905   4.318   4.886   2.316
  130  WAT  EPW  906   4.383   4.930   2.355
  131  WAT    O  907   3.970   3.600   2.955
  131  WAT   H1  908   3.914   3.645   3.019
  131  WAT   H2  909   3.956   3.507   2.972
  131  WAT  EPW  910   3.961   3.594   2.965
  132  WAT    O  911   4.052   4.424   1.880
  132  WAT   H1  912   4.037   4.470   1.963
  132  WAT   H2  913   4.123   4.363   1.899
  132  WAT  EPW  914   4.059   4.422   1.893
  133  WAT    O  915   4.392   3.945   2.940
  133  WAT   H1  916   4.331   3.881   2.978
  133  WAT   H2  917   4.470   3.938   2.994
  133  WAT  EPW  918   4.394   3.936   2.952
  134  WAT    O  919   4.445   3.589   3.568
  134  WAT   H1  920   4.535   3.566   3.542
  134  WAT   H2  921   4.393   3.577   3.489
  134  WAT  EPW  922   4.450   3.584   3.555
  135  WAT    O  923   4.634   3.928   3.067
  135  WAT   H1  924   4.652   3.839   3.100
  135  WAT   H2  925   4.666   3.986   3.136
  135  WAT  EPW  926   4.640   3.924   3.080
  136  WAT    O  927   4.603   4.727   2.292
  136  WAT   H1  928   4.560   4.666   2.231
  136  WAT   H2  929   4.536   4.794   2.310
  136  WAT  EPW  930   4.589   4.728   2.286
  137  WAT    O  931   4.399   3.832   1.816
  137  WAT   H1  932   4.373   3.786   1.896
  137  WAT   H2  933   4.401   3.765   1.748
  137  WAT  EPW  934   4.396   3.818   1.818
  138  WAT    O  935   4.423   4.551   3.144
  138  WAT   H1  936   4.410   4.465   3.183
  138  WAT   H2  937   4.467   4.534   3.061
  138  WAT  EPW  938   4.427   4.538   3.139
  139  WAT    O  939   4.710   4.646   1.846
  139  WAT   H1  940   4.787   4.648   1.903
  139  WAT   H2  941   4.742   4.610   1.764
  139  WAT  EPW  942   4.724   4.642   1.843
  140  WAT    O  943   3.535   3.984   3.000
  140  WAT   H1  944   3.563   4.041   3.072
  140  WAT   H2  945   3.475   3.922   3.041
  140  WAT  EPW  946   3.531   3.983   3.015
  141  WAT    O  947   3.623   4.618   3.259
  141  WAT   H1  948   3.530   4.596   3.245
  141  WAT   H2  949   3.631   4.628   3.354
  141  WAT  EPW  950   3.612   4.616   3.270
  142  WAT    O  951   3.993   4.045   2.357
  142  WAT   H1  952   3.952   4.045   2.270
  142  WAT   H2  953   3.944   4.111   2.406
  142  WAT  EPW  954   3.981   4.053   2.352
  143  WAT    O  955   3.805   3.684   3.159
  143  WAT   H1  956   3.825   3.774   3.185
  143  WAT   H2  957   3.769   3.644   3.238
  143  WAT  EPW  958   3.803   3.691   3.172
  144  WAT    O  959   3.935   3.763   2.229
  144  WAT   H1  960   3.860   3.762   2.287
  144  WAT   H2  961   3.989   3.689   2.257
  144  WAT  EPW  962   3.933   3.754   2.240
  145  WAT    O  963   4.639   4.133   3.259
  145  WAT   H1  964   4.698   4.164   3.328
  145  WAT   H2  965   4.567   4.196   3.259
  145  WAT  EPW  966   4.638   4.145   3.268
  146  WAT    O  967   4.401   4.183   2.212
  146  WAT   H1  968   4.319   4.181   2.164
  146  WAT   H2  969   4.376   4.165   2.303
  146  WAT  EPW  970   4.388   4.181   2.217
  147  WAT    O  971   3.592   3.984   3.564
  147  WAT   H1  972   3.572   3.993   3.471
  147  WAT   H2  973   3.512   4.015   3.608
  147  WAT  EPW  974   3.579   3.989   3.558
  148  WAT    O  975   3.884   4.345   1.679
  148  WAT   H1  976   3.824   4.419   1.669
  148  WAT   H2  977   3.947   4.374   1.745
  148  WAT  EPW  978   3.884   4.359   1.686
  149  WAT    O  979   4.199   4.241   2.707
  149  WAT   H1  980   4.287   4.270   2.730
  149  WAT   H2  981   4.208   4.207   2.617
  149  WAT  EPW  982   4.211   4.240   2.698
  150  WAT    O  983   3.588   4.887   3.440
  150  WAT   H1  984   3.512   4.944   3.428
  150  WAT   H2  985   3.609   4.856   3.352
  150  WAT  EPW  986   3.581   4.890   3.427
  151  WAT    O  987   4.629   3.823   2.525
  151  WAT   H1  988   4.533   3.816   2.532
  151  WAT   H2  989   4.661   3.750   2.578
  151  WAT  EPW  990   4.621   3.813   2.533
  152  WAT    O  991   4.194   4.576   3.444
  152  WAT   H1  992   4.178   4.481   3.440
  152  WAT   H2  993   4.185   4.605   3.353
  152  WAT  EPW  994   4.190   4.567   3.431
  153  WAT    O  995   4.877   3.955   1.911
  153  WAT   H1  996   4.887   3.990   2.000
  153  WAT   H2  997   4.864   4.033   1.857
  153  WAT  EPW  998   4.876   3.969   1.916
  154  WAT    O  999   4.925   4.474   2.829
  154  WAT   H1 1000   4.838   4.448   2.800
  154  WAT   H2 1001   4.960   4.395   2.872
  154  WAT  EPW 1002   4.919   4.460   2.831
  155  WAT    O 1003   4.099   3.673   1.710
  155  WAT   H1 1004   4.134   3.673   1.799
  155  WAT   H2 1005   4.051   3.755   1.702
  155  WAT  EPW 1006   4.098   3.683   1.720
  156  WAT    O 1007   3.616   3.664   2.700
  156  WAT   H1 1008   3.700   3.710   2.688
  156  WAT   H2 1009   3.558   3.704   2.636
  156  WAT  EPW 1010   3.620   3.675   2.691
  157  WAT    O 1011   3.726   3.577   3.402
  157  WAT   H1 1012   3.643   3.535   3.422
  157  WAT   H2 1013   3.723   3.660   3.450
  157  WAT  EPW 1014   3.715   3.583   3.410
  158  WAT    O 1015   4.360   4.124   2.475
  158  WAT   H1 1016   4.368   4.045   2.530
  158  WAT   H2 1017   4.404   4.192   2.525
  158  WAT  EPW 1018   4.366   4.122   2.489
  159  WAT    O 1019   4.583   4.058   1.823
  159  WAT   H1 1020   4.520   3.985   1.825
  159  WAT   H2 1021   4.605   4.074   1.915
  159  WAT  EPW 1022   4.578   4.051   1.835
  160  WAT    O 1023   4.257   4.223   3.035
  160  WAT   H1 1024   4.172   4.191   3.067
  160  WAT   H2 1025   4.304   4.143   3.009
  160  WAT  EPW 1026   4.252   4.208   3.036
  161  WAT    O 1027   3.950   4.741   3.468
  161  WAT   H1 1028   4.031   4.692   3.454
  161  WAT   H2 1029   3.923   4.769   3.381
  161  WAT  EPW 1030   3.956   4.738   3.455
  162  WAT    O 1031   4.176   4.645   3.171
  162  WAT   H1 1032   4.264   4.608   3.166
  162  WAT   H2 1033   4.122   4.587   3.118
  162  WAT  EPW 1034   4.180   4.633   3.164
  163  WAT    O 1035   4.820   4.471   3.136
  163  WAT   H1 1036   4.764   4.431   3.069
  163  WAT   H2 1037   4.763   4.532   3.182
  163  WAT  EPW 1038   4.806   4.474   3.133
  164  WAT    O 1039   4.603   4.070   2.089
  164  WAT   H1 1040   4.521   4.098   2.129
  164  WAT   H2 1041   4.671   4.108   2.145
  164  WAT  EPW 1042   4.601   4.078   2.102
  165  WAT    O 1043   3.904   4.429   2.899
  165  WAT   H1 1044   3.866   4.416   2.986
  165  WAT   H2 1045   3.848   4.378   2.841
  165  WAT  EPW 1046   3.892   4.421   2.902
  166  WAT    O 1047   4.805   4.580   2.444
  166  WAT   H1 1048   4.859   4.630   2.505
  166  WAT   H2 1049   4.735   4.640   2.419
  166  WAT  EPW 1050   4.803   4.594   2.449
  167  WAT    O 1051   3.603   4.736   2.526
  167  WAT   H1 1052   3.642   4.729   2.439
  167  WAT   H2 1053   3.664   4.691   2.584
  167  WAT  EPW 1054   3.616   4.730   2.523
  168  WAT    O 1055   4.550   4.391   2.111
  168  WAT   H1 1056   4.483   4.323   2.114
  168  WAT   H2 1057   4.558   4.412   2.019
  168  WAT  EPW 1058   4.543   4.385   2.100
  169  WAT    O 1059   3.919   3.876   3.508
  169  WAT   H1 1060   3.904   3.904   3.418
  169  WAT   H2 1061   3.895   3.952   3.561
  169  WAT  EPW 1062   3.914   3.889   3.503
  170  WAT    O 1063   4.112   4.288   3.418
  170  WAT   H1 1064   4.101   4.260   3.328
  170  WAT   H2 1065   4.023   4.298   3.452
  170  WAT  EPW 1066   4.099   4.286   3.411
  171  WAT    O 1067   4.017   4.121   2.903
  171  WAT   H1 1068   3.958   4.047   2.888
  171  WAT   H2 1069   4.078   4.118   2.829
  171  WAT  EPW 1070   4.017   4.111   2.892
  172  WAT    O 1071   4.155   4.740   2.706
  172  WAT   H1 1072   4.151   4.644   2.702
  172  WAT   H2 1073   4.110   4.763   2.787
  172  WAT  EPW 1074   4.149   4.731   2.716
  173  WAT    O 1075   4.952   4.405   3.374
  173  WAT   H1 1076   4.883   4.341   3.391
  173  WAT   H2 1077   4.931   4.441   3.288
  173  WAT  EPW 1078   4.940   4.402   3.365
  174  WAT    O 1079   3.513   4.315   2.088
  174  WAT   H1 1080   3.580   4.375   2.122
  174  WAT   H2 1081   3.430   4.359   2.107
  174  WAT  EPW 1082   3.511   4.329   2.095
  175  WAT    O 1083   3.747   4.760   2.308
  175  WAT   H1 1084   3.815   4.732   2.370
  175  WAT   H2 1085   3.757   4.855   2.303
  175  WAT  EPW 1086   3.757   4.769   2.316
  176  WAT    O 1087   4.288   4.634   1.817
  176  WAT   H1 1088   4.250   4.603   1.735
  176  WAT   H2 1089   4.312   4.725   1.799
  176  WAT  EPW 1090   4.286   4.641   1.804
  177  WAT    O 1091   3.714   3.779   2.385
  177  WAT   H1 1092   3.690   3.697   2.341
  177  WAT   H2 1093   3.638   3.836   2.372
  177  WAT  EPW 1094   3.701   3.776   2.378
  178  WAT    O 1095   4.171   3.661   1.985
  178  WAT   H1 1096   4.195   3.573   2.015
  178  WAT   H2 1097   4.149   3.708   2.065
  178  WAT  EPW 1098   4.171   3.655   1.999
  179  WAT    O 1099   4.694   3.835   2.239
  179  WAT   H1 1100   4.665   3.907   2.183
  179  WAT   H2 1101   4.667   3.862   2.327
  179  WAT  EPW 1102   4.687   3.848   2.243
  180  WAT    O 1103   3.855   4.087   1.789
  180  WAT   H1 1104   3.762   4.063   1.792
  180  WAT   H2 1105   3.854   4.179   1.762
  180  WAT  EPW 1106   3.843   4.096   1.786
  181  WAT    O 1107   4.052   4.522   2.117
  181  WAT   H1 1108   4.134   4.571   2.114
  181  WAT   H2 1109   4.057   4.473   2.199
  181  WAT  EPW 1110   4.063   4.522   2.127
  182  WAT    O 1111   4.281   4.686   2.118
  182  WAT   H1 1112   4.229   4.756   2.156
  182  WAT   H2 1113   4.282   4.706   2.024
  182  WAT  EPW 1114   4.275   4.698   2.111
  183  WAT    O 1115   3.875   4.716   3.217
  183  WAT   H1 1116   3.871   4.748   3.127
  183  WAT   H2 1117   3.788   4.680   3.234
  183  WAT  EPW 1118   3.863   4.716   3.208
  184  WAT    O 1119   4.266   4.890   3.075
  184  WAT   H1 1120   4.187   4.931   3.038
  184  WAT   H2 1121   4.237   4.803   3.102
  184  WAT  EPW 1122   4.252   4.884   3.073
  185  WAT    O 1123   4.168   4.486   2.922
  185  WAT   H1 1124   4.201   4.406   2.963
  185  WAT   H2 1125   4.081   4.463   2.890
  185  WAT  EPW 1126   4.161   4.473   2.923
  186  WAT    O 1127   3.730   4.579   3.519
  186  WAT   H1 1128   3.810   4.630   3.508
  186  WAT   H2 1129   3.685   4.621   3.593
  186  WAT  EPW 1130   3.734   4.591   3.527
  187  WAT    O 1131   4.779   4.294   2.445
  187  WAT   H1 1132   4.829   4.274   2.366
  187  WAT   H2 1133   4.798   4.387   2.462
  187  WAT  EPW 1134   4.788   4.303   2.437
  188  WAT    O 1135   4.242   4.169   1.819
  188  WAT   H1 1136   4.194   4.087   1.806
  188  WAT   H2 1137   4.285   4.185   1.736
  188  WAT  EPW 1138   4.241   4.160   1.807
  189  WAT    O 1139   3.638   4.673   1.865
  189  WAT   H1 1140   3.715   4.640   1.913
  189  WAT   H2 1141   3.564   4.649   1.921
  189  WAT  EPW 1142   3.639   4.665   1.878
  190  WAT    O 1143   3.572   4.048   2.735
  190  WAT   H1 1144   3.652   4.013   2.695
  190  WAT   H2 1145   3.570   4.010   2.823
  190  WAT  EPW 1146   3.582   4.039   2.741
  191  WAT    O 1147   4.511   4.354   2.508
  191  WAT   H1 1148   4.471   4.430   2.466
  191  WAT   H2 1149   4.598   4.347   2.467
  191  WAT  EPW 1150   4.517   4.363   2.497
  192  WAT    O 1151   3.781   4.527   2.606
  192  WAT   H1 1152   3.876   4.525   2.604
  192  WAT   H2 1153   3.756   4.445   2.650
  192  WAT  EPW 1154   3.790   4.516   2.612
  193  WAT    O 1155   4.811   3.928   2.860
  193  WAT   H1 1156   4.765   3.972   2.788
  193  WAT   H2 1157   4.757   3.945   2.937
  193  WAT  EPW 1158   4.798   3.936   2.861
  194  WAT    O 1159   4.665   4.075   2.641
  194  WAT   H1 1160   4.727   4.120   2.584
  194  WAT   H2 1161   4.651   3.991   2.599
  194  WAT  EPW 1162   4.671   4.070   2.628
  195  WAT    O 1163   4.518   4.863   2.991
  195  WAT   H1 1164   4.558   4.945   3.021
  195  WAT   H2 1165   4.427   4.869   3.019
  195  WAT  EPW 1166   4.512   4.874   2.998
  196  WAT    O 1167   4.667   3.750   1.917
  196  WAT   H1 1168   4.591   3.775   1.864
  196  WAT   H2 1169   4.723   3.828   1.917
  196  WAT  EPW 1170   4.665   3.763   1.910
  197  WAT    O 1171   3.921   4.079   2.088
  197  WAT   H1 1172   3.912   4.052   1.997
  197  WAT   H2 1173   3.831   4.095   2.118
  197  WAT  EPW 1174   3.908   4.078   2.080
  198  WAT    O 1175   4.879   3.668   2.368
  198  WAT   H1 1176   4.813   3.709   2.312
  198  WAT   H2 1177   4.949   3.642   2.308
  198  WAT  EPW 1178   4.880   3.670   2.353
  199  WAT    O 1179   4.115   4.371   2.328
  199  WAT   H1 1180   4.134   4.296   2.272
  199  WAT   H2 1181   4.201   4.410   2.345
  199  WAT  EPW 1182   4.129   4.366   2.323
  200  WAT    O 1183   4.281   3.857   3.252
  200  WAT   H1 1184   4.373   3.864   3.277
  200  WAT   H2 1185   4.236   3.919   3.310
  200  WAT  EPW 1186   4.287   3.866   3.263
  201  WAT    O 1187   3.980   3.558   2.544
  201  WAT   H1 1188   3.997   3.650   2.564
  201  WAT   H2 1189   4.037   3.509   2.604
  201  WAT  EPW 1190   3.989   3.563   2.554
  202  WAT    O 1191   4.360   4.892   1.757
  202  WAT   H1 1192   4.445   4.888   1.802
  202  WAT   H2 1193   4.383   4.912   1.666
  202  WAT  EPW 1194   4.374   4.894   1.751
  203  WAT    O 1195   4.065   4.471   2.584
  203  WAT   H1 1196   4.091   4.429   2.501
  203  WAT   H2 1197   4.074   4.401   2.649
  203  WAT  EPW 1198   4.070   4.456   2.581
  204  WAT    O 1199   4.797   4.916   2.629
  204  WAT   H1 1200   4.806   4.941   2.537
  204  WAT   H2 1201   4.711   4.951   2.655
  204  WAT  EPW 1202   4.787   4.924   2.621
  205  WAT    O 1203   4.502   4.468   1.849
  205  WAT   H1 1204   4.575   4.530   1.848
  205  WAT   H2 1205   4.424   4.523   1.846
  205  WAT  EPW 1206   4.502   4.483   1.849
  206  WAT    O 1207   4.466   4.206   2.761
  206  WAT   H1 1208   4.421   4.131   2.799
  206  WAT   H2 1209   4.538   4.168   2.711
  206  WAT  EPW 1210   4.469   4.192   2.760
  207  WAT    O 1211   4.619   4.619   2.932
  207  WAT   H1 1212   4.592   4.701   2.972
  207  WAT   H2 1213   4.714   4.617   2.943
  207  WAT  EPW 1214   4.628   4.629   2.939
  208  WAT    O 1215   4.168   3.880   2.159
  208  WAT   H1 1216   4.153   3.974   2.152
  208  WAT   H2 1217   4.089   3.847   2.202
  208  WAT  EPW 1218   4.156   3.888   2.164
  209  WAT    O 1219   4.533   3.914   3.401
  209  WAT   H1 1220   4.486   3.974   3.460
  209  WAT   H2 1221   4.593   3.971   3.352
  209  WAT  EPW 1222   4.535   3.929   3.402
  210  WAT    O 1223   4.094   3.929   1.819
  210  WAT   H1 1224   4.002   3.907   1.835
  210  WAT   H2 1225   4.141   3.890   1.892
  210  WAT  EPW 1226   4.088   3.921   1.830
  211  WAT    O 1227   3.758   4.404   3.146
  211  WAT   H1 1228   3.690   4.467   3.168
  211  WAT   H2 1229   3.717   4.319   3.162
  211  WAT  EPW 1230   3.744   4.401   3.151
  212  WAT    O 1231   3.573   3.694   3.004
  212  WAT   H1 1232   3.659   3.691   3.046
  212  WAT   H2 1233   3.591   3.709   2.911
  212  WAT  EPW 1234   3.586   3.696   2.998
  213  WAT    O 1235   4.664   4.448   2.741
  213  WAT   H1 1236   4.637   4.512   2.807
  213  WAT   H2 1237   4.584   4.430   2.691
  213  WAT  EPW 1238   4.651   4.454   2.743
  214  WAT    O 1239   3.518   4.212   3.403
  214  WAT   H1 1240   3.458   4.285   3.417
  214  WAT   H2 1241   3.573   4.210   3.481
  214  WAT  EPW 1242   3.518   4.221   3.415
  215  WAT    O 1243   3.654   4.102   2.207
  215  WAT   H1 1244   3.694   4.160   2.272
  215  WAT   H2 1245   3.608   4.160   2.147
  215  WAT  EPW 1246   3.653   4.117   2.208
  216  WAT    O 1247   4.662   4.281   2.997
  216  WAT   H1 1248   4.646   4.312   2.908
  216  WAT   H2 1249   4.576   4.255   3.029
  216  WAT  EPW 1250   4.649   4.282   2.990
  217  WAT    O 1251   4.684   3.703   3.411
  217  WAT   H1 1252   4.684   3.674   3.320
  217  WAT   H2 1253   4.617   3.771   3.415
  217  WAT  EPW 1254   4.675   3.708   3.400
  218  WAT    O 1255   3.850   3.570   1.812
  218  WAT   H1 1256   3.850   3.644   1.872
  218  WAT   H2 1257   3.900   3.600   1.736
  218  WAT  EPW 1258   3.857   3.583   1.810
  219  WAT    O 1259   3.942   4.773   1.840
  219  WAT   H1 1260   3.950   4.768   1.745
  219  WAT   H2 1261   3.886   4.850   1.855
  219  WAT  EPW 1262   3.936   4.782   1.830
  220  WAT    O 1263   4.655   4.647   3.251
  220  WAT   H1 1264   4.573   4.632   3.204
  220  WAT   H2 1265   4.660   4.743   3.260
  220  WAT  EPW 1266   4.645   4.658   3.246
  221  WAT    O 1267   3.693   4.295   2.726
  221  WAT   H1 1268   3.615   4.346   2.749
  221  WAT   H2 1269   3.667   4.204   2.738
  221  WAT  EPW 1270   3.680   4.290   2.730
  222  WAT    O 1271   4.003   4.711   2.437
  222  WAT   H1 1272   3.994   4.789   2.491
  222  WAT   H2 1273   4.010   4.639   2.499
  222  WAT  EPW 1274   4.002   4.712   2.452
  223  WAT    O 1275   3.566   3.819   1.957
  223  WAT   H1 1276   3.560   3.794   1.865
  223  WAT   H2 1277   3.511   3.898   1.964
  223  WAT  EPW 1278   3.558   3.826   1.946
  224  WAT    O 1279   4.013   4.225   3.155
  224  WAT   H1 1280   4.004   4.213   3.060
  224  WAT   H2 1281   3.940   4.283   3.179
  224  WAT  EPW 1282   4.002   4.231   3.146
  225  WAT    O 1283   4.121   3.577   2.300
  225  WAT   H1 1284   4.081   3.544   2.380
  225  WAT   H2 1285   4.132   3.499   2.245
  225  WAT  EPW 1286   4.117   3.563   2.303
  226  WAT    O 1287   4.175   4.181   2.089
  226  WAT   H1 1288   4.213   4.175   2.001
  226  WAT   H2 1289   4.085   4.152   2.079
  226  WAT  EPW 1290   4.169   4.177   2.076
  227  WAT    O 1291   4.145   4.897   1.932
  227  WAT   H1 1292   4.072   4.848   1.895
  227  WAT   H2 1293   4.211   4.898   1.863
  227  WAT  EPW 1294   4.144   4.891   1.919
  228  WAT    O 1295   4.390   3.871   2.327
  228  WAT   H1 1296   4.305   3.857   2.286
  228  WAT   H2 1297   4.395   3.966   2.341
  228  WAT  EPW 1298   4.380   3.881   2.324
  229  WAT    O 1299   3.877   3.938   3.246
  229  WAT   H1 1300   3.956   3.941   3.193
  229  WAT   H2 1301   3.841   4.026   3.242
  229  WAT  EPW 1302   3.883   3.949   3.239
  230  WAT    O 1303   4.494   4.238   1.651
  230  WAT   H1 1304   4.492   4.303   1.721
  230  WAT   H2 1305   4.530   4.159   1.692
  230  WAT  EPW 1306   4.499   4.236   1.665
  231  WAT    O 1307   4.462   3.688   2.136
  231  WAT   H1 1308   4.439   3.767   2.186
  231  WAT   H2 1309   4.552   3.704   2.107
  231  WAT  EPW 1310   4.470   3.700   2.139
  232  WAT    O 1311   4.695   3.687   3.137
  232  WAT   H1 1312   4.669   3.609   3.087
  232  WAT   H2 1313   4.791   3.688   3.132
  232  WAT  EPW 1314   4.704   3.677   3.130
  233  WAT    O 1315   4.387   3.902   2.665
  233  WAT   H1 1316   4.302   3.859   2.656
  233  WAT   H2 1317   4.397   3.917   2.759
  233  WAT  EPW 1318   4.377   3.898   2.676
  234  WAT    O 1319   4.250   3.604   3.380
  234  WAT   H1 1320   4.195   3.635   3.452
  234  WAT   H2 1321   4.256   3.679   3.320
  234  WAT  EPW 1322   4.244   3.617   3.381
  235  WAT    O 1323   4.129   4.855   2.248
  235  WAT   H1 1324   4.066   4.810   2.304
  235  WAT   H2 1325   4.081   4.929   2.211
  235  WAT  EPW 1326   4.115   4.859   2.251
  236  WAT    O 1327   3.785   3.917   2.626
  236  WAT   H1 1328   3.775   3.871   2.543
  236  WAT   H2 1329   3.867   3.885   2.663
  236  WAT  EPW 1330   3.794   3.907   2.620
  237  WAT    O 1331   4.001   3.843   2.752
  237  WAT   H1 1332   4.046   3.785   2.813
  237  WAT   H2 1333   4.057   3.845   2.675
  237  WAT  EPW 1334   4.014   3.836   2.750
  238  WAT    O 1335   3.659   4.153   3.179
  238  WAT   H1 1336   3.603   4.189   3.111
  238  WAT   H2 1337   3.610   4.165   3.260
  238  WAT  EPW 1338   3.646   4.159   3.180
  239  WAT    O 1339   3.901   4.729   2.936
  239  WAT   H1 1340   3.855   4.763   2.860
  239  WAT   H2 1341   3.909   4.635   2.919
  239  WAT  EPW 1342   3.896   4.721   2.924
  240  WAT    O 1343   3.720   4.493   2.155
  240  WAT   H1 1344   3.816   4.496   2.157
  240  WAT   H2 1345   3.693   4.585   2.159
  240  WAT  EPW 1346   3.729   4.505   2.156
  241  WAT    O 1347   4.204   4.039   3.449
  241  WAT   H1 1348   4.128   3.999   3.491
  241  WAT   H2 1349   4.179   4.130   3.434
  241  WAT  EPW 1350   4.191   4.046   3.453
  242  WAT    O 1351   3.856   3.822   1.952
  242  WAT   H1 1352   3.887   3.829   2.042
  242  WAT   H2 1353   3.765   3.796   1.960
  242  WAT  EPW 1354   3.849   3.820   1.964
  243  WAT    O 1355   4.787   4.248   2.190
  243  WAT   H1 1356   4.849   4.293   2.132
  243  WAT   H2 1357   4.706   4.299   2.182
  243  WAT  EPW 1358   4.785   4.260   2.182
  244  WAT    O 1359   3.449   4.853   1.786
  244  WAT   H1 1360   3.512   4.801   1.836
  244  WAT   H2 1361   3.499   4.884   1.710
  244  WAT  EPW 1362   3.464   4.851   1.783
  245  WAT    O 1363   4.877   4.856   2.896
  245  WAT   H1 1364   4.859   4.848   2.802
  245  WAT   H2 1365   4.955   4.911   2.901
  245  WAT  EPW 1366   4.884   4.862   2.884
  246  WAT    O 1367   4.358   4.494   2.328
  246  WAT   H1 1368   4.410   4.434   2.274
  246  WAT   H2 1369   4.331   4.563   2.267
  246  WAT  EPW 1370   4.361   4.496   2.313
  247  WAT    O 1371   4.963   3.817   3.083
  247  WAT   H1 1372   4.934   3.900   3.123
  247  WAT   H2 1373   4.940   3.826   2.991
  247  WAT  EPW 1374   4.956   3.829   3.077
  248  WAT    O 1375   4.802   4.629   3.463
  248  WAT   H1 1376   4.721   4.632   3.412
  248  WAT   H2 1377   4.838   4.542   3.443
  248  WAT  EPW 1378   4.796   4.618   3.454
  249  WAT    O 1379   4.136   3.833   2.519
  249  WAT   H1 1380   4.118   3.892   2.445
  249  WAT   H2 1381   4.184   3.760   2.480
  249  WAT  EPW 1382   4.140   3.831   2.504
  250  WAT    O 1383   3.496   4.492   2.376
  250  WAT   H1 1384   3.556   4.517   2.306
  250  WAT   H2 1385   3.527   4.541   2.453
  250  WAT  EPW 1386   3.508   4.501   2.377
  251  WAT    O 1387   3.765   4.843   2.757
  251  WAT   H1 1388   3.790   4.912   2.696
  251  WAT   H2 1389   3.677   4.868   2.787
  251  WAT  EPW 1390   3.757   4.855   2.753
  252  WAT    O 1391   4.426   4.293   3.245
  252  WAT   H1 1392   4.351   4.260   3.197
  252  WAT   H2 1393   4.406   4.273   3.337
  252  WAT  EPW 1394   4.414   4.286   3.251
  253  WAT    O 1395   4.781   4.225   3.452
  253  WAT   H1 1396   4.703   4.221   3.507
  253  WAT   H2 1397   4.845   4.170   3.498
  253  WAT  EPW 1398   4.779   4.217   3.465
  254  WAT    O 1399   4.179   3.771   1.119
  254  WAT   H1 1400   4.201   3.769   1.211
  254  WAT   H2 1401   4.116   3.700   1.107
  254  WAT  EPW 1402   4.173   3.762   1.129
  255  WAT    O 1403   4.395   4.934   0.461
  255  WAT   H1 1404   4.378   4.950   0.554
  255  WAT   H2 1405   4.318   4.886   0.430
  255  WAT  EPW 1406   4.383   4.930   0.469
  256  WAT    O 1407   3.970   3.600   1.069
  256  WAT   H1 1408   3.914   3.645   1.133
  256  WAT   H2 1409   3.956   3.507   1.086
  256  WAT  EPW 1410   3.961   3.594   1.079
  257  WAT    O 1411   4.392   3.945   1.054
  257  WAT   H1 1412   4.331   3.881   1.092
  257  WAT   H2 1413   4.470   3.938   1.108
  257  WAT  EPW 1414   4.394   3.936   1.066
  258  WAT    O 1415   4.445   3.589   1.682
  258  WAT   H1 1416   4.535   3.566   1.656
  258  WAT   H2 1417   4.393   3.577   1.603
  258  WAT  EPW 1418   4.450   3.584   1.669
  259  WAT    O 1419   4.634   3.928   1.181
  259  WAT   H1 1420   4.652   3.839   1.214
  259  WAT   H2 1421   4.666   3.986   1.250
  259  WAT  EPW 1422   4.640   3.924   1.194
  260  WAT    O 1423   4.603   4.727   0.406
  260  WAT   H1 1424   4.560   4.666   0.345
  260  WAT   H2 1425   4.536   4.794   0.424
  260  WAT  EPW 1426   4.589   4.728   0.400
  261  WAT    O 1427   4.423   4.551   1.258
  261  WAT   H1 1428   4.410   4.465   1.297
  261  WAT   H2 1429   4.467   4.534   1.175
  261  WAT  EPW 1430   4.427   4.538   1.253
  262  WAT    O 1431   3.535   3.984   1.114
  262  WAT   H1 1432   3.563   4.041   1.186
  262  WAT   H2 1433   3.475   3.922   1.155
  262  WAT  EPW 1434   3.531   3.983   1.129
  263  WAT    O 1435   3.623   4.618   1.373
  263  WAT   H1 1436   3.530   4.596   1.359
  263  WAT   H2 1437   3.631   4.628   1.468
  263  WAT  EPW 1438   3.612   4.616   1.384
  264  WAT    O 1439   3.993   4.045   0.471
  264  WAT   H1 1440   3.952   4.045   0.384
  264  WAT   H2 1441   3.944   4.111   0.520
  264  WAT  EPW 1442   3.981   4.053   0.466
  265  WAT    O 1443   3.805   3.684   1.273
  265  WAT   H1 1444   3.825   3.774   1.299
  265  WAT   H2 1445   3.769   3.644   1.352
  265  WAT  EPW 1446   3.803   3.691   1.286
  266  WAT    O 1447   3.935   3.763   0.343
  266  WAT   H1 1448   3.860   3.762   0.401
  266  WAT   H2 1449   3.989   3.689   0.371
  266  WAT  EPW 1450   3.933   3.754   0.354
  267  WAT    O 1451   4.639   4.133   1.373
  267  WAT   H1 1452   4.698   4.164   1.442
  267  WAT   H2 1453   4.567   4.196   1.373
  267  WAT  EPW 1454   4.638   4.145   1.382
  268  WAT    O 1455   4.401   4.183   0.326
  268  WAT   H1 1456   4.319   4.181   0.278
  268  WAT   H2 1457   4.376   4.165   0.417
  268  WAT  EPW 1458   4.388   4.181   0.331
  269  WAT    O 1459   3.592   3.984   1.678
  269  WAT   H1 1460   3.572   3.993   1.585
  269  WAT   H2 1461   3.512   4.015   1.722
  269  WAT  EPW 1462   3.579   3.989   1.672
  270  WAT    O 1463   4.199   4.241   0.821
  270  WAT   H1 1464   4.287   4.270   0.844
  270  WAT   H2 1465   4.208   4.207   0.731
  270  WAT  EPW 1466   4.211   4.240   0.812
  271  WAT    O 1467   3.588   4.887   1.554
  271  WAT   H1 1468   3.512   4.944   1.542
  271  WAT   H2 1469   3.609   4.856   1.466
  271  WAT  EPW 1470   3.581   4.890   1.541
  272  WAT    O 1471   4.629   3.823   0.639
  272  WAT   H1 1472   4.533   3.816   0.646
  272  WAT   H2 1473   4.661   3.750   0.692
  272  WAT  EPW 1474   4.621   3.813   0.647
  273  WAT    O 1475   4.194   4.576   1.558
  273  WAT   H1 1476   4.178   4.481   1.554
  273  WAT   H2 1477   4.185   4.605   1.467
  273  WAT  EPW 1478   4.190   4.567   1.545
  274  WAT    O 1479   4.925   4.474   0.943
  274  WAT   H1 1480   4.838   4.448   0.914
  274  WAT   H2 1481   4.960   4.395   0.986
  274  WAT  EPW 1482   4.919   4.460   0.945
  275  WAT    O 1483   3.616   3.664   0.814
  275  WAT   H1 1484   3.700   3.710   0.802
  275  WAT   H2 1485   3.558   3.704   0.750
  275  WAT  EPW 1486   3.620   3.675   0.805
  276  WAT    O 1487   3.726   3.577   1.516
  276  WAT   H1 1488   3.643   3.535   1.536
  276  WAT   H2 1489   3.723   3.660   1.564
  276  WAT  EPW 1490   3.715   3.583   1.524
  277  WAT    O 1491   4.360   4.124   0.589
  277  WAT   H1 1492   4.368   4.045   0.644
  277  WAT   H2 1493   4.404   4.192   0.639
  277  WAT  EPW 1494   4.366   4.122   0.603
  278  WAT    O 1495   4.257   4.223   1.149
  278  WAT   H1 1496   4.172   4.191   1.181
  278  WAT   H2 1497   4.304   4.143   1.123
  278  WAT  EPW 1498   4.252   4.208   1.150
  279  WAT    O 1499   3.950   4.741   1.582
  279  WAT   H1 1500   4.031   4.692   1.568
  279  WAT   H2 1501   3.923   4.769   1.495
  279  WAT  EPW 1502   3.956   4.738   1.569
  280  WAT    O 1503   4.176   4.645   1.285
  280  WAT   H1 1504   4.264   4.608   1.280
  280  WAT   H2 1505   4.122   4.587   1.232
  280  WAT  EPW 1506   4.180   4.633   1.278
  281  WAT    O 1507   4.820   4.471   1.250
  281  WAT   H1 1508   4.764   4.431   1.183
  281  WAT   H2 1509   4.763   4.532   1.296
  281  WAT  EPW 1510   4.806   4.474   1.247
  282  WAT    O 1511   4.603   4.070   0.203
  282  WAT   H1 1512   4.521   4.098   0.243
  282  WAT   H2 1513   4.671   4.108   0.259
  282  WAT  EPW 1514   4.601   4.078   0.216
  283  WAT    O 1515   3.904   4.429   1.013
  283  WAT   H1 1516   3.866   4.416   1.100
  283  WAT   H2 1517   3.848   4.378   0.955
  283  WAT  EPW 1518   3.892   4.421   1.016
  284  WAT    O 1519   4.805   4.580   0.558
  284  WAT   H1 1520   4.859   4.630   0.619
  284  WAT   H2 1521   4.735   4.640   0.533
  284  WAT  EPW 1522   4.803   4.594   0.563
  285  WAT    O 1523   3.603   4.736   0.640
  285  WAT   H1 1524   3.642   4.729   0.553
  285  WAT   H2 1525   3.664   4.691   0.698
  285  WAT  EPW 1526   3.616   4.730   0.637
  286  WAT    O 1527   3.919   3.876   1.622
  286  WAT   H1 1528   3.904   3.904   1.532
  286  WAT   H2 1529   3.895   3.952   1.675
  286  WAT  EPW 1530   3.914   3.889   1.617
  287  WAT    O 1531   4.112   4.288   1.532
  287  WAT   H1 1532   4.101   4.260   1.442
  287  WAT   H2 1533   4.023   4.298   1.566
  287  WAT  EPW 1534   4.099   4.286   1.525
  288  WAT    O 1535   4.017   4.121   1.017
  288  WAT   H1 1536   3.958   4.047   1.002
  288  WAT   H2 1537   4.078   4.118   0.943
  288  WAT  EPW 1538   4.017   4.111   1.006
  289  WAT    O 1539   4.155   4.740   0.820
  289  WAT   H1 1540   4.151   4.644   0.816
  289  WAT   H2 1541   4.110   4.763   0.901
  289  WAT  EPW 1542   4.149   4.731   0.830
  290  WAT    O 1543   4.952   4.405   1.488
  290  WAT   H1 1544   4.883   4.341   1.505
  290  WAT   H2 1545   4.931   4.441   1.402
  290  WAT  EPW 1546   4.940   4.402   1.479
  291  WAT    O 1547   3.513   4.315   0.202
  291  WAT   H1 1548   3.580   4.375   0.236
  291  WAT   H2 1549   3.430   4.359   0.221
  291  WAT  EPW 1550   3.511   4.329   0.209
  292  WAT    O 1551   3.747   4.760   0.422
  292  WAT   H1 1552   3.815   4.732   0.484
  292  WAT   H2 1553   3.757   4.855   0.417
  292  WAT  EPW 1554   3.757   4.769   0.430
  293  WAT    O 1555   3.714   3.779   0.499
  293  WAT   H1 1556   3.690   3.697   0.455
  293  WAT   H2 1557   3.638   3.836   0.486
  293  WAT  EPW 1558   3.701   3.776   0.492
  294  WAT    O 1559   4.694   3.835   0.353
  294  WAT   H1 1560   4.665   3.907   0.297
  294  WAT   H2 1561   4.667   3.862   0.441
  294  WAT  EPW 1562   4.687   3.848   0.357
  295  WAT    O 1563   4.052   4.522   0.231
  295  WAT   H1 1564   4.134   4.571   0.228
  295  WAT   H2 1565   4.057   4.473   0.313
  295  WAT  EPW 1566   4.063   4.522   0.241
  296  WAT    O 1567   3.875   4.716   1.331
  296  WAT   H1 1568   3.871   4.748   1.241
  296  WAT   H2 1569   3.788   4.680   1.348
  296  WAT  EPW 1570   3.863   4.716   1.322
  297  WAT    O 1571   4.266   4.890   1.189
  297  WAT   H1 1572   4.187   4.931   1.152
  297  WAT   H2 1573   4.237   4.803   1.216
  297  WAT  EPW 1574   4.252   4.884   1.187
  298  WAT    O 1575   4.168   4.486   1.036
  298  WAT   H1 1576   4.201   4.406   1.077
  298  WAT   H2 1577   4.081   4.463   1.004
  298  WAT  EPW 1578   4.161   4.473   1.037
  299  WAT    O 1579   3.730   4.579   1.633
  299  WAT   H1 1580   3.810   4.630   1.622
  299  WAT   H2 1581   3.685   4.621   1.707
  299  WAT  EPW 1582   3.734   4.591   1.641
  300  WAT    O 1583   4.779   4.294   0.559
  300  WAT   H1 1584   4.829   4.274   0.480
  300  WAT   H2 1585   4.798   4.387   0.576
  300  WAT  EPW 1586   4.788   4.303   0.551
  301  WAT    O 1587   3.572   4.048   0.849
  301  WAT   H1 1588   3.652   4.013   0.809
  301  WAT   H2 1589   3.570   4.010   0.937
  301  WAT  EPW 1590   3.582   4.039   0.855
  302  WAT    O 1591   4.511   4.354   0.622
  302  WAT   H1 1592   4.471   4.430   0.580
  302  WAT   H2 1593   4.598   4.347   0.581
  302  WAT  EPW 1594   4.517   4.363   0.611
  303  WAT    O 1595   3.781   4.527   0.720
  303  WAT   H1 1596   3.876   4.525   0.718
  303  WAT   H2 1597   3.756   4.445   0.764
  303  WAT  EPW 1598   3.790   4.516   0.726
  304  WAT    O 1599   4.811   3.928   0.974
  304  WAT   H1 1600   4.765   3.972   0.902
  304  WAT   H2 1601   4.757   3.945   1.051
  304  WAT  EPW 1602   4.798   3.936   0.975
  305  WAT    O 1603   4.665   4.075   0.755
  305  WAT   H1 1604   4.727   4.120   0.698
  305  WAT   H2 1605   4.651   3.991   0.713
  305  WAT  EPW 1606   4.671   4.070   0.742
  306  WAT    O 1607   4.518   4.863   1.105
  306  WAT   H1 1608   4.558   4.945   1.135
  306  WAT   H2 1609   4.427   4.869   1.133
  306  WAT  EPW 1610   4.512   4.874   1.112
  307  WAT    O 1611   4.879   3.668   0.482
  307  WAT   H1 1612   4.813   3.709   0.426
  307  WAT   H2 1613   4.949   3.642   0.422
  307  WAT  EPW 1614   4.880   3.670   0.467
  308  WAT    O 1615   4.115   4.371   0.442
  308  WAT   H1 1616   4.134   4.296   0.386
  308  WAT   H2 1617   4.201   4.410   0.459
  308  WAT  EPW 1618   4.129   4.366   0.437
  309  WAT    O 1619   4.281   3.857   1.366
  309  WAT   H1 1620   4.373   3.864   1.391
  309  WAT   H2 1621   4.236   3.919   1.424
  309  WAT  EPW 1622   4.287   3.866   1.377
  310  WAT    O 1623   3.980   3.558   0.658
  310  WAT   H1 1624   3.997   3.650   0.678
  310  WAT   H2 1625   4.037   3.509   0.718
  310  WAT  EPW 1626   3.989   3.563   0.668
  311  WAT    O 1627   4.065   4.471   0.698
  311  WAT   H1 1628   4.091   4.429   0.615
  311  WAT   H2 1629   4.074   4.401   0.763
  311  WAT  EPW 1630   4.070   4.456   0.695
  312  WAT    O 1631   4.797   4.916   0.743
  312  WAT   H1 1632   4.806   4.941   0.651
  312  WAT   H2 1633   4.711   4.951   0.769
  312  WAT  EPW 1634   4.787   4.924   0.735
  313  WAT    O 1635   4.466   4.206   0.875
  313  WAT   H1 1636   4.421   4.131   0.913
  313  WAT   H2 1637   4.538   4.168   0.825
  313  WAT  EPW 1638   4.469   4.192   0.874
  314  WAT    O 1639   4.619   4.619   1.046
  314  WAT   H1 1640   4.592   4.701   1.086
  314  WAT   H2 1641   4.714   4.617   1.057
  314  WAT  EPW 1642   4.628   4.629   1.053
  315  WAT    O 1643   4.168   3.880   0.273
  315  WAT   H1 1644   4.153   3.974   0.266
  315  WAT   H2 1645   4.089   3.847   0.316
  315  WAT  EPW 1646   4.156   3.888   0.278
  316  WAT    O 1647   4.533   3.914   1.515
  316  WAT   H1 1648   4.486   3.974   1.574
  316  WAT   H2 1649   4.593   3.971   1.466
  316  WAT  EPW 1650   4.535   3.929   1.516
  317  WAT    O 1651   3.758   4.404   1.260
  317  WAT   H1 1652   3.690   4.467   1.282
  317  WAT   H2 1653   3.717   4.319   1.276
  317  WAT  EPW 1654   3.744   4.401   1.265
  318  WAT    O 1655   3.573   3.694   1.118
  318  WAT   H1 1656   3.659   3.691   1.160
  318  WAT   H2 1657   3.591   3.709   1.025
  318  WAT  EPW 1658   3.586   3.696   1.112
  319  WAT    O 1659   4.664   4.448   0.855
  319  WAT   H1 1660   4.637   4.512   0.921
  319  WAT   H2 1661   4.584   4.430   0.805
  319  WAT  EPW 1662   4.651   4.454   0.857
  320  WAT    O 1663   3.518   4.212   1.517
  320  WAT   H1 1664   3.458   4.285   1.531
  320  WAT   H2 1665   3.573   4.210   1.595
  320  WAT  EPW 1666   3.518   4.221   1.529
  321  WAT    O 1667   3.654   4.102   0.321
  321  WAT   H1 1668   3.694   4.160   0.386
  321  WAT   H2 1669   3.608   4.160   0.261
  321  WAT  EPW 1670   3.653   4.117   0.322
  322  WAT    O 1671   4.662   4.281   1.111
  322  WAT   H1 1672   4.646   4.312   1.022
  322  WAT   H2 1673   4.576   4.255   1.143
  322  WAT  EPW 1674   4.649   4.282   1.104
  323  WAT    O 1675   4.684   3.703   1.525
  323  WAT   H1 1676   4.684   3.674   1.434
  323  WAT   H2 1677   4.617   3.771   1.529
  323  WAT  EPW 1678   4.675   3.708   1.514
  324  WAT    O 1679   4.655   4.647   1.365
  324  WAT   H1 1680   4.573   4.632   1.318
  324  WAT   H2 1681   4.660   4.743   1.374
  324  WAT  EPW 1682   4.645   4.658   1.360
  325  WAT    O 1683   3.693   4.295   0.840
  325  WAT   H1 1684   3.615   4.346   0.863
  325  WAT   H2 1685   3.667   4.204   0.852
  325  WAT  EPW 1686   3.680   4.290   0.844
  326  WAT    O 1687   4.003   4.711   0.551
  326  WAT   H1 1688   3.994   4.789   0.605
  326  WAT   H2 1689   4.010   4.639   0.613
  326  WAT  EPW 1690   4.002   4.712   0.566
  327  WAT    O 1691   4.013   4.225   1.269
  327  WAT   H1 1692   4.004   4.213   1.174
  327  WAT   H2 1693   3.940   4.283   1.293
  327  WAT  EPW 1694   4.002   4.231   1.260
  328  WAT    O 1695   4.121   3.577   0.414
  328  WAT   H1 1696   4.081   3.544   0.494
  328  WAT   H2 1697   4.132   3.499   0.359
  328  WAT  EPW 1698   4.117   3.563   0.417
  329  WAT    O 1699   4.390   3.871   0.441
  329  WAT   H1 1700   4.305   3.857   0.400
  329  WAT   H2 1701   4.395   3.966   0.455
  329  WAT  EPW 1702   4.380   3.881   0.438
  330  WAT    O 1703   3.877   3.938   1.360
  330  WAT   H1 1704   3.956   3.941   1.307
  330  WAT   H2 1705   3.841   4.026   1.356
  330  WAT  EPW 1706   3.883   3.949   1.353
  331  WAT    O 1707   4.695   3.687   1.251
  331  WAT   H1 1708   4.669   3.609   1.201
  331  WAT   H2 1709   4.791   3.688   1.246
  331  WAT  EPW 1710   4.704   3.677   1.244
  332  WAT    O 1711   4.387   3.902   0.779
  332  WAT   H1 1712   4.302   3.859   0.770
  332  WAT   H2 1713   4.397   3.917   0.873
  332  WAT  EPW 1714   4.377   3.898   0.790
  333  WAT    O 1715   4.250   3.604   1.494
  333  WAT   H1 1716   4.195   3.635   1.566
  333  WAT   H2 1717   4.256   3.679   1.434
  333  WAT  EPW 1718   4.244   3.617   1.495
  334  WAT    O 1719   4.129   4.855   0.362
  334  WAT   H1 1720   4.066   4.810   0.418
  334  WAT   H2 1721   4.081   4.929   0.325
  334  WAT  EPW 1722   4.115   4.859   0.365
  335  WAT    O 1723   4.001   3.843   0.866
  335  WAT   H1 1724   4.046   3.785   0.927
  335  WAT   H2 1725   4.057   3.845   0.789
  335  WAT  EPW 1726   4.014   3.836   0.864
  336  WAT    O 1727   3.659   4.153   1.293
  336  WAT   H1 1728   3.603   4.189   1.225
  336  WAT   H2 1729   3.610   4.165   1.374
  336  WAT  EPW 1730   3.646   4.159   1.294
  337  WAT    O 1731   3.901   4.729   1.050
  337  WAT   H1 1732   3.855   4.763   0.974
  337  WAT   H2 1733   3.909   4.635   1.033
  337  WAT  EPW 1734   3.896   4.721   1.038
  338  WAT    O 1735   3.720   4.493   0.269
  338  WAT   H1 1736   3.816   4.496   0.271
  338  WAT   H2 1737   3.693   4.585   0.273
  338  WAT  EPW 1738   3.729   4.505   0.270
  339  WAT    O 1739   4.204   4.039   1.563
  339  WAT   H1 1740   4.128   3.999   1.605
  339  WAT   H2 1741   4.179   4.130   1.548
  339  WAT  EPW 1742   4.191   4.046   1.567
  340  WAT    O 1743   4.787   4.248   0.304
  340  WAT   H1 1744   4.849   4.293   0.246
  340  WAT   H2 1745   4.706   4.299   0.296
  340  WAT  EPW 1746   4.785   4.260   0.296
  341  WAT    O 1747   4.877   4.856   1.010
  341  WAT   H1 1748   4.859   4.848   0.916
  341  WAT   H2 1749   4.955   4.911   1.015
  341  WAT  EPW 1750   4.884   4.862   0.998
  342  WAT    O 1751   4.358   4.494   0.442
  342  WAT   H1 1752   4.410   4.434   0.388
  342  WAT   H2 1753   4.331   4.563   0.381
  342  WAT  EPW 1754   4.361   4.496   0.427
  343  WAT    O 1755   4.963   3.817   1.197
  343  WAT   H1 1756   4.934   3.900   1.237
  343  WAT   H2 1757   4.940   3.826   1.105
  343  WAT  EPW 1758   4.956   3.829   1.191
  344  WAT    O 1759   4.802   4.629   1.577
  344  WAT   H1 1760   4.721   4.632   1.526
  344  WAT   H2 1761   4.838   4.542   1.557
  344  WAT  EPW 1762   4.796   4.618   1.568
  345  WAT    O 1763   4.136   3.833   0.633
  345  WAT   H1 1764   4.118   3.892   0.559
  345  WAT   H2 1765   4.184   3.760   0.594
  345  WAT  EPW 1766   4.140   3.831   0.618
  346  WAT    O 1767   3.496   4.492   0.490
  346  WAT   H1 1768   3.556   4.517   0.420
  346  WAT   H2 1769   3.527   4.541   0.567
  346  WAT  EPW 1770   3.508   4.501   0.491
  347  WAT    O 1771   3.765   4.843   0.871
  347  WAT   H1 1772   3.790   4.912   0.810
  347  WAT   H2 1773   3.677   4.868   0.901
  347  WAT  EPW 1774   3.757   4.855   0.867
  348  WAT    O 1775   4.426   4.293   1.359
  348  WAT   H1 1776   4.351   4.260   1.311
  348  WAT   H2 1777   4.406   4.273   1.451
  348  WAT  EPW 1778   4.414   4.286   1.365
  349  WAT    O 1779   4.781   4.225   1.566
  349  WAT   H1 1780   4.703   4.221   1.621
  349  WAT   H2 1781   4.845   4.170   1.612
  349  WAT  EPW 1782   4.779   4.217   1.579
  350  WAT    O 1783   4.179   1.885   4.891
  350  WAT   H1 1784   4.201   1.882   4.983
  350  WAT   H2 1785   4.116   1.813   4.879
  350  WAT  EPW 1786   4.173   1.875   4.901
  351  WAT    O 1787   3.918   3.303   4.917
  351  WAT   H1 1788   3.823   3.296   4.913
  351  WAT   H2 1789   3.937   3.334   5.005
  351  WAT  EPW 1790   3.909   3.306   4.927
  352  WAT    O 1791   4.395   3.048   4.233
  352  WAT   H1 1792   4.378   3.064   4.326
  352  WAT   H2 1793   4.318   2.999   4.202
  352  WAT  EPW 1794   4.383   3.043   4.241
  353  WAT    O 1795   3.970   1.713   4.841
  353  WAT   H1 1796   3.914   1.758   4.905
  353  WAT   H2 1797   3.956   1.620   4.858
  353  WAT  EPW 1798   3.961   1.707   4.851
  354  WAT    O 1799   4.052   2.537   3.766
  354  WAT   H1 1800   4.037   2.583   3.849
  354  WAT   H2 1801   4.123   2.476   3.785
  354  WAT  EPW 1802   4.059   2.535   3.779
  355  WAT    O 1803   4.392   2.058   4.826
  355  WAT   H1 1804   4.331   1.994   4.864
  355  WAT   H2 1805   4.470   2.051   4.880
  355  WAT  EPW 1806   4.394   2.049   4.838
  356  WAT    O 1807   3.741   3.163   4.262
  356  WAT   H1 1808   3.745   3.252   4.228
  356  WAT   H2 1809   3.661   3.161   4.315
  356  WAT  EPW 1810   3.731   3.174   4.265
  357  WAT    O 1811   4.212   3.342   3.931
  357  WAT   H1 1812   4.132   3.289   3.932
  357  WAT   H2 1813   4.246   3.332   3.842
  357  WAT  EPW 1814   4.206   3.334   3.920
  358  WAT    O 1815   4.634   2.041   4.953
  358  WAT   H1 1816   4.652   1.953   4.986
  358  WAT   H2 1817   4.666   2.099   5.022
  358  WAT  EPW 1818   4.640   2.037   4.966
  359  WAT    O 1819   4.603   2.840   4.178
  359  WAT   H1 1820   4.560   2.780   4.117
  359  WAT   H2 1821   4.536   2.907   4.196
  359  WAT  EPW 1822   4.589   2.841   4.172
  360  WAT    O 1823   4.399   1.946   3.702
  360  WAT   H1 1824   4.373   1.899   3.782
  360  WAT   H2 1825   4.401   1.878   3.634
  360  WAT  EPW 1826   4.396   1.931   3.704
  361  WAT    O 1827   4.710   2.760   3.732
  361  WAT   H1 1828   4.787   2.762   3.789
  361  WAT   H2 1829   4.742   2.723   3.650
  361  WAT  EPW 1830   4.724   2.755   3.729
  362  WAT    O 1831   3.535   2.097   4.886
  362  WAT   H1 1832   3.563   2.154   4.958
  362  WAT   H2 1833   3.475   2.035   4.927
  362  WAT  EPW 1834   3.531   2.097   4.901
  363  WAT    O 1835   4.782   3.100   4.266
  363  WAT   H1 1836   4.799   3.185   4.226
  363  WAT   H2 1837   4.706   3.066   4.219
  363  WAT  EPW 1838   4.774   3.107   4.255
  364  WAT    O 1839   4.761   3.432   4.391
  364  WAT   H1 1840   4.819   3.506   4.374
  364  WAT   H2 1841   4.682   3.451   4.339
  364  WAT  EPW 1842   4.758   3.444   4.382
  365  WAT    O 1843   3.993   2.158   4.243
  365  WAT   H1 1844   3.952   2.158   4.156
  365  WAT   H2 1845   3.944   2.224   4.292
  365  WAT  EPW 1846   3.981   2.166   4.238
  366  WAT    O 1847   3.935   1.877   4.115
  366  WAT   H1 1848   3.860   1.875   4.173
  366  WAT   H2 1849   3.989   1.802   4.143
  366  WAT  EPW 1850   3.933   1.867   4.126
  367  WAT    O 1851   4.401   2.297   4.098
  367  WAT   H1 1852   4.319   2.295   4.050
  367  WAT   H2 1853   4.376   2.278   4.189
  367  WAT  EPW 1854   4.388   2.294   4.103
  368  WAT    O 1855   4.113   3.263   4.560
  368  WAT   H1 1856   4.087   3.226   4.644
  368  WAT   H2 1857   4.186   3.209   4.531
  368  WAT  EPW 1858   4.119   3.251   4.567
  369  WAT    O 1859   3.937   3.082   4.431
  369  WAT   H1 1860   3.864   3.113   4.376
  369  WAT   H2 1861   3.996   3.157   4.436
  369  WAT  EPW 1862   3.935   3.096   4.425
  370  WAT    O 1863   4.327   3.305   3.694
  370  WAT   H1 1864   4.373   3.223   3.712
  370  WAT   H2 1865   4.396   3.369   3.680
  370  WAT  EPW 1866   4.341   3.303   3.695
  371  WAT    O 1867   4.629   1.936   4.411
  371  WAT   H1 1868   4.533   1.930   4.418
  371  WAT   H2 1869   4.661   1.863   4.464
  371  WAT  EPW 1870   4.621   1.926   4.419
  372  WAT    O 1871   4.614   3.020   3.740
  372  WAT   H1 1872   4.645   2.930   3.755
  372  WAT   H2 1873   4.667   3.074   3.799
  372  WAT  EPW 1874   4.625   3.015   3.749
  373  WAT    O 1875   4.877   2.068   3.797
  373  WAT   H1 1876   4.887   2.103   3.886
  373  WAT   H2 1877   4.864   2.146   3.743
  373  WAT  EPW 1878   4.876   2.083   3.802
  374  WAT    O 1879   4.925   2.587   4.715
  374  WAT   H1 1880   4.838   2.561   4.686
  374  WAT   H2 1881   4.960   2.509   4.758
  374  WAT  EPW 1882   4.919   2.574   4.717
  375  WAT    O 1883   4.099   1.786   3.596
  375  WAT   H1 1884   4.134   1.787   3.685
  375  WAT   H2 1885   4.051   1.868   3.588
  375  WAT  EPW 1886   4.098   1.797   3.606
  376  WAT    O 1887   4.360   2.237   4.361
  376  WAT   H1 1888   4.368   2.159   4.416
  376  WAT   H2 1889   4.404   2.306   4.411
  376  WAT  EPW 1890   4.366   2.236   4.375
  377  WAT    O 1891   3.667   3.459   4.013
  377  WAT   H1 1892   3.589   3.446   3.960
  377  WAT   H2 1893   3.664   3.552   4.038
  377  WAT  EPW 1894   3.657   3.469   4.010
  378  WAT    O 1895   4.303   3.086   4.482
  378  WAT   H1 1896   4.255   3.005   4.500
  378  WAT   H2 1897   4.376   3.084   4.544
  378  WAT  EPW 1898   4.306   3.075   4.493
  379  WAT    O 1899   4.583   2.171   3.709
  379  WAT   H1 1900   4.520   2.099   3.711
  379  WAT   H2 1901   4.605   2.187   3.801
  379  WAT  EPW 1902   4.578   2.164   3.721
  380  WAT    O 1903   4.257   2.336   4.921
  380  WAT   H1 1904   4.172   2.304   4.953
  380  WAT   H2 1905   4.304   2.257   4.895
  380  WAT  EPW 1906   4.252   2.322   4.922
  381  WAT    O 1907   3.840   3.312   3.867
  381  WAT   H1 1908   3.782   3.361   3.924
  381  WAT   H2 1909   3.863   3.373   3.797
  381  WAT  EPW 1910   3.836   3.326   3.865
  382  WAT    O 1911   4.603   2.183   3.975
  382  WAT   H1 1912   4.521   2.211   4.015
  382  WAT   H2 1913   4.671   2.221   4.031
  382  WAT  EPW 1914   4.601   2.191   3.988
  383  WAT    O 1915   3.904   2.542   4.785
  383  WAT   H1 1916   3.866   2.529   4.872
  383  WAT   H2 1917   3.848   2.491   4.727
  383  WAT  EPW 1918   3.892   2.534   4.788
  384  WAT    O 1919   4.805   2.693   4.330
  384  WAT   H1 1920   4.859   2.743   4.391
  384  WAT   H2 1921   4.735   2.754   4.305
  384  WAT  EPW 1922   4.803   2.707   4.335
  385  WAT    O 1923   3.603   2.850   4.412
  385  WAT   H1 1924   3.642   2.843   4.325
  385  WAT   H2 1925   3.664   2.804   4.470
  385  WAT  EPW 1926   3.616   2.843   4.409
  386  WAT    O 1927   4.550   2.504   3.997
  386  WAT   H1 1928   4.483   2.436   4.000
  386  WAT   H2 1929   4.558   2.526   3.905
  386  WAT  EPW 1930   4.543   2.498   3.986
  387  WAT    O 1931   4.669   3.402   4.909
  387  WAT   H1 1932   4.614   3.395   4.831
  387  WAT   H2 1933   4.705   3.314   4.921
  387  WAT  EPW 1934   4.666   3.390   4.901
  388  WAT    O 1935   4.017   2.234   4.789
  388  WAT   H1 1936   3.958   2.160   4.774
  388  WAT   H2 1937   4.078   2.231   4.715
  388  WAT  EPW 1938   4.017   2.224   4.778
  389  WAT    O 1939   4.155   2.853   4.592
  389  WAT   H1 1940   4.151   2.758   4.588
  389  WAT   H2 1941   4.110   2.876   4.673
  389  WAT  EPW 1942   4.149   2.844   4.602
  390  WAT    O 1943   3.513   2.429   3.974
  390  WAT   H1 1944   3.580   2.489   4.008
  390  WAT   H2 1945   3.430   2.472   3.993
  390  WAT  EPW 1946   3.511   2.442   3.981
  391  WAT    O 1947   3.747   2.873   4.194
  391  WAT   H1 1948   3.815   2.845   4.256
  391  WAT   H2 1949   3.757   2.968   4.189
  391  WAT  EPW 1950   3.757   2.882   4.202
  392  WAT    O 1951   4.288   2.747   3.703
  392  WAT   H1 1952   4.250   2.716   3.621
  392  WAT   H2 1953   4.312   2.838   3.685
  392  WAT  EPW 1954   4.286   2.755   3.690
  393  WAT    O 1955   3.714   1.892   4.271
  393  WAT   H1 1956   3.690   1.810   4.227
  393  WAT   H2 1957   3.638   1.949   4.258
  393  WAT  EPW 1958   3.701   1.889   4.264
  394  WAT    O 1959   4.171   1.774   3.871
  394  WAT   H1 1960   4.195   1.686   3.901
  394  WAT   H2 1961   4.149   1.822   3.951
  394  WAT  EPW 1962   4.171   1.769   3.885
  395  WAT    O 1963   4.694   1.949   4.125
  395  WAT   H1 1964   4.665   2.020   4.069
  395  WAT   H2 1965   4.667   1.975   4.213
  395  WAT  EPW 1966   4.687   1.961   4.129
  396  WAT    O 1967   4.539   3.114   4.633
  396  WAT   H1 1968   4.533   3.062   4.713
  396  WAT   H2 1969   4.594   3.189   4.657
  396  WAT  EPW 1970   4.546   3.117   4.647
  397  WAT    O 1971   3.855   2.200   3.675
  397  WAT   H1 1972   3.762   2.176   3.678
  397  WAT   H2 1973   3.854   2.292   3.648
  397  WAT  EPW 1974   3.843   2.209   3.672
  398  WAT    O 1975   4.052   2.636   4.003
  398  WAT   H1 1976   4.134   2.684   4.000
  398  WAT   H2 1977   4.057   2.586   4.085
  398  WAT  EPW 1978   4.063   2.636   4.013
  399  WAT    O 1979   3.721   3.423   4.411
  399  WAT   H1 1980   3.666   3.465   4.478
  399  WAT   H2 1981   3.811   3.443   4.437
  399  WAT  EPW 1982   3.725   3.431   4.423
  400  WAT    O 1983   4.281   2.799   4.004
  400  WAT   H1 1984   4.229   2.870   4.042
  400  WAT   H2 1985   4.282   2.819   3.910
  400  WAT  EPW 1986   4.275   2.811   3.997
  401  WAT    O 1987   4.266   3.004   4.961
  401  WAT   H1 1988   4.187   3.044   4.924
  401  WAT   H2 1989   4.237   2.917   4.988
  401  WAT  EPW 1990   4.252   2.998   4.959
  402  WAT    O 1991   3.639   3.205   4.635
  402  WAT   H1 1992   3.705   3.241   4.575
  402  WAT   H2 1993   3.572   3.169   4.577
  402  WAT  EPW 1994   3.639   3.205   4.620
  403  WAT    O 1995   4.168   2.599   4.808
  403  WAT   H1 1996   4.201   2.519   4.849
  403  WAT   H2 1997   4.081   2.576   4.776
  403  WAT  EPW 1998   4.161   2.586   4.809
  404  WAT    O 1999   4.779   2.408   4.331
  404  WAT   H1 2000   4.829   2.387   4.252
  404  WAT   H2 2001   4.798   2.500   4.348
  404  WAT  EPW 2002   4.788   2.417   4.323
  405  WAT    O 2003   4.242   2.282   3.705
  405  WAT   H1 2004   4.194   2.200   3.692
  405  WAT   H2 2005   4.285   2.298   3.622
  405  WAT  EPW 2006   4.241   2.274   3.693
  406  WAT    O 2007   3.638   2.786   3.751
  406  WAT   H1 2008   3.715   2.754   3.799
  406  WAT   H2 2009   3.564   2.762   3.807
  406  WAT  EPW 2010   3.639   2.779   3.764
  407  WAT    O 2011   3.572   2.161   4.621
  407  WAT   H1 2012   3.652   2.126   4.581
  407  WAT   H2 2013   3.570   2.123   4.709
  407  WAT  EPW 2014   3.582   2.152   4.627
  408  WAT    O 2015   4.511   2.467   4.394
  408  WAT   H1 2016   4.471   2.543   4.352
  408  WAT   H2 2017   4.598   2.461   4.353
  408  WAT  EPW 2018   4.517   2.476   4.383
  409  WAT    O 2019   3.781   2.640   4.492
  409  WAT   H1 2020   3.876   2.639   4.490
  409  WAT   H2 2021   3.756   2.559   4.536
  409  WAT  EPW 2022   3.790   2.630   4.498
  410  WAT    O 2023   4.811   2.041   4.746
  410  WAT   H1 2024   4.765   2.085   4.674
  410  WAT   H2 2025   4.757   2.059   4.823
  410  WAT  EPW 2026   4.798   2.049   4.747
  411  WAT    O 2027   4.665   2.189   4.527
  411  WAT   H1 2028   4.727   2.234   4.470
  411  WAT   H2 2029   4.651   2.104   4.485
  411  WAT  EPW 2030   4.671   2.184   4.514
  412  WAT    O 2031   4.518   2.976   4.877
  412  WAT   H1 2032   4.558   3.059   4.907
  412  WAT   H2 2033   4.427   2.982   4.905
  412  WAT  EPW 2034   4.512   2.988   4.884
  413  WAT    O 2035   4.667   1.863   3.803
  413  WAT   H1 2036   4.591   1.888   3.750
  413  WAT   H2 2037   4.723   1.941   3.803
  413  WAT  EPW 2038   4.665   1.876   3.796
  414  WAT    O 2039   3.921   2.193   3.974
  414  WAT   H1 2040   3.912   2.165   3.883
  414  WAT   H2 2041   3.831   2.208   4.004
  414  WAT  EPW 2042   3.908   2.191   3.966
  415  WAT    O 2043   4.879   1.782   4.254
  415  WAT   H1 2044   4.813   1.822   4.198
  415  WAT   H2 2045   4.949   1.755   4.194
  415  WAT  EPW 2046   4.880   1.784   4.239
  416  WAT    O 2047   4.115   2.484   4.214
  416  WAT   H1 2048   4.134   2.409   4.158
  416  WAT   H2 2049   4.201   2.523   4.231
  416  WAT  EPW 2050   4.129   2.480   4.209
  417  WAT    O 2051   3.980   1.671   4.430
  417  WAT   H1 2052   3.997   1.763   4.450
  417  WAT   H2 2053   4.037   1.623   4.490
  417  WAT  EPW 2054   3.989   1.677   4.440
  418  WAT    O 2055   4.360   3.005   3.643
  418  WAT   H1 2056   4.445   3.001   3.688
  418  WAT   H2 2057   4.383   3.025   3.552
  418  WAT  EPW 2058   4.374   3.007   3.637
  419  WAT    O 2059   4.065   2.584   4.470
  419  WAT   H1 2060   4.091   2.542   4.387
  419  WAT   H2 2061   4.074   2.515   4.535
  419  WAT  EPW 2062   4.070   2.570   4.467
  420  WAT    O 2063   4.797   3.029   4.515
  420  WAT   H1 2064   4.806   3.054   4.423
  420  WAT   H2 2065   4.711   3.064   4.541
  420  WAT  EPW 2066   4.787   3.037   4.507
  421  WAT    O 2067   4.536   3.471   4.249
  421  WAT   H1 2068   4.517   3.388   4.205
  421  WAT   H2 2069   4.504   3.538   4.189
  421  WAT  EPW 2070   4.529   3.469   4.236
  422  WAT    O 2071   4.694   3.394   3.558
  422  WAT   H1 2072   4.710   3.478   3.515
  422  WAT   H2 2073   4.721   3.409   3.649
  422  WAT  EPW 2074   4.700   3.407   3.564
  423  WAT    O 2075   4.905   3.272   4.569
  423  WAT   H1 2076   4.851   3.332   4.518
  423  WAT   H2 2077   4.866   3.186   4.555
  423  WAT  EPW 2078   4.893   3.269   4.561
  424  WAT    O 2079   4.315   3.509   4.467
  424  WAT   H1 2080   4.311   3.440   4.533
  424  WAT   H2 2081   4.362   3.469   4.394
  424  WAT  EPW 2082   4.320   3.495   4.466
  425  WAT    O 2083   4.502   2.582   3.735
  425  WAT   H1 2084   4.575   2.644   3.734
  425  WAT   H2 2085   4.424   2.637   3.732
  425  WAT  EPW 2086   4.502   2.597   3.735
  426  WAT    O 2087   4.466   2.320   4.647
  426  WAT   H1 2088   4.421   2.244   4.685
  426  WAT   H2 2089   4.538   2.282   4.597
  426  WAT  EPW 2090   4.469   2.305   4.646
  427  WAT    O 2091   4.619   2.732   4.818
  427  WAT   H1 2092   4.592   2.814   4.858
  427  WAT   H2 2093   4.714   2.731   4.829
  427  WAT  EPW 2094   4.628   2.742   4.825
  428  WAT    O 2095   4.168   1.993   4.045
  428  WAT   H1 2096   4.153   2.088   4.038
  428  WAT   H2 2097   4.089   1.960   4.088
  428  WAT  EPW 2098   4.156   2.001   4.050
  429  WAT    O 2099   4.555   3.454   4.643
  429  WAT   H1 2100   4.634   3.508   4.638
  429  WAT   H2 2101   4.495   3.494   4.580
  429  WAT  EPW 2102   4.557   3.466   4.634
  430  WAT    O 2103   4.094   2.042   3.705
  430  WAT   H1 2104   4.002   2.021   3.721
  430  WAT   H2 2105   4.141   2.003   3.778
  430  WAT  EPW 2106   4.088   2.035   3.716
  431  WAT    O 2107   4.854   3.317   4.128
  431  WAT   H1 2108   4.817   3.375   4.195
  431  WAT   H2 2109   4.943   3.350   4.115
  431  WAT  EPW 2110   4.860   3.329   4.135
  432  WAT    O 2111   3.573   1.808   4.890
  432  WAT   H1 2112   3.659   1.804   4.932
  432  WAT   H2 2113   3.591   1.823   4.797
  432  WAT  EPW 2114   3.586   1.809   4.884
  433  WAT    O 2115   4.664   2.561   4.627
  433  WAT   H1 2116   4.637   2.625   4.693
  433  WAT   H2 2117   4.584   2.543   4.577
  433  WAT  EPW 2118   4.651   2.567   4.629
  434  WAT    O 2119   3.654   2.215   4.093
  434  WAT   H1 2120   3.694   2.273   4.158
  434  WAT   H2 2121   3.608   2.273   4.033
  434  WAT  EPW 2122   3.653   2.230   4.094
  435  WAT    O 2123   4.662   2.394   4.883
  435  WAT   H1 2124   4.646   2.425   4.794
  435  WAT   H2 2125   4.576   2.368   4.915
  435  WAT  EPW 2126   4.649   2.395   4.876
  436  WAT    O 2127   3.850   1.683   3.698
  436  WAT   H1 2128   3.850   1.757   3.758
  436  WAT   H2 2129   3.900   1.713   3.622
  436  WAT  EPW 2130   3.857   1.696   3.696
  437  WAT    O 2131   3.942   2.886   3.726
  437  WAT   H1 2132   3.950   2.881   3.631
  437  WAT   H2 2133   3.886   2.963   3.741
  437  WAT  EPW 2134   3.936   2.896   3.716
  438  WAT    O 2135   3.693   2.409   4.612
  438  WAT   H1 2136   3.615   2.459   4.635
  438  WAT   H2 2137   3.667   2.317   4.624
  438  WAT  EPW 2138   3.680   2.403   4.616
  439  WAT    O 2139   4.003   2.824   4.323
  439  WAT   H1 2140   3.994   2.902   4.377
  439  WAT   H2 2141   4.010   2.752   4.385
  439  WAT  EPW 2142   4.002   2.825   4.338
  440  WAT    O 2143   4.121   1.690   4.186
  440  WAT   H1 2144   4.081   1.657   4.266
  440  WAT   H2 2145   4.132   1.613   4.131
  440  WAT  EPW 2146   4.117   1.676   4.189
  441  WAT    O 2147   4.145   3.010   3.818
  441  WAT   H1 2148   4.072   2.961   3.781
  441  WAT   H2 2149   4.211   3.012   3.749
  441  WAT  EPW 2150   4.144   3.004   3.805
  442  WAT    O 2151   4.390   1.984   4.213
  442  WAT   H1 2152   4.305   1.970   4.172
  442  WAT   H2 2153   4.395   2.079   4.227
  442  WAT  EPW 2154   4.380   1.995   4.210
  443  WAT    O 2155   3.640   3.345   4.875
  443  WAT   H1 2156   3.611   3.317   4.788
  443  WAT   H2 2157   3.609   3.435   4.884
  443  WAT  EPW 2158   3.632   3.353   4.865
  444  WAT    O 2159   4.494   2.351   3.537
  444  WAT   H1 2160   4.492   2.416   3.607
  444  WAT   H2 2161   4.530   2.273   3.578
  444  WAT  EPW 2162   4.499   2.350   3.551
  445  WAT    O 2163   4.031   3.081   4.815
  445  WAT   H1 2164   3.974   3.150   4.850
  445  WAT   H2 2165   3.986   3.000   4.836
  445  WAT  EPW 2166   4.018   3.080   4.822
  446  WAT    O 2167   4.691   3.239   3.924
  446  WAT   H1 2168   4.622   3.232   3.991
  446  WAT   H2 2169   4.770   3.257   3.974
  446  WAT  EPW 2170   4.692   3.241   3.939
  447  WAT    O 2171   4.462   1.802   4.022
  447  WAT   H1 2172   4.439   1.880   4.072
  447  WAT   H2 2173   4.552   1.817   3.993
  447  WAT  EPW 2174   4.470   1.814   4.025
  448  WAT    O 2175   4.695   1.800   5.023
  448  WAT   H1 2176   4.669   1.723   4.973
  448  WAT   H2 2177   4.791   1.801   5.018
  448  WAT  EPW 2178   4.704   1.790   5.016
  449  WAT    O 2179   4.791   3.136   3.549
  449  WAT   H1 2180   4.751   3.223   3.554
  449  WAT   H2 2181   4.744   3.084   3.614
  449  WAT  EPW 2182   4.780   3.141   3.558
  450  WAT    O 2183   4.387   2.015   4.551
  450  WAT   H1 2184   4.302   1.972   4.542
  450  WAT   H2 2185   4.397   2.030   4.645
  450  WAT  EPW 2186   4.377   2.012   4.562
  451  WAT    O 2187   4.129   2.969   4.134
  451  WAT   H1 2188   4.066   2.923   4.190
  451  WAT   H2 2189   4.081   3.042   4.097
  451  WAT  EPW 2190   4.115   2.972   4.137
  452  WAT    O 2191   4.717   3.136   4.955
  452  WAT   H1 2192   4.697   3.105   5.043
  452  WAT   H2 2193   4.769   3.065   4.916
  452  WAT  EPW 2194   4.721   3.123   4.961
  453  WAT    O 2195   3.594   3.068   4.970
  453  WAT   H1 2196   3.556   3.152   4.994
  453  WAT   H2 2197   3.677   3.091   4.927
  453  WAT  EPW 2198   3.600   3.082   4.968
  454  WAT    O 2199   3.785   2.031   4.512
  454  WAT   H1 2200   3.775   1.984   4.429
  454  WAT   H2 2201   3.867   1.998   4.549
  454  WAT  EPW 2202   3.794   2.021   4.506
  455  WAT    O 2203   4.810   3.475   3.826
  455  WAT   H1 2204   4.758   3.407   3.869
  455  WAT   H2 2205   4.762   3.556   3.844
  455  WAT  EPW 2206   4.797   3.477   3.834
  456  WAT    O 2207   4.001   1.956   4.638
  456  WAT   H1 2208   4.046   1.899   4.699
  456  WAT   H2 2209   4.057   1.958   4.561
  456  WAT  EPW 2210   4.014   1.949   4.636
  457  WAT    O 2211   4.784   3.630   4.656
  457  WAT   H1 2212   4.861   3.614   4.603
  457  WAT   H2 2213   4.781   3.725   4.667
  457  WAT  EPW 2214   4.793   3.640   4.651
  458  WAT    O 2215   4.441   3.271   4.079
  458  WAT   H1 2216   4.417   3.190   4.124
  458  WAT   H2 2217   4.360   3.299   4.036
  458  WAT  EPW 2218   4.427   3.264   4.079
  459  WAT    O 2219   3.901   2.842   4.822
  459  WAT   H1 2220   3.855   2.877   4.746
  459  WAT   H2 2221   3.909   2.748   4.805
  459  WAT  EPW 2222   3.896   2.835   4.810
  460  WAT    O 2223   3.720   2.606   4.041
  460  WAT   H1 2224   3.816   2.610   4.043
  460  WAT   H2 2225   3.693   2.698   4.045
  460  WAT  EPW 2226   3.729   2.618   4.042
  461  WAT    O 2227   3.856   1.935   3.838
  461  WAT   H1 2228   3.887   1.942   3.928
  461  WAT   H2 2229   3.765   1.910   3.846
  461  WAT  EPW 2230   3.849   1.933   3.850
  462  WAT    O 2231   4.787   2.361   4.076
  462  WAT   H1 2232   4.849   2.406   4.018
  462  WAT   H2 2233   4.706   2.412   4.068
  462  WAT  EPW 2234   4.785   2.374   4.068
  463  WAT    O 2235   4.016   3.175   3.999
  463  WAT   H1 2236   3.946   3.215   3.948
  463  WAT   H2 2237   4.060   3.115   3.939
  463  WAT  EPW 2238   4.013   3.172   3.985
  464  WAT    O 2239   4.877   2.969   4.782
  464  WAT   H1 2240   4.859   2.962   4.688
  464  WAT   H2 2241   4.955   3.024   4.787
  464  WAT  EPW 2242   4.884   2.975   4.770
  465  WAT    O 2243   4.358   2.608   4.214
  465  WAT   H1 2244   4.410   2.548   4.160
  465  WAT   H2 2245   4.331   2.677   4.153
  465  WAT  EPW 2246   4.361   2.609   4.199
  466  WAT    O 2247   4.963   1.931   4.969
  466  WAT   H1 2248   4.934   2.013   5.009
  466  WAT   H2 2249   4.940   1.939   4.877
  466  WAT  EPW 2250   4.956   1.942   4.963
  467  WAT    O 2251   3.607   3.343   3.618
  467  WAT   H1 2252   3.663   3.267   3.635
  467  WAT   H2 2253   3.664   3.419   3.634
  467  WAT  EPW 2254   3.621   3.343   3.622
  468  WAT    O 2255   4.136   1.946   4.405
  468  WAT   H1 2256   4.118   2.005   4.331
  468  WAT   H2 2257   4.184   1.873   4.366
  468  WAT  EPW 2258   4.140   1.944   4.390
  469  WAT    O 2259   3.496   2.605   4.262
  469  WAT   H1 2260   3.556   2.631   4.192
  469  WAT   H2 2261   3.527   2.655   4.339
  469  WAT  EPW 2262   3.508   2.615   4.263
  470  WAT    O 2263   3.765   2.956   4.643
  470  WAT   H1 2264   3.790   3.025   4.582
  470  WAT   H2 2265   3.677   2.982   4.673
  470  WAT  EPW 2266   3.757   2.968   4.639
  471  WAT    O 2267   4.967   3.418   4.806
  471  WAT   H1 2268   4.920   3.501   4.805
  471  WAT   H2 2269   4.914   3.359   4.752
  471  WAT  EPW 2270   4.954   3.421   4.799
  472  WAT    O 2271   4.179   1.885   3.005
  472  WAT   H1 2272   4.201   1.882   3.097
  472  WAT   H2 2273   4.116   1.813   2.993
  472  WAT  EPW 2274   4.173   1.875   3.015
  473  WAT    O 2275   3.918   3.303   3.031
  473  WAT   H1 2276   3.823   3.296   3.027
  473  WAT   H2 2277   3.937   3.334   3.119
  473  WAT  EPW 2278   3.909   3.306   3.041
  474  WAT    O 2279   4.395   3.048   2.347
  474  WAT   H1 2280   4.378   3.064   2.440
  474  WAT   H2 2281   4.318   2.999   2.316
  474  WAT  EPW 2282   4.383   3.043   2.355
  475  WAT    O 2283   4.052   2.537   1.880
  475  WAT   H1 2284   4.037   2.583   1.963
  475  WAT   H2 2285   4.123   2.476   1.899
  475  WAT  EPW 2286   4.059   2.535   1.893
  476  WAT    O 2287   4.392   2.058   2.940
  476  WAT   H1 2288   4.331   1.994   2.978
  476  WAT   H2 2289   4.470   2.051   2.994
  476  WAT  EPW 2290   4.394   2.049   2.952
  477  WAT    O 2291   4.445   1.702   3.568
  477  WAT   H1 2292   4.535   1.679   3.542
  477  WAT   H2 2293   4.393   1.690   3.489
  477  WAT  EPW 2294   4.450   1.698   3.555
  478  WAT    O 2295   3.741   3.163   2.376
  478  WAT   H1 2296   3.745   3.252   2.342
  478  WAT   H2 2297   3.661   3.161   2.429
  478  WAT  EPW 2298   3.731   3.174   2.379
  479  WAT    O 2299   4.212   3.342   2.045
  479  WAT   H1 2300   4.132   3.289   2.046
  479  WAT   H2 2301   4.246   3.332   1.956
  479  WAT  EPW 2302   4.206   3.334   2.034
  480  WAT    O 2303   4.634   2.041   3.067
  480  WAT   H1 2304   4.652   1.953   3.100
  480  WAT   H2 2305   4.666   2.099   3.136
  480  WAT  EPW 2306   4.640   2.037   3.080
  481  WAT    O 2307   4.603   2.840   2.292
  481  WAT   H1 2308   4.560   2.780   2.231
  481  WAT   H2 2309   4.536   2.907   2.310
  481  WAT  EPW 2310   4.589   2.841   2.286
  482  WAT    O 2311   4.399   1.946   1.816
  482  WAT   H1 2312   4.373   1.899   1.896
  482  WAT   H2 2313   4.401   1.878   1.748
  482  WAT  EPW 2314   4.396   1.931   1.818
  483  WAT    O 2315   4.423   2.664   3.144
  483  WAT   H1 2316   4.410   2.578   3.183
  483  WAT   H2 2317   4.467   2.647   3.061
  483  WAT  EPW 2318   4.427   2.651   3.139
  484  WAT    O 2319   4.710   2.760   1.846
  484  WAT   H1 2320   4.787   2.762   1.903
  484  WAT   H2 2321   4.742   2.723   1.764
  484  WAT  EPW 2322   4.724   2.755   1.843
  485  WAT    O 2323   4.782   3.100   2.380
  485  WAT   H1 2324   4.799   3.185   2.340
  485  WAT   H2 2325   4.706   3.066   2.333
  485  WAT  EPW 2326   4.774   3.107   2.369
  486  WAT    O 2327   4.761   3.432   2.505
  486  WAT   H1 2328   4.819   3.506   2.488
  486  WAT   H2 2329   4.682   3.451   2.453
  486  WAT  EPW 2330   4.758   3.444   2.496
  487  WAT    O 2331   3.993   2.158   2.357
  487  WAT   H1 2332   3.952   2.158   2.270
  487  WAT   H2 2333   3.944   2.224   2.406
  487  WAT  EPW 2334   3.981   2.166   2.352
  488  WAT    O 2335   3.935   1.877   2.229
  488  WAT   H1 2336   3.860   1.875   2.287
  488  WAT   H2 2337   3.989   1.802   2.257
  488  WAT  EPW 2338   3.933   1.867   2.240
  489  WAT    O 2339   4.639   2.246   3.259
  489  WAT   H1 2340   4.698   2.278   3.328
  489  WAT   H2 2341   4.567   2.309   3.259
  489  WAT  EPW 2342   4.638   2.258   3.268
  490  WAT    O 2343   4.401   2.297   2.212
  490  WAT   H1 2344   4.319   2.295   2.164
  490  WAT   H2 2345   4.376   2.278   2.303
  490  WAT  EPW 2346   4.388   2.294   2.217
  491  WAT    O 2347   4.113   3.263   2.674
  491  WAT   H1 2348   4.087   3.226   2.758
  491  WAT   H2 2349   4.186   3.209   2.645
  491  WAT  EPW 2350   4.119   3.251   2.681
  492  WAT    O 2351   3.937   3.082   2.545
  492  WAT   H1 2352   3.864   3.113   2.490
  492  WAT   H2 2353   3.996   3.157   2.550
  492  WAT  EPW 2354   3.935   3.096   2.539
  493  WAT    O 2355   3.884   2.459   1.679
  493  WAT   H1 2356   3.824   2.532   1.669
  493  WAT   H2 2357   3.947   2.488   1.745
  493  WAT  EPW 2358   3.884   2.472   1.686
  494  WAT    O 2359   4.327   3.305   1.808
  494  WAT   H1 2360   4.373   3.223   1.826
  494  WAT   H2 2361   4.396   3.369   1.794
  494  WAT  EPW 2362   4.341   3.303   1.809
  495  WAT    O 2363   4.199   2.354   2.707
  495  WAT   H1 2364   4.287   2.383   2.730
  495  WAT   H2 2365   4.208   2.321   2.617
  495  WAT  EPW 2366   4.211   2.354   2.698
  496  WAT    O 2367   3.795   3.130   3.574
  496  WAT   H1 2368   3.844   3.186   3.513
  496  WAT   H2 2369   3.751   3.066   3.518
  496  WAT  EPW 2370   3.796   3.129   3.559
  497  WAT    O 2371   4.158   3.303   3.453
  497  WAT   H1 2372   4.215   3.295   3.530
  497  WAT   H2 2373   4.154   3.398   3.437
  497  WAT  EPW 2374   4.165   3.314   3.461
  498  WAT    O 2375   4.629   1.936   2.525
  498  WAT   H1 2376   4.533   1.930   2.532
  498  WAT   H2 2377   4.661   1.863   2.578
  498  WAT  EPW 2378   4.621   1.926   2.533
  499  WAT    O 2379   4.194   2.689   3.444
  499  WAT   H1 2380   4.178   2.594   3.440
  499  WAT   H2 2381   4.185   2.718   3.353
  499  WAT  EPW 2382   4.190   2.680   3.431
  500  WAT    O 2383   4.614   3.020   1.854
  500  WAT   H1 2384   4.645   2.930   1.869
  500  WAT   H2 2385   4.667   3.074   1.913
  500  WAT  EPW 2386   4.625   3.015   1.863
  501  WAT    O 2387   4.877   2.068   1.911
  501  WAT   H1 2388   4.887   2.103   2.000
  501  WAT   H2 2389   4.864   2.146   1.857
  501  WAT  EPW 2390   4.876   2.083   1.916
  502  WAT    O 2391   4.925   2.587   2.829
  502  WAT   H1 2392   4.838   2.561   2.800
  502  WAT   H2 2393   4.960   2.509   2.872
  502  WAT  EPW 2394   4.919   2.574   2.831
  503  WAT    O 2395   3.896   3.279   3.345
  503  WAT   H1 2396   3.871   3.369   3.364
  503  WAT   H2 2397   3.987   3.272   3.375
  503  WAT  EPW 2398   3.905   3.289   3.351
  504  WAT    O 2399   4.099   1.786   1.710
  504  WAT   H1 2400   4.134   1.787   1.799
  504  WAT   H2 2401   4.051   1.868   1.702
  504  WAT  EPW 2402   4.098   1.797   1.720
  505  WAT    O 2403   4.360   2.237   2.475
  505  WAT   H1 2404   4.368   2.159   2.530
  505  WAT   H2 2405   4.404   2.306   2.525
  505  WAT  EPW 2406   4.366   2.236   2.489
  506  WAT    O 2407   3.667   3.459   2.127
  506  WAT   H1 2408   3.589   3.446   2.074
  506  WAT   H2 2409   3.664   3.552   2.152
  506  WAT  EPW 2410   3.657   3.469   2.124
  507  WAT    O 2411   4.672   3.039   3.322
  507  WAT   H1 2412   4.731   3.023   3.397
  507  WAT   H2 2413   4.613   3.108   3.353
  507  WAT  EPW 2414   4.672   3.046   3.336
  508  WAT    O 2415   4.303   3.086   2.596
  508  WAT   H1 2416   4.255   3.005   2.614
  508  WAT   H2 2417   4.376   3.084   2.658
  508  WAT  EPW 2418   4.306   3.075   2.607
  509  WAT    O 2419   4.583   2.171   1.823
  509  WAT   H1 2420   4.520   2.099   1.825
  509  WAT   H2 2421   4.605   2.187   1.915
  509  WAT  EPW 2422   4.578   2.164   1.835
  510  WAT    O 2423   4.257   2.336   3.035
  510  WAT   H1 2424   4.172   2.304   3.067
  510  WAT   H2 2425   4.304   2.257   3.009
  510  WAT  EPW 2426   4.252   2.322   3.036
  511  WAT    O 2427   3.950   2.854   3.468
  511  WAT   H1 2428   4.031   2.806   3.454
  511  WAT   H2 2429   3.923   2.882   3.381
  511  WAT  EPW 2430   3.956   2.852   3.455
  512  WAT    O 2431   3.840   3.312   1.981
  512  WAT   H1 2432   3.782   3.361   2.038
  512  WAT   H2 2433   3.863   3.373   1.911
  512  WAT  EPW 2434   3.836   3.326   1.979
  513  WAT    O 2435   4.176   2.758   3.171
  513  WAT   H1 2436   4.264   2.721   3.166
  513  WAT   H2 2437   4.122   2.700   3.118
  513  WAT  EPW 2438   4.180   2.746   3.164
  514  WAT    O 2439   4.820   2.584   3.136
  514  WAT   H1 2440   4.764   2.545   3.069
  514  WAT   H2 2441   4.763   2.645   3.182
  514  WAT  EPW 2442   4.806   2.587   3.133
  515  WAT    O 2443   4.603   2.183   2.089
  515  WAT   H1 2444   4.521   2.211   2.129
  515  WAT   H2 2445   4.671   2.221   2.145
  515  WAT  EPW 2446   4.601   2.191   2.102
  516  WAT    O 2447   3.904   2.542   2.899
  516  WAT   H1 2448   3.866   2.529   2.986
  516  WAT   H2 2449   3.848   2.491   2.841
  516  WAT  EPW 2450   3.892   2.534   2.902
  517  WAT    O 2451   4.805   2.693   2.444
  517  WAT   H1 2452   4.859   2.743   2.505
  517  WAT   H2 2453   4.735   2.754   2.419
  517  WAT  EPW 2454   4.803   2.707   2.449
  518  WAT    O 2455   3.603   2.850   2.526
  518  WAT   H1 2456   3.642   2.843   2.439
  518  WAT   H2 2457   3.664   2.804   2.584
  518  WAT  EPW 2458   3.616   2.843   2.523
  519  WAT    O 2459   4.550   2.504   2.111
  519  WAT   H1 2460   4.483   2.436   2.114
  519  WAT   H2 2461   4.558   2.526   2.019
  519  WAT  EPW 2462   4.543   2.498   2.100
  520  WAT    O 2463   4.669   3.402   3.023
  520  WAT   H1 2464   4.614   3.395   2.945
  520  WAT   H2 2465   4.705   3.314   3.035
  520  WAT  EPW 2466   4.666   3.390   3.015
  521  WAT    O 2467   4.017   2.234   2.903
  521  WAT   H1 2468   3.958   2.160   2.888
  521  WAT   H2 2469   4.078   2.231   2.829
  521  WAT  EPW 2470   4.017   2.224   2.892
  522  WAT    O 2471   4.155   2.853   2.706
  522  WAT   H1 2472   4.151   2.758   2.702
  522  WAT   H2 2473   4.110   2.876   2.787
  522  WAT  EPW 2474   4.149   2.844   2.716
  523  WAT    O 2475   4.952   2.519   3.374
  523  WAT   H1 2476   4.883   2.455   3.391
  523  WAT   H2 2477   4.931   2.554   3.288
  523  WAT  EPW 2478   4.940   2.515   3.365
  524  WAT    O 2479   3.513   2.429   2.088
  524  WAT   H1 2480   3.580   2.489   2.122
  524  WAT   H2 2481   3.430   2.472   2.107
  524  WAT  EPW 2482   3.511   2.442   2.095
  525  WAT    O 2483   3.747   2.873   2.308
  525  WAT   H1 2484   3.815   2.845   2.370
  525  WAT   H2 2485   3.757   2.968   2.303
  525  WAT  EPW 2486   3.757   2.882   2.316
  526  WAT    O 2487   4.288   2.747   1.817
  526  WAT   H1 2488   4.250   2.716   1.735
  526  WAT   H2 2489   4.312   2.838   1.799
  526  WAT  EPW 2490   4.286   2.755   1.804
  527  WAT    O 2491   4.171   1.774   1.985
  527  WAT   H1 2492   4.195   1.686   2.015
  527  WAT   H2 2493   4.149   1.822   2.065
  527  WAT  EPW 2494   4.171   1.769   1.999
  528  WAT    O 2495   4.694   1.949   2.239
  528  WAT   H1 2496   4.665   2.020   2.183
  528  WAT   H2 2497   4.667   1.975   2.327
  528  WAT  EPW 2498   4.687   1.961   2.243
  529  WAT    O 2499   4.539   3.114   2.747
  529  WAT   H1 2500   4.533   3.062   2.827
  529  WAT   H2 2501   4.594   3.189   2.771
  529  WAT  EPW 2502   4.546   3.117   2.761
  530  WAT    O 2503   3.855   2.200   1.789
  530  WAT   H1 2504   3.762   2.176   1.792
  530  WAT   H2 2505   3.854   2.292   1.762
  530  WAT  EPW 2506   3.843   2.209   1.786
  531  WAT    O 2507   4.052   2.636   2.117
  531  WAT   H1 2508   4.134   2.684   2.114
  531  WAT   H2 2509   4.057   2.586   2.199
  531  WAT  EPW 2510   4.063   2.636   2.127
  532  WAT    O 2511   3.721   3.423   2.525
  532  WAT   H1 2512   3.666   3.465   2.592
  532  WAT   H2 2513   3.811   3.443   2.551
  532  WAT  EPW 2514   3.725   3.431   2.537
  533  WAT    O 2515   4.281   2.799   2.118
  533  WAT   H1 2516   4.229   2.870   2.156
  533  WAT   H2 2517   4.282   2.819   2.024
  533  WAT  EPW 2518   4.275   2.811   2.111
  534  WAT    O 2519   3.875   2.830   3.217
  534  WAT   H1 2520   3.871   2.861   3.127
  534  WAT   H2 2521   3.788   2.794   3.234
  534  WAT  EPW 2522   3.863   2.829   3.208
  535  WAT    O 2523   4.266   3.004   3.075
  535  WAT   H1 2524   4.187   3.044   3.038
  535  WAT   H2 2525   4.237   2.917   3.102
  535  WAT  EPW 2526   4.252   2.998   3.073
  536  WAT    O 2527   4.168   2.599   2.922
  536  WAT   H1 2528   4.201   2.519   2.963
  536  WAT   H2 2529   4.081   2.576   2.890
  536  WAT  EPW 2530   4.161   2.586   2.923
  537  WAT    O 2531   4.779   2.408   2.445
  537  WAT   H1 2532   4.829   2.387   2.366
  537  WAT   H2 2533   4.798   2.500   2.462
  537  WAT  EPW 2534   4.788   2.417   2.437
  538  WAT    O 2535   4.242   2.282   1.819
  538  WAT   H1 2536   4.194   2.200   1.806
  538  WAT   H2 2537   4.285   2.298   1.736
  538  WAT  EPW 2538   4.241   2.274   1.807
  539  WAT    O 2539   3.638   2.786   1.865
  539  WAT   H1 2540   3.715   2.754   1.913
  539  WAT   H2 2541   3.564   2.762   1.921
  539  WAT  EPW 2542   3.639   2.779   1.878
  540  WAT    O 2543   4.511   2.467   2.508
  540  WAT   H1 2544   4.471   2.543   2.466
  540  WAT   H2 2545   4.598   2.461   2.467
  540  WAT  EPW 2546   4.517   2.476   2.497
  541  WAT    O 2547   3.781   2.640   2.606
  541  WAT   H1 2548   3.876   2.639   2.604
  541  WAT   H2 2549   3.756   2.559   2.650
  541  WAT  EPW 2550   3.790   2.630   2.612
  542  WAT    O 2551   4.811   2.041   2.860
  542  WAT   H1 2552   4.765   2.085   2.788
  542  WAT   H2 2553   4.757   2.059   2.937
  542  WAT  EPW 2554   4.798   2.049   2.861
  543  WAT    O 2555   4.665   2.189   2.641
  543  WAT   H1 2556   4.727   2.234   2.584
  543  WAT   H2 2557   4.651   2.104   2.599
  543  WAT  EPW 2558   4.671   2.184   2.628
  544  WAT    O 2559   4.518   2.976   2.991
  544  WAT   H1 2560   4.558   3.059   3.021
  544  WAT   H2 2561   4.427   2.982   3.019
  544  WAT  EPW 2562   4.512   2.988   2.998
  545  WAT    O 2563   4.667   1.863   1.917
  545  WAT   H1 2564   4.591   1.888   1.864
  545  WAT   H2 2565   4.723   1.941   1.917
  545  WAT  EPW 2566   4.665   1.876   1.910
  546  WAT    O 2567   3.921   2.193   2.088
  546  WAT   H1 2568   3.912   2.165   1.997
  546  WAT   H2 2569   3.831   2.208   2.118
  546  WAT  EPW 2570   3.908   2.191   2.080
  547  WAT    O 2571   4.879   1.782   2.368
  547  WAT   H1 2572   4.813   1.822   2.312
  547  WAT   H2 2573   4.949   1.755   2.308
  547  WAT  EPW 2574   4.880   1.784   2.353
  548  WAT    O 2575   4.115   2.484   2.328
  548  WAT   H1 2576   4.134   2.409   2.272
  548  WAT   H2 2577   4.201   2.523   2.345
  548  WAT  EPW 2578   4.129   2.480   2.323
  549  WAT    O 2579   4.281   1.970   3.252
  549  WAT   H1 2580   4.373   1.978   3.277
  549  WAT   H2 2581   4.236   2.032   3.310
  549  WAT  EPW 2582   4.287   1.979   3.263
  550  WAT    O 2583   3.980   1.671   2.544
  550  WAT   H1 2584   3.997   1.763   2.564
  550  WAT   H2 2585   4.037   1.623   2.604
  550  WAT  EPW 2586   3.989   1.677   2.554
  551  WAT    O 2587   4.360   3.005   1.757
  551  WAT   H1 2588   4.445   3.001   1.802
  551  WAT   H2 2589   4.383   3.025   1.666
  551  WAT  EPW 2590   4.374   3.007   1.751
  552  WAT    O 2591   4.065   2.584   2.584
  552  WAT   H1 2592   4.091   2.542   2.501
  552  WAT   H2 2593   4.074   2.515   2.649
  552  WAT  EPW 2594   4.070   2.570   2.581
  553  WAT    O 2595   4.797   3.029   2.629
  553  WAT   H1 2596   4.806   3.054   2.537
  553  WAT   H2 2597   4.711   3.064   2.655
  553  WAT  EPW 2598   4.787   3.037   2.621
  554  WAT    O 2599   4.536   3.471   2.363
  554  WAT   H1 2600   4.517   3.388   2.319
  554  WAT   H2 2601   4.504   3.538   2.303
  554  WAT  EPW 2602   4.529   3.469   2.350
  555  WAT    O 2603   4.694   3.394   1.672
  555  WAT   H1 2604   4.710   3.478   1.629
  555  WAT   H2 2605   4.721   3.409   1.763
  555  WAT  EPW 2606   4.700   3.407   1.678
  556  WAT    O 2607   4.905   3.272   2.683
  556  WAT   H1 2608   4.851   3.332   2.632
  556  WAT   H2 2609   4.866   3.186   2.669
  556  WAT  EPW 2610   4.893   3.269   2.675
  557  WAT    O 2611   4.315   3.509   2.581
  557  WAT   H1 2612   4.311   3.440   2.647
  557  WAT   H2 2613   4.362   3.469   2.508
  557  WAT  EPW 2614   4.320   3.495   2.580
  558  WAT    O 2615   4.502   2.582   1.849
  558  WAT   H1 2616   4.575   2.644   1.848
  558  WAT   H2 2617   4.424   2.637   1.846
  558  WAT  EPW 2618   4.502   2.597   1.849
  559  WAT    O 2619   4.466   2.320   2.761
  559  WAT   H1 2620   4.421   2.244   2.799
  559  WAT   H2 2621   4.538   2.282   2.711
  559  WAT  EPW 2622   4.469   2.305   2.760
  560  WAT    O 2623   4.619   2.732   2.932
  560  WAT   H1 2624   4.592   2.814   2.972
  560  WAT   H2 2625   4.714   2.731   2.943
  560  WAT  EPW 2626   4.628   2.742   2.939
  561  WAT    O 2627   4.168   1.993   2.159
  561  WAT   H1 2628   4.153   2.088   2.152
  561  WAT   H2 2629   4.089   1.960   2.202
  561  WAT  EPW 2630   4.156   2.001   2.164
  562  WAT    O 2631   4.555   3.454   2.757
  562  WAT   H1 2632   4.634   3.508   2.752
  562  WAT   H2 2633   4.495   3.494   2.694
  562  WAT  EPW 2634   4.557   3.466   2.748
  563  WAT    O 2635   4.533   2.028   3.401
  563  WAT   H1 2636   4.486   2.088   3.460
  563  WAT   H2 2637   4.593   2.084   3.352
  563  WAT  EPW 2638   4.535   2.043   3.402
  564  WAT    O 2639   4.094   2.042   1.819
  564  WAT   H1 2640   4.002   2.021   1.835
  564  WAT   H2 2641   4.141   2.003   1.892
  564  WAT  EPW 2642   4.088   2.035   1.830
  565  WAT    O 2643   4.854   3.317   2.242
  565  WAT   H1 2644   4.817   3.375   2.309
  565  WAT   H2 2645   4.943   3.350   2.229
  565  WAT  EPW 2646   4.860   3.329   2.249
  566  WAT    O 2647   4.664   2.561   2.741
  566  WAT   H1 2648   4.637   2.625   2.807
  566  WAT   H2 2649   4.584   2.543   2.691
  566  WAT  EPW 2650   4.651   2.567   2.743
  567  WAT    O 2651   3.654   2.215   2.207
  567  WAT   H1 2652   3.694   2.273   2.272
  567  WAT   H2 2653   3.608   2.273   2.147
  567  WAT  EPW 2654   3.653   2.230   2.208
  568  WAT    O 2655   4.662   2.394   2.997
  568  WAT   H1 2656   4.646   2.425   2.908
  568  WAT   H2 2657   4.576   2.368   3.029
  568  WAT  EPW 2658   4.649   2.395   2.990
  569  WAT    O 2659   4.684   1.817   3.411
  569  WAT   H1 2660   4.684   1.788   3.320
  569  WAT   H2 2661   4.617   1.885   3.415
  569  WAT  EPW 2662   4.675   1.822   3.400
  570  WAT    O 2663   3.850   1.683   1.812
  570  WAT   H1 2664   3.850   1.757   1.872
  570  WAT   H2 2665   3.900   1.713   1.736
  570  WAT  EPW 2666   3.857   1.696   1.810
  571  WAT    O 2667   3.942   2.886   1.840
  571  WAT   H1 2668   3.950   2.881   1.745
  571  WAT   H2 2669   3.886   2.963   1.855
  571  WAT  EPW 2670   3.936   2.896   1.830
  572  WAT    O 2671   4.655   2.761   3.251
  572  WAT   H1 2672   4.573   2.745   3.204
  572  WAT   H2 2673   4.660   2.856   3.260
  572  WAT  EPW 2674   4.645   2.771   3.246
  573  WAT    O 2675   4.003   2.824   2.437
  573  WAT   H1 2676   3.994   2.902   2.491
  573  WAT   H2 2677   4.010   2.752   2.499
  573  WAT  EPW 2678   4.002   2.825   2.452
  574  WAT    O 2679   3.566   1.933   1.957
  574  WAT   H1 2680   3.560   1.907   1.865
  574  WAT   H2 2681   3.511   2.011   1.964
  574  WAT  EPW 2682   3.558   1.939   1.946
  575  WAT    O 2683   4.121   1.690   2.300
  575  WAT   H1 2684   4.081   1.657   2.380
  575  WAT   H2 2685   4.132   1.613   2.245
  575  WAT  EPW 2686   4.117   1.676   2.303
  576  WAT    O 2687   4.175   2.295   2.089
  576  WAT   H1 2688   4.213   2.288   2.001
  576  WAT   H2 2689   4.085   2.265   2.079
  576  WAT  EPW 2690   4.169   2.290   2.076
  577  WAT    O 2691   4.145   3.010   1.932
  577  WAT   H1 2692   4.072   2.961   1.895
  577  WAT   H2 2693   4.211   3.012   1.863
  577  WAT  EPW 2694   4.144   3.004   1.919
  578  WAT    O 2695   4.390   1.984   2.327
  578  WAT   H1 2696   4.305   1.970   2.286
  578  WAT   H2 2697   4.395   2.079   2.341
  578  WAT  EPW 2698   4.380   1.995   2.324
  579  WAT    O 2699   4.494   2.351   1.651
  579  WAT   H1 2700   4.492   2.416   1.721
  579  WAT   H2 2701   4.530   2.273   1.692
  579  WAT  EPW 2702   4.499   2.350   1.665
  580  WAT    O 2703   4.031   3.081   2.929
  580  WAT   H1 2704   3.974   3.150   2.964
  580  WAT   H2 2705   3.986   3.000   2.950
  580  WAT  EPW 2706   4.018   3.080   2.936
  581  WAT    O 2707   4.691   3.239   2.038
  581  WAT   H1 2708   4.622   3.232   2.105
  581  WAT   H2 2709   4.770   3.257   2.088
  581  WAT  EPW 2710   4.692   3.241   2.053
  582  WAT    O 2711   4.462   1.802   2.136
  582  WAT   H1 2712   4.439   1.880   2.186
  582  WAT   H2 2713   4.552   1.817   2.107
  582  WAT  EPW 2714   4.470   1.814   2.139
  583  WAT    O 2715   4.695   1.800   3.137
  583  WAT   H1 2716   4.669   1.723   3.087
  583  WAT   H2 2717   4.791   1.801   3.132
  583  WAT  EPW 2718   4.704   1.790   3.130
  584  WAT    O 2719   4.791   3.136   1.663
  584  WAT   H1 2720   4.751   3.223   1.668
  584  WAT   H2 2721   4.744   3.084   1.728
  584  WAT  EPW 2722   4.780   3.141   1.672
  585  WAT    O 2723   4.387   2.015   2.665
  585  WAT   H1 2724   4.302   1.972   2.656
  585  WAT   H2 2725   4.397   2.030   2.759
  585  WAT  EPW 2726   4.377   2.012   2.676
  586  WAT    O 2727   4.250   1.717   3.380
  586  WAT   H1 2728   4.195   1.748   3.452
  586  WAT   H2 2729   4.256   1.792   3.320
  586  WAT  EPW 2730   4.244   1.731   3.381
  587  WAT    O 2731   4.129   2.969   2.248
  587  WAT   H1 2732   4.066   2.923   2.304
  587  WAT   H2 2733   4.081   3.042   2.211
  587  WAT  EPW 2734   4.115   2.972   2.251
  588  WAT    O 2735   4.717   3.136   3.069
  588  WAT   H1 2736   4.697   3.105   3.157
  588  WAT   H2 2737   4.769   3.065   3.030
  588  WAT  EPW 2738   4.721   3.123   3.075
  589  WAT    O 2739   4.358   3.133   3.347
  589  WAT   H1 2740   4.320   3.096   3.268
  589  WAT   H2 2741   4.294   3.196   3.379
  589  WAT  EPW 2742   4.345   3.136   3.341
  590  WAT    O 2743   4.810   3.475   1.940
  590  WAT   H1 2744   4.758   3.407   1.983
  590  WAT   H2 2745   4.762   3.556   1.958
  590  WAT  EPW 2746   4.797   3.477   1.948
  591  WAT    O 2747   4.001   1.956   2.752
  591  WAT   H1 2748   4.046   1.899   2.813
  591  WAT   H2 2749   4.057   1.958   2.675
  591  WAT  EPW 2750   4.014   1.949   2.750
  592  WAT    O 2751   4.784   3.630   2.770
  592  WAT   H1 2752   4.861   3.614   2.717
  592  WAT   H2 2753   4.781   3.725   2.781
  592  WAT  EPW 2754   4.793   3.640   2.765
  593  WAT    O 2755   4.441   3.271   2.193
  593  WAT   H1 2756   4.417   3.190   2.238
  593  WAT   H2 2757   4.360   3.299   2.150
  593  WAT  EPW 2758   4.427   3.264   2.193
  594  WAT    O 2759   3.901   2.842   2.936
  594  WAT   H1 2760   3.855   2.877   2.860
  594  WAT   H2 2761   3.909   2.748   2.919
  594  WAT  EPW 2762   3.896   2.835   2.924
  595  WAT    O 2763   3.720   2.606   2.155
  595  WAT   H1 2764   3.816   2.610   2.157
  595  WAT   H2 2765   3.693   2.698   2.159
  595  WAT  EPW 2766   3.729   2.618   2.156
  596  WAT    O 2767   4.204   2.152   3.449
  596  WAT   H1 2768   4.128   2.113   3.491
  596  WAT   H2 2769   4.179   2.243   3.434
  596  WAT  EPW 2770   4.191   2.159   3.453
  597  WAT    O 2771   3.856   1.935   1.952
  597  WAT   H1 2772   3.887   1.942   2.042
  597  WAT   H2 2773   3.765   1.910   1.960
  597  WAT  EPW 2774   3.849   1.933   1.964
  598  WAT    O 2775   4.787   2.361   2.190
  598  WAT   H1 2776   4.849   2.406   2.132
  598  WAT   H2 2777   4.706   2.412   2.182
  598  WAT  EPW 2778   4.785   2.374   2.182
  599  WAT    O 2779   3.449   2.967   1.786
  599  WAT   H1 2780   3.512   2.914   1.836
  599  WAT   H2 2781   3.499   2.997   1.710
  599  WAT  EPW 2782   3.464   2.964   1.783
  600  WAT    O 2783   4.016   3.175   2.113
  600  WAT   H1 2784   3.946   3.215   2.062
  600  WAT   H2 2785   4.060   3.115   2.053
  600  WAT  EPW 2786   4.013   3.172   2.099
  601  WAT    O 2787   4.877   2.969   2.896
  601  WAT   H1 2788   4.859   2.962   2.802
  601  WAT   H2 2789   4.955   3.024   2.901
  601  WAT  EPW 2790   4.884   2.975   2.884
  602  WAT    O 2791   4.358   2.608   2.328
  602  WAT   H1 2792   4.410   2.548   2.274
  602  WAT   H2 2793   4.331   2.677   2.267
  602  WAT  EPW 2794   4.361   2.609   2.313
  603  WAT    O 2795   4.963   1.931   3.083
  603  WAT   H1 2796   4.934   2.013   3.123
  603  WAT   H2 2797   4.940   1.939   2.991
  603  WAT  EPW 2798   4.956   1.942   3.077
  604  WAT    O 2799   3.607   3.343   1.732
  604  WAT   H1 2800   3.663   3.267   1.749
  604  WAT   H2 2801   3.664   3.419   1.748
  604  WAT  EPW 2802   3.621   3.343   1.736
  605  WAT    O 2803   4.802   2.742   3.463
  605  WAT   H1 2804   4.721   2.746   3.412
  605  WAT   H2 2805   4.838   2.656   3.443
  605  WAT  EPW 2806   4.796   2.731   3.454
  606  WAT    O 2807   4.136   1.946   2.519
  606  WAT   H1 2808   4.118   2.005   2.445
  606  WAT   H2 2809   4.184   1.873   2.480
  606  WAT  EPW 2810   4.140   1.944   2.504
  607  WAT    O 2811   3.496   2.605   2.376
  607  WAT   H1 2812   3.556   2.631   2.306
  607  WAT   H2 2813   3.527   2.655   2.453
  607  WAT  EPW 2814   3.508   2.615   2.377
  608  WAT    O 2815   3.765   2.956   2.757
  608  WAT   H1 2816   3.790   3.025   2.696
  608  WAT   H2 2817   3.677   2.982   2.787
  608  WAT  EPW 2818   3.757   2.968   2.753
  609  WAT    O 2819   4.426   2.406   3.245
  609  WAT   H1 2820   4.351   2.373   3.197
  609  WAT   H2 2821   4.406   2.386   3.337
  609  WAT  EPW 2822   4.414   2.399   3.251
  610  WAT    O 2823   4.781   2.338   3.452
  610  WAT   H1 2824   4.703   2.334   3.507
  610  WAT   H2 2825   4.845   2.283   3.498
  610  WAT  EPW 2826   4.779   2.331   3.465
  611  WAT    O 2827   4.967   3.418   2.920
  611  WAT   H1 2828   4.920   3.501   2.919
  611  WAT   H2 2829   4.914   3.359   2.866
  611  WAT  EPW 2830   4.954   3.421   2.913
  612  WAT    O 2831   4.179   1.885   1.119
  612  WAT   H1 2832   4.201   1.882   1.211
  612  WAT   H2 2833   4.116   1.813   1.107
  612  WAT  EPW 2834   4.173   1.875   1.129
  613  WAT    O 2835   3.918   3.303   1.145
  613  WAT   H1 2836   3.823   3.296   1.141
  613  WAT   H2 2837   3.937   3.334   1.233
  613  WAT  EPW 2838   3.909   3.306   1.155
  614  WAT    O 2839   4.395   3.048   0.461
  614  WAT   H1 2840   4.378   3.064   0.554
  614  WAT   H2 2841   4.318   2.999   0.430
  614  WAT  EPW 2842   4.383   3.043   0.469
  615  WAT    O 2843   3.970   1.713   1.069
  615  WAT   H1 2844   3.914   1.758   1.133
  615  WAT   H2 2845   3.956   1.620   1.086
  615  WAT  EPW 2846   3.961   1.707   1.079
  616  WAT    O 2847   4.392   2.058   1.054
  616  WAT   H1 2848   4.331   1.994   1.092
  616  WAT   H2 2849   4.470   2.051   1.108
  616  WAT  EPW 2850   4.394   2.049   1.066
  617  WAT    O 2851   4.445   1.702   1.682
  617  WAT   H1 2852   4.535   1.679   1.656
  617  WAT   H2 2853   4.393   1.690   1.603
  617  WAT  EPW 2854   4.450   1.698   1.669
  618  WAT    O 2855   3.741   3.163   0.490
  618  WAT   H1 2856   3.745   3.252   0.456
  618  WAT   H2 2857   3.661   3.161   0.543
  618  WAT  EPW 2858   3.731   3.174   0.493
  619  WAT    O 2859   4.634   2.041   1.181
  619  WAT   H1 2860   4.652   1.953   1.214
  619  WAT   H2 2861   4.666   2.099   1.250
  619  WAT  EPW 2862   4.640   2.037   1.194
  620  WAT    O 2863   4.603   2.840   0.406
  620  WAT   H1 2864   4.560   2.780   0.345
  620  WAT   H2 2865   4.536   2.907   0.424
  620  WAT  EPW 2866   4.589   2.841   0.400
  621  WAT    O 2867   4.423   2.664   1.258
  621  WAT   H1 2868   4.410   2.578   1.297
  621  WAT   H2 2869   4.467   2.647   1.175
  621  WAT  EPW 2870   4.427   2.651   1.253
  622  WAT    O 2871   3.535   2.097   1.114
  622  WAT   H1 2872   3.563   2.154   1.186
  622  WAT   H2 2873   3.475   2.035   1.155
  622  WAT  EPW 2874   3.531   2.097   1.129
  623  WAT    O 2875   3.623   2.731   1.373
  623  WAT   H1 2876   3.530   2.709   1.359
  623  WAT   H2 2877   3.631   2.742   1.468
  623  WAT  EPW 2878   3.612   2.730   1.384
  624  WAT    O 2879   4.782   3.100   0.494
  624  WAT   H1 2880   4.799   3.185   0.454
  624  WAT   H2 2881   4.706   3.066   0.447
  624  WAT  EPW 2882   4.774   3.107   0.483
  625  WAT    O 2883   4.761   3.432   0.619
  625  WAT   H1 2884   4.819   3.506   0.602
  625  WAT   H2 2885   4.682   3.451   0.567
  625  WAT  EPW 2886   4.758   3.444   0.610
  626  WAT    O 2887   3.993   2.158   0.471
  626  WAT   H1 2888   3.952   2.158   0.384
  626  WAT   H2 2889   3.944   2.224   0.520
  626  WAT  EPW 2890   3.981   2.166   0.466
  627  WAT    O 2891   3.805   1.798   1.273
  627  WAT   H1 2892   3.825   1.887   1.299
  627  WAT   H2 2893   3.769   1.757   1.352
  627  WAT  EPW 2894   3.803   1.804   1.286
  628  WAT    O 2895   3.935   1.877   0.343
  628  WAT   H1 2896   3.860   1.875   0.401
  628  WAT   H2 2897   3.989   1.802   0.371
  628  WAT  EPW 2898   3.933   1.867   0.354
  629  WAT    O 2899   4.639   2.246   1.373
  629  WAT   H1 2900   4.698   2.278   1.442
  629  WAT   H2 2901   4.567   2.309   1.373
  629  WAT  EPW 2902   4.638   2.258   1.382
  630  WAT    O 2903   4.401   2.297   0.326
  630  WAT   H1 2904   4.319   2.295   0.278
  630  WAT   H2 2905   4.376   2.278   0.417
  630  WAT  EPW 2906   4.388   2.294   0.331
  631  WAT    O 2907   4.113   3.263   0.788
  631  WAT   H1 2908   4.087   3.226   0.872
  631  WAT   H2 2909   4.186   3.209   0.759
  631  WAT  EPW 2910   4.119   3.251   0.795
  632  WAT    O 2911   3.937   3.082   0.659
  632  WAT   H1 2912   3.864   3.113   0.604
  632  WAT   H2 2913   3.996   3.157   0.664
  632  WAT  EPW 2914   3.935   3.096   0.653
  633  WAT    O 2915   3.592   2.098   1.678
  633  WAT   H1 2916   3.572   2.106   1.585
  633  WAT   H2 2917   3.512   2.128   1.722
  633  WAT  EPW 2918   3.579   2.103   1.672
  634  WAT    O 2919   4.199   2.354   0.821
  634  WAT   H1 2920   4.287   2.383   0.844
  634  WAT   H2 2921   4.208   2.321   0.731
  634  WAT  EPW 2922   4.211   2.354   0.812
  635  WAT    O 2923   3.588   3.000   1.554
  635  WAT   H1 2924   3.512   3.057   1.542
  635  WAT   H2 2925   3.609   2.969   1.466
  635  WAT  EPW 2926   3.581   3.004   1.541
  636  WAT    O 2927   3.795   3.130   1.688
  636  WAT   H1 2928   3.844   3.186   1.627
  636  WAT   H2 2929   3.751   3.066   1.632
  636  WAT  EPW 2930   3.796   3.129   1.673
  637  WAT    O 2931   4.158   3.303   1.567
  637  WAT   H1 2932   4.215   3.295   1.644
  637  WAT   H2 2933   4.154   3.398   1.551
  637  WAT  EPW 2934   4.165   3.314   1.575
  638  WAT    O 2935   4.629   1.936   0.639
  638  WAT   H1 2936   4.533   1.930   0.646
  638  WAT   H2 2937   4.661   1.863   0.692
  638  WAT  EPW 2938   4.621   1.926   0.647
  639  WAT    O 2939   4.194   2.689   1.558
  639  WAT   H1 2940   4.178   2.594   1.554
  639  WAT   H2 2941   4.185   2.718   1.467
  639  WAT  EPW 2942   4.190   2.680   1.545
  640  WAT    O 2943   4.925   2.587   0.943
  640  WAT   H1 2944   4.838   2.561   0.914
  640  WAT   H2 2945   4.960   2.509   0.986
  640  WAT  EPW 2946   4.919   2.574   0.945
  641  WAT    O 2947   3.896   3.279   1.459
  641  WAT   H1 2948   3.871   3.369   1.478
  641  WAT   H2 2949   3.987   3.272   1.489
  641  WAT  EPW 2950   3.905   3.289   1.465
  642  WAT    O 2951   3.616   1.777   0.814
  642  WAT   H1 2952   3.700   1.823   0.802
  642  WAT   H2 2953   3.558   1.817   0.750
  642  WAT  EPW 2954   3.620   1.788   0.805
  643  WAT    O 2955   3.726   1.691   1.516
  643  WAT   H1 2956   3.643   1.648   1.536
  643  WAT   H2 2957   3.723   1.773   1.564
  643  WAT  EPW 2958   3.715   1.696   1.524
  644  WAT    O 2959   4.360   2.237   0.589
  644  WAT   H1 2960   4.368   2.159   0.644
  644  WAT   H2 2961   4.404   2.306   0.639
  644  WAT  EPW 2962   4.366   2.236   0.603
  645  WAT    O 2963   3.667   3.459   0.241
  645  WAT   H1 2964   3.589   3.446   0.188
  645  WAT   H2 2965   3.664   3.552   0.266
  645  WAT  EPW 2966   3.657   3.469   0.238
  646  WAT    O 2967   4.672   3.039   1.436
  646  WAT   H1 2968   4.731   3.023   1.511
  646  WAT   H2 2969   4.613   3.108   1.467
  646  WAT  EPW 2970   4.672   3.046   1.450
  647  WAT    O 2971   4.303   3.086   0.710
  647  WAT   H1 2972   4.255   3.005   0.728
  647  WAT   H2 2973   4.376   3.084   0.772
  647  WAT  EPW 2974   4.306   3.075   0.721
  648  WAT    O 2975   4.257   2.336   1.149
  648  WAT   H1 2976   4.172   2.304   1.181
  648  WAT   H2 2977   4.304   2.257   1.123
  648  WAT  EPW 2978   4.252   2.322   1.150
  649  WAT    O 2979   3.950   2.854   1.582
  649  WAT   H1 2980   4.031   2.806   1.568
  649  WAT   H2 2981   3.923   2.882   1.495
  649  WAT  EPW 2982   3.956   2.852   1.569
  650  WAT    O 2983   4.176   2.758   1.285
  650  WAT   H1 2984   4.264   2.721   1.280
  650  WAT   H2 2985   4.122   2.700   1.232
  650  WAT  EPW 2986   4.180   2.746   1.278
  651  WAT    O 2987   4.820   2.584   1.250
  651  WAT   H1 2988   4.764   2.545   1.183
  651  WAT   H2 2989   4.763   2.645   1.296
  651  WAT  EPW 2990   4.806   2.587   1.247
  652  WAT    O 2991   4.603   2.183   0.203
  652  WAT   H1 2992   4.521   2.211   0.243
  652  WAT   H2 2993   4.671   2.221   0.259
  652  WAT  EPW 2994   4.601   2.191   0.216
  653  WAT    O 2995   3.904   2.542   1.013
  653  WAT   H1 2996   3.866   2.529   1.100
  653  WAT   H2 2997   3.848   2.491   0.955
  653  WAT  EPW 2998   3.892   2.534   1.016
  654  WAT    O 2999   4.805   2.693   0.558
  654  WAT   H1 3000   4.859   2.743   0.619
  654  WAT   H2 3001   4.735   2.754   0.533
  654  WAT  EPW 3002   4.803   2.707   0.563
  655  WAT    O 3003   3.603   2.850   0.640
  655  WAT   H1 3004   3.642   2.843   0.553
  655  WAT   H2 3005   3.664   2.804   0.698
  655  WAT  EPW 3006   3.616   2.843   0.637
  656  WAT    O 3007   3.919   1.989   1.622
  656  WAT   H1 3008   3.904   2.017   1.532
  656  WAT   H2 3009   3.895   2.065   1.675
  656  WAT  EPW 3010   3.914   2.003   1.617
  657  WAT    O 3011   4.669   3.402   1.137
  657  WAT   H1 3012   4.614   3.395   1.059
  657  WAT   H2 3013   4.705   3.314   1.149
  657  WAT  EPW 3014   4.666   3.390   1.129
  658  WAT    O 3015   4.112   2.401   1.532
  658  WAT   H1 3016   4.101   2.373   1.442
  658  WAT   H2 3017   4.023   2.412   1.566
  658  WAT  EPW 3018   4.099   2.399   1.525
  659  WAT    O 3019   4.017   2.234   1.017
  659  WAT   H1 3020   3.958   2.160   1.002
  659  WAT   H2 3021   4.078   2.231   0.943
  659  WAT  EPW 3022   4.017   2.224   1.006
  660  WAT    O 3023   4.155   2.853   0.820
  660  WAT   H1 3024   4.151   2.758   0.816
  660  WAT   H2 3025   4.110   2.876   0.901
  660  WAT  EPW 3026   4.149   2.844   0.830
  661  WAT    O 3027   4.952   2.519   1.488
  661  WAT   H1 3028   4.883   2.455   1.505
  661  WAT   H2 3029   4.931   2.554   1.402
  661  WAT  EPW 3030   4.940   2.515   1.479
  662  WAT    O 3031   3.513   2.429   0.202
  662  WAT   H1 3032   3.580   2.489   0.236
  662  WAT   H2 3033   3.430   2.472   0.221
  662  WAT  EPW 3034   3.511   2.442   0.209
  663  WAT    O 3035   3.747   2.873   0.422
  663  WAT   H1 3036   3.815   2.845   0.484
  663  WAT   H2 3037   3.757   2.968   0.417
  663  WAT  EPW 3038   3.757   2.882   0.430
  664  WAT    O 3039   3.714   1.892   0.499
  664  WAT   H1 3040   3.690   1.810   0.455
  664  WAT   H2 3041   3.638   1.949   0.486
  664  WAT  EPW 3042   3.701   1.889   0.492
  665  WAT    O 3043   4.694   1.949   0.353
  665  WAT   H1 3044   4.665   2.020   0.297
  665  WAT   H2 3045   4.667   1.975   0.441
  665  WAT  EPW 3046   4.687   1.961   0.357
  666  WAT    O 3047   4.539   3.114   0.861
  666  WAT   H1 3048   4.533   3.062   0.941
  666  WAT   H2 3049   4.594   3.189   0.885
  666  WAT  EPW 3050   4.546   3.117   0.875
  667  WAT    O 3051   4.052   2.636   0.231
  667  WAT   H1 3052   4.134   2.684   0.228
  667  WAT   H2 3053   4.057   2.586   0.313
  667  WAT  EPW 3054   4.063   2.636   0.241
  668  WAT    O 3055   3.721   3.423   0.639
  668  WAT   H1 3056   3.666   3.465   0.706
  668  WAT   H2 3057   3.811   3.443   0.665
  668  WAT  EPW 3058   3.725   3.431   0.651
  669  WAT    O 3059   3.875   2.830   1.331
  669  WAT   H1 3060   3.871   2.861   1.241
  669  WAT   H2 3061   3.788   2.794   1.348
  669  WAT  EPW 3062   3.863   2.829   1.322
  670  WAT    O 3063   4.266   3.004   1.189
  670  WAT   H1 3064   4.187   3.044   1.152
  670  WAT   H2 3065   4.237   2.917   1.216
  670  WAT  EPW 3066   4.252   2.998   1.187
  671  WAT    O 3067   3.639   3.205   0.863
  671  WAT   H1 3068   3.705   3.241   0.803
  671  WAT   H2 3069   3.572   3.169   0.805
  671  WAT  EPW 3070   3.639   3.205   0.848
  672  WAT    O 3071   4.168   2.599   1.036
  672  WAT   H1 3072   4.201   2.519   1.077
  672  WAT   H2 3073   4.081   2.576   1.004
  672  WAT  EPW 3074   4.161   2.586   1.037
  673  WAT    O 3075   3.730   2.693   1.633
  673  WAT   H1 3076   3.810   2.744   1.622
  673  WAT   H2 3077   3.685   2.735   1.707
  673  WAT  EPW 3078   3.734   2.705   1.641
  674  WAT    O 3079   4.779   2.408   0.559
  674  WAT   H1 3080   4.829   2.387   0.480
  674  WAT   H2 3081   4.798   2.500   0.576
  674  WAT  EPW 3082   4.788   2.417   0.551
  675  WAT    O 3083   3.572   2.161   0.849
  675  WAT   H1 3084   3.652   2.126   0.809
  675  WAT   H2 3085   3.570   2.123   0.937
  675  WAT  EPW 3086   3.582   2.152   0.855
  676  WAT    O 3087   4.511   2.467   0.622
  676  WAT   H1 3088   4.471   2.543   0.580
  676  WAT   H2 3089   4.598   2.461   0.581
  676  WAT  EPW 3090   4.517   2.476   0.611
  677  WAT    O 3091   3.781   2.640   0.720
  677  WAT   H1 3092   3.876   2.639   0.718
  677  WAT   H2 3093   3.756   2.559   0.764
  677  WAT  EPW 3094   3.790   2.630   0.726
  678  WAT    O 3095   4.811   2.041   0.974
  678  WAT   H1 3096   4.765   2.085   0.902
  678  WAT   H2 3097   4.757   2.059   1.051
  678  WAT  EPW 3098   4.798   2.049   0.975
  679  WAT    O 3099   4.665   2.189   0.755
  679  WAT   H1 3100   4.727   2.234   0.698
  679  WAT   H2 3101   4.651   2.104   0.713
  679  WAT  EPW 3102   4.671   2.184   0.742
  680  WAT    O 3103   4.518   2.976   1.105
  680  WAT   H1 3104   4.558   3.059   1.135
  680  WAT   H2 3105   4.427   2.982   1.133
  680  WAT  EPW 3106   4.512   2.988   1.112
  681  WAT    O 3107   4.879   1.782   0.482
  681  WAT   H1 3108   4.813   1.822   0.426
  681  WAT   H2 3109   4.949   1.755   0.422
  681  WAT  EPW 3110   4.880   1.784   0.467
  682  WAT    O 3111   4.115   2.484   0.442
  682  WAT   H1 3112   4.134   2.409   0.386
  682  WAT   H2 3113   4.201   2.523   0.459
  682  WAT  EPW 3114   4.129   2.480   0.437
  683  WAT    O 3115   4.281   1.970   1.366
  683  WAT   H1 3116   4.373   1.978   1.391
  683  WAT   H2 3117   4.236   2.032   1.424
  683  WAT  EPW 3118   4.287   1.979   1.377
  684  WAT    O 3119   3.980   1.671   0.658
  684  WAT   H1 3120   3.997   1.763   0.678
  684  WAT   H2 3121   4.037   1.623   0.718
  684  WAT  EPW 3122   3.989   1.677   0.668
  685  WAT    O 3123   4.065   2.584   0.698
  685  WAT   H1 3124   4.091   2.542   0.615
  685  WAT   H2 3125   4.074   2.515   0.763
  685  WAT  EPW 3126   4.070   2.570   0.695
  686  WAT    O 3127   4.797   3.029   0.743
  686  WAT   H1 3128   4.806   3.054   0.651
  686  WAT   H2 3129   4.711   3.064   0.769
  686  WAT  EPW 3130   4.787   3.037   0.735
  687  WAT    O 3131   4.536   3.471   0.477
  687  WAT   H1 3132   4.517   3.388   0.433
  687  WAT   H2 3133   4.504   3.538   0.417
  687  WAT  EPW 3134   4.529   3.469   0.464
  688  WAT    O 3135   4.905   3.272   0.797
  688  WAT   H1 3136   4.851   3.332   0.746
  688  WAT   H2 3137   4.866   3.186   0.783
  688  WAT  EPW 3138   4.893   3.269   0.789
  689  WAT    O 3139   4.315   3.509   0.695
  689  WAT   H1 3140   4.311   3.440   0.761
  689  WAT   H2 3141   4.362   3.469   0.622
  689  WAT  EPW 3142   4.320   3.495   0.694
  690  WAT    O 3143   4.466   2.320   0.875
  690  WAT   H1 3144   4.421   2.244   0.913
  690  WAT   H2 3145   4.538   2.282   0.825
  690  WAT  EPW 3146   4.469   2.305   0.874
  691  WAT    O 3147   4.619   2.732   1.046
  691  WAT   H1 3148   4.592   2.814   1.086
  691  WAT   H2 3149   4.714   2.731   1.057
  691  WAT  EPW 3150   4.628   2.742   1.053
  692  WAT    O 3151   4.168   1.993   0.273
  692  WAT   H1 3152   4.153   2.088   0.266
  692  WAT   H2 3153   4.089   1.960   0.316
  692  WAT  EPW 3154   4.156   2.001   0.278
  693  WAT    O 3155   4.555   3.454   0.871
  693  WAT   H1 3156   4.634   3.508   0.866
  693  WAT   H2 3157   4.495   3.494   0.808
  693  WAT  EPW 3158   4.557   3.466   0.862
  694  WAT    O 3159   4.533   2.028   1.515
  694  WAT   H1 3160   4.486   2.088   1.574
  694  WAT   H2 3161   4.593   2.084   1.466
  694  WAT  EPW 3162   4.535   2.043   1.516
  695  WAT    O 3163   3.758   2.517   1.260
  695  WAT   H1 3164   3.690   2.581   1.282
  695  WAT   H2 3165   3.717   2.432   1.276
  695  WAT  EPW 3166   3.744   2.514   1.265
  696  WAT    O 3167   4.854   3.317   0.356
  696  WAT   H1 3168   4.817   3.375   0.423
  696  WAT   H2 3169   4.943   3.350   0.343
  696  WAT  EPW 3170   4.860   3.329   0.363
  697  WAT    O 3171   3.573   1.808   1.118
  697  WAT   H1 3172   3.659   1.804   1.160
  697  WAT   H2 3173   3.591   1.823   1.025
  697  WAT  EPW 3174   3.586   1.809   1.112
  698  WAT    O 3175   4.664   2.561   0.855
  698  WAT   H1 3176   4.637   2.625   0.921
  698  WAT   H2 3177   4.584   2.543   0.805
  698  WAT  EPW 3178   4.651   2.567   0.857
  699  WAT    O 3179   3.518   2.325   1.517
  699  WAT   H1 3180   3.458   2.398   1.531
  699  WAT   H2 3181   3.573   2.323   1.595
  699  WAT  EPW 3182   3.518   2.334   1.529
  700  WAT    O 3183   3.654   2.215   0.321
  700  WAT   H1 3184   3.694   2.273   0.386
  700  WAT   H2 3185   3.608   2.273   0.261
  700  WAT  EPW 3186   3.653   2.230   0.322
  701  WAT    O 3187   4.662   2.394   1.111
  701  WAT   H1 3188   4.646   2.425   1.022
  701  WAT   H2 3189   4.576   2.368   1.143
  701  WAT  EPW 3190   4.649   2.395   1.104
  702  WAT    O 3191   4.684   1.817   1.525
  702  WAT   H1 3192   4.684   1.788   1.434
  702  WAT   H2 3193   4.617   1.885   1.529
  702  WAT  EPW 3194   4.675   1.822   1.514
  703  WAT    O 3195   4.655   2.761   1.365
  703  WAT   H1 3196   4.573   2.745   1.318
  703  WAT   H2 3197   4.660   2.856   1.374
  703  WAT  EPW 3198   4.645   2.771   1.360
  704  WAT    O 3199   3.693   2.409   0.840
  704  WAT   H1 3200   3.615   2.459   0.863
  704  WAT   H2 3201   3.667   2.317   0.852
  704  WAT  EPW 3202   3.680   2.403   0.844
  705  WAT    O 3203   4.003   2.824   0.551
  705  WAT   H1 3204   3.994   2.902   0.605
  705  WAT   H2 3205   4.010   2.752   0.613
  705  WAT  EPW 3206   4.002   2.825   0.566
  706  WAT    O 3207   4.013   2.338   1.269
  706  WAT   H1 3208   4.004   2.326   1.174
  706  WAT   H2 3209   3.940   2.396   1.293
  706  WAT  EPW 3210   4.002   2.344   1.260
  707  WAT    O 3211   4.121   1.690   0.414
  707  WAT   H1 3212   4.081   1.657   0.494
  707  WAT   H2 3213   4.132   1.613   0.359
  707  WAT  EPW 3214   4.117   1.676   0.417
  708  WAT    O 3215   4.390   1.984   0.441
  708  WAT   H1 3216   4.305   1.970   0.400
  708  WAT   H2 3217   4.395   2.079   0.455
  708  WAT  EPW 3218   4.380   1.995   0.438
  709  WAT    O 3219   3.640   3.345   1.103
  709  WAT   H1 3220   3.611   3.317   1.016
  709  WAT   H2 3221   3.609   3.435   1.112
  709  WAT  EPW 3222   3.632   3.353   1.093
  710  WAT    O 3223   3.877   2.051   1.360
  710  WAT   H1 3224   3.956   2.054   1.307
  710  WAT   H2 3225   3.841   2.140   1.356
  710  WAT  EPW 3226   3.883   2.063   1.353
  711  WAT    O 3227   4.031   3.081   1.043
  711  WAT   H1 3228   3.974   3.150   1.078
  711  WAT   H2 3229   3.986   3.000   1.064
  711  WAT  EPW 3230   4.018   3.080   1.050
  712  WAT    O 3231   4.462   1.802   0.250
  712  WAT   H1 3232   4.439   1.880   0.300
  712  WAT   H2 3233   4.552   1.817   0.221
  712  WAT  EPW 3234   4.470   1.814   0.253
  713  WAT    O 3235   4.695   1.800   1.251
  713  WAT   H1 3236   4.669   1.723   1.201
  713  WAT   H2 3237   4.791   1.801   1.246
  713  WAT  EPW 3238   4.704   1.790   1.244
  714  WAT    O 3239   4.387   2.015   0.779
  714  WAT   H1 3240   4.302   1.972   0.770
  714  WAT   H2 3241   4.397   2.030   0.873
  714  WAT  EPW 3242   4.377   2.012   0.790
  715  WAT    O 3243   4.250   1.717   1.494
  715  WAT   H1 3244   4.195   1.748   1.566
  715  WAT   H2 3245   4.256   1.792   1.434
  715  WAT  EPW 3246   4.244   1.731   1.495
  716  WAT    O 3247   4.129   2.969   0.362
  716  WAT   H1 3248   4.066   2.923   0.418
  716  WAT   H2 3249   4.081   3.042   0.325
  716  WAT  EPW 3250   4.115   2.972   0.365
  717  WAT    O 3251   4.717   3.136   1.183
  717  WAT   H1 3252   4.697   3.105   1.271
  717  WAT   H2 3253   4.769   3.065   1.144
  717  WAT  EPW 3254   4.721   3.123   1.189
  718  WAT    O 3255   4.358   3.133   1.461
  718  WAT   H1 3256   4.320   3.096   1.382
  718  WAT   H2 3257   4.294   3.196   1.493
  718  WAT  EPW 3258   4.345   3.136   1.455
  719  WAT    O 3259   3.594   3.068   1.198
  719  WAT   H1 3260   3.556   3.152   1.222
  719  WAT   H2 3261   3.677   3.091   1.155
  719  WAT  EPW 3262   3.600   3.082   1.196
  720  WAT    O 3263   3.785   2.031   0.740
  720  WAT   H1 3264   3.775   1.984   0.657
  720  WAT   H2 3265   3.867   1.998   0.777
  720  WAT  EPW 3266   3.794   2.021   0.734
  721  WAT    O 3267   4.001   1.956   0.866
  721  WAT   H1 3268   4.046   1.899   0.927
  721  WAT   H2 3269   4.057   1.958   0.789
  721  WAT  EPW 3270   4.014   1.949   0.864
  722  WAT    O 3271   3.659   2.266   1.293
  722  WAT   H1 3272   3.603   2.303   1.225
  722  WAT   H2 3273   3.610   2.278   1.374
  722  WAT  EPW 3274   3.646   2.273   1.294
  723  WAT    O 3275   4.784   3.630   0.884
  723  WAT   H1 3276   4.861   3.614   0.831
  723  WAT   H2 3277   4.781   3.725   0.895
  723  WAT  EPW 3278   4.793   3.640   0.879
  724  WAT    O 3279   4.441   3.271   0.307
  724  WAT   H1 3280   4.417   3.190   0.352
  724  WAT   H2 3281   4.360   3.299   0.264
  724  WAT  EPW 3282   4.427   3.264   0.307
  725  WAT    O 3283   3.901   2.842   1.050
  725  WAT   H1 3284   3.855   2.877   0.974
  725  WAT   H2 3285   3.909   2.748   1.033
  725  WAT  EPW 3286   3.896   2.835   1.038
  726  WAT    O 3287   3.720   2.606   0.269
  726  WAT   H1 3288   3.816   2.610   0.271
  726  WAT   H2 3289   3.693   2.698   0.273
  726  WAT  EPW 3290   3.729   2.618   0.270
  727  WAT    O 3291   4.204   2.152   1.563
  727  WAT   H1 3292   4.128   2.113   1.605
  727  WAT   H2 3293   4.179   2.243   1.548
  727  WAT  EPW 3294   4.191   2.159   1.567
  728  WAT    O 3295   4.787   2.361   0.304
  728  WAT   H1 3296   4.849   2.406   0.246
  728  WAT   H2 3297   4.706   2.412   0.296
  728  WAT  EPW 3298   4.785   2.374   0.296
  729  WAT    O 3299   4.016   3.175   0.227
  729  WAT   H1 3300   3.946   3.215   0.176
  729  WAT   H2 3301   4.060   3.115   0.167
  729  WAT  EPW 3302   4.013   3.172   0.213
  730  WAT    O 3303   4.877   2.969   1.010
  730  WAT   H1 3304   4.859   2.962   0.916
  730  WAT   H2 3305   4.955   3.024   1.015
  730  WAT  EPW 3306   4.884   2.975   0.998
  731  WAT    O 3307   4.358   2.608   0.442
  731  WAT   H1 3308   4.410   2.548   0.388
  731  WAT   H2 3309   4.331   2.677   0.381
  731  WAT  EPW 3310   4.361   2.609   0.427
  732  WAT    O 3311   4.802   2.742   1.577
  732  WAT   H1 3312   4.721   2.746   1.526
  732  WAT   H2 3313   4.838   2.656   1.557
  732  WAT  EPW 3314   4.796   2.731   1.568
  733  WAT    O 3315   4.136   1.946   0.633
  733  WAT   H1 3316   4.118   2.005   0.559
  733  WAT   H2 3317   4.184   1.873   0.594
  733  WAT  EPW 3318   4.140   1.944   0.618
  734  WAT    O 3319   3.496   2.605   0.490
  734  WAT   H1 3320   3.556   2.631   0.420
  734  WAT   H2 3321   3.527   2.655   0.567
  734  WAT  EPW 3322   3.508   2.615   0.491
  735  WAT    O 3323   3.765   2.956   0.871
  735  WAT   H1 3324   3.790   3.025   0.810
  735  WAT   H2 3325   3.677   2.982   0.901
  735  WAT  EPW 3326   3.757   2.968   0.867
  736  WAT    O 3327   4.426   2.406   1.359
  736  WAT   H1 3328   4.351   2.373   1.311
  736  WAT   H2 3329   4.406   2.386   1.451
  736  WAT  EPW 3330   4.414   2.399   1.365
  737  WAT    O 3331   4.781   2.338   1.566
  737  WAT   H1 3332   4.703   2.334   1.621
  737  WAT   H2 3333   4.845   2.283   1.612
  737  WAT  EPW 3334   4.779   2.331   1.579
  738  WAT    O 3335   4.967   3.418   1.034
  738  WAT   H1 3336   4.920   3.501   1.033
  738  WAT   H2 3337   4.914   3.359   0.980
  738  WAT  EPW 3338   4.954   3.421   1.027
  739  WAT    O 3339   3.918   1.417   4.917
  739  WAT   H1 3340   3.823   1.410   4.913
  739  WAT   H2 3341   3.937   1.447   5.005
  739  WAT  EPW 3342   3.909   1.420   4.927
  740  WAT    O 3343   4.395   1.161   4.233
  740  WAT   H1 3344   4.378   1.177   4.326
  740  WAT   H2 3345   4.318   1.112   4.202
  740  WAT  EPW 3346   4.383   1.157   4.241
  741  WAT    O 3347   4.052   0.651   3.766
  741  WAT   H1 3348   4.037   0.696   3.849
  741  WAT   H2 3349   4.123   0.590   3.785
  741  WAT  EPW 3350   4.059   0.649   3.779
  742  WAT    O 3351   3.741   1.276   4.262
  742  WAT   H1 3352   3.745   1.366   4.228
  742  WAT   H2 3353   3.661   1.274   4.315
  742  WAT  EPW 3354   3.731   1.287   4.265
  743  WAT    O 3355   4.212   1.455   3.931
  743  WAT   H1 3356   4.132   1.403   3.932
  743  WAT   H2 3357   4.246   1.445   3.842
  743  WAT  EPW 3358   4.206   1.447   3.920
  744  WAT    O 3359   4.603   0.954   4.178
  744  WAT   H1 3360   4.560   0.893   4.117
  744  WAT   H2 3361   4.536   1.020   4.196
  744  WAT  EPW 3362   4.589   0.955   4.172
  745  WAT    O 3363   4.710   0.873   3.732
  745  WAT   H1 3364   4.787   0.875   3.789
  745  WAT   H2 3365   4.742   0.836   3.650
  745  WAT  EPW 3366   4.724   0.868   3.729
  746  WAT    O 3367   4.782   1.213   4.266
  746  WAT   H1 3368   4.799   1.298   4.226
  746  WAT   H2 3369   4.706   1.180   4.219
  746  WAT  EPW 3370   4.774   1.220   4.255
  747  WAT    O 3371   4.761   1.546   4.391
  747  WAT   H1 3372   4.819   1.619   4.374
  747  WAT   H2 3373   4.682   1.564   4.339
  747  WAT  EPW 3374   4.758   1.558   4.382
  748  WAT    O 3375   3.993   0.271   4.243
  748  WAT   H1 3376   3.952   0.271   4.156
  748  WAT   H2 3377   3.944   0.338   4.292
  748  WAT  EPW 3378   3.981   0.280   4.238
  749  WAT    O 3379   4.401   0.410   4.098
  749  WAT   H1 3380   4.319   0.408   4.050
  749  WAT   H2 3381   4.376   0.391   4.189
  749  WAT  EPW 3382   4.388   0.407   4.103
  750  WAT    O 3383   4.113   1.376   4.560
  750  WAT   H1 3384   4.087   1.339   4.644
  750  WAT   H2 3385   4.186   1.322   4.531
  750  WAT  EPW 3386   4.119   1.365   4.567
  751  WAT    O 3387   3.937   1.196   4.431
  751  WAT   H1 3388   3.864   1.226   4.376
  751  WAT   H2 3389   3.996   1.271   4.436
  751  WAT  EPW 3390   3.935   1.209   4.425
  752  WAT    O 3391   3.884   0.572   3.565
  752  WAT   H1 3392   3.824   0.646   3.555
  752  WAT   H2 3393   3.947   0.601   3.631
  752  WAT  EPW 3394   3.884   0.585   3.572
  753  WAT    O 3395   4.327   1.418   3.694
  753  WAT   H1 3396   4.373   1.336   3.712
  753  WAT   H2 3397   4.396   1.482   3.680
  753  WAT  EPW 3398   4.341   1.416   3.695
  754  WAT    O 3399   4.199   0.467   4.593
  754  WAT   H1 3400   4.287   0.497   4.616
  754  WAT   H2 3401   4.208   0.434   4.503
  754  WAT  EPW 3402   4.211   0.467   4.584
  755  WAT    O 3403   4.614   1.133   3.740
  755  WAT   H1 3404   4.645   1.044   3.755
  755  WAT   H2 3405   4.667   1.187   3.799
  755  WAT  EPW 3406   4.625   1.128   3.749
  756  WAT    O 3407   4.877   0.182   3.797
  756  WAT   H1 3408   4.887   0.216   3.886
  756  WAT   H2 3409   4.864   0.259   3.743
  756  WAT  EPW 3410   4.876   0.196   3.802
  757  WAT    O 3411   4.925   0.700   4.715
  757  WAT   H1 3412   4.838   0.675   4.686
  757  WAT   H2 3413   4.960   0.622   4.758
  757  WAT  EPW 3414   4.919   0.687   4.717
  758  WAT    O 3415   4.360   0.350   4.361
  758  WAT   H1 3416   4.368   0.272   4.416
  758  WAT   H2 3417   4.404   0.419   4.411
  758  WAT  EPW 3418   4.366   0.349   4.375
  759  WAT    O 3419   3.667   1.572   4.013
  759  WAT   H1 3420   3.589   1.559   3.960
  759  WAT   H2 3421   3.664   1.665   4.038
  759  WAT  EPW 3422   3.657   1.583   4.010
  760  WAT    O 3423   4.303   1.199   4.482
  760  WAT   H1 3424   4.255   1.118   4.500
  760  WAT   H2 3425   4.376   1.198   4.544
  760  WAT  EPW 3426   4.306   1.189   4.493
  761  WAT    O 3427   4.583   0.284   3.709
  761  WAT   H1 3428   4.520   0.212   3.711
  761  WAT   H2 3429   4.605   0.300   3.801
  761  WAT  EPW 3430   4.578   0.277   3.721
  762  WAT    O 3431   4.257   0.449   4.921
  762  WAT   H1 3432   4.172   0.417   4.953
  762  WAT   H2 3433   4.304   0.370   4.895
  762  WAT  EPW 3434   4.252   0.435   4.922
  763  WAT    O 3435   3.840   1.425   3.867
  763  WAT   H1 3436   3.782   1.475   3.924
  763  WAT   H2 3437   3.863   1.486   3.797
  763  WAT  EPW 3438   3.836   1.439   3.865
  764  WAT    O 3439   4.603   0.296   3.975
  764  WAT   H1 3440   4.521   0.324   4.015
  764  WAT   H2 3441   4.671   0.335   4.031
  764  WAT  EPW 3442   4.601   0.305   3.988
  765  WAT    O 3443   3.904   0.655   4.785
  765  WAT   H1 3444   3.866   0.643   4.872
  765  WAT   H2 3445   3.848   0.604   4.727
  765  WAT  EPW 3446   3.892   0.647   4.788
  766  WAT    O 3447   4.805   0.806   4.330
  766  WAT   H1 3448   4.859   0.856   4.391
  766  WAT   H2 3449   4.735   0.867   4.305
  766  WAT  EPW 3450   4.803   0.820   4.335
  767  WAT    O 3451   3.603   0.963   4.412
  767  WAT   H1 3452   3.642   0.956   4.325
  767  WAT   H2 3453   3.664   0.917   4.470
  767  WAT  EPW 3454   3.616   0.956   4.409
  768  WAT    O 3455   4.550   0.617   3.997
  768  WAT   H1 3456   4.483   0.549   4.000
  768  WAT   H2 3457   4.558   0.639   3.905
  768  WAT  EPW 3458   4.543   0.611   3.986
  769  WAT    O 3459   4.669   1.515   4.909
  769  WAT   H1 3460   4.614   1.508   4.831
  769  WAT   H2 3461   4.705   1.427   4.921
  769  WAT  EPW 3462   4.666   1.503   4.901
  770  WAT    O 3463   4.017   0.347   4.789
  770  WAT   H1 3464   3.958   0.273   4.774
  770  WAT   H2 3465   4.078   0.345   4.715
  770  WAT  EPW 3466   4.017   0.338   4.778
  771  WAT    O 3467   4.155   0.967   4.592
  771  WAT   H1 3468   4.151   0.871   4.588
  771  WAT   H2 3469   4.110   0.989   4.673
  771  WAT  EPW 3470   4.149   0.957   4.602
  772  WAT    O 3471   3.513   0.542   3.974
  772  WAT   H1 3472   3.580   0.602   4.008
  772  WAT   H2 3473   3.430   0.585   3.993
  772  WAT  EPW 3474   3.511   0.555   3.981
  773  WAT    O 3475   3.747   0.987   4.194
  773  WAT   H1 3476   3.815   0.959   4.256
  773  WAT   H2 3477   3.757   1.082   4.189
  773  WAT  EPW 3478   3.757   0.995   4.202
  774  WAT    O 3479   4.288   0.860   3.703
  774  WAT   H1 3480   4.250   0.829   3.621
  774  WAT   H2 3481   4.312   0.951   3.685
  774  WAT  EPW 3482   4.286   0.868   3.690
  775  WAT    O 3483   4.539   1.228   4.633
  775  WAT   H1 3484   4.533   1.176   4.713
  775  WAT   H2 3485   4.594   1.303   4.657
  775  WAT  EPW 3486   4.546   1.231   4.647
  776  WAT    O 3487   3.855   0.314   3.675
  776  WAT   H1 3488   3.762   0.289   3.678
  776  WAT   H2 3489   3.854   0.406   3.648
  776  WAT  EPW 3490   3.843   0.322   3.672
  777  WAT    O 3491   4.052   0.749   4.003
  777  WAT   H1 3492   4.134   0.798   4.000
  777  WAT   H2 3493   4.057   0.699   4.085
  777  WAT  EPW 3494   4.063   0.749   4.013
  778  WAT    O 3495   3.721   1.536   4.411
  778  WAT   H1 3496   3.666   1.579   4.478
  778  WAT   H2 3497   3.811   1.556   4.437
  778  WAT  EPW 3498   3.725   1.544   4.423
  779  WAT    O 3499   4.281   0.913   4.004
  779  WAT   H1 3500   4.229   0.983   4.042
  779  WAT   H2 3501   4.282   0.932   3.910
  779  WAT  EPW 3502   4.275   0.924   3.997
  780  WAT    O 3503   4.266   1.117   4.961
  780  WAT   H1 3504   4.187   1.158   4.924
  780  WAT   H2 3505   4.237   1.030   4.988
  780  WAT  EPW 3506   4.252   1.111   4.959
  781  WAT    O 3507   3.639   1.318   4.635
  781  WAT   H1 3508   3.705   1.354   4.575
  781  WAT   H2 3509   3.572   1.283   4.577
  781  WAT  EPW 3510   3.639   1.318   4.620
  782  WAT    O 3511   4.168   0.713   4.808
  782  WAT   H1 3512   4.201   0.632   4.849
  782  WAT   H2 3513   4.081   0.689   4.776
  782  WAT  EPW 3514   4.161   0.699   4.809
  783  WAT    O 3515   4.779   0.521   4.331
  783  WAT   H1 3516   4.829   0.500   4.252
  783  WAT   H2 3517   4.798   0.613   4.348
  783  WAT  EPW 3518   4.788   0.530   4.323
  784  WAT    O 3519   4.242   0.395   3.705
  784  WAT   H1 3520   4.194   0.314   3.692
  784  WAT   H2 3521   4.285   0.411   3.622
  784  WAT  EPW 3522   4.241   0.387   3.693
  785  WAT    O 3523   3.638   0.899   3.751
  785  WAT   H1 3524   3.715   0.867   3.799
  785  WAT   H2 3525   3.564   0.875   3.807
  785  WAT  EPW 3526   3.639   0.892   3.764
  786  WAT    O 3527   3.572   0.275   4.621
  786  WAT   H1 3528   3.652   0.240   4.581
  786  WAT   H2 3529   3.570   0.237   4.709
  786  WAT  EPW 3530   3.582   0.265   4.627
  787  WAT    O 3531   4.511   0.580   4.394
  787  WAT   H1 3532   4.471   0.656   4.352
  787  WAT   H2 3533   4.598   0.574   4.353
  787  WAT  EPW 3534   4.517   0.589   4.383
  788  WAT    O 3535   3.781   0.753   4.492
  788  WAT   H1 3536   3.876   0.752   4.490
  788  WAT   H2 3537   3.756   0.672   4.536
  788  WAT  EPW 3538   3.790   0.743   4.498
  789  WAT    O 3539   4.665   0.302   4.527
  789  WAT   H1 3540   4.727   0.347   4.470
  789  WAT   H2 3541   4.651   0.217   4.485
  789  WAT  EPW 3542   4.671   0.297   4.514
  790  WAT    O 3543   4.518   1.090   4.877
  790  WAT   H1 3544   4.558   1.172   4.907
  790  WAT   H2 3545   4.427   1.095   4.905
  790  WAT  EPW 3546   4.512   1.101   4.884
  791  WAT    O 3547   3.921   0.306   3.974
  791  WAT   H1 3548   3.912   0.279   3.883
  791  WAT   H2 3549   3.831   0.322   4.004
  791  WAT  EPW 3550   3.908   0.304   3.966
  792  WAT    O 3551   4.115   0.597   4.214
  792  WAT   H1 3552   4.134   0.522   4.158
  792  WAT   H2 3553   4.201   0.637   4.231
  792  WAT  EPW 3554   4.129   0.593   4.209
  793  WAT    O 3555   4.360   1.118   3.643
  793  WAT   H1 3556   4.445   1.114   3.688
  793  WAT   H2 3557   4.383   1.139   3.552
  793  WAT  EPW 3558   4.374   1.120   3.637
  794  WAT    O 3559   4.065   0.697   4.470
  794  WAT   H1 3560   4.091   0.655   4.387
  794  WAT   H2 3561   4.074   0.628   4.535
  794  WAT  EPW 3562   4.070   0.683   4.467
  795  WAT    O 3563   4.797   1.143   4.515
  795  WAT   H1 3564   4.806   1.167   4.423
  795  WAT   H2 3565   4.711   1.178   4.541
  795  WAT  EPW 3566   4.787   1.150   4.507
  796  WAT    O 3567   4.536   1.584   4.249
  796  WAT   H1 3568   4.517   1.501   4.205
  796  WAT   H2 3569   4.504   1.651   4.189
  796  WAT  EPW 3570   4.529   1.582   4.236
  797  WAT    O 3571   4.694   1.508   3.558
  797  WAT   H1 3572   4.710   1.591   3.515
  797  WAT   H2 3573   4.721   1.522   3.649
  797  WAT  EPW 3574   4.700   1.520   3.564
  798  WAT    O 3575   4.905   1.385   4.569
  798  WAT   H1 3576   4.851   1.445   4.518
  798  WAT   H2 3577   4.866   1.299   4.555
  798  WAT  EPW 3578   4.893   1.382   4.561
  799  WAT    O 3579   4.315   1.622   4.467
  799  WAT   H1 3580   4.311   1.553   4.533
  799  WAT   H2 3581   4.362   1.583   4.394
  799  WAT  EPW 3582   4.320   1.608   4.466
  800  WAT    O 3583   4.502   0.695   3.735
  800  WAT   H1 3584   4.575   0.757   3.734
  800  WAT   H2 3585   4.424   0.750   3.732
  800  WAT  EPW 3586   4.502   0.710   3.735
  801  WAT    O 3587   4.466   0.433   4.647
  801  WAT   H1 3588   4.421   0.358   4.685
  801  WAT   H2 3589   4.538   0.395   4.597
  801  WAT  EPW 3590   4.469   0.418   4.646
  802  WAT    O 3591   4.619   0.845   4.818
  802  WAT   H1 3592   4.592   0.928   4.858
  802  WAT   H2 3593   4.714   0.844   4.829
  802  WAT  EPW 3594   4.628   0.856   4.825
  803  WAT    O 3595   4.555   1.568   4.643
  803  WAT   H1 3596   4.634   1.621   4.638
  803  WAT   H2 3597   4.495   1.607   4.580
  803  WAT  EPW 3598   4.557   1.580   4.634
  804  WAT    O 3599   4.854   1.431   4.128
  804  WAT   H1 3600   4.817   1.489   4.195
  804  WAT   H2 3601   4.943   1.463   4.115
  804  WAT  EPW 3602   4.860   1.442   4.135
  805  WAT    O 3603   4.664   0.674   4.627
  805  WAT   H1 3604   4.637   0.739   4.693
  805  WAT   H2 3605   4.584   0.656   4.577
  805  WAT  EPW 3606   4.651   0.680   4.629
  806  WAT    O 3607   3.654   0.328   4.093
  806  WAT   H1 3608   3.694   0.387   4.158
  806  WAT   H2 3609   3.608   0.387   4.033
  806  WAT  EPW 3610   3.653   0.343   4.094
  807  WAT    O 3611   4.662   0.508   4.883
  807  WAT   H1 3612   4.646   0.539   4.794
  807  WAT   H2 3613   4.576   0.481   4.915
  807  WAT  EPW 3614   4.649   0.508   4.876
  808  WAT    O 3615   3.942   1.000   3.726
  808  WAT   H1 3616   3.950   0.995   3.631
  808  WAT   H2 3617   3.886   1.077   3.741
  808  WAT  EPW 3618   3.936   1.009   3.716
  809  WAT    O 3619   3.693   0.522   4.612
  809  WAT   H1 3620   3.615   0.572   4.635
  809  WAT   H2 3621   3.667   0.431   4.624
  809  WAT  EPW 3622   3.680   0.517   4.616
  810  WAT    O 3623   4.003   0.938   4.323
  810  WAT   H1 3624   3.994   1.016   4.377
  810  WAT   H2 3625   4.010   0.865   4.385
  810  WAT  EPW 3626   4.002   0.938   4.338
  811  WAT    O 3627   4.175   0.408   3.975
  811  WAT   H1 3628   4.213   0.401   3.887
  811  WAT   H2 3629   4.085   0.378   3.965
  811  WAT  EPW 3630   4.169   0.403   3.962
  812  WAT    O 3631   4.145   1.124   3.818
  812  WAT   H1 3632   4.072   1.075   3.781
  812  WAT   H2 3633   4.211   1.125   3.749
  812  WAT  EPW 3634   4.144   1.117   3.805
  813  WAT    O 3635   3.640   1.458   4.875
  813  WAT   H1 3636   3.611   1.431   4.788
  813  WAT   H2 3637   3.609   1.548   4.884
  813  WAT  EPW 3638   3.632   1.466   4.865
  814  WAT    O 3639   4.494   0.465   3.537
  814  WAT   H1 3640   4.492   0.530   3.607
  814  WAT   H2 3641   4.530   0.386   3.578
  814  WAT  EPW 3642   4.499   0.463   3.551
  815  WAT    O 3643   4.031   1.194   4.815
  815  WAT   H1 3644   3.974   1.263   4.850
  815  WAT   H2 3645   3.986   1.113   4.836
  815  WAT  EPW 3646   4.018   1.193   4.822
  816  WAT    O 3647   4.691   1.353   3.924
  816  WAT   H1 3648   4.622   1.345   3.991
  816  WAT   H2 3649   4.770   1.370   3.974
  816  WAT  EPW 3650   4.692   1.354   3.939
  817  WAT    O 3651   4.791   1.250   3.549
  817  WAT   H1 3652   4.751   1.337   3.554
  817  WAT   H2 3653   4.744   1.198   3.614
  817  WAT  EPW 3654   4.780   1.254   3.558
  818  WAT    O 3655   4.129   1.082   4.134
  818  WAT   H1 3656   4.066   1.036   4.190
  818  WAT   H2 3657   4.081   1.155   4.097
  818  WAT  EPW 3658   4.115   1.085   4.137
  819  WAT    O 3659   4.717   1.249   4.955
  819  WAT   H1 3660   4.697   1.218   5.043
  819  WAT   H2 3661   4.769   1.178   4.916
  819  WAT  EPW 3662   4.721   1.236   4.961
  820  WAT    O 3663   3.594   1.181   4.970
  820  WAT   H1 3664   3.556   1.266   4.994
  820  WAT   H2 3665   3.677   1.204   4.927
  820  WAT  EPW 3666   3.600   1.195   4.968
  821  WAT    O 3667   4.810   1.589   3.826
  821  WAT   H1 3668   4.758   1.520   3.869
  821  WAT   H2 3669   4.762   1.669   3.844
  821  WAT  EPW 3670   4.797   1.590   3.834
  822  WAT    O 3671   4.784   1.743   4.656
  822  WAT   H1 3672   4.861   1.727   4.603
  822  WAT   H2 3673   4.781   1.838   4.667
  822  WAT  EPW 3674   4.793   1.753   4.651
  823  WAT    O 3675   4.441   1.384   4.079
  823  WAT   H1 3676   4.417   1.303   4.124
  823  WAT   H2 3677   4.360   1.412   4.036
  823  WAT  EPW 3678   4.427   1.377   4.079
  824  WAT    O 3679   3.901   0.956   4.822
  824  WAT   H1 3680   3.855   0.990   4.746
  824  WAT   H2 3681   3.909   0.862   4.805
  824  WAT  EPW 3682   3.896   0.948   4.810
  825  WAT    O 3683   3.720   0.720   4.041
  825  WAT   H1 3684   3.816   0.723   4.043
  825  WAT   H2 3685   3.693   0.811   4.045
  825  WAT  EPW 3686   3.729   0.732   4.042
  826  WAT    O 3687   4.787   0.475   4.076
  826  WAT   H1 3688   4.849   0.519   4.018
  826  WAT   H2 3689   4.706   0.525   4.068
  826  WAT  EPW 3690   4.785   0.487   4.068
  827  WAT    O 3691   3.449   1.080   3.672
  827  WAT   H1 3692   3.512   1.028   3.722
  827  WAT   H2 3693   3.499   1.111   3.596
  827  WAT  EPW 3694   3.464   1.077   3.669
  828  WAT    O 3695   4.016   1.288   3.999
  828  WAT   H1 3696   3.946   1.328   3.948
  828  WAT   H2 3697   4.060   1.228   3.939
  828  WAT  EPW 3698   4.013   1.286   3.985
  829  WAT    O 3699   4.877   1.083   4.782
  829  WAT   H1 3700   4.859   1.075   4.688
  829  WAT   H2 3701   4.955   1.137   4.787
  829  WAT  EPW 3702   4.884   1.089   4.770
  830  WAT    O 3703   4.358   0.721   4.214
  830  WAT   H1 3704   4.410   0.661   4.160
  830  WAT   H2 3705   4.331   0.790   4.153
  830  WAT  EPW 3706   4.361   0.722   4.199
  831  WAT    O 3707   3.607   1.457   3.618
  831  WAT   H1 3708   3.663   1.381   3.635
  831  WAT   H2 3709   3.664   1.532   3.634
  831  WAT  EPW 3710   3.621   1.456   3.622
  832  WAT    O 3711   3.496   0.718   4.262
  832  WAT   H1 3712   3.556   0.744   4.192
  832  WAT   H2 3713   3.527   0.768   4.339
  832  WAT  EPW 3714   3.508   0.728   4.263
  833  WAT    O 3715   3.765   1.069   4.643
  833  WAT   H1 3716   3.790   1.138   4.582
  833  WAT   H2 3717   3.677   1.095   4.673
  833  WAT  EPW 3718   3.757   1.081   4.639
  834  WAT    O 3719   4.967   1.531   4.806
  834  WAT   H1 3720   4.920   1.614   4.805
  834  WAT   H2 3721   4.914   1.473   4.752
  834  WAT  EPW 3722   4.954   1.534   4.799
  835  WAT    O 3723   4.395   1.161   2.347
  835  WAT   H1 3724   4.378   1.177   2.440
  835  WAT   H2 3725   4.318   1.112   2.316
  835  WAT  EPW 3726   4.383   1.157   2.355
  836  WAT    O 3727   4.052   0.651   1.880
  836  WAT   H1 3728   4.037   0.696   1.963
  836  WAT   H2 3729   4.123   0.590   1.899
  836  WAT  EPW 3730   4.059   0.649   1.893
  837  WAT    O 3731   3.741   1.276   2.376
  837  WAT   H1 3732   3.745   1.366   2.342
  837  WAT   H2 3733   3.661   1.274   2.429
  837  WAT  EPW 3734   3.731   1.287   2.379
  838  WAT    O 3735   4.212   1.455   2.045
  838  WAT   H1 3736   4.132   1.403   2.046
  838  WAT   H2 3737   4.246   1.445   1.956
  838  WAT  EPW 3738   4.206   1.447   2.034
  839  WAT    O 3739   4.603   0.954   2.292
  839  WAT   H1 3740   4.560   0.893   2.231
  839  WAT   H2 3741   4.536   1.020   2.310
  839  WAT  EPW 3742   4.589   0.955   2.286
  840  WAT    O 3743   4.423   0.778   3.144
  840  WAT   H1 3744   4.410   0.691   3.183
  840  WAT   H2 3745   4.467   0.760   3.061
  840  WAT  EPW 3746   4.427   0.764   3.139
  841  WAT    O 3747   4.710   0.873   1.846
  841  WAT   H1 3748   4.787   0.875   1.903
  841  WAT   H2 3749   4.742   0.836   1.764
  841  WAT  EPW 3750   4.724   0.868   1.843
  842  WAT    O 3751   3.623   0.844   3.259
  842  WAT   H1 3752   3.530   0.822   3.245
  842  WAT   H2 3753   3.631   0.855   3.354
  842  WAT  EPW 3754   3.612   0.843   3.270
  843  WAT    O 3755   4.782   1.213   2.380
  843  WAT   H1 3756   4.799   1.298   2.340
  843  WAT   H2 3757   4.706   1.180   2.333
  843  WAT  EPW 3758   4.774   1.220   2.369
  844  WAT    O 3759   4.761   1.546   2.505
  844  WAT   H1 3760   4.819   1.619   2.488
  844  WAT   H2 3761   4.682   1.564   2.453
  844  WAT  EPW 3762   4.758   1.558   2.496
  845  WAT    O 3763   3.993   0.271   2.357
  845  WAT   H1 3764   3.952   0.271   2.270
  845  WAT   H2 3765   3.944   0.338   2.406
  845  WAT  EPW 3766   3.981   0.280   2.352
  846  WAT    O 3767   4.639   0.360   3.259
  846  WAT   H1 3768   4.698   0.391   3.328
  846  WAT   H2 3769   4.567   0.422   3.259
  846  WAT  EPW 3770   4.638   0.372   3.268
  847  WAT    O 3771   4.401   0.410   2.212
  847  WAT   H1 3772   4.319   0.408   2.164
  847  WAT   H2 3773   4.376   0.391   2.303
  847  WAT  EPW 3774   4.388   0.407   2.217
  848  WAT    O 3775   4.113   1.376   2.674
  848  WAT   H1 3776   4.087   1.339   2.758
  848  WAT   H2 3777   4.186   1.322   2.645
  848  WAT  EPW 3778   4.119   1.365   2.681
  849  WAT    O 3779   3.937   1.196   2.545
  849  WAT   H1 3780   3.864   1.226   2.490
  849  WAT   H2 3781   3.996   1.271   2.550
  849  WAT  EPW 3782   3.935   1.209   2.539
  850  WAT    O 3783   3.592   0.211   3.564
  850  WAT   H1 3784   3.572   0.219   3.471
  850  WAT   H2 3785   3.512   0.241   3.608
  850  WAT  EPW 3786   3.579   0.216   3.558
  851  WAT    O 3787   3.884   0.572   1.679
  851  WAT   H1 3788   3.824   0.646   1.669
  851  WAT   H2 3789   3.947   0.601   1.745
  851  WAT  EPW 3790   3.884   0.585   1.686
  852  WAT    O 3791   4.327   1.418   1.808
  852  WAT   H1 3792   4.373   1.336   1.826
  852  WAT   H2 3793   4.396   1.482   1.794
  852  WAT  EPW 3794   4.341   1.416   1.809
  853  WAT    O 3795   4.199   0.467   2.707
  853  WAT   H1 3796   4.287   0.497   2.730
  853  WAT   H2 3797   4.208   0.434   2.617
  853  WAT  EPW 3798   4.211   0.467   2.698
  854  WAT    O 3799   3.588   1.114   3.440
  854  WAT   H1 3800   3.512   1.170   3.428
  854  WAT   H2 3801   3.609   1.083   3.352
  854  WAT  EPW 3802   3.581   1.117   3.427
  855  WAT    O 3803   3.795   1.243   3.574
  855  WAT   H1 3804   3.844   1.299   3.513
  855  WAT   H2 3805   3.751   1.180   3.518
  855  WAT  EPW 3806   3.796   1.242   3.559
  856  WAT    O 3807   4.158   1.417   3.453
  856  WAT   H1 3808   4.215   1.408   3.530
  856  WAT   H2 3809   4.154   1.511   3.437
  856  WAT  EPW 3810   4.165   1.428   3.461
  857  WAT    O 3811   4.194   0.802   3.444
  857  WAT   H1 3812   4.178   0.708   3.440
  857  WAT   H2 3813   4.185   0.831   3.353
  857  WAT  EPW 3814   4.190   0.794   3.431
  858  WAT    O 3815   4.614   1.133   1.854
  858  WAT   H1 3816   4.645   1.044   1.869
  858  WAT   H2 3817   4.667   1.187   1.913
  858  WAT  EPW 3818   4.625   1.128   1.863
  859  WAT    O 3819   4.877   0.182   1.911
  859  WAT   H1 3820   4.887   0.216   2.000
  859  WAT   H2 3821   4.864   0.259   1.857
  859  WAT  EPW 3822   4.876   0.196   1.916
  860  WAT    O 3823   4.925   0.700   2.829
  860  WAT   H1 3824   4.838   0.675   2.800
  860  WAT   H2 3825   4.960   0.622   2.872
  860  WAT  EPW 3826   4.919   0.687   2.831
  861  WAT    O 3827   4.360   0.350   2.475
  861  WAT   H1 3828   4.368   0.272   2.530
  861  WAT   H2 3829   4.404   0.419   2.525
  861  WAT  EPW 3830   4.366   0.349   2.489
  862  WAT    O 3831   3.667   1.572   2.127
  862  WAT   H1 3832   3.589   1.559   2.074
  862  WAT   H2 3833   3.664   1.665   2.152
  862  WAT  EPW 3834   3.657   1.583   2.124
  863  WAT    O 3835   4.672   1.153   3.322
  863  WAT   H1 3836   4.731   1.136   3.397
  863  WAT   H2 3837   4.613   1.221   3.353
  863  WAT  EPW 3838   4.672   1.159   3.336
  864  WAT    O 3839   4.303   1.199   2.596
  864  WAT   H1 3840   4.255   1.118   2.614
  864  WAT   H2 3841   4.376   1.198   2.658
  864  WAT  EPW 3842   4.306   1.189   2.607
  865  WAT    O 3843   4.583   0.284   1.823
  865  WAT   H1 3844   4.520   0.212   1.825
  865  WAT   H2 3845   4.605   0.300   1.915
  865  WAT  EPW 3846   4.578   0.277   1.835
  866  WAT    O 3847   4.257   0.449   3.035
  866  WAT   H1 3848   4.172   0.417   3.067
  866  WAT   H2 3849   4.304   0.370   3.009
  866  WAT  EPW 3850   4.252   0.435   3.036
  867  WAT    O 3851   3.950   0.968   3.468
  867  WAT   H1 3852   4.031   0.919   3.454
  867  WAT   H2 3853   3.923   0.995   3.381
  867  WAT  EPW 3854   3.956   0.965   3.455
  868  WAT    O 3855   3.840   1.425   1.981
  868  WAT   H1 3856   3.782   1.475   2.038
  868  WAT   H2 3857   3.863   1.486   1.911
  868  WAT  EPW 3858   3.836   1.439   1.979
  869  WAT    O 3859   4.176   0.872   3.171
  869  WAT   H1 3860   4.264   0.834   3.166
  869  WAT   H2 3861   4.122   0.814   3.118
  869  WAT  EPW 3862   4.180   0.860   3.164
  870  WAT    O 3863   4.820   0.697   3.136
  870  WAT   H1 3864   4.764   0.658   3.069
  870  WAT   H2 3865   4.763   0.758   3.182
  870  WAT  EPW 3866   4.806   0.700   3.133
  871  WAT    O 3867   4.603   0.296   2.089
  871  WAT   H1 3868   4.521   0.324   2.129
  871  WAT   H2 3869   4.671   0.335   2.145
  871  WAT  EPW 3870   4.601   0.305   2.102
  872  WAT    O 3871   3.904   0.655   2.899
  872  WAT   H1 3872   3.866   0.643   2.986
  872  WAT   H2 3873   3.848   0.604   2.841
  872  WAT  EPW 3874   3.892   0.647   2.902
  873  WAT    O 3875   4.805   0.806   2.444
  873  WAT   H1 3876   4.859   0.856   2.505
  873  WAT   H2 3877   4.735   0.867   2.419
  873  WAT  EPW 3878   4.803   0.820   2.449
  874  WAT    O 3879   3.603   0.963   2.526
  874  WAT   H1 3880   3.642   0.956   2.439
  874  WAT   H2 3881   3.664   0.917   2.584
  874  WAT  EPW 3882   3.616   0.956   2.523
  875  WAT    O 3883   4.550   0.617   2.111
  875  WAT   H1 3884   4.483   0.549   2.114
  875  WAT   H2 3885   4.558   0.639   2.019
  875  WAT  EPW 3886   4.543   0.611   2.100
  876  WAT    O 3887   4.669   1.515   3.023
  876  WAT   H1 3888   4.614   1.508   2.945
  876  WAT   H2 3889   4.705   1.427   3.035
  876  WAT  EPW 3890   4.666   1.503   3.015
  877  WAT    O 3891   4.112   0.515   3.418
  877  WAT   H1 3892   4.101   0.486   3.328
  877  WAT   H2 3893   4.023   0.525   3.452
  877  WAT  EPW 3894   4.099   0.512   3.411
  878  WAT    O 3895   4.017   0.347   2.903
  878  WAT   H1 3896   3.958   0.273   2.888
  878  WAT   H2 3897   4.078   0.345   2.829
  878  WAT  EPW 3898   4.017   0.338   2.892
  879  WAT    O 3899   4.155   0.967   2.706
  879  WAT   H1 3900   4.151   0.871   2.702
  879  WAT   H2 3901   4.110   0.989   2.787
  879  WAT  EPW 3902   4.149   0.957   2.716
  880  WAT    O 3903   4.952   0.632   3.374
  880  WAT   H1 3904   4.883   0.568   3.391
  880  WAT   H2 3905   4.931   0.667   3.288
  880  WAT  EPW 3906   4.940   0.628   3.365
  881  WAT    O 3907   3.513   0.542   2.088
  881  WAT   H1 3908   3.580   0.602   2.122
  881  WAT   H2 3909   3.430   0.585   2.107
  881  WAT  EPW 3910   3.511   0.555   2.095
  882  WAT    O 3911   3.747   0.987   2.308
  882  WAT   H1 3912   3.815   0.959   2.370
  882  WAT   H2 3913   3.757   1.082   2.303
  882  WAT  EPW 3914   3.757   0.995   2.316
  883  WAT    O 3915   4.288   0.860   1.817
  883  WAT   H1 3916   4.250   0.829   1.735
  883  WAT   H2 3917   4.312   0.951   1.799
  883  WAT  EPW 3918   4.286   0.868   1.804
  884  WAT    O 3919   4.539   1.228   2.747
  884  WAT   H1 3920   4.533   1.176   2.827
  884  WAT   H2 3921   4.594   1.303   2.771
  884  WAT  EPW 3922   4.546   1.231   2.761
  885  WAT    O 3923   3.855   0.314   1.789
  885  WAT   H1 3924   3.762   0.289   1.792
  885  WAT   H2 3925   3.854   0.406   1.762
  885  WAT  EPW 3926   3.843   0.322   1.786
  886  WAT    O 3927   4.052   0.749   2.117
  886  WAT   H1 3928   4.134   0.798   2.114
  886  WAT   H2 3929   4.057   0.699   2.199
  886  WAT  EPW 3930   4.063   0.749   2.127
  887  WAT    O 3931   4.281   0.913   2.118
  887  WAT   H1 3932   4.229   0.983   2.156
  887  WAT   H2 3933   4.282   0.932   2.024
  887  WAT  EPW 3934   4.275   0.924   2.111
  888  WAT    O 3935   3.875   0.943   3.217
  888  WAT   H1 3936   3.871   0.975   3.127
  888  WAT   H2 3937   3.788   0.907   3.234
  888  WAT  EPW 3938   3.863   0.942   3.208
  889  WAT    O 3939   4.266   1.117   3.075
  889  WAT   H1 3940   4.187   1.158   3.038
  889  WAT   H2 3941   4.237   1.030   3.102
  889  WAT  EPW 3942   4.252   1.111   3.073
  890  WAT    O 3943   4.168   0.713   2.922
  890  WAT   H1 3944   4.201   0.632   2.963
  890  WAT   H2 3945   4.081   0.689   2.890
  890  WAT  EPW 3946   4.161   0.699   2.923
  891  WAT    O 3947   3.730   0.806   3.519
  891  WAT   H1 3948   3.810   0.857   3.508
  891  WAT   H2 3949   3.685   0.848   3.593
  891  WAT  EPW 3950   3.734   0.818   3.527
  892  WAT    O 3951   4.779   0.521   2.445
  892  WAT   H1 3952   4.829   0.500   2.366
  892  WAT   H2 3953   4.798   0.613   2.462
  892  WAT  EPW 3954   4.788   0.530   2.437
  893  WAT    O 3955   4.242   0.395   1.819
  893  WAT   H1 3956   4.194   0.314   1.806
  893  WAT   H2 3957   4.285   0.411   1.736
  893  WAT  EPW 3958   4.241   0.387   1.807
  894  WAT    O 3959   3.638   0.899   1.865
  894  WAT   H1 3960   3.715   0.867   1.913
  894  WAT   H2 3961   3.564   0.875   1.921
  894  WAT  EPW 3962   3.639   0.892   1.878
  895  WAT    O 3963   3.572   0.275   2.735
  895  WAT   H1 3964   3.652   0.240   2.695
  895  WAT   H2 3965   3.570   0.237   2.823
  895  WAT  EPW 3966   3.582   0.265   2.741
  896  WAT    O 3967   4.511   0.580   2.508
  896  WAT   H1 3968   4.471   0.656   2.466
  896  WAT   H2 3969   4.598   0.574   2.467
  896  WAT  EPW 3970   4.517   0.589   2.497
  897  WAT    O 3971   3.781   0.753   2.606
  897  WAT   H1 3972   3.876   0.752   2.604
  897  WAT   H2 3973   3.756   0.672   2.650
  897  WAT  EPW 3974   3.790   0.743   2.612
  898  WAT    O 3975   4.665   0.302   2.641
  898  WAT   H1 3976   4.727   0.347   2.584
  898  WAT   H2 3977   4.651   0.217   2.599
  898  WAT  EPW 3978   4.671   0.297   2.628
  899  WAT    O 3979   4.518   1.090   2.991
  899  WAT   H1 3980   4.558   1.172   3.021
  899  WAT   H2 3981   4.427   1.095   3.019
  899  WAT  EPW 3982   4.512   1.101   2.998
  900  WAT    O 3983   3.921   0.306   2.088
  900  WAT   H1 3984   3.912   0.279   1.997
  900  WAT   H2 3985   3.831   0.322   2.118
  900  WAT  EPW 3986   3.908   0.304   2.080
  901  WAT    O 3987   4.115   0.597   2.328
  901  WAT   H1 3988   4.134   0.522   2.272
  901  WAT   H2 3989   4.201   0.637   2.345
  901  WAT  EPW 3990   4.129   0.593   2.323
  902  WAT    O 3991   4.360   1.118   1.757
  902  WAT   H1 3992   4.445   1.114   1.802
  902  WAT   H2 3993   4.383   1.139   1.666
  902  WAT  EPW 3994   4.374   1.120   1.751
  903  WAT    O 3995   4.065   0.697   2.584
  903  WAT   H1 3996   4.091   0.655   2.501
  903  WAT   H2 3997   4.074   0.628   2.649
  903  WAT  EPW 3998   4.070   0.683   2.581
  904  WAT    O 3999   4.797   1.143   2.629
  904  WAT   H1 4000   4.806   1.167   2.537
  904  WAT   H2 4001   4.711   1.178   2.655
  904  WAT  EPW 4002   4.787   1.150   2.621
  905  WAT    O 4003   4.536   1.584   2.363
  905  WAT   H1 4004   4.517   1.501   2.319
  905  WAT   H2 4005   4.504   1.651   2.303
  905  WAT  EPW 4006   4.529   1.582   2.350
  906  WAT    O 4007   4.694   1.508   1.672
  906  WAT   H1 4008   4.710   1.591   1.629
  906  WAT   H2 4009   4.721   1.522   1.763
  906  WAT  EPW 4010   4.700   1.520   1.678
  907  WAT    O 4011   4.905   1.385   2.683
  907  WAT   H1 4012   4.851   1.445   2.632
  907  WAT   H2 4013   4.866   1.299   2.669
  907  WAT  EPW 4014   4.893   1.382   2.675
  908  WAT    O 4015   4.315   1.622   2.581
  908  WAT   H1 4016   4.311   1.553   2.647
  908  WAT   H2 4017   4.362   1.583   2.508
  908  WAT  EPW 4018   4.320   1.608   2.580
  909  WAT    O 4019   4.502   0.695   1.849
  909  WAT   H1 4020   4.575   0.757   1.848
  909  WAT   H2 4021   4.424   0.750   1.846
  909  WAT  EPW 4022   4.502   0.710   1.849
  910  WAT    O 4023   4.466   0.433   2.761
  910  WAT   H1 4024   4.421   0.358   2.799
  910  WAT   H2 4025   4.538   0.395   2.711
  910  WAT  EPW 4026   4.469   0.418   2.760
  911  WAT    O 4027   4.619   0.845   2.932
  911  WAT   H1 4028   4.592   0.928   2.972
  911  WAT   H2 4029   4.714   0.844   2.943
  911  WAT  EPW 4030   4.628   0.856   2.939
  912  WAT    O 4031   4.555   1.568   2.757
  912  WAT   H1 4032   4.634   1.621   2.752
  912  WAT   H2 4033   4.495   1.607   2.694
  912  WAT  EPW 4034   4.557   1.580   2.748
  913  WAT    O 4035   3.758   0.630   3.146
  913  WAT   H1 4036   3.690   0.694   3.168
  913  WAT   H2 4037   3.717   0.545   3.162
  913  WAT  EPW 4038   3.744   0.627   3.151
  914  WAT    O 4039   4.854   1.431   2.242
  914  WAT   H1 4040   4.817   1.489   2.309
  914  WAT   H2 4041   4.943   1.463   2.229
  914  WAT  EPW 4042   4.860   1.442   2.249
  915  WAT    O 4043   4.664   0.674   2.741
  915  WAT   H1 4044   4.637   0.739   2.807
  915  WAT   H2 4045   4.584   0.656   2.691
  915  WAT  EPW 4046   4.651   0.680   2.743
  916  WAT    O 4047   3.518   0.438   3.403
  916  WAT   H1 4048   3.458   0.511   3.417
  916  WAT   H2 4049   3.573   0.436   3.481
  916  WAT  EPW 4050   3.518   0.447   3.415
  917  WAT    O 4051   3.654   0.328   2.207
  917  WAT   H1 4052   3.694   0.387   2.272
  917  WAT   H2 4053   3.608   0.387   2.147
  917  WAT  EPW 4054   3.653   0.343   2.208
  918  WAT    O 4055   4.662   0.508   2.997
  918  WAT   H1 4056   4.646   0.539   2.908
  918  WAT   H2 4057   4.576   0.481   3.029
  918  WAT  EPW 4058   4.649   0.508   2.990
  919  WAT    O 4059   3.942   1.000   1.840
  919  WAT   H1 4060   3.950   0.995   1.745
  919  WAT   H2 4061   3.886   1.077   1.855
  919  WAT  EPW 4062   3.936   1.009   1.830
  920  WAT    O 4063   4.655   0.874   3.251
  920  WAT   H1 4064   4.573   0.858   3.204
  920  WAT   H2 4065   4.660   0.969   3.260
  920  WAT  EPW 4066   4.645   0.884   3.246
  921  WAT    O 4067   3.693   0.522   2.726
  921  WAT   H1 4068   3.615   0.572   2.749
  921  WAT   H2 4069   3.667   0.431   2.738
  921  WAT  EPW 4070   3.680   0.517   2.730
  922  WAT    O 4071   4.003   0.938   2.437
  922  WAT   H1 4072   3.994   1.016   2.491
  922  WAT   H2 4073   4.010   0.865   2.499
  922  WAT  EPW 4074   4.002   0.938   2.452
  923  WAT    O 4075   4.013   0.452   3.155
  923  WAT   H1 4076   4.004   0.440   3.060
  923  WAT   H2 4077   3.940   0.509   3.179
  923  WAT  EPW 4078   4.002   0.458   3.146
  924  WAT    O 4079   4.175   0.408   2.089
  924  WAT   H1 4080   4.213   0.401   2.001
  924  WAT   H2 4081   4.085   0.378   2.079
  924  WAT  EPW 4082   4.169   0.403   2.076
  925  WAT    O 4083   4.145   1.124   1.932
  925  WAT   H1 4084   4.072   1.075   1.895
  925  WAT   H2 4085   4.211   1.125   1.863
  925  WAT  EPW 4086   4.144   1.117   1.919
  926  WAT    O 4087   4.494   0.465   1.651
  926  WAT   H1 4088   4.492   0.530   1.721
  926  WAT   H2 4089   4.530   0.386   1.692
  926  WAT  EPW 4090   4.499   0.463   1.665
  927  WAT    O 4091   4.031   1.194   2.929
  927  WAT   H1 4092   3.974   1.263   2.964
  927  WAT   H2 4093   3.986   1.113   2.950
  927  WAT  EPW 4094   4.018   1.193   2.936
  928  WAT    O 4095   4.691   1.353   2.038
  928  WAT   H1 4096   4.622   1.345   2.105
  928  WAT   H2 4097   4.770   1.370   2.088
  928  WAT  EPW 4098   4.692   1.354   2.053
  929  WAT    O 4099   4.791   1.250   1.663
  929  WAT   H1 4100   4.751   1.337   1.668
  929  WAT   H2 4101   4.744   1.198   1.728
  929  WAT  EPW 4102   4.780   1.254   1.672
  930  WAT    O 4103   4.129   1.082   2.248
  930  WAT   H1 4104   4.066   1.036   2.304
  930  WAT   H2 4105   4.081   1.155   2.211
  930  WAT  EPW 4106   4.115   1.085   2.251
  931  WAT    O 4107   4.717   1.249   3.069
  931  WAT   H1 4108   4.697   1.218   3.157
  931  WAT   H2 4109   4.769   1.178   3.030
  931  WAT  EPW 4110   4.721   1.236   3.075
  932  WAT    O 4111   4.358   1.246   3.347
  932  WAT   H1 4112   4.320   1.209   3.268
  932  WAT   H2 4113   4.294   1.309   3.379
  932  WAT  EPW 4114   4.345   1.249   3.341
  933  WAT    O 4115   4.810   1.589   1.940
  933  WAT   H1 4116   4.758   1.520   1.983
  933  WAT   H2 4117   4.762   1.669   1.958
  933  WAT  EPW 4118   4.797   1.590   1.948
  934  WAT    O 4119   3.659   0.380   3.179
  934  WAT   H1 4120   3.603   0.416   3.111
  934  WAT   H2 4121   3.610   0.391   3.260
  934  WAT  EPW 4122   3.646   0.386   3.180
  935  WAT    O 4123   4.784   1.743   2.770
  935  WAT   H1 4124   4.861   1.727   2.717
  935  WAT   H2 4125   4.781   1.838   2.781
  935  WAT  EPW 4126   4.793   1.753   2.765
  936  WAT    O 4127   4.441   1.384   2.193
  936  WAT   H1 4128   4.417   1.303   2.238
  936  WAT   H2 4129   4.360   1.412   2.150
  936  WAT  EPW 4130   4.427   1.377   2.193
  937  WAT    O 4131   3.901   0.956   2.936
  937  WAT   H1 4132   3.855   0.990   2.860
  937  WAT   H2 4133   3.909   0.862   2.919
  937  WAT  EPW 4134   3.896   0.948   2.924
  938  WAT    O 4135   3.720   0.720   2.155
  938  WAT   H1 4136   3.816   0.723   2.157
  938  WAT   H2 4137   3.693   0.811   2.159
  938  WAT  EPW 4138   3.729   0.732   2.156
  939  WAT    O 4139   4.204   0.266   3.449
  939  WAT   H1 4140   4.128   0.226   3.491
  939  WAT   H2 4141   4.179   0.357   3.434
  939  WAT  EPW 4142   4.191   0.272   3.453
  940  WAT    O 4143   4.787   0.475   2.190
  940  WAT   H1 4144   4.849   0.519   2.132
  940  WAT   H2 4145   4.706   0.525   2.182
  940  WAT  EPW 4146   4.785   0.487   2.182
  941  WAT    O 4147   3.449   1.080   1.786
  941  WAT   H1 4148   3.512   1.028   1.836
  941  WAT   H2 4149   3.499   1.111   1.710
  941  WAT  EPW 4150   3.464   1.077   1.783
  942  WAT    O 4151   4.016   1.288   2.113
  942  WAT   H1 4152   3.946   1.328   2.062
  942  WAT   H2 4153   4.060   1.228   2.053
  942  WAT  EPW 4154   4.013   1.286   2.099
  943  WAT    O 4155   4.877   1.083   2.896
  943  WAT   H1 4156   4.859   1.075   2.802
  943  WAT   H2 4157   4.955   1.137   2.901
  943  WAT  EPW 4158   4.884   1.089   2.884
  944  WAT    O 4159   4.358   0.721   2.328
  944  WAT   H1 4160   4.410   0.661   2.274
  944  WAT   H2 4161   4.331   0.790   2.267
  944  WAT  EPW 4162   4.361   0.722   2.313
  945  WAT    O 4163   3.607   1.457   1.732
  945  WAT   H1 4164   3.663   1.381   1.749
  945  WAT   H2 4165   3.664   1.532   1.748
  945  WAT  EPW 4166   3.621   1.456   1.736
  946  WAT    O 4167   4.802   0.855   3.463
  946  WAT   H1 4168   4.721   0.859   3.412
  946  WAT   H2 4169   4.838   0.769   3.443
  946  WAT  EPW 4170   4.796   0.845   3.454
  947  WAT    O 4171   3.496   0.718   2.376
  947  WAT   H1 4172   3.556   0.744   2.306
  947  WAT   H2 4173   3.527   0.768   2.453
  947  WAT  EPW 4174   3.508   0.728   2.377
  948  WAT    O 4175   3.765   1.069   2.757
  948  WAT   H1 4176   3.790   1.138   2.696
  948  WAT   H2 4177   3.677   1.095   2.787
  948  WAT  EPW 4178   3.757   1.081   2.753
  949  WAT    O 4179   4.426   0.519   3.245
  949  WAT   H1 4180   4.351   0.486   3.197
  949  WAT   H2 4181   4.406   0.499   3.337
  949  WAT  EPW 4182   4.414   0.512   3.251
  950  WAT    O 4183   4.781   0.452   3.452
  950  WAT   H1 4184   4.703   0.448   3.507
  950  WAT   H2 4185   4.845   0.396   3.498
  950  WAT  EPW 4186   4.779   0.444   3.465
  951  WAT    O 4187   4.967   1.531   2.920
  951  WAT   H1 4188   4.920   1.614   2.919
  951  WAT   H2 4189   4.914   1.473   2.866
  951  WAT  EPW 4190   4.954   1.534   2.913
  952  WAT    O 4191   3.918   1.417   1.145
  952  WAT   H1 4192   3.823   1.410   1.141
  952  WAT   H2 4193   3.937   1.447   1.233
  952  WAT  EPW 4194   3.909   1.420   1.155
  953  WAT    O 4195   4.395   1.161   0.461
  953  WAT   H1 4196   4.378   1.177   0.554
  953  WAT   H2 4197   4.318   1.112   0.430
  953  WAT  EPW 4198   4.383   1.157   0.469
  954  WAT    O 4199   3.741   1.276   0.490
  954  WAT   H1 4200   3.745   1.366   0.456
  954  WAT   H2 4201   3.661   1.274   0.543
  954  WAT  EPW 4202   3.731   1.287   0.493
  955  WAT    O 4203   4.603   0.954   0.406
  955  WAT   H1 4204   4.560   0.893   0.345
  955  WAT   H2 4205   4.536   1.020   0.424
  955  WAT  EPW 4206   4.589   0.955   0.400
  956  WAT    O 4207   4.423   0.778   1.258
  956  WAT   H1 4208   4.410   0.691   1.297
  956  WAT   H2 4209   4.467   0.760   1.175
  956  WAT  EPW 4210   4.427   0.764   1.253
  957  WAT    O 4211   3.623   0.844   1.373
  957  WAT   H1 4212   3.530   0.822   1.359
  957  WAT   H2 4213   3.631   0.855   1.468
  957  WAT  EPW 4214   3.612   0.843   1.384
  958  WAT    O 4215   4.782   1.213   0.494
  958  WAT   H1 4216   4.799   1.298   0.454
  958  WAT   H2 4217   4.706   1.180   0.447
  958  WAT  EPW 4218   4.774   1.220   0.483
  959  WAT    O 4219   4.761   1.546   0.619
  959  WAT   H1 4220   4.819   1.619   0.602
  959  WAT   H2 4221   4.682   1.564   0.567
  959  WAT  EPW 4222   4.758   1.558   0.610
  960  WAT    O 4223   3.993   0.271   0.471
  960  WAT   H1 4224   3.952   0.271   0.384
  960  WAT   H2 4225   3.944   0.338   0.520
  960  WAT  EPW 4226   3.981   0.280   0.466
  961  WAT    O 4227   4.639   0.360   1.373
  961  WAT   H1 4228   4.698   0.391   1.442
  961  WAT   H2 4229   4.567   0.422   1.373
  961  WAT  EPW 4230   4.638   0.372   1.382
  962  WAT    O 4231   4.401   0.410   0.326
  962  WAT   H1 4232   4.319   0.408   0.278
  962  WAT   H2 4233   4.376   0.391   0.417
  962  WAT  EPW 4234   4.388   0.407   0.331
  963  WAT    O 4235   4.113   1.376   0.788
  963  WAT   H1 4236   4.087   1.339   0.872
  963  WAT   H2 4237   4.186   1.322   0.759
  963  WAT  EPW 4238   4.119   1.365   0.795
  964  WAT    O 4239   3.937   1.196   0.659
  964  WAT   H1 4240   3.864   1.226   0.604
  964  WAT   H2 4241   3.996   1.271   0.664
  964  WAT  EPW 4242   3.935   1.209   0.653
  965  WAT    O 4243   3.592   0.211   1.678
  965  WAT   H1 4244   3.572   0.219   1.585
  965  WAT   H2 4245   3.512   0.241   1.722
  965  WAT  EPW 4246   3.579   0.216   1.672
  966  WAT    O 4247   4.199   0.467   0.821
  966  WAT   H1 4248   4.287   0.497   0.844
  966  WAT   H2 4249   4.208   0.434   0.731
  966  WAT  EPW 4250   4.211   0.467   0.812
  967  WAT    O 4251   3.588   1.114   1.554
  967  WAT   H1 4252   3.512   1.170   1.542
  967  WAT   H2 4253   3.609   1.083   1.466
  967  WAT  EPW 4254   3.581   1.117   1.541
  968  WAT    O 4255   3.795   1.243   1.688
  968  WAT   H1 4256   3.844   1.299   1.627
  968  WAT   H2 4257   3.751   1.180   1.632
  968  WAT  EPW 4258   3.796   1.242   1.673
  969  WAT    O 4259   4.158   1.417   1.567
  969  WAT   H1 4260   4.215   1.408   1.644
  969  WAT   H2 4261   4.154   1.511   1.551
  969  WAT  EPW 4262   4.165   1.428   1.575
  970  WAT    O 4263   4.194   0.802   1.558
  970  WAT   H1 4264   4.178   0.708   1.554
  970  WAT   H2 4265   4.185   0.831   1.467
  970  WAT  EPW 4266   4.190   0.794   1.545
  971  WAT    O 4267   4.925   0.700   0.943
  971  WAT   H1 4268   4.838   0.675   0.914
  971  WAT   H2 4269   4.960   0.622   0.986
  971  WAT  EPW 4270   4.919   0.687   0.945
  972  WAT    O 4271   3.896   1.392   1.459
  972  WAT   H1 4272   3.871   1.482   1.478
  972  WAT   H2 4273   3.987   1.385   1.489
  972  WAT  EPW 4274   3.905   1.403   1.465
  973  WAT    O 4275   4.360   0.350   0.589
  973  WAT   H1 4276   4.368   0.272   0.644
  973  WAT   H2 4277   4.404   0.419   0.639
  973  WAT  EPW 4278   4.366   0.349   0.603
  974  WAT    O 4279   3.667   1.572   0.241
  974  WAT   H1 4280   3.589   1.559   0.188
  974  WAT   H2 4281   3.664   1.665   0.266
  974  WAT  EPW 4282   3.657   1.583   0.238
  975  WAT    O 4283   4.672   1.153   1.436
  975  WAT   H1 4284   4.731   1.136   1.511
  975  WAT   H2 4285   4.613   1.221   1.467
  975  WAT  EPW 4286   4.672   1.159   1.450
  976  WAT    O 4287   4.303   1.199   0.710
  976  WAT   H1 4288   4.255   1.118   0.728
  976  WAT   H2 4289   4.376   1.198   0.772
  976  WAT  EPW 4290   4.306   1.189   0.721
  977  WAT    O 4291   4.257   0.449   1.149
  977  WAT   H1 4292   4.172   0.417   1.181
  977  WAT   H2 4293   4.304   0.370   1.123
  977  WAT  EPW 4294   4.252   0.435   1.150
  978  WAT    O 4295   3.950   0.968   1.582
  978  WAT   H1 4296   4.031   0.919   1.568
  978  WAT   H2 4297   3.923   0.995   1.495
  978  WAT  EPW 4298   3.956   0.965   1.569
  979  WAT    O 4299   4.176   0.872   1.285
  979  WAT   H1 4300   4.264   0.834   1.280
  979  WAT   H2 4301   4.122   0.814   1.232
  979  WAT  EPW 4302   4.180   0.860   1.278
  980  WAT    O 4303   4.820   0.697   1.250
  980  WAT   H1 4304   4.764   0.658   1.183
  980  WAT   H2 4305   4.763   0.758   1.296
  980  WAT  EPW 4306   4.806   0.700   1.247
  981  WAT    O 4307   4.603   0.296   0.203
  981  WAT   H1 4308   4.521   0.324   0.243
  981  WAT   H2 4309   4.671   0.335   0.259
  981  WAT  EPW 4310   4.601   0.305   0.216
  982  WAT    O 4311   3.904   0.655   1.013
  982  WAT   H1 4312   3.866   0.643   1.100
  982  WAT   H2 4313   3.848   0.604   0.955
  982  WAT  EPW 4314   3.892   0.647   1.016
  983  WAT    O 4315   4.805   0.806   0.558
  983  WAT   H1 4316   4.859   0.856   0.619
  983  WAT   H2 4317   4.735   0.867   0.533
  983  WAT  EPW 4318   4.803   0.820   0.563
  984  WAT    O 4319   3.603   0.963   0.640
  984  WAT   H1 4320   3.642   0.956   0.553
  984  WAT   H2 4321   3.664   0.917   0.698
  984  WAT  EPW 4322   3.616   0.956   0.637
  985  WAT    O 4323   4.669   1.515   1.137
  985  WAT   H1 4324   4.614   1.508   1.059
  985  WAT   H2 4325   4.705   1.427   1.149
  985  WAT  EPW 4326   4.666   1.503   1.129
  986  WAT    O 4327   4.112   0.515   1.532
  986  WAT   H1 4328   4.101   0.486   1.442
  986  WAT   H2 4329   4.023   0.525   1.566
  986  WAT  EPW 4330   4.099   0.512   1.525
  987  WAT    O 4331   4.017   0.347   1.017
  987  WAT   H1 4332   3.958   0.273   1.002
  987  WAT   H2 4333   4.078   0.345   0.943
  987  WAT  EPW 4334   4.017   0.338   1.006
  988  WAT    O 4335   4.155   0.967   0.820
  988  WAT   H1 4336   4.151   0.871   0.816
  988  WAT   H2 4337   4.110   0.989   0.901
  988  WAT  EPW 4338   4.149   0.957   0.830
  989  WAT    O 4339   4.952   0.632   1.488
  989  WAT   H1 4340   4.883   0.568   1.505
  989  WAT   H2 4341   4.931   0.667   1.402
  989  WAT  EPW 4342   4.940   0.628   1.479
  990  WAT    O 4343   3.513   0.542   0.202
  990  WAT   H1 4344   3.580   0.602   0.236
  990  WAT   H2 4345   3.430   0.585   0.221
  990  WAT  EPW 4346   3.511   0.555   0.209
  991  WAT    O 4347   3.747   0.987   0.422
  991  WAT   H1 4348   3.815   0.959   0.484
  991  WAT   H2 4349   3.757   1.082   0.417
  991  WAT  EPW 4350   3.757   0.995   0.430
  992  WAT    O 4351   4.539   1.228   0.861
  992  WAT   H1 4352   4.533   1.176   0.941
  992  WAT   H2 4353   4.594   1.303   0.885
  992  WAT  EPW 4354   4.546   1.231   0.875
  993  WAT    O 4355   4.052   0.749   0.231
  993  WAT   H1 4356   4.134   0.798   0.228
  993  WAT   H2 4357   4.057   0.699   0.313
  993  WAT  EPW 4358   4.063   0.749   0.241
  994  WAT    O 4359   3.721   1.536   0.639
  994  WAT   H1 4360   3.666   1.579   0.706
  994  WAT   H2 4361   3.811   1.556   0.665
  994  WAT  EPW 4362   3.725   1.544   0.651
  995  WAT    O 4363   3.875   0.943   1.331
  995  WAT   H1 4364   3.871   0.975   1.241
  995  WAT   H2 4365   3.788   0.907   1.348
  995  WAT  EPW 4366   3.863   0.942   1.322
  996  WAT    O 4367   4.266   1.117   1.189
  996  WAT   H1 4368   4.187   1.158   1.152
  996  WAT   H2 4369   4.237   1.030   1.216
  996  WAT  EPW 4370   4.252   1.111   1.187
  997  WAT    O 4371   3.639   1.318   0.863
  997  WAT   H1 4372   3.705   1.354   0.803
  997  WAT   H2 4373   3.572   1.283   0.805
  997  WAT  EPW 4374   3.639   1.318   0.848
  998  WAT    O 4375   4.168   0.713   1.036
  998  WAT   H1 4376   4.201   0.632   1.077
  998  WAT   H2 4377   4.081   0.689   1.004
  998  WAT  EPW 4378   4.161   0.699   1.037
  999  WAT    O 4379   3.730   0.806   1.633
  999  WAT   H1 4380   3.810   0.857   1.622
  999  WAT   H2 4381   3.685   0.848   1.707
  999  WAT  EPW 4382   3.734   0.818   1.641
 1000  WAT    O 4383   4.779   0.521   0.559
 1000  WAT   H1 4384   4.829   0.500   0.480
 1000  WAT   H2 4385   4.798   0.613   0.576
 1000  WAT  EPW 4386   4.788   0.530   0.551
 1001  WAT    O 4387   3.572   0.275   0.849
 1001  WAT   H1 4388   3.652   0.240   0.809
 1001  WAT   H2 4389   3.570   0.237   0.937
 1001  WAT  EPW 4390   3.582   0.265   0.855
 1002  WAT    O 4391   4.511   0.580   0.622
 1002  WAT   H1 4392   4.471   0.656   0.580
 1002  WAT   H2 4393   4.598   0.574   0.581
 1002  WAT  EPW 4394   4.517   0.589   0.611
 1003  WAT    O 4395   3.781   0.753   0.720
 1003  WAT   H1 4396   3.876   0.752   0.718
 1003  WAT   H2 4397   3.756   0.672   0.764
 1003  WAT  EPW 4398   3.790   0.743   0.726
 1004  WAT    O 4399   4.665   0.302   0.755
 1004  WAT   H1 4400   4.727   0.347   0.698
 1004  WAT   H2 4401   4.651   0.217   0.713
 1004  WAT  EPW 4402   4.671   0.297   0.742
 1005  WAT    O 4403   4.518   1.090   1.105
 1005  WAT   H1 4404   4.558   1.172   1.135
 1005  WAT   H2 4405   4.427   1.095   1.133
 1005  WAT  EPW 4406   4.512   1.101   1.112
 1006  WAT    O 4407   4.115   0.597   0.442
 1006  WAT   H1 4408   4.134   0.522   0.386
 1006  WAT   H2 4409   4.201   0.637   0.459
 1006  WAT  EPW 4410   4.129   0.593   0.437
 1007  WAT    O 4411   4.065   0.697   0.698
 1007  WAT   H1 4412   4.091   0.655   0.615
 1007  WAT   H2 4413   4.074   0.628   0.763
 1007  WAT  EPW 4414   4.070   0.683   0.695
 1008  WAT    O 4415   4.797   1.143   0.743
 1008  WAT   H1 4416   4.806   1.167   0.651
 1008  WAT   H2 4417   4.711   1.178   0.769
 1008  WAT  EPW 4418   4.787   1.150   0.735
 1009  WAT    O 4419   4.536   1.584   0.477
 1009  WAT   H1 4420   4.517   1.501   0.433
 1009  WAT   H2 4421   4.504   1.651   0.417
 1009  WAT  EPW 4422   4.529   1.582   0.464
 1010  WAT    O 4423   4.905   1.385   0.797
 1010  WAT   H1 4424   4.851   1.445   0.746
 1010  WAT   H2 4425   4.866   1.299   0.783
 1010  WAT  EPW 4426   4.893   1.382   0.789
 1011  WAT    O 4427   4.315   1.622   0.695
 1011  WAT   H1 4428   4.311   1.553   0.761
 1011  WAT   H2 4429   4.362   1.583   0.622
 1011  WAT  EPW 4430   4.320   1.608   0.694
 1012  WAT    O 4431   4.466   0.433   0.875
 1012  WAT   H1 4432   4.421   0.358   0.913
 1012  WAT   H2 4433   4.538   0.395   0.825
 1012  WAT  EPW 4434   4.469   0.418   0.874
 1013  WAT    O 4435   4.619   0.845   1.046
 1013  WAT   H1 4436   4.592   0.928   1.086
 1013  WAT   H2 4437   4.714   0.844   1.057
 1013  WAT  EPW 4438   4.628   0.856   1.053
 1014  WAT    O 4439   4.555   1.568   0.871
 1014  WAT   H1 4440   4.634   1.621   0.866
 1014  WAT   H2 4441   4.495   1.607   0.808
 1014  WAT  EPW 4442   4.557   1.580   0.862
 1015  WAT    O 4443   3.758   0.630   1.260
 1015  WAT   H1 4444   3.690   0.694   1.282
 1015  WAT   H2 4445   3.717   0.545   1.276
 1015  WAT  EPW 4446   3.744   0.627   1.265
 1016  WAT    O 4447   4.664   0.674   0.855
 1016  WAT   H1 4448   4.637   0.739   0.921
 1016  WAT   H2 4449   4.584   0.656   0.805
 1016  WAT  EPW 4450   4.651   0.680   0.857
 1017  WAT    O 4451   3.518   0.438   1.517
 1017  WAT   H1 4452   3.458   0.511   1.531
 1017  WAT   H2 4453   3.573   0.436   1.595
 1017  WAT  EPW 4454   3.518   0.447   1.529
 1018  WAT    O 4455   3.654   0.328   0.321
 1018  WAT   H1 4456   3.694   0.387   0.386
 1018  WAT   H2 4457   3.608   0.387   0.261
 1018  WAT  EPW 4458   3.653   0.343   0.322
 1019  WAT    O 4459   4.662   0.508   1.111
 1019  WAT   H1 4460   4.646   0.539   1.022
 1019  WAT   H2 4461   4.576   0.481   1.143
 1019  WAT  EPW 4462   4.649   0.508   1.104
 1020  WAT    O 4463   4.655   0.874   1.365
 1020  WAT   H1 4464   4.573   0.858   1.318
 1020  WAT   H2 4465   4.660   0.969   1.374
 1020  WAT  EPW 4466   4.645   0.884   1.360
 1021  WAT    O 4467   3.693   0.522   0.840
 1021  WAT   H1 4468   3.615   0.572   0.863
 1021  WAT   H2 4469   3.667   0.431   0.852
 1021  WAT  EPW 4470   3.680   0.517   0.844
 1022  WAT    O 4471   4.003   0.938   0.551
 1022  WAT   H1 4472   3.994   1.016   0.605
 1022  WAT   H2 4473   4.010   0.865   0.613
 1022  WAT  EPW 4474   4.002   0.938   0.566
 1023  WAT    O 4475   4.013   0.452   1.269
 1023  WAT   H1 4476   4.004   0.440   1.174
 1023  WAT   H2 4477   3.940   0.509   1.293
 1023  WAT  EPW 4478   4.002   0.458   1.260
 1024  WAT    O 4479   3.640   1.458   1.103
 1024  WAT   H1 4480   3.611   1.431   1.016
 1024  WAT   H2 4481   3.609   1.548   1.112
 1024  WAT  EPW 4482   3.632   1.466   1.093
 1025  WAT    O 4483   4.031   1.194   1.043
 1025  WAT   H1 4484   3.974   1.263   1.078
 1025  WAT   H2 4485   3.986   1.113   1.064
 1025  WAT  EPW 4486   4.018   1.193   1.050
 1026  WAT    O 4487   4.129   1.082   0.362
 1026  WAT   H1 4488   4.066   1.036   0.418
 1026  WAT   H2 4489   4.081   1.155   0.325
 1026  WAT  EPW 4490   4.115   1.085   0.365
 1027  WAT    O 4491   4.717   1.249   1.183
 1027  WAT   H1 4492   4.697   1.218   1.271
 1027  WAT   H2 4493   4.769   1.178   1.144
 1027  WAT  EPW 4494   4.721   1.236   1.189
 1028  WAT    O 4495   4.358   1.246   1.461
 1028  WAT   H1 4496   4.320   1.209   1.382
 1028  WAT   H2 4497   4.294   1.309   1.493
 1028  WAT  EPW 4498   4.345   1.249   1.455
 1029  WAT    O 4499   3.594   1.181   1.198
 1029  WAT   H1 4500   3.556   1.266   1.222
 1029  WAT   H2 4501   3.677   1.204   1.155
 1029  WAT  EPW 4502   3.600   1.195   1.196
 1030  WAT    O 4503   3.659   0.380   1.293
 1030  WAT   H1 4504   3.603   0.416   1.225
 1030  WAT   H2 4505   3.610   0.391   1.374
 1030  WAT  EPW 4506   3.646   0.386   1.294
 1031  WAT    O 4507   4.784   1.743   0.884
 1031  WAT   H1 4508   4.861   1.727   0.831
 1031  WAT   H2 4509   4.781   1.838   0.895
 1031  WAT  EPW 4510   4.793   1.753   0.879
 1032  WAT    O 4511   4.441   1.384   0.307
 1032  WAT   H1 4512   4.417   1.303   0.352
 1032  WAT   H2 4513   4.360   1.412   0.264
 1032  WAT  EPW 4514   4.427   1.377   0.307
 1033  WAT    O 4515   3.901   0.956   1.050
 1033  WAT   H1 4516   3.855   0.990   0.974
 1033  WAT   H2 4517   3.909   0.862   1.033
 1033  WAT  EPW 4518   3.896   0.948   1.038
 1034  WAT    O 4519   3.720   0.720   0.269
 1034  WAT   H1 4520   3.816   0.723   0.271
 1034  WAT   H2 4521   3.693   0.811   0.273
 1034  WAT  EPW 4522   3.729   0.732   0.270
 1035  WAT    O 4523   4.204   0.266   1.563
 1035  WAT   H1 4524   4.128   0.226   1.605
 1035  WAT   H2 4525   4.179   0.357   1.548
 1035  WAT  EPW 4526   4.191   0.272   1.567
 1036  WAT    O 4527   4.787   0.475   0.304
 1036  WAT   H1 4528   4.849   0.519   0.246
 1036  WAT   H2 4529   4.706   0.525   0.296
 1036  WAT  EPW 4530   4.785   0.487   0.296
 1037  WAT    O 4531   4.016   1.288   0.227
 1037  WAT   H1 4532   3.946   1.328   0.176
 1037  WAT   H2 4533   4.060   1.228   0.167
 1037  WAT  EPW 4534   4.013   1.286   0.213
 1038  WAT    O 4535   4.877   1.083   1.010
 1038  WAT   H1 4536   4.859   1.075   0.916
 1038  WAT   H2 4537   4.955   1.137   1.015
 1038  WAT  EPW 4538   4.884   1.089   0.998
 1039  WAT    O 4539   4.358   0.721   0.442
 1039  WAT   H1 4540   4.410   0.661   0.388
 1039  WAT   H2 4541   4.331   0.790   0.381
 1039  WAT  EPW 4542   4.361   0.722   0.427
 1040  WAT    O 4543   4.802   0.855   1.577
 1040  WAT   H1 4544   4.721   0.859   1.526
 1040  WAT   H2 4545   4.838   0.769   1.557
 1040  WAT  EPW 4546   4.796   0.845   1.568
 1041  WAT    O 4547   3.496   0.718   0.490
 1041  WAT   H1 4548   3.556   0.744   0.420
 1041  WAT   H2 4549   3.527   0.768   0.567
 1041  WAT  EPW 4550   3.508   0.728   0.491
 1042  WAT    O 4551   3.765   1.069   0.871
 1042  WAT   H1 4552   3.790   1.138   0.810
 1042  WAT   H2 4553   3.677   1.095   0.901
 1042  WAT  EPW 4554   3.757   1.081   0.867
 1043  WAT    O 4555   4.426   0.519   1.359
 1043  WAT   H1 4556   4.351   0.486   1.311
 1043  WAT   H2 4557   4.406   0.499   1.451
 1043  WAT  EPW 4558   4.414   0.512   1.365
 1044  WAT    O 4559   4.781   0.452   1.566
 1044  WAT   H1 4560   4.703   0.448   1.621
 1044  WAT   H2 4561   4.845   0.396   1.612
 1044  WAT  EPW 4562   4.779   0.444   1.579
 1045  WAT    O 4563   4.967   1.531   1.034
 1045  WAT   H1 4564   4.920   1.614   1.033
 1045  WAT   H2 4565   4.914   1.473   0.980
 1045  WAT  EPW 4566   4.954   1.534   1.027
 1046  WAT    O 4567   2.293   3.771   4.891
 1046  WAT   H1 4568   2.315   3.769   4.983
 1046  WAT   H2 4569   2.230   3.700   4.879
 1046  WAT  EPW 4570   2.287   3.762   4.901
 1047  WAT    O 4571   2.509   4.934   4.233
 1047  WAT   H1 4572   2.492   4.950   4.326
 1047  WAT   H2 4573   2.432   4.886   4.202
 1047  WAT  EPW 4574   2.497   4.930   4.241
 1048  WAT    O 4575   2.084   3.600   4.841
 1048  WAT   H1 4576   2.028   3.645   4.905
 1048  WAT   H2 4577   2.070   3.507   4.858
 1048  WAT  EPW 4578   2.075   3.594   4.851
 1049  WAT    O 4579   2.166   4.424   3.766
 1049  WAT   H1 4580   2.151   4.470   3.849
 1049  WAT   H2 4581   2.237   4.363   3.785
 1049  WAT  EPW 4582   2.173   4.422   3.779
 1050  WAT    O 4583   2.506   3.945   4.826
 1050  WAT   H1 4584   2.445   3.881   4.864
 1050  WAT   H2 4585   2.584   3.938   4.880
 1050  WAT  EPW 4586   2.508   3.936   4.838
 1051  WAT    O 4587   2.748   3.928   4.953
 1051  WAT   H1 4588   2.766   3.839   4.986
 1051  WAT   H2 4589   2.780   3.986   5.022
 1051  WAT  EPW 4590   2.754   3.924   4.966
 1052  WAT    O 4591   2.717   4.727   4.178
 1052  WAT   H1 4592   2.674   4.666   4.117
 1052  WAT   H2 4593   2.650   4.794   4.196
 1052  WAT  EPW 4594   2.703   4.728   4.172
 1053  WAT    O 4595   3.292   3.790   4.103
 1053  WAT   H1 4596   3.299   3.696   4.091
 1053  WAT   H2 4597   3.379   3.817   4.133
 1053  WAT  EPW 4598   3.304   3.782   4.105
 1054  WAT    O 4599   3.404   4.219   4.287
 1054  WAT   H1 4600   3.326   4.230   4.342
 1054  WAT   H2 4601   3.438   4.308   4.276
 1054  WAT  EPW 4602   3.398   4.232   4.293
 1055  WAT    O 4603   2.513   3.832   3.702
 1055  WAT   H1 4604   2.487   3.786   3.782
 1055  WAT   H2 4605   2.515   3.765   3.634
 1055  WAT  EPW 4606   2.510   3.818   3.704
 1056  WAT    O 4607   2.824   4.646   3.732
 1056  WAT   H1 4608   2.901   4.648   3.789
 1056  WAT   H2 4609   2.856   4.610   3.650
 1056  WAT  EPW 4610   2.838   4.642   3.729
 1057  WAT    O 4611   3.398   4.610   3.905
 1057  WAT   H1 4612   3.361   4.674   3.966
 1057  WAT   H2 4613   3.322   4.568   3.866
 1057  WAT  EPW 4614   3.384   4.613   3.908
 1058  WAT    O 4615   1.649   3.984   4.886
 1058  WAT   H1 4616   1.677   4.041   4.958
 1058  WAT   H2 4617   1.589   3.922   4.927
 1058  WAT  EPW 4618   1.645   3.983   4.901
 1059  WAT    O 4619   3.196   4.770   3.607
 1059  WAT   H1 4620   3.200   4.757   3.512
 1059  WAT   H2 4621   3.285   4.797   3.631
 1059  WAT  EPW 4622   3.208   4.772   3.598
 1060  WAT    O 4623   3.231   3.813   3.816
 1060  WAT   H1 4624   3.244   3.799   3.910
 1060  WAT   H2 4625   3.144   3.853   3.810
 1060  WAT  EPW 4626   3.221   3.816   3.827
 1061  WAT    O 4627   2.107   4.045   4.243
 1061  WAT   H1 4628   2.066   4.045   4.156
 1061  WAT   H2 4629   2.058   4.111   4.292
 1061  WAT  EPW 4630   2.095   4.053   4.238
 1062  WAT    O 4631   2.049   3.763   4.115
 1062  WAT   H1 4632   1.974   3.762   4.173
 1062  WAT   H2 4633   2.103   3.689   4.143
 1062  WAT  EPW 4634   2.047   3.754   4.126
 1063  WAT    O 4635   2.515   4.183   4.098
 1063  WAT   H1 4636   2.433   4.181   4.050
 1063  WAT   H2 4637   2.490   4.165   4.189
 1063  WAT  EPW 4638   2.502   4.181   4.103
 1064  WAT    O 4639   1.998   4.345   3.565
 1064  WAT   H1 4640   1.938   4.419   3.555
 1064  WAT   H2 4641   2.061   4.374   3.631
 1064  WAT  EPW 4642   1.998   4.359   3.572
 1065  WAT    O 4643   2.313   4.241   4.593
 1065  WAT   H1 4644   2.401   4.270   4.616
 1065  WAT   H2 4645   2.322   4.207   4.503
 1065  WAT  EPW 4646   2.325   4.240   4.584
 1066  WAT    O 4647   2.743   3.823   4.411
 1066  WAT   H1 4648   2.647   3.816   4.418
 1066  WAT   H2 4649   2.775   3.750   4.464
 1066  WAT  EPW 4650   2.735   3.813   4.419
 1067  WAT    O 4651   3.256   4.623   4.623
 1067  WAT   H1 4652   3.300   4.674   4.691
 1067  WAT   H2 4653   3.188   4.574   4.670
 1067  WAT  EPW 4654   3.253   4.624   4.638
 1068  WAT    O 4655   3.377   4.800   4.846
 1068  WAT   H1 4656   3.306   4.861   4.826
 1068  WAT   H2 4657   3.449   4.857   4.876
 1068  WAT  EPW 4658   3.377   4.815   4.847
 1069  WAT    O 4659   2.991   3.955   3.797
 1069  WAT   H1 4660   3.001   3.990   3.886
 1069  WAT   H2 4661   2.978   4.033   3.743
 1069  WAT  EPW 4662   2.990   3.969   3.802
 1070  WAT    O 4663   3.255   4.040   4.530
 1070  WAT   H1 4664   3.346   4.041   4.559
 1070  WAT   H2 4665   3.255   3.981   4.454
 1070  WAT  EPW 4666   3.266   4.033   4.524
 1071  WAT    O 4667   3.039   4.474   4.715
 1071  WAT   H1 4668   2.952   4.448   4.686
 1071  WAT   H2 4669   3.074   4.395   4.758
 1071  WAT  EPW 4670   3.033   4.460   4.717
 1072  WAT    O 4671   2.213   3.673   3.596
 1072  WAT   H1 4672   2.248   3.673   3.685
 1072  WAT   H2 4673   2.165   3.755   3.588
 1072  WAT  EPW 4674   2.212   3.683   3.606
 1073  WAT    O 4675   1.730   3.664   4.586
 1073  WAT   H1 4676   1.814   3.710   4.574
 1073  WAT   H2 4677   1.672   3.704   4.522
 1073  WAT  EPW 4678   1.734   3.675   4.577
 1074  WAT    O 4679   2.474   4.124   4.361
 1074  WAT   H1 4680   2.482   4.045   4.416
 1074  WAT   H2 4681   2.518   4.192   4.411
 1074  WAT  EPW 4682   2.480   4.122   4.375
 1075  WAT    O 4683   3.183   3.538   3.783
 1075  WAT   H1 4684   3.196   3.629   3.758
 1075  WAT   H2 4685   3.088   3.528   3.791
 1075  WAT  EPW 4686   3.173   3.548   3.781
 1076  WAT    O 4687   3.501   3.671   3.583
 1076  WAT   H1 4688   3.483   3.755   3.541
 1076  WAT   H2 4689   3.420   3.621   3.572
 1076  WAT  EPW 4690   3.488   3.676   3.576
 1077  WAT    O 4691   3.758   4.264   4.321
 1077  WAT   H1 4692   3.759   4.233   4.411
 1077  WAT   H2 4693   3.753   4.359   4.328
 1077  WAT  EPW 4694   3.757   4.272   4.333
 1078  WAT    O 4695   2.697   4.058   3.709
 1078  WAT   H1 4696   2.634   3.985   3.711
 1078  WAT   H2 4697   2.719   4.074   3.801
 1078  WAT  EPW 4698   2.692   4.051   3.721
 1079  WAT    O 4699   2.371   4.223   4.921
 1079  WAT   H1 4700   2.286   4.191   4.953
 1079  WAT   H2 4701   2.418   4.143   4.895
 1079  WAT  EPW 4702   2.366   4.208   4.922
 1080  WAT    O 4703   3.344   3.809   5.039
 1080  WAT   H1 4704   3.257   3.793   5.001
 1080  WAT   H2 4705   3.402   3.750   4.991
 1080  WAT  EPW 4706   3.340   3.800   5.028
 1081  WAT    O 4707   3.314   4.354   3.709
 1081  WAT   H1 4708   3.269   4.330   3.790
 1081  WAT   H2 4709   3.407   4.340   3.729
 1081  WAT  EPW 4710   3.320   4.349   3.722
 1082  WAT    O 4711   3.127   3.926   4.268
 1082  WAT   H1 4712   3.196   3.887   4.215
 1082  WAT   H2 4713   3.066   3.854   4.283
 1082  WAT  EPW 4714   3.128   3.912   4.263
 1083  WAT    O 4715   2.717   4.070   3.975
 1083  WAT   H1 4716   2.635   4.098   4.015
 1083  WAT   H2 4717   2.785   4.108   4.031
 1083  WAT  EPW 4718   2.715   4.078   3.988
 1084  WAT    O 4719   2.018   4.429   4.785
 1084  WAT   H1 4720   1.980   4.416   4.872
 1084  WAT   H2 4721   1.962   4.378   4.727
 1084  WAT  EPW 4722   2.006   4.421   4.788
 1085  WAT    O 4723   2.919   4.580   4.330
 1085  WAT   H1 4724   2.973   4.630   4.391
 1085  WAT   H2 4725   2.849   4.640   4.305
 1085  WAT  EPW 4726   2.917   4.594   4.335
 1086  WAT    O 4727   1.717   4.736   4.412
 1086  WAT   H1 4728   1.756   4.729   4.325
 1086  WAT   H2 4729   1.778   4.691   4.470
 1086  WAT  EPW 4730   1.730   4.730   4.409
 1087  WAT    O 4731   3.189   4.304   3.950
 1087  WAT   H1 4732   3.185   4.366   4.023
 1087  WAT   H2 4733   3.153   4.223   3.985
 1087  WAT  EPW 4734   3.184   4.302   3.963
 1088  WAT    O 4735   2.664   4.391   3.997
 1088  WAT   H1 4736   2.597   4.323   4.000
 1088  WAT   H2 4737   2.672   4.412   3.905
 1088  WAT  EPW 4738   2.657   4.385   3.986
 1089  WAT    O 4739   2.131   4.121   4.789
 1089  WAT   H1 4740   2.072   4.047   4.774
 1089  WAT   H2 4741   2.192   4.118   4.715
 1089  WAT  EPW 4742   2.131   4.111   4.778
 1090  WAT    O 4743   2.269   4.740   4.592
 1090  WAT   H1 4744   2.265   4.644   4.588
 1090  WAT   H2 4745   2.224   4.763   4.673
 1090  WAT  EPW 4746   2.263   4.731   4.602
 1091  WAT    O 4747   1.627   4.315   3.974
 1091  WAT   H1 4748   1.694   4.375   4.008
 1091  WAT   H2 4749   1.544   4.359   3.993
 1091  WAT  EPW 4750   1.625   4.329   3.981
 1092  WAT    O 4751   1.861   4.760   4.194
 1092  WAT   H1 4752   1.929   4.732   4.256
 1092  WAT   H2 4753   1.871   4.855   4.189
 1092  WAT  EPW 4754   1.871   4.769   4.202
 1093  WAT    O 4755   2.402   4.634   3.703
 1093  WAT   H1 4756   2.364   4.603   3.621
 1093  WAT   H2 4757   2.426   4.725   3.685
 1093  WAT  EPW 4758   2.400   4.641   3.690
 1094  WAT    O 4759   1.828   3.779   4.271
 1094  WAT   H1 4760   1.804   3.697   4.227
 1094  WAT   H2 4761   1.752   3.836   4.258
 1094  WAT  EPW 4762   1.815   3.776   4.264
 1095  WAT    O 4763   2.285   3.661   3.871
 1095  WAT   H1 4764   2.309   3.573   3.901
 1095  WAT   H2 4765   2.263   3.708   3.951
 1095  WAT  EPW 4766   2.285   3.655   3.885
 1096  WAT    O 4767   2.808   3.835   4.125
 1096  WAT   H1 4768   2.779   3.907   4.069
 1096  WAT   H2 4769   2.781   3.862   4.213
 1096  WAT  EPW 4770   2.801   3.848   4.129
 1097  WAT    O 4771   3.203   4.891   4.295
 1097  WAT   H1 4772   3.112   4.892   4.267
 1097  WAT   H2 4773   3.216   4.804   4.334
 1097  WAT  EPW 4774   3.193   4.880   4.296
 1098  WAT    O 4775   1.969   4.087   3.675
 1098  WAT   H1 4776   1.876   4.063   3.678
 1098  WAT   H2 4777   1.968   4.179   3.648
 1098  WAT  EPW 4778   1.957   4.096   3.672
 1099  WAT    O 4779   2.166   4.522   4.003
 1099  WAT   H1 4780   2.248   4.571   4.000
 1099  WAT   H2 4781   2.171   4.473   4.085
 1099  WAT  EPW 4782   2.177   4.522   4.013
 1100  WAT    O 4783   2.395   4.686   4.004
 1100  WAT   H1 4784   2.343   4.756   4.042
 1100  WAT   H2 4785   2.396   4.706   3.910
 1100  WAT  EPW 4786   2.389   4.698   3.997
 1101  WAT    O 4787   3.099   4.173   3.620
 1101  WAT   H1 4788   3.147   4.137   3.545
 1101  WAT   H2 4789   3.150   4.250   3.646
 1101  WAT  EPW 4790   3.112   4.178   3.614
 1102  WAT    O 4791   2.380   4.890   4.961
 1102  WAT   H1 4792   2.301   4.931   4.924
 1102  WAT   H2 4793   2.351   4.803   4.988
 1102  WAT  EPW 4794   2.366   4.884   4.959
 1103  WAT    O 4795   3.285   3.281   4.560
 1103  WAT   H1 4796   3.299   3.321   4.645
 1103  WAT   H2 4797   3.190   3.288   4.546
 1103  WAT  EPW 4798   3.274   3.287   4.569
 1104  WAT    O 4799   2.282   4.486   4.808
 1104  WAT   H1 4800   2.315   4.406   4.849
 1104  WAT   H2 4801   2.195   4.463   4.776
 1104  WAT  EPW 4802   2.275   4.473   4.809
 1105  WAT    O 4803   2.893   4.294   4.331
 1105  WAT   H1 4804   2.943   4.274   4.252
 1105  WAT   H2 4805   2.912   4.387   4.348
 1105  WAT  EPW 4806   2.902   4.303   4.323
 1106  WAT    O 4807   2.356   4.169   3.705
 1106  WAT   H1 4808   2.308   4.087   3.692
 1106  WAT   H2 4809   2.399   4.185   3.622
 1106  WAT  EPW 4810   2.355   4.160   3.693
 1107  WAT    O 4811   1.752   4.673   3.751
 1107  WAT   H1 4812   1.829   4.640   3.799
 1107  WAT   H2 4813   1.678   4.649   3.807
 1107  WAT  EPW 4814   1.753   4.665   3.764
 1108  WAT    O 4815   1.686   4.048   4.621
 1108  WAT   H1 4816   1.766   4.013   4.581
 1108  WAT   H2 4817   1.684   4.010   4.709
 1108  WAT  EPW 4818   1.696   4.039   4.627
 1109  WAT    O 4819   2.625   4.354   4.394
 1109  WAT   H1 4820   2.585   4.430   4.352
 1109  WAT   H2 4821   2.712   4.347   4.353
 1109  WAT  EPW 4822   2.631   4.363   4.383
 1110  WAT    O 4823   3.079   4.478   4.142
 1110  WAT   H1 4824   3.147   4.519   4.196
 1110  WAT   H2 4825   2.998   4.522   4.166
 1110  WAT  EPW 4826   3.077   4.489   4.152
 1111  WAT    O 4827   1.895   4.527   4.492
 1111  WAT   H1 4828   1.990   4.525   4.490
 1111  WAT   H2 4829   1.870   4.445   4.536
 1111  WAT  EPW 4830   1.904   4.516   4.498
 1112  WAT    O 4831   2.925   3.928   4.746
 1112  WAT   H1 4832   2.879   3.972   4.674
 1112  WAT   H2 4833   2.871   3.945   4.823
 1112  WAT  EPW 4834   2.912   3.936   4.747
 1113  WAT    O 4835   3.441   4.421   4.640
 1113  WAT   H1 4836   3.402   4.373   4.714
 1113  WAT   H2 4837   3.388   4.500   4.632
 1113  WAT  EPW 4838   3.430   4.425   4.649
 1114  WAT    O 4839   2.779   4.075   4.527
 1114  WAT   H1 4840   2.841   4.120   4.470
 1114  WAT   H2 4841   2.765   3.991   4.485
 1114  WAT  EPW 4842   2.785   4.070   4.514
 1115  WAT    O 4843   2.632   4.863   4.877
 1115  WAT   H1 4844   2.672   4.945   4.907
 1115  WAT   H2 4845   2.541   4.869   4.905
 1115  WAT  EPW 4846   2.626   4.874   4.884
 1116  WAT    O 4847   2.781   3.750   3.803
 1116  WAT   H1 4848   2.705   3.775   3.750
 1116  WAT   H2 4849   2.837   3.828   3.803
 1116  WAT  EPW 4850   2.779   3.763   3.796
 1117  WAT    O 4851   2.035   4.079   3.974
 1117  WAT   H1 4852   2.026   4.052   3.883
 1117  WAT   H2 4853   1.945   4.095   4.004
 1117  WAT  EPW 4854   2.022   4.078   3.966
 1118  WAT    O 4855   2.993   3.668   4.254
 1118  WAT   H1 4856   2.927   3.709   4.198
 1118  WAT   H2 4857   3.063   3.642   4.194
 1118  WAT  EPW 4858   2.994   3.670   4.239
 1119  WAT    O 4859   3.155   4.192   4.792
 1119  WAT   H1 4860   3.128   4.126   4.857
 1119  WAT   H2 4861   3.177   4.140   4.714
 1119  WAT  EPW 4862   3.154   4.177   4.790
 1120  WAT    O 4863   2.229   4.371   4.214
 1120  WAT   H1 4864   2.248   4.296   4.158
 1120  WAT   H2 4865   2.315   4.410   4.231
 1120  WAT  EPW 4866   2.243   4.366   4.209
 1121  WAT    O 4867   2.094   3.558   4.430
 1121  WAT   H1 4868   2.111   3.650   4.450
 1121  WAT   H2 4869   2.151   3.509   4.490
 1121  WAT  EPW 4870   2.103   3.563   4.440
 1122  WAT    O 4871   2.474   4.892   3.643
 1122  WAT   H1 4872   2.559   4.888   3.688
 1122  WAT   H2 4873   2.497   4.912   3.552
 1122  WAT  EPW 4874   2.488   4.894   3.637
 1123  WAT    O 4875   2.179   4.471   4.470
 1123  WAT   H1 4876   2.205   4.429   4.387
 1123  WAT   H2 4877   2.188   4.401   4.535
 1123  WAT  EPW 4878   2.184   4.456   4.467
 1124  WAT    O 4879   2.911   4.916   4.515
 1124  WAT   H1 4880   2.920   4.941   4.423
 1124  WAT   H2 4881   2.825   4.951   4.541
 1124  WAT  EPW 4882   2.901   4.924   4.507
 1125  WAT    O 4883   3.397   4.300   4.932
 1125  WAT   H1 4884   3.307   4.267   4.923
 1125  WAT   H2 4885   3.387   4.389   4.964
 1125  WAT  EPW 4886   3.384   4.307   4.935
 1126  WAT    O 4887   2.616   4.468   3.735
 1126  WAT   H1 4888   2.689   4.530   3.734
 1126  WAT   H2 4889   2.538   4.523   3.732
 1126  WAT  EPW 4890   2.616   4.483   3.735
 1127  WAT    O 4891   2.580   4.206   4.647
 1127  WAT   H1 4892   2.535   4.131   4.685
 1127  WAT   H2 4893   2.652   4.168   4.597
 1127  WAT  EPW 4894   2.583   4.192   4.646
 1128  WAT    O 4895   2.733   4.619   4.818
 1128  WAT   H1 4896   2.706   4.701   4.858
 1128  WAT   H2 4897   2.828   4.617   4.829
 1128  WAT  EPW 4898   2.742   4.629   4.825
 1129  WAT    O 4899   2.282   3.880   4.045
 1129  WAT   H1 4900   2.267   3.974   4.038
 1129  WAT   H2 4901   2.203   3.847   4.088
 1129  WAT  EPW 4902   2.270   3.888   4.050
 1130  WAT    O 4903   2.208   3.929   3.705
 1130  WAT   H1 4904   2.116   3.907   3.721
 1130  WAT   H2 4905   2.255   3.890   3.778
 1130  WAT  EPW 4906   2.202   3.921   3.716
 1131  WAT    O 4907   1.687   3.694   4.890
 1131  WAT   H1 4908   1.773   3.691   4.932
 1131  WAT   H2 4909   1.705   3.709   4.797
 1131  WAT  EPW 4910   1.700   3.696   4.884
 1132  WAT    O 4911   2.778   4.448   4.627
 1132  WAT   H1 4912   2.751   4.512   4.693
 1132  WAT   H2 4913   2.698   4.430   4.577
 1132  WAT  EPW 4914   2.765   4.454   4.629
 1133  WAT    O 4915   1.768   4.102   4.093
 1133  WAT   H1 4916   1.808   4.160   4.158
 1133  WAT   H2 4917   1.722   4.160   4.033
 1133  WAT  EPW 4918   1.767   4.117   4.094
 1134  WAT    O 4919   2.776   4.281   4.883
 1134  WAT   H1 4920   2.760   4.312   4.794
 1134  WAT   H2 4921   2.690   4.255   4.915
 1134  WAT  EPW 4922   2.763   4.282   4.876
 1135  WAT    O 4923   1.964   3.570   3.698
 1135  WAT   H1 4924   1.964   3.644   3.758
 1135  WAT   H2 4925   2.014   3.600   3.622
 1135  WAT  EPW 4926   1.971   3.583   3.696
 1136  WAT    O 4927   2.056   4.773   3.726
 1136  WAT   H1 4928   2.064   4.768   3.631
 1136  WAT   H2 4929   2.000   4.850   3.741
 1136  WAT  EPW 4930   2.050   4.782   3.716
 1137  WAT    O 4931   1.807   4.295   4.612
 1137  WAT   H1 4932   1.729   4.346   4.635
 1137  WAT   H2 4933   1.781   4.204   4.624
 1137  WAT  EPW 4934   1.794   4.290   4.616
 1138  WAT    O 4935   2.117   4.711   4.323
 1138  WAT   H1 4936   2.108   4.789   4.377
 1138  WAT   H2 4937   2.124   4.639   4.385
 1138  WAT  EPW 4938   2.116   4.712   4.338
 1139  WAT    O 4939   1.680   3.819   3.843
 1139  WAT   H1 4940   1.674   3.794   3.751
 1139  WAT   H2 4941   1.625   3.898   3.850
 1139  WAT  EPW 4942   1.672   3.826   3.832
 1140  WAT    O 4943   2.235   3.577   4.186
 1140  WAT   H1 4944   2.195   3.544   4.266
 1140  WAT   H2 4945   2.246   3.499   4.131
 1140  WAT  EPW 4946   2.231   3.563   4.189
 1141  WAT    O 4947   2.289   4.181   3.975
 1141  WAT   H1 4948   2.327   4.175   3.887
 1141  WAT   H2 4949   2.199   4.152   3.965
 1141  WAT  EPW 4950   2.283   4.177   3.962
 1142  WAT    O 4951   2.259   4.897   3.818
 1142  WAT   H1 4952   2.186   4.848   3.781
 1142  WAT   H2 4953   2.325   4.898   3.749
 1142  WAT  EPW 4954   2.258   4.891   3.805
 1143  WAT    O 4955   2.504   3.871   4.213
 1143  WAT   H1 4956   2.419   3.857   4.172
 1143  WAT   H2 4957   2.509   3.966   4.227
 1143  WAT  EPW 4958   2.494   3.881   4.210
 1144  WAT    O 4959   2.608   4.238   3.537
 1144  WAT   H1 4960   2.606   4.303   3.607
 1144  WAT   H2 4961   2.644   4.159   3.578
 1144  WAT  EPW 4962   2.613   4.236   3.551
 1145  WAT    O 4963   2.576   3.688   4.022
 1145  WAT   H1 4964   2.553   3.767   4.072
 1145  WAT   H2 4965   2.666   3.704   3.993
 1145  WAT  EPW 4966   2.584   3.700   4.025
 1146  WAT    O 4967   3.118   3.660   4.509
 1146  WAT   H1 4968   3.205   3.621   4.515
 1146  WAT   H2 4969   3.108   3.683   4.417
 1146  WAT  EPW 4970   3.128   3.658   4.498
 1147  WAT    O 4971   2.809   3.687   5.023
 1147  WAT   H1 4972   2.783   3.609   4.973
 1147  WAT   H2 4973   2.905   3.688   5.018
 1147  WAT  EPW 4974   2.818   3.677   5.016
 1148  WAT    O 4975   3.121   4.047   4.034
 1148  WAT   H1 4976   3.099   4.022   4.124
 1148  WAT   H2 4977   3.202   4.000   4.016
 1148  WAT  EPW 4978   3.128   4.038   4.043
 1149  WAT    O 4979   2.501   3.902   4.551
 1149  WAT   H1 4980   2.416   3.859   4.542
 1149  WAT   H2 4981   2.511   3.917   4.645
 1149  WAT  EPW 4982   2.491   3.898   4.562
 1150  WAT    O 4983   2.243   4.855   4.134
 1150  WAT   H1 4984   2.180   4.810   4.190
 1150  WAT   H2 4985   2.195   4.929   4.097
 1150  WAT  EPW 4986   2.229   4.859   4.137
 1151  WAT    O 4987   3.390   4.049   3.818
 1151  WAT   H1 4988   3.308   4.001   3.813
 1151  WAT   H2 4989   3.365   4.136   3.851
 1151  WAT  EPW 4990   3.376   4.054   3.821
 1152  WAT    O 4991   1.899   3.917   4.512
 1152  WAT   H1 4992   1.889   3.871   4.429
 1152  WAT   H2 4993   1.981   3.885   4.549
 1152  WAT  EPW 4994   1.908   3.907   4.506
 1153  WAT    O 4995   3.362   4.566   5.001
 1153  WAT   H1 4996   3.273   4.588   5.029
 1153  WAT   H2 4997   3.390   4.642   4.949
 1153  WAT  EPW 4998   3.354   4.579   4.998
 1154  WAT    O 4999   3.269   4.768   4.045
 1154  WAT   H1 5000   3.271   4.780   4.140
 1154  WAT   H2 5001   3.286   4.856   4.009
 1154  WAT  EPW 5002   3.272   4.781   4.052
 1155  WAT    O 5003   2.115   3.843   4.638
 1155  WAT   H1 5004   2.160   3.785   4.699
 1155  WAT   H2 5005   2.171   3.845   4.561
 1155  WAT  EPW 5006   2.128   3.836   4.636
 1156  WAT    O 5007   3.105   4.670   4.980
 1156  WAT   H1 5008   3.044   4.597   4.985
 1156  WAT   H2 5009   3.062   4.733   4.921
 1156  WAT  EPW 5010   3.092   4.669   4.973
 1157  WAT    O 5011   2.015   4.729   4.822
 1157  WAT   H1 5012   1.969   4.763   4.746
 1157  WAT   H2 5013   2.023   4.635   4.805
 1157  WAT  EPW 5014   2.010   4.721   4.810
 1158  WAT    O 5015   1.834   4.493   4.041
 1158  WAT   H1 5016   1.930   4.496   4.043
 1158  WAT   H2 5017   1.807   4.585   4.045
 1158  WAT  EPW 5018   1.843   4.505   4.042
 1159  WAT    O 5019   1.970   3.822   3.838
 1159  WAT   H1 5020   2.001   3.829   3.928
 1159  WAT   H2 5021   1.879   3.796   3.846
 1159  WAT  EPW 5022   1.963   3.820   3.850
 1160  WAT    O 5023   2.901   4.248   4.076
 1160  WAT   H1 5024   2.963   4.293   4.018
 1160  WAT   H2 5025   2.820   4.299   4.068
 1160  WAT  EPW 5026   2.899   4.260   4.068
 1161  WAT    O 5027   1.563   4.853   3.672
 1161  WAT   H1 5028   1.626   4.801   3.722
 1161  WAT   H2 5029   1.613   4.884   3.596
 1161  WAT  EPW 5030   1.578   4.851   3.669
 1162  WAT    O 5031   2.991   4.856   4.782
 1162  WAT   H1 5032   2.973   4.848   4.688
 1162  WAT   H2 5033   3.069   4.911   4.787
 1162  WAT  EPW 5034   2.998   4.862   4.770
 1163  WAT    O 5035   2.472   4.494   4.214
 1163  WAT   H1 5036   2.524   4.434   4.160
 1163  WAT   H2 5037   2.445   4.563   4.153
 1163  WAT  EPW 5038   2.475   4.496   4.199
 1164  WAT    O 5039   3.077   3.817   4.969
 1164  WAT   H1 5040   3.048   3.900   5.009
 1164  WAT   H2 5041   3.054   3.826   4.877
 1164  WAT  EPW 5042   3.070   3.829   4.963
 1165  WAT    O 5043   3.478   3.951   4.218
 1165  WAT   H1 5044   3.536   3.999   4.159
 1165  WAT   H2 5045   3.421   4.018   4.256
 1165  WAT  EPW 5046   3.478   3.966   4.215
 1166  WAT    O 5047   2.250   3.833   4.405
 1166  WAT   H1 5048   2.232   3.892   4.331
 1166  WAT   H2 5049   2.298   3.760   4.366
 1166  WAT  EPW 5050   2.254   3.831   4.390
 1167  WAT    O 5051   1.610   4.492   4.262
 1167  WAT   H1 5052   1.670   4.517   4.192
 1167  WAT   H2 5053   1.641   4.541   4.339
 1167  WAT  EPW 5054   1.622   4.501   4.263
 1168  WAT    O 5055   1.879   4.843   4.643
 1168  WAT   H1 5056   1.904   4.912   4.582
 1168  WAT   H2 5057   1.791   4.868   4.673
 1168  WAT  EPW 5058   1.871   4.855   4.639
 1169  WAT    O 5059   3.247   4.602   4.341
 1169  WAT   H1 5060   3.333   4.567   4.314
 1169  WAT   H2 5061   3.250   4.599   4.437
 1169  WAT  EPW 5062   3.259   4.597   4.350
 1170  WAT    O 5063   3.455   3.604   4.292
 1170  WAT   H1 5064   3.395   3.569   4.358
 1170  WAT   H2 5065   3.527   3.541   4.288
 1170  WAT  EPW 5066   3.457   3.592   4.300
 1171  WAT    O 5067   3.062   4.669   3.862
 1171  WAT   H1 5068   3.102   4.703   3.943
 1171  WAT   H2 5069   3.111   4.711   3.792
 1171  WAT  EPW 5070   3.073   4.678   3.864
 1172  WAT    O 5071   2.293   3.771   3.005
 1172  WAT   H1 5072   2.315   3.769   3.097
 1172  WAT   H2 5073   2.230   3.700   2.993
 1172  WAT  EPW 5074   2.287   3.762   3.015
 1173  WAT    O 5075   2.509   4.934   2.347
 1173  WAT   H1 5076   2.492   4.950   2.440
 1173  WAT   H2 5077   2.432   4.886   2.316
 1173  WAT  EPW 5078   2.497   4.930   2.355
 1174  WAT    O 5079   2.166   4.424   1.880
 1174  WAT   H1 5080   2.151   4.470   1.963
 1174  WAT   H2 5081   2.237   4.363   1.899
 1174  WAT  EPW 5082   2.173   4.422   1.893
 1175  WAT    O 5083   2.506   3.945   2.940
 1175  WAT   H1 5084   2.445   3.881   2.978
 1175  WAT   H2 5085   2.584   3.938   2.994
 1175  WAT  EPW 5086   2.508   3.936   2.952
 1176  WAT    O 5087   2.748   3.928   3.067
 1176  WAT   H1 5088   2.766   3.839   3.100
 1176  WAT   H2 5089   2.780   3.986   3.136
 1176  WAT  EPW 5090   2.754   3.924   3.080
 1177  WAT    O 5091   3.292   3.790   2.217
 1177  WAT   H1 5092   3.299   3.696   2.205
 1177  WAT   H2 5093   3.379   3.817   2.247
 1177  WAT  EPW 5094   3.304   3.782   2.219
 1178  WAT    O 5095   3.404   4.219   2.401
 1178  WAT   H1 5096   3.326   4.230   2.456
 1178  WAT   H2 5097   3.438   4.308   2.390
 1178  WAT  EPW 5098   3.398   4.232   2.407
 1179  WAT    O 5099   2.513   3.832   1.816
 1179  WAT   H1 5100   2.487   3.786   1.896
 1179  WAT   H2 5101   2.515   3.765   1.748
 1179  WAT  EPW 5102   2.510   3.818   1.818
 1180  WAT    O 5103   2.537   4.551   3.144
 1180  WAT   H1 5104   2.524   4.465   3.183
 1180  WAT   H2 5105   2.581   4.534   3.061
 1180  WAT  EPW 5106   2.541   4.538   3.139
 1181  WAT    O 5107   2.824   4.646   1.846
 1181  WAT   H1 5108   2.901   4.648   1.903
 1181  WAT   H2 5109   2.856   4.610   1.764
 1181  WAT  EPW 5110   2.838   4.642   1.843
 1182  WAT    O 5111   3.398   4.610   2.019
 1182  WAT   H1 5112   3.361   4.674   2.080
 1182  WAT   H2 5113   3.322   4.568   1.980
 1182  WAT  EPW 5114   3.384   4.613   2.022
 1183  WAT    O 5115   1.649   3.984   3.000
 1183  WAT   H1 5116   1.677   4.041   3.072
 1183  WAT   H2 5117   1.589   3.922   3.041
 1183  WAT  EPW 5118   1.645   3.983   3.015
 1184  WAT    O 5119   3.196   4.770   1.721
 1184  WAT   H1 5120   3.200   4.757   1.626
 1184  WAT   H2 5121   3.285   4.797   1.745
 1184  WAT  EPW 5122   3.208   4.772   1.712
 1185  WAT    O 5123   1.737   4.618   3.259
 1185  WAT   H1 5124   1.644   4.596   3.245
 1185  WAT   H2 5125   1.745   4.628   3.354
 1185  WAT  EPW 5126   1.726   4.616   3.270
 1186  WAT    O 5127   3.231   3.813   1.930
 1186  WAT   H1 5128   3.244   3.799   2.024
 1186  WAT   H2 5129   3.144   3.853   1.924
 1186  WAT  EPW 5130   3.221   3.816   1.941
 1187  WAT    O 5131   2.107   4.045   2.357
 1187  WAT   H1 5132   2.066   4.045   2.270
 1187  WAT   H2 5133   2.058   4.111   2.406
 1187  WAT  EPW 5134   2.095   4.053   2.352
 1188  WAT    O 5135   2.753   4.133   3.259
 1188  WAT   H1 5136   2.812   4.164   3.328
 1188  WAT   H2 5137   2.681   4.196   3.259
 1188  WAT  EPW 5138   2.752   4.145   3.268
 1189  WAT    O 5139   2.515   4.183   2.212
 1189  WAT   H1 5140   2.433   4.181   2.164
 1189  WAT   H2 5141   2.490   4.165   2.303
 1189  WAT  EPW 5142   2.502   4.181   2.217
 1190  WAT    O 5143   1.706   3.984   3.564
 1190  WAT   H1 5144   1.686   3.993   3.471
 1190  WAT   H2 5145   1.626   4.015   3.608
 1190  WAT  EPW 5146   1.693   3.989   3.558
 1191  WAT    O 5147   1.998   4.345   1.679
 1191  WAT   H1 5148   1.938   4.419   1.669
 1191  WAT   H2 5149   2.061   4.374   1.745
 1191  WAT  EPW 5150   1.998   4.359   1.686
 1192  WAT    O 5151   2.313   4.241   2.707
 1192  WAT   H1 5152   2.401   4.270   2.730
 1192  WAT   H2 5153   2.322   4.207   2.617
 1192  WAT  EPW 5154   2.325   4.240   2.698
 1193  WAT    O 5155   1.702   4.887   3.440
 1193  WAT   H1 5156   1.626   4.944   3.428
 1193  WAT   H2 5157   1.723   4.856   3.352
 1193  WAT  EPW 5158   1.695   4.890   3.427
 1194  WAT    O 5159   2.743   3.823   2.525
 1194  WAT   H1 5160   2.647   3.816   2.532
 1194  WAT   H2 5161   2.775   3.750   2.578
 1194  WAT  EPW 5162   2.735   3.813   2.533
 1195  WAT    O 5163   3.256   4.623   2.737
 1195  WAT   H1 5164   3.300   4.674   2.805
 1195  WAT   H2 5165   3.188   4.574   2.784
 1195  WAT  EPW 5166   3.253   4.624   2.752
 1196  WAT    O 5167   3.377   4.800   2.960
 1196  WAT   H1 5168   3.306   4.861   2.940
 1196  WAT   H2 5169   3.449   4.857   2.990
 1196  WAT  EPW 5170   3.377   4.815   2.961
 1197  WAT    O 5171   2.308   4.576   3.444
 1197  WAT   H1 5172   2.292   4.481   3.440
 1197  WAT   H2 5173   2.299   4.605   3.353
 1197  WAT  EPW 5174   2.304   4.567   3.431
 1198  WAT    O 5175   2.991   3.955   1.911
 1198  WAT   H1 5176   3.001   3.990   2.000
 1198  WAT   H2 5177   2.978   4.033   1.857
 1198  WAT  EPW 5178   2.990   3.969   1.916
 1199  WAT    O 5179   3.255   4.040   2.644
 1199  WAT   H1 5180   3.346   4.041   2.673
 1199  WAT   H2 5181   3.255   3.981   2.568
 1199  WAT  EPW 5182   3.266   4.033   2.638
 1200  WAT    O 5183   3.039   4.474   2.829
 1200  WAT   H1 5184   2.952   4.448   2.800
 1200  WAT   H2 5185   3.074   4.395   2.872
 1200  WAT  EPW 5186   3.033   4.460   2.831
 1201  WAT    O 5187   2.213   3.673   1.710
 1201  WAT   H1 5188   2.248   3.673   1.799
 1201  WAT   H2 5189   2.165   3.755   1.702
 1201  WAT  EPW 5190   2.212   3.683   1.720
 1202  WAT    O 5191   1.840   3.577   3.402
 1202  WAT   H1 5192   1.757   3.535   3.422
 1202  WAT   H2 5193   1.837   3.660   3.450
 1202  WAT  EPW 5194   1.829   3.583   3.410
 1203  WAT    O 5195   2.474   4.124   2.475
 1203  WAT   H1 5196   2.482   4.045   2.530
 1203  WAT   H2 5197   2.518   4.192   2.525
 1203  WAT  EPW 5198   2.480   4.122   2.489
 1204  WAT    O 5199   3.340   3.885   3.409
 1204  WAT   H1 5200   3.250   3.853   3.409
 1204  WAT   H2 5201   3.372   3.868   3.321
 1204  WAT  EPW 5202   3.333   3.879   3.398
 1205  WAT    O 5203   3.183   3.538   1.897
 1205  WAT   H1 5204   3.196   3.629   1.872
 1205  WAT   H2 5205   3.088   3.528   1.905
 1205  WAT  EPW 5206   3.173   3.548   1.895
 1206  WAT    O 5207   3.501   3.671   1.697
 1206  WAT   H1 5208   3.483   3.755   1.655
 1206  WAT   H2 5209   3.420   3.621   1.686
 1206  WAT  EPW 5210   3.488   3.676   1.690
 1207  WAT    O 5211   3.758   4.264   2.435
 1207  WAT   H1 5212   3.759   4.233   2.525
 1207  WAT   H2 5213   3.753   4.359   2.442
 1207  WAT  EPW 5214   3.757   4.272   2.447
 1208  WAT    O 5215   2.697   4.058   1.823
 1208  WAT   H1 5216   2.634   3.985   1.825
 1208  WAT   H2 5217   2.719   4.074   1.915
 1208  WAT  EPW 5218   2.692   4.051   1.835
 1209  WAT    O 5219   2.371   4.223   3.035
 1209  WAT   H1 5220   2.286   4.191   3.067
 1209  WAT   H2 5221   2.418   4.143   3.009
 1209  WAT  EPW 5222   2.366   4.208   3.036
 1210  WAT    O 5223   2.064   4.741   3.468
 1210  WAT   H1 5224   2.145   4.692   3.454
 1210  WAT   H2 5225   2.037   4.769   3.381
 1210  WAT  EPW 5226   2.070   4.738   3.455
 1211  WAT    O 5227   3.344   3.809   3.153
 1211  WAT   H1 5228   3.257   3.793   3.115
 1211  WAT   H2 5229   3.402   3.750   3.105
 1211  WAT  EPW 5230   3.340   3.800   3.142
 1212  WAT    O 5231   3.314   4.354   1.823
 1212  WAT   H1 5232   3.269   4.330   1.904
 1212  WAT   H2 5233   3.407   4.340   1.843
 1212  WAT  EPW 5234   3.320   4.349   1.836
 1213  WAT    O 5235   2.290   4.645   3.171
 1213  WAT   H1 5236   2.378   4.608   3.166
 1213  WAT   H2 5237   2.236   4.587   3.118
 1213  WAT  EPW 5238   2.294   4.633   3.164
 1214  WAT    O 5239   3.127   3.926   2.382
 1214  WAT   H1 5240   3.196   3.887   2.329
 1214  WAT   H2 5241   3.066   3.854   2.397
 1214  WAT  EPW 5242   3.128   3.912   2.377
 1215  WAT    O 5243   2.934   4.471   3.136
 1215  WAT   H1 5244   2.878   4.431   3.069
 1215  WAT   H2 5245   2.877   4.532   3.182
 1215  WAT  EPW 5246   2.920   4.474   3.133
 1216  WAT    O 5247   3.326   4.397   3.456
 1216  WAT   H1 5248   3.243   4.431   3.421
 1216  WAT   H2 5249   3.311   4.391   3.550
 1216  WAT  EPW 5250   3.313   4.401   3.463
 1217  WAT    O 5251   2.717   4.070   2.089
 1217  WAT   H1 5252   2.635   4.098   2.129
 1217  WAT   H2 5253   2.785   4.108   2.145
 1217  WAT  EPW 5254   2.715   4.078   2.102
 1218  WAT    O 5255   2.018   4.429   2.899
 1218  WAT   H1 5256   1.980   4.416   2.986
 1218  WAT   H2 5257   1.962   4.378   2.841
 1218  WAT  EPW 5258   2.006   4.421   2.902
 1219  WAT    O 5259   2.919   4.580   2.444
 1219  WAT   H1 5260   2.973   4.630   2.505
 1219  WAT   H2 5261   2.849   4.640   2.419
 1219  WAT  EPW 5262   2.917   4.594   2.449
 1220  WAT    O 5263   1.717   4.736   2.526
 1220  WAT   H1 5264   1.756   4.729   2.439
 1220  WAT   H2 5265   1.778   4.691   2.584
 1220  WAT  EPW 5266   1.730   4.730   2.523
 1221  WAT    O 5267   3.189   4.304   2.064
 1221  WAT   H1 5268   3.185   4.366   2.137
 1221  WAT   H2 5269   3.153   4.223   2.099
 1221  WAT  EPW 5270   3.184   4.302   2.077
 1222  WAT    O 5271   2.664   4.391   2.111
 1222  WAT   H1 5272   2.597   4.323   2.114
 1222  WAT   H2 5273   2.672   4.412   2.019
 1222  WAT  EPW 5274   2.657   4.385   2.100
 1223  WAT    O 5275   2.033   3.876   3.508
 1223  WAT   H1 5276   2.018   3.904   3.418
 1223  WAT   H2 5277   2.009   3.952   3.561
 1223  WAT  EPW 5278   2.028   3.889   3.503
 1224  WAT    O 5279   2.226   4.288   3.418
 1224  WAT   H1 5280   2.215   4.260   3.328
 1224  WAT   H2 5281   2.137   4.298   3.452
 1224  WAT  EPW 5282   2.213   4.286   3.411
 1225  WAT    O 5283   2.131   4.121   2.903
 1225  WAT   H1 5284   2.072   4.047   2.888
 1225  WAT   H2 5285   2.192   4.118   2.829
 1225  WAT  EPW 5286   2.131   4.111   2.892
 1226  WAT    O 5287   2.269   4.740   2.706
 1226  WAT   H1 5288   2.265   4.644   2.702
 1226  WAT   H2 5289   2.224   4.763   2.787
 1226  WAT  EPW 5290   2.263   4.731   2.716
 1227  WAT    O 5291   3.066   4.405   3.374
 1227  WAT   H1 5292   2.997   4.341   3.391
 1227  WAT   H2 5293   3.045   4.441   3.288
 1227  WAT  EPW 5294   3.054   4.402   3.365
 1228  WAT    O 5295   1.627   4.315   2.088
 1228  WAT   H1 5296   1.694   4.375   2.122
 1228  WAT   H2 5297   1.544   4.359   2.107
 1228  WAT  EPW 5298   1.625   4.329   2.095
 1229  WAT    O 5299   1.861   4.760   2.308
 1229  WAT   H1 5300   1.929   4.732   2.370
 1229  WAT   H2 5301   1.871   4.855   2.303
 1229  WAT  EPW 5302   1.871   4.769   2.316
 1230  WAT    O 5303   2.402   4.634   1.817
 1230  WAT   H1 5304   2.364   4.603   1.735
 1230  WAT   H2 5305   2.426   4.725   1.799
 1230  WAT  EPW 5306   2.400   4.641   1.804
 1231  WAT    O 5307   2.285   3.661   1.985
 1231  WAT   H1 5308   2.309   3.573   2.015
 1231  WAT   H2 5309   2.263   3.708   2.065
 1231  WAT  EPW 5310   2.285   3.655   1.999
 1232  WAT    O 5311   2.808   3.835   2.239
 1232  WAT   H1 5312   2.779   3.907   2.183
 1232  WAT   H2 5313   2.781   3.862   2.327
 1232  WAT  EPW 5314   2.801   3.848   2.243
 1233  WAT    O 5315   3.203   4.891   2.409
 1233  WAT   H1 5316   3.112   4.892   2.381
 1233  WAT   H2 5317   3.216   4.804   2.448
 1233  WAT  EPW 5318   3.193   4.880   2.410
 1234  WAT    O 5319   1.969   4.087   1.789
 1234  WAT   H1 5320   1.876   4.063   1.792
 1234  WAT   H2 5321   1.968   4.179   1.762
 1234  WAT  EPW 5322   1.957   4.096   1.786
 1235  WAT    O 5323   2.166   4.522   2.117
 1235  WAT   H1 5324   2.248   4.571   2.114
 1235  WAT   H2 5325   2.171   4.473   2.199
 1235  WAT  EPW 5326   2.177   4.522   2.127
 1236  WAT    O 5327   2.395   4.686   2.118
 1236  WAT   H1 5328   2.343   4.756   2.156
 1236  WAT   H2 5329   2.396   4.706   2.024
 1236  WAT  EPW 5330   2.389   4.698   2.111
 1237  WAT    O 5331   3.099   4.173   1.734
 1237  WAT   H1 5332   3.147   4.137   1.659
 1237  WAT   H2 5333   3.150   4.250   1.760
 1237  WAT  EPW 5334   3.112   4.178   1.728
 1238  WAT    O 5335   1.989   4.716   3.217
 1238  WAT   H1 5336   1.985   4.748   3.127
 1238  WAT   H2 5337   1.902   4.680   3.234
 1238  WAT  EPW 5338   1.977   4.716   3.208
 1239  WAT    O 5339   2.380   4.890   3.075
 1239  WAT   H1 5340   2.301   4.931   3.038
 1239  WAT   H2 5341   2.351   4.803   3.102
 1239  WAT  EPW 5342   2.366   4.884   3.073
 1240  WAT    O 5343   2.282   4.486   2.922
 1240  WAT   H1 5344   2.315   4.406   2.963
 1240  WAT   H2 5345   2.195   4.463   2.890
 1240  WAT  EPW 5346   2.275   4.473   2.923
 1241  WAT    O 5347   1.844   4.579   3.519
 1241  WAT   H1 5348   1.924   4.630   3.508
 1241  WAT   H2 5349   1.799   4.621   3.593
 1241  WAT  EPW 5350   1.848   4.591   3.527
 1242  WAT    O 5351   2.893   4.294   2.445
 1242  WAT   H1 5352   2.943   4.274   2.366
 1242  WAT   H2 5353   2.912   4.387   2.462
 1242  WAT  EPW 5354   2.902   4.303   2.437
 1243  WAT    O 5355   2.356   4.169   1.819
 1243  WAT   H1 5356   2.308   4.087   1.806
 1243  WAT   H2 5357   2.399   4.185   1.736
 1243  WAT  EPW 5358   2.355   4.160   1.807
 1244  WAT    O 5359   1.752   4.673   1.865
 1244  WAT   H1 5360   1.829   4.640   1.913
 1244  WAT   H2 5361   1.678   4.649   1.921
 1244  WAT  EPW 5362   1.753   4.665   1.878
 1245  WAT    O 5363   1.686   4.048   2.735
 1245  WAT   H1 5364   1.766   4.013   2.695
 1245  WAT   H2 5365   1.684   4.010   2.823
 1245  WAT  EPW 5366   1.696   4.039   2.741
 1246  WAT    O 5367   2.625   4.354   2.508
 1246  WAT   H1 5368   2.585   4.430   2.466
 1246  WAT   H2 5369   2.712   4.347   2.467
 1246  WAT  EPW 5370   2.631   4.363   2.497
 1247  WAT    O 5371   3.079   4.478   2.256
 1247  WAT   H1 5372   3.147   4.519   2.310
 1247  WAT   H2 5373   2.998   4.522   2.280
 1247  WAT  EPW 5374   3.077   4.489   2.266
 1248  WAT    O 5375   1.895   4.527   2.606
 1248  WAT   H1 5376   1.990   4.525   2.604
 1248  WAT   H2 5377   1.870   4.445   2.650
 1248  WAT  EPW 5378   1.904   4.516   2.612
 1249  WAT    O 5379   2.925   3.928   2.860
 1249  WAT   H1 5380   2.879   3.972   2.788
 1249  WAT   H2 5381   2.871   3.945   2.937
 1249  WAT  EPW 5382   2.912   3.936   2.861
 1250  WAT    O 5383   3.441   4.421   2.754
 1250  WAT   H1 5384   3.402   4.373   2.828
 1250  WAT   H2 5385   3.388   4.500   2.746
 1250  WAT  EPW 5386   3.430   4.425   2.763
 1251  WAT    O 5387   2.779   4.075   2.641
 1251  WAT   H1 5388   2.841   4.120   2.584
 1251  WAT   H2 5389   2.765   3.991   2.599
 1251  WAT  EPW 5390   2.785   4.070   2.628
 1252  WAT    O 5391   2.632   4.863   2.991
 1252  WAT   H1 5392   2.672   4.945   3.021
 1252  WAT   H2 5393   2.541   4.869   3.019
 1252  WAT  EPW 5394   2.626   4.874   2.998
 1253  WAT    O 5395   2.781   3.750   1.917
 1253  WAT   H1 5396   2.705   3.775   1.864
 1253  WAT   H2 5397   2.837   3.828   1.917
 1253  WAT  EPW 5398   2.779   3.763   1.910
 1254  WAT    O 5399   2.035   4.079   2.088
 1254  WAT   H1 5400   2.026   4.052   1.997
 1254  WAT   H2 5401   1.945   4.095   2.118
 1254  WAT  EPW 5402   2.022   4.078   2.080
 1255  WAT    O 5403   3.155   4.192   2.906
 1255  WAT   H1 5404   3.128   4.126   2.971
 1255  WAT   H2 5405   3.177   4.140   2.828
 1255  WAT  EPW 5406   3.154   4.177   2.904
 1256  WAT    O 5407   2.229   4.371   2.328
 1256  WAT   H1 5408   2.248   4.296   2.272
 1256  WAT   H2 5409   2.315   4.410   2.345
 1256  WAT  EPW 5410   2.243   4.366   2.323
 1257  WAT    O 5411   2.395   3.857   3.252
 1257  WAT   H1 5412   2.487   3.864   3.277
 1257  WAT   H2 5413   2.350   3.919   3.310
 1257  WAT  EPW 5414   2.401   3.866   3.263
 1258  WAT    O 5415   2.474   4.892   1.757
 1258  WAT   H1 5416   2.559   4.888   1.802
 1258  WAT   H2 5417   2.497   4.912   1.666
 1258  WAT  EPW 5418   2.488   4.894   1.751
 1259  WAT    O 5419   2.179   4.471   2.584
 1259  WAT   H1 5420   2.205   4.429   2.501
 1259  WAT   H2 5421   2.188   4.401   2.649
 1259  WAT  EPW 5422   2.184   4.456   2.581
 1260  WAT    O 5423   2.911   4.916   2.629
 1260  WAT   H1 5424   2.920   4.941   2.537
 1260  WAT   H2 5425   2.825   4.951   2.655
 1260  WAT  EPW 5426   2.901   4.924   2.621
 1261  WAT    O 5427   3.260   3.544   3.526
 1261  WAT   H1 5428   3.206   3.493   3.586
 1261  WAT   H2 5429   3.214   3.628   3.517
 1261  WAT  EPW 5430   3.247   3.549   3.532
 1262  WAT    O 5431   3.397   4.300   3.046
 1262  WAT   H1 5432   3.307   4.267   3.037
 1262  WAT   H2 5433   3.387   4.389   3.078
 1262  WAT  EPW 5434   3.384   4.307   3.049
 1263  WAT    O 5435   2.616   4.468   1.849
 1263  WAT   H1 5436   2.689   4.530   1.848
 1263  WAT   H2 5437   2.538   4.523   1.846
 1263  WAT  EPW 5438   2.616   4.483   1.849
 1264  WAT    O 5439   2.580   4.206   2.761
 1264  WAT   H1 5440   2.535   4.131   2.799
 1264  WAT   H2 5441   2.652   4.168   2.711
 1264  WAT  EPW 5442   2.583   4.192   2.760
 1265  WAT    O 5443   2.733   4.619   2.932
 1265  WAT   H1 5444   2.706   4.701   2.972
 1265  WAT   H2 5445   2.828   4.617   2.943
 1265  WAT  EPW 5446   2.742   4.629   2.939
 1266  WAT    O 5447   2.282   3.880   2.159
 1266  WAT   H1 5448   2.267   3.974   2.152
 1266  WAT   H2 5449   2.203   3.847   2.202
 1266  WAT  EPW 5450   2.270   3.888   2.164
 1267  WAT    O 5451   2.647   3.914   3.401
 1267  WAT   H1 5452   2.600   3.974   3.460
 1267  WAT   H2 5453   2.707   3.971   3.352
 1267  WAT  EPW 5454   2.649   3.929   3.402
 1268  WAT    O 5455   2.208   3.929   1.819
 1268  WAT   H1 5456   2.116   3.907   1.835
 1268  WAT   H2 5457   2.255   3.890   1.892
 1268  WAT  EPW 5458   2.202   3.921   1.830
 1269  WAT    O 5459   1.872   4.404   3.146
 1269  WAT   H1 5460   1.804   4.467   3.168
 1269  WAT   H2 5461   1.831   4.319   3.162
 1269  WAT  EPW 5462   1.858   4.401   3.151
 1270  WAT    O 5463   1.632   4.212   3.403
 1270  WAT   H1 5464   1.572   4.285   3.417
 1270  WAT   H2 5465   1.687   4.210   3.481
 1270  WAT  EPW 5466   1.632   4.221   3.415
 1271  WAT    O 5467   1.768   4.102   2.207
 1271  WAT   H1 5468   1.808   4.160   2.272
 1271  WAT   H2 5469   1.722   4.160   2.147
 1271  WAT  EPW 5470   1.767   4.117   2.208
 1272  WAT    O 5471   2.776   4.281   2.997
 1272  WAT   H1 5472   2.760   4.312   2.908
 1272  WAT   H2 5473   2.690   4.255   3.029
 1272  WAT  EPW 5474   2.763   4.282   2.990
 1273  WAT    O 5475   2.798   3.703   3.411
 1273  WAT   H1 5476   2.798   3.674   3.320
 1273  WAT   H2 5477   2.731   3.771   3.415
 1273  WAT  EPW 5478   2.789   3.708   3.400
 1274  WAT    O 5479   1.964   3.570   1.812
 1274  WAT   H1 5480   1.964   3.644   1.872
 1274  WAT   H2 5481   2.014   3.600   1.736
 1274  WAT  EPW 5482   1.971   3.583   1.810
 1275  WAT    O 5483   2.056   4.773   1.840
 1275  WAT   H1 5484   2.064   4.768   1.745
 1275  WAT   H2 5485   2.000   4.850   1.855
 1275  WAT  EPW 5486   2.050   4.782   1.830
 1276  WAT    O 5487   2.769   4.647   3.251
 1276  WAT   H1 5488   2.687   4.632   3.204
 1276  WAT   H2 5489   2.774   4.743   3.260
 1276  WAT  EPW 5490   2.759   4.658   3.246
 1277  WAT    O 5491   3.204   4.117   3.374
 1277  WAT   H1 5492   3.275   4.054   3.383
 1277  WAT   H2 5493   3.248   4.201   3.359
 1277  WAT  EPW 5494   3.219   4.120   3.373
 1278  WAT    O 5495   1.807   4.295   2.726
 1278  WAT   H1 5496   1.729   4.346   2.749
 1278  WAT   H2 5497   1.781   4.204   2.738
 1278  WAT  EPW 5498   1.794   4.290   2.730
 1279  WAT    O 5499   2.117   4.711   2.437
 1279  WAT   H1 5500   2.108   4.789   2.491
 1279  WAT   H2 5501   2.124   4.639   2.499
 1279  WAT  EPW 5502   2.116   4.712   2.452
 1280  WAT    O 5503   2.127   4.225   3.155
 1280  WAT   H1 5504   2.118   4.213   3.060
 1280  WAT   H2 5505   2.054   4.283   3.179
 1280  WAT  EPW 5506   2.116   4.231   3.146
 1281  WAT    O 5507   2.289   4.181   2.089
 1281  WAT   H1 5508   2.327   4.175   2.001
 1281  WAT   H2 5509   2.199   4.152   2.079
 1281  WAT  EPW 5510   2.283   4.177   2.076
 1282  WAT    O 5511   2.259   4.897   1.932
 1282  WAT   H1 5512   2.186   4.848   1.895
 1282  WAT   H2 5513   2.325   4.898   1.863
 1282  WAT  EPW 5514   2.258   4.891   1.919
 1283  WAT    O 5515   2.504   3.871   2.327
 1283  WAT   H1 5516   2.419   3.857   2.286
 1283  WAT   H2 5517   2.509   3.966   2.341
 1283  WAT  EPW 5518   2.494   3.881   2.324
 1284  WAT    O 5519   1.991   3.938   3.246
 1284  WAT   H1 5520   2.070   3.941   3.193
 1284  WAT   H2 5521   1.955   4.026   3.242
 1284  WAT  EPW 5522   1.997   3.949   3.239
 1285  WAT    O 5523   2.608   4.238   1.651
 1285  WAT   H1 5524   2.606   4.303   1.721
 1285  WAT   H2 5525   2.644   4.159   1.692
 1285  WAT  EPW 5526   2.613   4.236   1.665
 1286  WAT    O 5527   3.107   3.763   3.393
 1286  WAT   H1 5528   3.113   3.728   3.304
 1286  WAT   H2 5529   3.013   3.768   3.411
 1286  WAT  EPW 5530   3.095   3.759   3.384
 1287  WAT    O 5531   2.809   3.687   3.137
 1287  WAT   H1 5532   2.783   3.609   3.087
 1287  WAT   H2 5533   2.905   3.688   3.132
 1287  WAT  EPW 5534   2.818   3.677   3.130
 1288  WAT    O 5535   3.121   4.047   2.148
 1288  WAT   H1 5536   3.099   4.022   2.238
 1288  WAT   H2 5537   3.202   4.000   2.130
 1288  WAT  EPW 5538   3.128   4.038   2.157
 1289  WAT    O 5539   2.501   3.902   2.665
 1289  WAT   H1 5540   2.416   3.859   2.656
 1289  WAT   H2 5541   2.511   3.917   2.759
 1289  WAT  EPW 5542   2.491   3.898   2.676
 1290  WAT    O 5543   2.364   3.604   3.380
 1290  WAT   H1 5544   2.309   3.635   3.452
 1290  WAT   H2 5545   2.370   3.679   3.320
 1290  WAT  EPW 5546   2.358   3.617   3.381
 1291  WAT    O 5547   2.243   4.855   2.248
 1291  WAT   H1 5548   2.180   4.810   2.304
 1291  WAT   H2 5549   2.195   4.929   2.211
 1291  WAT  EPW 5550   2.229   4.859   2.251
 1292  WAT    O 5551   3.390   4.049   1.932
 1292  WAT   H1 5552   3.308   4.001   1.927
 1292  WAT   H2 5553   3.365   4.136   1.965
 1292  WAT  EPW 5554   3.376   4.054   1.935
 1293  WAT    O 5555   3.096   4.783   3.334
 1293  WAT   H1 5556   3.032   4.729   3.381
 1293  WAT   H2 5557   3.092   4.750   3.244
 1293  WAT  EPW 5558   3.087   4.772   3.328
 1294  WAT    O 5559   1.899   3.917   2.626
 1294  WAT   H1 5560   1.889   3.871   2.543
 1294  WAT   H2 5561   1.981   3.885   2.663
 1294  WAT  EPW 5562   1.908   3.907   2.620
 1295  WAT    O 5563   3.362   4.566   3.115
 1295  WAT   H1 5564   3.273   4.588   3.143
 1295  WAT   H2 5565   3.390   4.642   3.063
 1295  WAT  EPW 5566   3.354   4.579   3.112
 1296  WAT    O 5567   3.269   4.768   2.159
 1296  WAT   H1 5568   3.271   4.780   2.254
 1296  WAT   H2 5569   3.286   4.856   2.123
 1296  WAT  EPW 5570   3.272   4.781   2.166
 1297  WAT    O 5571   2.115   3.843   2.752
 1297  WAT   H1 5572   2.160   3.785   2.813
 1297  WAT   H2 5573   2.171   3.845   2.675
 1297  WAT  EPW 5574   2.128   3.836   2.750
 1298  WAT    O 5575   1.773   4.153   3.179
 1298  WAT   H1 5576   1.717   4.189   3.111
 1298  WAT   H2 5577   1.724   4.165   3.260
 1298  WAT  EPW 5578   1.760   4.159   3.180
 1299  WAT    O 5579   3.105   4.670   3.094
 1299  WAT   H1 5580   3.044   4.597   3.099
 1299  WAT   H2 5581   3.062   4.733   3.035
 1299  WAT  EPW 5582   3.092   4.669   3.087
 1300  WAT    O 5583   2.015   4.729   2.936
 1300  WAT   H1 5584   1.969   4.763   2.860
 1300  WAT   H2 5585   2.023   4.635   2.919
 1300  WAT  EPW 5586   2.010   4.721   2.924
 1301  WAT    O 5587   1.834   4.493   2.155
 1301  WAT   H1 5588   1.930   4.496   2.157
 1301  WAT   H2 5589   1.807   4.585   2.159
 1301  WAT  EPW 5590   1.843   4.505   2.156
 1302  WAT    O 5591   2.318   4.039   3.449
 1302  WAT   H1 5592   2.242   3.999   3.491
 1302  WAT   H2 5593   2.293   4.130   3.434
 1302  WAT  EPW 5594   2.305   4.046   3.453
 1303  WAT    O 5595   1.970   3.822   1.952
 1303  WAT   H1 5596   2.001   3.829   2.042
 1303  WAT   H2 5597   1.879   3.796   1.960
 1303  WAT  EPW 5598   1.963   3.820   1.964
 1304  WAT    O 5599   2.901   4.248   2.190
 1304  WAT   H1 5600   2.963   4.293   2.132
 1304  WAT   H2 5601   2.820   4.299   2.182
 1304  WAT  EPW 5602   2.899   4.260   2.182
 1305  WAT    O 5603   1.563   4.853   1.786
 1305  WAT   H1 5604   1.626   4.801   1.836
 1305  WAT   H2 5605   1.613   4.884   1.710
 1305  WAT  EPW 5606   1.578   4.851   1.783
 1306  WAT    O 5607   2.991   4.856   2.896
 1306  WAT   H1 5608   2.973   4.848   2.802
 1306  WAT   H2 5609   3.069   4.911   2.901
 1306  WAT  EPW 5610   2.998   4.862   2.884
 1307  WAT    O 5611   2.472   4.494   2.328
 1307  WAT   H1 5612   2.524   4.434   2.274
 1307  WAT   H2 5613   2.445   4.563   2.267
 1307  WAT  EPW 5614   2.475   4.496   2.313
 1308  WAT    O 5615   3.077   3.817   3.083
 1308  WAT   H1 5616   3.048   3.900   3.123
 1308  WAT   H2 5617   3.054   3.826   2.991
 1308  WAT  EPW 5618   3.070   3.829   3.077
 1309  WAT    O 5619   3.478   3.951   2.332
 1309  WAT   H1 5620   3.536   3.999   2.273
 1309  WAT   H2 5621   3.421   4.018   2.370
 1309  WAT  EPW 5622   3.478   3.966   2.329
 1310  WAT    O 5623   2.916   4.629   3.463
 1310  WAT   H1 5624   2.835   4.632   3.412
 1310  WAT   H2 5625   2.952   4.542   3.443
 1310  WAT  EPW 5626   2.910   4.618   3.454
 1311  WAT    O 5627   2.250   3.833   2.519
 1311  WAT   H1 5628   2.232   3.892   2.445
 1311  WAT   H2 5629   2.298   3.760   2.480
 1311  WAT  EPW 5630   2.254   3.831   2.504
 1312  WAT    O 5631   1.610   4.492   2.376
 1312  WAT   H1 5632   1.670   4.517   2.306
 1312  WAT   H2 5633   1.641   4.541   2.453
 1312  WAT  EPW 5634   1.622   4.501   2.377
 1313  WAT    O 5635   1.879   4.843   2.757
 1313  WAT   H1 5636   1.904   4.912   2.696
 1313  WAT   H2 5637   1.791   4.868   2.787
 1313  WAT  EPW 5638   1.871   4.855   2.753
 1314  WAT    O 5639   3.247   4.602   2.455
 1314  WAT   H1 5640   3.333   4.567   2.428
 1314  WAT   H2 5641   3.250   4.599   2.551
 1314  WAT  EPW 5642   3.259   4.597   2.464
 1315  WAT    O 5643   2.540   4.293   3.245
 1315  WAT   H1 5644   2.465   4.260   3.197
 1315  WAT   H2 5645   2.520   4.273   3.337
 1315  WAT  EPW 5646   2.528   4.286   3.251
 1316  WAT    O 5647   2.895   4.225   3.452
 1316  WAT   H1 5648   2.817   4.221   3.507
 1316  WAT   H2 5649   2.959   4.170   3.498
 1316  WAT  EPW 5650   2.893   4.217   3.465
 1317  WAT    O 5651   3.062   4.669   1.976
 1317  WAT   H1 5652   3.102   4.703   2.057
 1317  WAT   H2 5653   3.111   4.711   1.906
 1317  WAT  EPW 5654   3.073   4.678   1.978
 1318  WAT    O 5655   3.035   4.077   3.173
 1318  WAT   H1 5656   3.104   4.097   3.236
 1318  WAT   H2 5657   2.971   4.148   3.184
 1318  WAT  EPW 5658   3.036   4.089   3.182
 1319  WAT    O 5659   2.293   3.771   1.119
 1319  WAT   H1 5660   2.315   3.769   1.211
 1319  WAT   H2 5661   2.230   3.700   1.107
 1319  WAT  EPW 5662   2.287   3.762   1.129
 1320  WAT    O 5663   2.509   4.934   0.461
 1320  WAT   H1 5664   2.492   4.950   0.554
 1320  WAT   H2 5665   2.432   4.886   0.430
 1320  WAT  EPW 5666   2.497   4.930   0.469
 1321  WAT    O 5667   2.084   3.600   1.069
 1321  WAT   H1 5668   2.028   3.645   1.133
 1321  WAT   H2 5669   2.070   3.507   1.086
 1321  WAT  EPW 5670   2.075   3.594   1.079
 1322  WAT    O 5671   2.506   3.945   1.054
 1322  WAT   H1 5672   2.445   3.881   1.092
 1322  WAT   H2 5673   2.584   3.938   1.108
 1322  WAT  EPW 5674   2.508   3.936   1.066
 1323  WAT    O 5675   2.748   3.928   1.181
 1323  WAT   H1 5676   2.766   3.839   1.214
 1323  WAT   H2 5677   2.780   3.986   1.250
 1323  WAT  EPW 5678   2.754   3.924   1.194
 1324  WAT    O 5679   2.717   4.727   0.406
 1324  WAT   H1 5680   2.674   4.666   0.345
 1324  WAT   H2 5681   2.650   4.794   0.424
 1324  WAT  EPW 5682   2.703   4.728   0.400
 1325  WAT    O 5683   3.292   3.790   0.331
 1325  WAT   H1 5684   3.299   3.696   0.319
 1325  WAT   H2 5685   3.379   3.817   0.361
 1325  WAT  EPW 5686   3.304   3.782   0.333
 1326  WAT    O 5687   3.404   4.219   0.515
 1326  WAT   H1 5688   3.326   4.230   0.570
 1326  WAT   H2 5689   3.438   4.308   0.504
 1326  WAT  EPW 5690   3.398   4.232   0.521
 1327  WAT    O 5691   2.537   4.551   1.258
 1327  WAT   H1 5692   2.524   4.465   1.297
 1327  WAT   H2 5693   2.581   4.534   1.175
 1327  WAT  EPW 5694   2.541   4.538   1.253
 1328  WAT    O 5695   1.649   3.984   1.114
 1328  WAT   H1 5696   1.677   4.041   1.186
 1328  WAT   H2 5697   1.589   3.922   1.155
 1328  WAT  EPW 5698   1.645   3.983   1.129
 1329  WAT    O 5699   1.737   4.618   1.373
 1329  WAT   H1 5700   1.644   4.596   1.359
 1329  WAT   H2 5701   1.745   4.628   1.468
 1329  WAT  EPW 5702   1.726   4.616   1.384
 1330  WAT    O 5703   2.107   4.045   0.471
 1330  WAT   H1 5704   2.066   4.045   0.384
 1330  WAT   H2 5705   2.058   4.111   0.520
 1330  WAT  EPW 5706   2.095   4.053   0.466
 1331  WAT    O 5707   1.919   3.684   1.273
 1331  WAT   H1 5708   1.939   3.774   1.299
 1331  WAT   H2 5709   1.883   3.644   1.352
 1331  WAT  EPW 5710   1.917   3.691   1.286
 1332  WAT    O 5711   2.049   3.763   0.343
 1332  WAT   H1 5712   1.974   3.762   0.401
 1332  WAT   H2 5713   2.103   3.689   0.371
 1332  WAT  EPW 5714   2.047   3.754   0.354
 1333  WAT    O 5715   2.753   4.133   1.373
 1333  WAT   H1 5716   2.812   4.164   1.442
 1333  WAT   H2 5717   2.681   4.196   1.373
 1333  WAT  EPW 5718   2.752   4.145   1.382
 1334  WAT    O 5719   2.515   4.183   0.326
 1334  WAT   H1 5720   2.433   4.181   0.278
 1334  WAT   H2 5721   2.490   4.165   0.417
 1334  WAT  EPW 5722   2.502   4.181   0.331
 1335  WAT    O 5723   1.706   3.984   1.678
 1335  WAT   H1 5724   1.686   3.993   1.585
 1335  WAT   H2 5725   1.626   4.015   1.722
 1335  WAT  EPW 5726   1.693   3.989   1.672
 1336  WAT    O 5727   2.313   4.241   0.821
 1336  WAT   H1 5728   2.401   4.270   0.844
 1336  WAT   H2 5729   2.322   4.207   0.731
 1336  WAT  EPW 5730   2.325   4.240   0.812
 1337  WAT    O 5731   1.702   4.887   1.554
 1337  WAT   H1 5732   1.626   4.944   1.542
 1337  WAT   H2 5733   1.723   4.856   1.466
 1337  WAT  EPW 5734   1.695   4.890   1.541
 1338  WAT    O 5735   2.743   3.823   0.639
 1338  WAT   H1 5736   2.647   3.816   0.646
 1338  WAT   H2 5737   2.775   3.750   0.692
 1338  WAT  EPW 5738   2.735   3.813   0.647
 1339  WAT    O 5739   3.256   4.623   0.851
 1339  WAT   H1 5740   3.300   4.674   0.919
 1339  WAT   H2 5741   3.188   4.574   0.898
 1339  WAT  EPW 5742   3.253   4.624   0.866
 1340  WAT    O 5743   3.377   4.800   1.074
 1340  WAT   H1 5744   3.306   4.861   1.054
 1340  WAT   H2 5745   3.449   4.857   1.104
 1340  WAT  EPW 5746   3.377   4.815   1.075
 1341  WAT    O 5747   2.308   4.576   1.558
 1341  WAT   H1 5748   2.292   4.481   1.554
 1341  WAT   H2 5749   2.299   4.605   1.467
 1341  WAT  EPW 5750   2.304   4.567   1.545
 1342  WAT    O 5751   3.255   4.040   0.758
 1342  WAT   H1 5752   3.346   4.041   0.787
 1342  WAT   H2 5753   3.255   3.981   0.682
 1342  WAT  EPW 5754   3.266   4.033   0.752
 1343  WAT    O 5755   3.039   4.474   0.943
 1343  WAT   H1 5756   2.952   4.448   0.914
 1343  WAT   H2 5757   3.074   4.395   0.986
 1343  WAT  EPW 5758   3.033   4.460   0.945
 1344  WAT    O 5759   1.730   3.664   0.814
 1344  WAT   H1 5760   1.814   3.710   0.802
 1344  WAT   H2 5761   1.672   3.704   0.750
 1344  WAT  EPW 5762   1.734   3.675   0.805
 1345  WAT    O 5763   1.840   3.577   1.516
 1345  WAT   H1 5764   1.757   3.535   1.536
 1345  WAT   H2 5765   1.837   3.660   1.564
 1345  WAT  EPW 5766   1.829   3.583   1.524
 1346  WAT    O 5767   2.474   4.124   0.589
 1346  WAT   H1 5768   2.482   4.045   0.644
 1346  WAT   H2 5769   2.518   4.192   0.639
 1346  WAT  EPW 5770   2.480   4.122   0.603
 1347  WAT    O 5771   3.340   3.885   1.523
 1347  WAT   H1 5772   3.250   3.853   1.523
 1347  WAT   H2 5773   3.372   3.868   1.435
 1347  WAT  EPW 5774   3.333   3.879   1.512
 1348  WAT    O 5775   3.758   4.264   0.549
 1348  WAT   H1 5776   3.759   4.233   0.639
 1348  WAT   H2 5777   3.753   4.359   0.556
 1348  WAT  EPW 5778   3.757   4.272   0.561
 1349  WAT    O 5779   2.371   4.223   1.149
 1349  WAT   H1 5780   2.286   4.191   1.181
 1349  WAT   H2 5781   2.418   4.143   1.123
 1349  WAT  EPW 5782   2.366   4.208   1.150
 1350  WAT    O 5783   2.064   4.741   1.582
 1350  WAT   H1 5784   2.145   4.692   1.568
 1350  WAT   H2 5785   2.037   4.769   1.495
 1350  WAT  EPW 5786   2.070   4.738   1.569
 1351  WAT    O 5787   3.344   3.809   1.267
 1351  WAT   H1 5788   3.257   3.793   1.229
 1351  WAT   H2 5789   3.402   3.750   1.219
 1351  WAT  EPW 5790   3.340   3.800   1.256
 1352  WAT    O 5791   2.290   4.645   1.285
 1352  WAT   H1 5792   2.378   4.608   1.280
 1352  WAT   H2 5793   2.236   4.587   1.232
 1352  WAT  EPW 5794   2.294   4.633   1.278
 1353  WAT    O 5795   3.127   3.926   0.496
 1353  WAT   H1 5796   3.196   3.887   0.443
 1353  WAT   H2 5797   3.066   3.854   0.511
 1353  WAT  EPW 5798   3.128   3.912   0.491
 1354  WAT    O 5799   2.934   4.471   1.250
 1354  WAT   H1 5800   2.878   4.431   1.183
 1354  WAT   H2 5801   2.877   4.532   1.296
 1354  WAT  EPW 5802   2.920   4.474   1.247
 1355  WAT    O 5803   3.326   4.397   1.570
 1355  WAT   H1 5804   3.243   4.431   1.535
 1355  WAT   H2 5805   3.311   4.391   1.664
 1355  WAT  EPW 5806   3.313   4.401   1.577
 1356  WAT    O 5807   2.717   4.070   0.203
 1356  WAT   H1 5808   2.635   4.098   0.243
 1356  WAT   H2 5809   2.785   4.108   0.259
 1356  WAT  EPW 5810   2.715   4.078   0.216
 1357  WAT    O 5811   2.018   4.429   1.013
 1357  WAT   H1 5812   1.980   4.416   1.100
 1357  WAT   H2 5813   1.962   4.378   0.955
 1357  WAT  EPW 5814   2.006   4.421   1.016
 1358  WAT    O 5815   2.919   4.580   0.558
 1358  WAT   H1 5816   2.973   4.630   0.619
 1358  WAT   H2 5817   2.849   4.640   0.533
 1358  WAT  EPW 5818   2.917   4.594   0.563
 1359  WAT    O 5819   1.717   4.736   0.640
 1359  WAT   H1 5820   1.756   4.729   0.553
 1359  WAT   H2 5821   1.778   4.691   0.698
 1359  WAT  EPW 5822   1.730   4.730   0.637
 1360  WAT    O 5823   3.189   4.304   0.178
 1360  WAT   H1 5824   3.185   4.366   0.251
 1360  WAT   H2 5825   3.153   4.223   0.213
 1360  WAT  EPW 5826   3.184   4.302   0.191
 1361  WAT    O 5827   2.033   3.876   1.622
 1361  WAT   H1 5828   2.018   3.904   1.532
 1361  WAT   H2 5829   2.009   3.952   1.675
 1361  WAT  EPW 5830   2.028   3.889   1.617
 1362  WAT    O 5831   2.226   4.288   1.532
 1362  WAT   H1 5832   2.215   4.260   1.442
 1362  WAT   H2 5833   2.137   4.298   1.566
 1362  WAT  EPW 5834   2.213   4.286   1.525
 1363  WAT    O 5835   2.131   4.121   1.017
 1363  WAT   H1 5836   2.072   4.047   1.002
 1363  WAT   H2 5837   2.192   4.118   0.943
 1363  WAT  EPW 5838   2.131   4.111   1.006
 1364  WAT    O 5839   2.269   4.740   0.820
 1364  WAT   H1 5840   2.265   4.644   0.816
 1364  WAT   H2 5841   2.224   4.763   0.901
 1364  WAT  EPW 5842   2.263   4.731   0.830
 1365  WAT    O 5843   3.066   4.405   1.488
 1365  WAT   H1 5844   2.997   4.341   1.505
 1365  WAT   H2 5845   3.045   4.441   1.402
 1365  WAT  EPW 5846   3.054   4.402   1.479
 1366  WAT    O 5847   1.627   4.315   0.202
 1366  WAT   H1 5848   1.694   4.375   0.236
 1366  WAT   H2 5849   1.544   4.359   0.221
 1366  WAT  EPW 5850   1.625   4.329   0.209
 1367  WAT    O 5851   1.861   4.760   0.422
 1367  WAT   H1 5852   1.929   4.732   0.484
 1367  WAT   H2 5853   1.871   4.855   0.417
 1367  WAT  EPW 5854   1.871   4.769   0.430
 1368  WAT    O 5855   1.828   3.779   0.499
 1368  WAT   H1 5856   1.804   3.697   0.455
 1368  WAT   H2 5857   1.752   3.836   0.486
 1368  WAT  EPW 5858   1.815   3.776   0.492
 1369  WAT    O 5859   2.808   3.835   0.353
 1369  WAT   H1 5860   2.779   3.907   0.297
 1369  WAT   H2 5861   2.781   3.862   0.441
 1369  WAT  EPW 5862   2.801   3.848   0.357
 1370  WAT    O 5863   3.203   4.891   0.523
 1370  WAT   H1 5864   3.112   4.892   0.495
 1370  WAT   H2 5865   3.216   4.804   0.562
 1370  WAT  EPW 5866   3.193   4.880   0.524
 1371  WAT    O 5867   2.166   4.522   0.231
 1371  WAT   H1 5868   2.248   4.571   0.228
 1371  WAT   H2 5869   2.171   4.473   0.313
 1371  WAT  EPW 5870   2.177   4.522   0.241
 1372  WAT    O 5871   1.989   4.716   1.331
 1372  WAT   H1 5872   1.985   4.748   1.241
 1372  WAT   H2 5873   1.902   4.680   1.348
 1372  WAT  EPW 5874   1.977   4.716   1.322
 1373  WAT    O 5875   2.380   4.890   1.189
 1373  WAT   H1 5876   2.301   4.931   1.152
 1373  WAT   H2 5877   2.351   4.803   1.216
 1373  WAT  EPW 5878   2.366   4.884   1.187
 1374  WAT    O 5879   3.285   3.281   0.788
 1374  WAT   H1 5880   3.299   3.321   0.873
 1374  WAT   H2 5881   3.190   3.288   0.774
 1374  WAT  EPW 5882   3.274   3.287   0.797
 1375  WAT    O 5883   2.282   4.486   1.036
 1375  WAT   H1 5884   2.315   4.406   1.077
 1375  WAT   H2 5885   2.195   4.463   1.004
 1375  WAT  EPW 5886   2.275   4.473   1.037
 1376  WAT    O 5887   1.844   4.579   1.633
 1376  WAT   H1 5888   1.924   4.630   1.622
 1376  WAT   H2 5889   1.799   4.621   1.707
 1376  WAT  EPW 5890   1.848   4.591   1.641
 1377  WAT    O 5891   2.893   4.294   0.559
 1377  WAT   H1 5892   2.943   4.274   0.480
 1377  WAT   H2 5893   2.912   4.387   0.576
 1377  WAT  EPW 5894   2.902   4.303   0.551
 1378  WAT    O 5895   1.686   4.048   0.849
 1378  WAT   H1 5896   1.766   4.013   0.809
 1378  WAT   H2 5897   1.684   4.010   0.937
 1378  WAT  EPW 5898   1.696   4.039   0.855
 1379  WAT    O 5899   2.625   4.354   0.622
 1379  WAT   H1 5900   2.585   4.430   0.580
 1379  WAT   H2 5901   2.712   4.347   0.581
 1379  WAT  EPW 5902   2.631   4.363   0.611
 1380  WAT    O 5903   3.079   4.478   0.370
 1380  WAT   H1 5904   3.147   4.519   0.424
 1380  WAT   H2 5905   2.998   4.522   0.394
 1380  WAT  EPW 5906   3.077   4.489   0.380
 1381  WAT    O 5907   1.895   4.527   0.720
 1381  WAT   H1 5908   1.990   4.525   0.718
 1381  WAT   H2 5909   1.870   4.445   0.764
 1381  WAT  EPW 5910   1.904   4.516   0.726
 1382  WAT    O 5911   2.925   3.928   0.974
 1382  WAT   H1 5912   2.879   3.972   0.902
 1382  WAT   H2 5913   2.871   3.945   1.051
 1382  WAT  EPW 5914   2.912   3.936   0.975
 1383  WAT    O 5915   3.441   4.421   0.868
 1383  WAT   H1 5916   3.402   4.373   0.942
 1383  WAT   H2 5917   3.388   4.500   0.860
 1383  WAT  EPW 5918   3.430   4.425   0.877
 1384  WAT    O 5919   2.779   4.075   0.755
 1384  WAT   H1 5920   2.841   4.120   0.698
 1384  WAT   H2 5921   2.765   3.991   0.713
 1384  WAT  EPW 5922   2.785   4.070   0.742
 1385  WAT    O 5923   2.632   4.863   1.105
 1385  WAT   H1 5924   2.672   4.945   1.135
 1385  WAT   H2 5925   2.541   4.869   1.133
 1385  WAT  EPW 5926   2.626   4.874   1.112
 1386  WAT    O 5927   2.993   3.668   0.482
 1386  WAT   H1 5928   2.927   3.709   0.426
 1386  WAT   H2 5929   3.063   3.642   0.422
 1386  WAT  EPW 5930   2.994   3.670   0.467
 1387  WAT    O 5931   3.155   4.192   1.020
 1387  WAT   H1 5932   3.128   4.126   1.085
 1387  WAT   H2 5933   3.177   4.140   0.942
 1387  WAT  EPW 5934   3.154   4.177   1.018
 1388  WAT    O 5935   2.229   4.371   0.442
 1388  WAT   H1 5936   2.248   4.296   0.386
 1388  WAT   H2 5937   2.315   4.410   0.459
 1388  WAT  EPW 5938   2.243   4.366   0.437
 1389  WAT    O 5939   2.395   3.857   1.366
 1389  WAT   H1 5940   2.487   3.864   1.391
 1389  WAT   H2 5941   2.350   3.919   1.424
 1389  WAT  EPW 5942   2.401   3.866   1.377
 1390  WAT    O 5943   2.094   3.558   0.658
 1390  WAT   H1 5944   2.111   3.650   0.678
 1390  WAT   H2 5945   2.151   3.509   0.718
 1390  WAT  EPW 5946   2.103   3.563   0.668
 1391  WAT    O 5947   2.179   4.471   0.698
 1391  WAT   H1 5948   2.205   4.429   0.615
 1391  WAT   H2 5949   2.188   4.401   0.763
 1391  WAT  EPW 5950   2.184   4.456   0.695
 1392  WAT    O 5951   2.911   4.916   0.743
 1392  WAT   H1 5952   2.920   4.941   0.651
 1392  WAT   H2 5953   2.825   4.951   0.769
 1392  WAT  EPW 5954   2.901   4.924   0.735
 1393  WAT    O 5955   3.260   3.544   1.640
 1393  WAT   H1 5956   3.206   3.493   1.700
 1393  WAT   H2 5957   3.214   3.628   1.631
 1393  WAT  EPW 5958   3.247   3.549   1.646
 1394  WAT    O 5959   3.397   4.300   1.160
 1394  WAT   H1 5960   3.307   4.267   1.151
 1394  WAT   H2 5961   3.387   4.389   1.192
 1394  WAT  EPW 5962   3.384   4.307   1.163
 1395  WAT    O 5963   2.580   4.206   0.875
 1395  WAT   H1 5964   2.535   4.131   0.913
 1395  WAT   H2 5965   2.652   4.168   0.825
 1395  WAT  EPW 5966   2.583   4.192   0.874
 1396  WAT    O 5967   2.733   4.619   1.046
 1396  WAT   H1 5968   2.706   4.701   1.086
 1396  WAT   H2 5969   2.828   4.617   1.057
 1396  WAT  EPW 5970   2.742   4.629   1.053
 1397  WAT    O 5971   2.282   3.880   0.273
 1397  WAT   H1 5972   2.267   3.974   0.266
 1397  WAT   H2 5973   2.203   3.847   0.316
 1397  WAT  EPW 5974   2.270   3.888   0.278
 1398  WAT    O 5975   2.647   3.914   1.515
 1398  WAT   H1 5976   2.600   3.974   1.574
 1398  WAT   H2 5977   2.707   3.971   1.466
 1398  WAT  EPW 5978   2.649   3.929   1.516
 1399  WAT    O 5979   1.872   4.404   1.260
 1399  WAT   H1 5980   1.804   4.467   1.282
 1399  WAT   H2 5981   1.831   4.319   1.276
 1399  WAT  EPW 5982   1.858   4.401   1.265
 1400  WAT    O 5983   1.687   3.694   1.118
 1400  WAT   H1 5984   1.773   3.691   1.160
 1400  WAT   H2 5985   1.705   3.709   1.025
 1400  WAT  EPW 5986   1.700   3.696   1.112
 1401  WAT    O 5987   2.778   4.448   0.855
 1401  WAT   H1 5988   2.751   4.512   0.921
 1401  WAT   H2 5989   2.698   4.430   0.805
 1401  WAT  EPW 5990   2.765   4.454   0.857
 1402  WAT    O 5991   1.632   4.212   1.517
 1402  WAT   H1 5992   1.572   4.285   1.531
 1402  WAT   H2 5993   1.687   4.210   1.595
 1402  WAT  EPW 5994   1.632   4.221   1.529
 1403  WAT    O 5995   1.768   4.102   0.321
 1403  WAT   H1 5996   1.808   4.160   0.386
 1403  WAT   H2 5997   1.722   4.160   0.261
 1403  WAT  EPW 5998   1.767   4.117   0.322
 1404  WAT    O 5999   2.776   4.281   1.111
 1404  WAT   H1 6000   2.760   4.312   1.022
 1404  WAT   H2 6001   2.690   4.255   1.143
 1404  WAT  EPW 6002   2.763   4.282   1.104
 1405  WAT    O 6003   2.798   3.703   1.525
 1405  WAT   H1 6004   2.798   3.674   1.434
 1405  WAT   H2 6005   2.731   3.771   1.529
 1405  WAT  EPW 6006   2.789   3.708   1.514
 1406  WAT    O 6007   2.769   4.647   1.365
 1406  WAT   H1 6008   2.687   4.632   1.318
 1406  WAT   H2 6009   2.774   4.743   1.374
 1406  WAT  EPW 6010   2.759   4.658   1.360
 1407  WAT    O 6011   3.204   4.117   1.488
 1407  WAT   H1 6012   3.275   4.054   1.497
 1407  WAT   H2 6013   3.248   4.201   1.473
 1407  WAT  EPW 6014   3.219   4.120   1.487
 1408  WAT    O 6015   1.807   4.295   0.840
 1408  WAT   H1 6016   1.729   4.346   0.863
 1408  WAT   H2 6017   1.781   4.204   0.852
 1408  WAT  EPW 6018   1.794   4.290   0.844
 1409  WAT    O 6019   2.117   4.711   0.551
 1409  WAT   H1 6020   2.108   4.789   0.605
 1409  WAT   H2 6021   2.124   4.639   0.613
 1409  WAT  EPW 6022   2.116   4.712   0.566
 1410  WAT    O 6023   2.127   4.225   1.269
 1410  WAT   H1 6024   2.118   4.213   1.174
 1410  WAT   H2 6025   2.054   4.283   1.293
 1410  WAT  EPW 6026   2.116   4.231   1.260
 1411  WAT    O 6027   2.235   3.577   0.414
 1411  WAT   H1 6028   2.195   3.544   0.494
 1411  WAT   H2 6029   2.246   3.499   0.359
 1411  WAT  EPW 6030   2.231   3.563   0.417
 1412  WAT    O 6031   2.504   3.871   0.441
 1412  WAT   H1 6032   2.419   3.857   0.400
 1412  WAT   H2 6033   2.509   3.966   0.455
 1412  WAT  EPW 6034   2.494   3.881   0.438
 1413  WAT    O 6035   1.991   3.938   1.360
 1413  WAT   H1 6036   2.070   3.941   1.307
 1413  WAT   H2 6037   1.955   4.026   1.356
 1413  WAT  EPW 6038   1.997   3.949   1.353
 1414  WAT    O 6039   3.107   3.763   1.507
 1414  WAT   H1 6040   3.113   3.728   1.418
 1414  WAT   H2 6041   3.013   3.768   1.525
 1414  WAT  EPW 6042   3.095   3.759   1.498
 1415  WAT    O 6043   2.576   3.688   0.250
 1415  WAT   H1 6044   2.553   3.767   0.300
 1415  WAT   H2 6045   2.666   3.704   0.221
 1415  WAT  EPW 6046   2.584   3.700   0.253
 1416  WAT    O 6047   3.118   3.660   0.737
 1416  WAT   H1 6048   3.205   3.621   0.743
 1416  WAT   H2 6049   3.108   3.683   0.645
 1416  WAT  EPW 6050   3.128   3.658   0.726
 1417  WAT    O 6051   2.809   3.687   1.251
 1417  WAT   H1 6052   2.783   3.609   1.201
 1417  WAT   H2 6053   2.905   3.688   1.246
 1417  WAT  EPW 6054   2.818   3.677   1.244
 1418  WAT    O 6055   3.121   4.047   0.262
 1418  WAT   H1 6056   3.099   4.022   0.352
 1418  WAT   H2 6057   3.202   4.000   0.244
 1418  WAT  EPW 6058   3.128   4.038   0.271
 1419  WAT    O 6059   2.501   3.902   0.779
 1419  WAT   H1 6060   2.416   3.859   0.770
 1419  WAT   H2 6061   2.511   3.917   0.873
 1419  WAT  EPW 6062   2.491   3.898   0.790
 1420  WAT    O 6063   2.364   3.604   1.494
 1420  WAT   H1 6064   2.309   3.635   1.566
 1420  WAT   H2 6065   2.370   3.679   1.434
 1420  WAT  EPW 6066   2.358   3.617   1.495
 1421  WAT    O 6067   2.243   4.855   0.362
 1421  WAT   H1 6068   2.180   4.810   0.418
 1421  WAT   H2 6069   2.195   4.929   0.325
 1421  WAT  EPW 6070   2.229   4.859   0.365
 1422  WAT    O 6071   3.096   4.783   1.448
 1422  WAT   H1 6072   3.032   4.729   1.495
 1422  WAT   H2 6073   3.092   4.750   1.358
 1422  WAT  EPW 6074   3.087   4.772   1.442
 1423  WAT    O 6075   1.899   3.917   0.740
 1423  WAT   H1 6076   1.889   3.871   0.657
 1423  WAT   H2 6077   1.981   3.885   0.777
 1423  WAT  EPW 6078   1.908   3.907   0.734
 1424  WAT    O 6079   3.362   4.566   1.229
 1424  WAT   H1 6080   3.273   4.588   1.257
 1424  WAT   H2 6081   3.390   4.642   1.177
 1424  WAT  EPW 6082   3.354   4.579   1.226
 1425  WAT    O 6083   3.269   4.768   0.273
 1425  WAT   H1 6084   3.271   4.780   0.368
 1425  WAT   H2 6085   3.286   4.856   0.237
 1425  WAT  EPW 6086   3.272   4.781   0.280
 1426  WAT    O 6087   2.115   3.843   0.866
 1426  WAT   H1 6088   2.160   3.785   0.927
 1426  WAT   H2 6089   2.171   3.845   0.789
 1426  WAT  EPW 6090   2.128   3.836   0.864
 1427  WAT    O 6091   1.773   4.153   1.293
 1427  WAT   H1 6092   1.717   4.189   1.225
 1427  WAT   H2 6093   1.724   4.165   1.374
 1427  WAT  EPW 6094   1.760   4.159   1.294
 1428  WAT    O 6095   3.105   4.670   1.208
 1428  WAT   H1 6096   3.044   4.597   1.213
 1428  WAT   H2 6097   3.062   4.733   1.149
 1428  WAT  EPW 6098   3.092   4.669   1.201
 1429  WAT    O 6099   2.015   4.729   1.050
 1429  WAT   H1 6100   1.969   4.763   0.974
 1429  WAT   H2 6101   2.023   4.635   1.033
 1429  WAT  EPW 6102   2.010   4.721   1.038
 1430  WAT    O 6103   1.834   4.493   0.269
 1430  WAT   H1 6104   1.930   4.496   0.271
 1430  WAT   H2 6105   1.807   4.585   0.273
 1430  WAT  EPW 6106   1.843   4.505   0.270
 1431  WAT    O 6107   2.318   4.039   1.563
 1431  WAT   H1 6108   2.242   3.999   1.605
 1431  WAT   H2 6109   2.293   4.130   1.548
 1431  WAT  EPW 6110   2.305   4.046   1.567
 1432  WAT    O 6111   2.901   4.248   0.304
 1432  WAT   H1 6112   2.963   4.293   0.246
 1432  WAT   H2 6113   2.820   4.299   0.296
 1432  WAT  EPW 6114   2.899   4.260   0.296
 1433  WAT    O 6115   2.991   4.856   1.010
 1433  WAT   H1 6116   2.973   4.848   0.916
 1433  WAT   H2 6117   3.069   4.911   1.015
 1433  WAT  EPW 6118   2.998   4.862   0.998
 1434  WAT    O 6119   2.472   4.494   0.442
 1434  WAT   H1 6120   2.524   4.434   0.388
 1434  WAT   H2 6121   2.445   4.563   0.381
 1434  WAT  EPW 6122   2.475   4.496   0.427
 1435  WAT    O 6123   3.077   3.817   1.197
 1435  WAT   H1 6124   3.048   3.900   1.237
 1435  WAT   H2 6125   3.054   3.826   1.105
 1435  WAT  EPW 6126   3.070   3.829   1.191
 1436  WAT    O 6127   3.478   3.951   0.446
 1436  WAT   H1 6128   3.536   3.999   0.387
 1436  WAT   H2 6129   3.421   4.018   0.484
 1436  WAT  EPW 6130   3.478   3.966   0.443
 1437  WAT    O 6131   2.916   4.629   1.577
 1437  WAT   H1 6132   2.835   4.632   1.526
 1437  WAT   H2 6133   2.952   4.542   1.557
 1437  WAT  EPW 6134   2.910   4.618   1.568
 1438  WAT    O 6135   2.250   3.833   0.633
 1438  WAT   H1 6136   2.232   3.892   0.559
 1438  WAT   H2 6137   2.298   3.760   0.594
 1438  WAT  EPW 6138   2.254   3.831   0.618
 1439  WAT    O 6139   1.610   4.492   0.490
 1439  WAT   H1 6140   1.670   4.517   0.420
 1439  WAT   H2 6141   1.641   4.541   0.567
 1439  WAT  EPW 6142   1.622   4.501   0.491
 1440  WAT    O 6143   1.879   4.843   0.871
 1440  WAT   H1 6144   1.904   4.912   0.810
 1440  WAT   H2 6145   1.791   4.868   0.901
 1440  WAT  EPW 6146   1.871   4.855   0.867
 1441  WAT    O 6147   3.247   4.602   0.569
 1441  WAT   H1 6148   3.333   4.567   0.542
 1441  WAT   H2 6149   3.250   4.599   0.665
 1441  WAT  EPW 6150   3.259   4.597   0.578
 1442  WAT    O 6151   2.540   4.293   1.359
 1442  WAT   H1 6152   2.465   4.260   1.311
 1442  WAT   H2 6153   2.520   4.273   1.451
 1442  WAT  EPW 6154   2.528   4.286   1.365
 1443  WAT    O 6155   2.895   4.225   1.566
 1443  WAT   H1 6156   2.817   4.221   1.621
 1443  WAT   H2 6157   2.959   4.170   1.612
 1443  WAT  EPW 6158   2.893   4.217   1.579
 1444  WAT    O 6159   3.455   3.604   0.520
 1444  WAT   H1 6160   3.395   3.569   0.586
 1444  WAT   H2 6161   3.527   3.541   0.516
 1444  WAT  EPW 6162   3.457   3.592   0.528
 1445  WAT    O 6163   3.035   4.077   1.287
 1445  WAT   H1 6164   3.104   4.097   1.350
 1445  WAT   H2 6165   2.971   4.148   1.298
 1445  WAT  EPW 6166   3.036   4.089   1.296
 1446  WAT    O 6167   2.293   1.885   4.891
 1446  WAT   H1 6168   2.315   1.882   4.983
 1446  WAT   H2 6169   2.230   1.813   4.879
 1446  WAT  EPW 6170   2.287   1.875   4.901
 1447  WAT    O 6171   2.032   3.303   4.917
 1447  WAT   H1 6172   1.937   3.296   4.913
 1447  WAT   H2 6173   2.051   3.334   5.005
 1447  WAT  EPW 6174   2.023   3.306   4.927
 1448  WAT    O 6175   2.509   3.048   4.233
 1448  WAT   H1 6176   2.492   3.064   4.326
 1448  WAT   H2 6177   2.432   2.999   4.202
 1448  WAT  EPW 6178   2.497   3.043   4.241
 1449  WAT    O 6179   2.084   1.713   4.841
 1449  WAT   H1 6180   2.028   1.758   4.905
 1449  WAT   H2 6181   2.070   1.620   4.858
 1449  WAT  EPW 6182   2.075   1.707   4.851
 1450  WAT    O 6183   2.166   2.537   3.766
 1450  WAT   H1 6184   2.151   2.583   3.849
 1450  WAT   H2 6185   2.237   2.476   3.785
 1450  WAT  EPW 6186   2.173   2.535   3.779
 1451  WAT    O 6187   2.506   2.058   4.826
 1451  WAT   H1 6188   2.445   1.994   4.864
 1451  WAT   H2 6189   2.584   2.051   4.880
 1451  WAT  EPW 6190   2.508   2.049   4.838
 1452  WAT    O 6191   3.182   3.153   3.585
 1452  WAT   H1 6192   3.096   3.186   3.559
 1452  WAT   H2 6193   3.173   3.058   3.584
 1452  WAT  EPW 6194   3.170   3.145   3.581
 1453  WAT    O 6195   1.855   3.163   4.262
 1453  WAT   H1 6196   1.859   3.252   4.228
 1453  WAT   H2 6197   1.775   3.161   4.315
 1453  WAT  EPW 6198   1.845   3.174   4.265
 1454  WAT    O 6199   2.326   3.342   3.931
 1454  WAT   H1 6200   2.246   3.289   3.932
 1454  WAT   H2 6201   2.360   3.332   3.842
 1454  WAT  EPW 6202   2.320   3.334   3.920
 1455  WAT    O 6203   2.748   2.041   4.953
 1455  WAT   H1 6204   2.766   1.953   4.986
 1455  WAT   H2 6205   2.780   2.099   5.022
 1455  WAT  EPW 6206   2.754   2.037   4.966
 1456  WAT    O 6207   2.717   2.840   4.178
 1456  WAT   H1 6208   2.674   2.780   4.117
 1456  WAT   H2 6209   2.650   2.907   4.196
 1456  WAT  EPW 6210   2.703   2.841   4.172
 1457  WAT    O 6211   3.404   2.333   4.287
 1457  WAT   H1 6212   3.326   2.344   4.342
 1457  WAT   H2 6213   3.438   2.421   4.276
 1457  WAT  EPW 6214   3.398   2.345   4.293
 1458  WAT    O 6215   2.513   1.946   3.702
 1458  WAT   H1 6216   2.487   1.899   3.782
 1458  WAT   H2 6217   2.515   1.878   3.634
 1458  WAT  EPW 6218   2.510   1.931   3.704
 1459  WAT    O 6219   2.824   2.760   3.732
 1459  WAT   H1 6220   2.901   2.762   3.789
 1459  WAT   H2 6221   2.856   2.723   3.650
 1459  WAT  EPW 6222   2.838   2.755   3.729
 1460  WAT    O 6223   3.398   2.723   3.905
 1460  WAT   H1 6224   3.361   2.787   3.966
 1460  WAT   H2 6225   3.322   2.681   3.866
 1460  WAT  EPW 6226   3.384   2.726   3.908
 1461  WAT    O 6227   1.649   2.097   4.886
 1461  WAT   H1 6228   1.677   2.154   4.958
 1461  WAT   H2 6229   1.589   2.035   4.927
 1461  WAT  EPW 6230   1.645   2.097   4.901
 1462  WAT    O 6231   2.896   3.100   4.266
 1462  WAT   H1 6232   2.913   3.185   4.226
 1462  WAT   H2 6233   2.820   3.066   4.219
 1462  WAT  EPW 6234   2.888   3.107   4.255
 1463  WAT    O 6235   2.875   3.432   4.391
 1463  WAT   H1 6236   2.933   3.506   4.374
 1463  WAT   H2 6237   2.796   3.451   4.339
 1463  WAT  EPW 6238   2.872   3.444   4.382
 1464  WAT    O 6239   2.107   2.158   4.243
 1464  WAT   H1 6240   2.066   2.158   4.156
 1464  WAT   H2 6241   2.058   2.224   4.292
 1464  WAT  EPW 6242   2.095   2.166   4.238
 1465  WAT    O 6243   2.049   1.877   4.115
 1465  WAT   H1 6244   1.974   1.875   4.173
 1465  WAT   H2 6245   2.103   1.802   4.143
 1465  WAT  EPW 6246   2.047   1.867   4.126
 1466  WAT    O 6247   2.515   2.297   4.098
 1466  WAT   H1 6248   2.433   2.295   4.050
 1466  WAT   H2 6249   2.490   2.278   4.189
 1466  WAT  EPW 6250   2.502   2.294   4.103
 1467  WAT    O 6251   2.227   3.263   4.560
 1467  WAT   H1 6252   2.201   3.226   4.644
 1467  WAT   H2 6253   2.300   3.209   4.531
 1467  WAT  EPW 6254   2.233   3.251   4.567
 1468  WAT    O 6255   2.051   3.082   4.431
 1468  WAT   H1 6256   1.978   3.113   4.376
 1468  WAT   H2 6257   2.110   3.157   4.436
 1468  WAT  EPW 6258   2.049   3.096   4.425
 1469  WAT    O 6259   2.441   3.305   3.694
 1469  WAT   H1 6260   2.487   3.223   3.712
 1469  WAT   H2 6261   2.510   3.369   3.680
 1469  WAT  EPW 6262   2.455   3.303   3.695
 1470  WAT    O 6263   2.313   2.354   4.593
 1470  WAT   H1 6264   2.401   2.383   4.616
 1470  WAT   H2 6265   2.322   2.321   4.503
 1470  WAT  EPW 6266   2.325   2.354   4.584
 1471  WAT    O 6267   2.743   1.936   4.411
 1471  WAT   H1 6268   2.647   1.930   4.418
 1471  WAT   H2 6269   2.775   1.863   4.464
 1471  WAT  EPW 6270   2.735   1.926   4.419
 1472  WAT    O 6271   3.256   2.737   4.623
 1472  WAT   H1 6272   3.300   2.787   4.691
 1472  WAT   H2 6273   3.188   2.687   4.670
 1472  WAT  EPW 6274   3.253   2.737   4.638
 1473  WAT    O 6275   3.377   2.914   4.846
 1473  WAT   H1 6276   3.306   2.974   4.826
 1473  WAT   H2 6277   3.449   2.970   4.876
 1473  WAT  EPW 6278   3.377   2.928   4.847
 1474  WAT    O 6279   2.728   3.020   3.740
 1474  WAT   H1 6280   2.759   2.930   3.755
 1474  WAT   H2 6281   2.781   3.074   3.799
 1474  WAT  EPW 6282   2.739   3.015   3.749
 1475  WAT    O 6283   3.255   2.153   4.530
 1475  WAT   H1 6284   3.346   2.154   4.559
 1475  WAT   H2 6285   3.255   2.095   4.454
 1475  WAT  EPW 6286   3.266   2.146   4.524
 1476  WAT    O 6287   3.039   2.587   4.715
 1476  WAT   H1 6288   2.952   2.561   4.686
 1476  WAT   H2 6289   3.074   2.509   4.758
 1476  WAT  EPW 6290   3.033   2.574   4.717
 1477  WAT    O 6291   2.213   1.786   3.596
 1477  WAT   H1 6292   2.248   1.787   3.685
 1477  WAT   H2 6293   2.165   1.868   3.588
 1477  WAT  EPW 6294   2.212   1.797   3.606
 1478  WAT    O 6295   1.730   1.777   4.586
 1478  WAT   H1 6296   1.814   1.823   4.574
 1478  WAT   H2 6297   1.672   1.817   4.522
 1478  WAT  EPW 6298   1.734   1.788   4.577
 1479  WAT    O 6299   2.474   2.237   4.361
 1479  WAT   H1 6300   2.482   2.159   4.416
 1479  WAT   H2 6301   2.518   2.306   4.411
 1479  WAT  EPW 6302   2.480   2.236   4.375
 1480  WAT    O 6303   3.342   3.111   3.895
 1480  WAT   H1 6304   3.354   3.198   3.858
 1480  WAT   H2 6305   3.362   3.052   3.823
 1480  WAT  EPW 6306   3.346   3.115   3.881
 1481  WAT    O 6307   1.781   3.459   4.013
 1481  WAT   H1 6308   1.703   3.446   3.960
 1481  WAT   H2 6309   1.778   3.552   4.038
 1481  WAT  EPW 6310   1.771   3.469   4.010
 1482  WAT    O 6311   2.417   3.086   4.482
 1482  WAT   H1 6312   2.369   3.005   4.500
 1482  WAT   H2 6313   2.490   3.084   4.544
 1482  WAT  EPW 6314   2.420   3.075   4.493
 1483  WAT    O 6315   3.758   2.377   4.321
 1483  WAT   H1 6316   3.759   2.346   4.411
 1483  WAT   H2 6317   3.753   2.473   4.328
 1483  WAT  EPW 6318   3.757   2.386   4.333
 1484  WAT    O 6319   2.697   2.171   3.709
 1484  WAT   H1 6320   2.634   2.099   3.711
 1484  WAT   H2 6321   2.719   2.187   3.801
 1484  WAT  EPW 6322   2.692   2.164   3.721
 1485  WAT    O 6323   2.371   2.336   4.921
 1485  WAT   H1 6324   2.286   2.304   4.953
 1485  WAT   H2 6325   2.418   2.257   4.895
 1485  WAT  EPW 6326   2.366   2.322   4.922
 1486  WAT    O 6327   1.954   3.312   3.867
 1486  WAT   H1 6328   1.896   3.361   3.924
 1486  WAT   H2 6329   1.977   3.373   3.797
 1486  WAT  EPW 6330   1.950   3.326   3.865
 1487  WAT    O 6331   3.344   1.923   5.039
 1487  WAT   H1 6332   3.257   1.906   5.001
 1487  WAT   H2 6333   3.402   1.863   4.991
 1487  WAT  EPW 6334   3.340   1.913   5.028
 1488  WAT    O 6335   3.189   3.130   4.893
 1488  WAT   H1 6336   3.154   3.119   4.981
 1488  WAT   H2 6337   3.203   3.224   4.884
 1488  WAT  EPW 6338   3.186   3.140   4.903
 1489  WAT    O 6339   3.127   2.039   4.268
 1489  WAT   H1 6340   3.196   2.001   4.215
 1489  WAT   H2 6341   3.066   1.967   4.283
 1489  WAT  EPW 6342   3.128   2.025   4.263
 1490  WAT    O 6343   2.717   2.183   3.975
 1490  WAT   H1 6344   2.635   2.211   4.015
 1490  WAT   H2 6345   2.785   2.221   4.031
 1490  WAT  EPW 6346   2.715   2.191   3.988
 1491  WAT    O 6347   2.018   2.542   4.785
 1491  WAT   H1 6348   1.980   2.529   4.872
 1491  WAT   H2 6349   1.962   2.491   4.727
 1491  WAT  EPW 6350   2.006   2.534   4.788
 1492  WAT    O 6351   2.919   2.693   4.330
 1492  WAT   H1 6352   2.973   2.743   4.391
 1492  WAT   H2 6353   2.849   2.754   4.305
 1492  WAT  EPW 6354   2.917   2.707   4.335
 1493  WAT    O 6355   1.717   2.850   4.412
 1493  WAT   H1 6356   1.756   2.843   4.325
 1493  WAT   H2 6357   1.778   2.804   4.470
 1493  WAT  EPW 6358   1.730   2.843   4.409
 1494  WAT    O 6359   2.664   2.504   3.997
 1494  WAT   H1 6360   2.597   2.436   4.000
 1494  WAT   H2 6361   2.672   2.526   3.905
 1494  WAT  EPW 6362   2.657   2.498   3.986
 1495  WAT    O 6363   2.783   3.402   4.909
 1495  WAT   H1 6364   2.728   3.395   4.831
 1495  WAT   H2 6365   2.819   3.314   4.921
 1495  WAT  EPW 6366   2.780   3.390   4.901
 1496  WAT    O 6367   2.131   2.234   4.789
 1496  WAT   H1 6368   2.072   2.160   4.774
 1496  WAT   H2 6369   2.192   2.231   4.715
 1496  WAT  EPW 6370   2.131   2.224   4.778
 1497  WAT    O 6371   2.269   2.853   4.592
 1497  WAT   H1 6372   2.265   2.758   4.588
 1497  WAT   H2 6373   2.224   2.876   4.673
 1497  WAT  EPW 6374   2.263   2.844   4.602
 1498  WAT    O 6375   1.627   2.429   3.974
 1498  WAT   H1 6376   1.694   2.489   4.008
 1498  WAT   H2 6377   1.544   2.472   3.993
 1498  WAT  EPW 6378   1.625   2.442   3.981
 1499  WAT    O 6379   1.861   2.873   4.194
 1499  WAT   H1 6380   1.929   2.845   4.256
 1499  WAT   H2 6381   1.871   2.968   4.189
 1499  WAT  EPW 6382   1.871   2.882   4.202
 1500  WAT    O 6383   2.402   2.747   3.703
 1500  WAT   H1 6384   2.364   2.716   3.621
 1500  WAT   H2 6385   2.426   2.838   3.685
 1500  WAT  EPW 6386   2.400   2.755   3.690
 1501  WAT    O 6387   1.828   1.892   4.271
 1501  WAT   H1 6388   1.804   1.810   4.227
 1501  WAT   H2 6389   1.752   1.949   4.258
 1501  WAT  EPW 6390   1.815   1.889   4.264
 1502  WAT    O 6391   2.285   1.774   3.871
 1502  WAT   H1 6392   2.309   1.686   3.901
 1502  WAT   H2 6393   2.263   1.822   3.951
 1502  WAT  EPW 6394   2.285   1.769   3.885
 1503  WAT    O 6395   2.808   1.949   4.125
 1503  WAT   H1 6396   2.779   2.020   4.069
 1503  WAT   H2 6397   2.781   1.975   4.213
 1503  WAT  EPW 6398   2.801   1.961   4.129
 1504  WAT    O 6399   2.653   3.114   4.633
 1504  WAT   H1 6400   2.647   3.062   4.713
 1504  WAT   H2 6401   2.708   3.189   4.657
 1504  WAT  EPW 6402   2.660   3.117   4.647
 1505  WAT    O 6403   3.203   3.004   4.295
 1505  WAT   H1 6404   3.112   3.005   4.267
 1505  WAT   H2 6405   3.216   2.917   4.334
 1505  WAT  EPW 6406   3.193   2.993   4.296
 1506  WAT    O 6407   1.969   2.200   3.675
 1506  WAT   H1 6408   1.876   2.176   3.678
 1506  WAT   H2 6409   1.968   2.292   3.648
 1506  WAT  EPW 6410   1.957   2.209   3.672
 1507  WAT    O 6411   2.166   2.636   4.003
 1507  WAT   H1 6412   2.248   2.684   4.000
 1507  WAT   H2 6413   2.171   2.586   4.085
 1507  WAT  EPW 6414   2.177   2.636   4.013
 1508  WAT    O 6415   1.835   3.423   4.411
 1508  WAT   H1 6416   1.780   3.465   4.478
 1508  WAT   H2 6417   1.925   3.443   4.437
 1508  WAT  EPW 6418   1.839   3.431   4.423
 1509  WAT    O 6419   2.395   2.799   4.004
 1509  WAT   H1 6420   2.343   2.870   4.042
 1509  WAT   H2 6421   2.396   2.819   3.910
 1509  WAT  EPW 6422   2.389   2.811   3.997
 1510  WAT    O 6423   2.380   3.004   4.961
 1510  WAT   H1 6424   2.301   3.044   4.924
 1510  WAT   H2 6425   2.351   2.917   4.988
 1510  WAT  EPW 6426   2.366   2.998   4.959
 1511  WAT    O 6427   1.753   3.205   4.635
 1511  WAT   H1 6428   1.819   3.241   4.575
 1511  WAT   H2 6429   1.686   3.169   4.577
 1511  WAT  EPW 6430   1.753   3.205   4.620
 1512  WAT    O 6431   3.285   1.394   4.560
 1512  WAT   H1 6432   3.299   1.435   4.645
 1512  WAT   H2 6433   3.190   1.401   4.546
 1512  WAT  EPW 6434   3.274   1.400   4.569
 1513  WAT    O 6435   2.282   2.599   4.808
 1513  WAT   H1 6436   2.315   2.519   4.849
 1513  WAT   H2 6437   2.195   2.576   4.776
 1513  WAT  EPW 6438   2.275   2.586   4.809
 1514  WAT    O 6439   2.893   2.408   4.331
 1514  WAT   H1 6440   2.943   2.387   4.252
 1514  WAT   H2 6441   2.912   2.500   4.348
 1514  WAT  EPW 6442   2.902   2.417   4.323
 1515  WAT    O 6443   1.752   2.786   3.751
 1515  WAT   H1 6444   1.829   2.754   3.799
 1515  WAT   H2 6445   1.678   2.762   3.807
 1515  WAT  EPW 6446   1.753   2.779   3.764
 1516  WAT    O 6447   3.362   3.485   4.538
 1516  WAT   H1 6448   3.347   3.390   4.546
 1516  WAT   H2 6449   3.428   3.505   4.605
 1516  WAT  EPW 6450   3.369   3.475   4.548
 1517  WAT    O 6451   3.495   3.113   4.417
 1517  WAT   H1 6452   3.411   3.154   4.435
 1517  WAT   H2 6453   3.482   3.020   4.439
 1517  WAT  EPW 6454   3.483   3.106   4.422
 1518  WAT    O 6455   1.686   2.161   4.621
 1518  WAT   H1 6456   1.766   2.126   4.581
 1518  WAT   H2 6457   1.684   2.123   4.709
 1518  WAT  EPW 6458   1.696   2.152   4.627
 1519  WAT    O 6459   2.625   2.467   4.394
 1519  WAT   H1 6460   2.585   2.543   4.352
 1519  WAT   H2 6461   2.712   2.461   4.353
 1519  WAT  EPW 6462   2.631   2.476   4.383
 1520  WAT    O 6463   3.079   2.591   4.142
 1520  WAT   H1 6464   3.147   2.632   4.196
 1520  WAT   H2 6465   2.998   2.636   4.166
 1520  WAT  EPW 6466   3.077   2.602   4.152
 1521  WAT    O 6467   1.895   2.640   4.492
 1521  WAT   H1 6468   1.990   2.639   4.490
 1521  WAT   H2 6469   1.870   2.559   4.536
 1521  WAT  EPW 6470   1.904   2.630   4.498
 1522  WAT    O 6471   2.925   2.041   4.746
 1522  WAT   H1 6472   2.879   2.085   4.674
 1522  WAT   H2 6473   2.871   2.059   4.823
 1522  WAT  EPW 6474   2.912   2.049   4.747
 1523  WAT    O 6475   3.441   2.534   4.640
 1523  WAT   H1 6476   3.402   2.487   4.714
 1523  WAT   H2 6477   3.388   2.613   4.632
 1523  WAT  EPW 6478   3.430   2.538   4.649
 1524  WAT    O 6479   2.779   2.189   4.527
 1524  WAT   H1 6480   2.841   2.234   4.470
 1524  WAT   H2 6481   2.765   2.104   4.485
 1524  WAT  EPW 6482   2.785   2.184   4.514
 1525  WAT    O 6483   2.632   2.976   4.877
 1525  WAT   H1 6484   2.672   3.059   4.907
 1525  WAT   H2 6485   2.541   2.982   4.905
 1525  WAT  EPW 6486   2.626   2.988   4.884
 1526  WAT    O 6487   2.781   1.863   3.803
 1526  WAT   H1 6488   2.705   1.888   3.750
 1526  WAT   H2 6489   2.837   1.941   3.803
 1526  WAT  EPW 6490   2.779   1.876   3.796
 1527  WAT    O 6491   2.035   2.193   3.974
 1527  WAT   H1 6492   2.026   2.165   3.883
 1527  WAT   H2 6493   1.945   2.208   4.004
 1527  WAT  EPW 6494   2.022   2.191   3.966
 1528  WAT    O 6495   2.993   1.782   4.254
 1528  WAT   H1 6496   2.927   1.822   4.198
 1528  WAT   H2 6497   3.063   1.755   4.194
 1528  WAT  EPW 6498   2.994   1.784   4.239
 1529  WAT    O 6499   3.155   2.305   4.792
 1529  WAT   H1 6500   3.128   2.240   4.857
 1529  WAT   H2 6501   3.177   2.254   4.714
 1529  WAT  EPW 6502   3.154   2.290   4.790
 1530  WAT    O 6503   2.229   2.484   4.214
 1530  WAT   H1 6504   2.248   2.409   4.158
 1530  WAT   H2 6505   2.315   2.523   4.231
 1530  WAT  EPW 6506   2.243   2.480   4.209
 1531  WAT    O 6507   2.094   1.671   4.430
 1531  WAT   H1 6508   2.111   1.763   4.450
 1531  WAT   H2 6509   2.151   1.623   4.490
 1531  WAT  EPW 6510   2.103   1.677   4.440
 1532  WAT    O 6511   2.474   3.005   3.643
 1532  WAT   H1 6512   2.559   3.001   3.688
 1532  WAT   H2 6513   2.497   3.025   3.552
 1532  WAT  EPW 6514   2.488   3.007   3.637
 1533  WAT    O 6515   2.179   2.584   4.470
 1533  WAT   H1 6516   2.205   2.542   4.387
 1533  WAT   H2 6517   2.188   2.515   4.535
 1533  WAT  EPW 6518   2.184   2.570   4.467
 1534  WAT    O 6519   2.911   3.029   4.515
 1534  WAT   H1 6520   2.920   3.054   4.423
 1534  WAT   H2 6521   2.825   3.064   4.541
 1534  WAT  EPW 6522   2.901   3.037   4.507
 1535  WAT    O 6523   2.650   3.471   4.249
 1535  WAT   H1 6524   2.631   3.388   4.205
 1535  WAT   H2 6525   2.618   3.538   4.189
 1535  WAT  EPW 6526   2.643   3.469   4.236
 1536  WAT    O 6527   2.808   3.394   3.558
 1536  WAT   H1 6528   2.824   3.478   3.515
 1536  WAT   H2 6529   2.835   3.409   3.649
 1536  WAT  EPW 6530   2.814   3.407   3.564
 1537  WAT    O 6531   3.019   3.272   4.569
 1537  WAT   H1 6532   2.965   3.332   4.518
 1537  WAT   H2 6533   2.980   3.186   4.555
 1537  WAT  EPW 6534   3.007   3.269   4.561
 1538  WAT    O 6535   3.397   2.413   4.932
 1538  WAT   H1 6536   3.307   2.380   4.923
 1538  WAT   H2 6537   3.387   2.502   4.964
 1538  WAT  EPW 6538   3.384   2.420   4.935
 1539  WAT    O 6539   2.429   3.509   4.467
 1539  WAT   H1 6540   2.425   3.440   4.533
 1539  WAT   H2 6541   2.476   3.469   4.394
 1539  WAT  EPW 6542   2.434   3.495   4.466
 1540  WAT    O 6543   2.616   2.582   3.735
 1540  WAT   H1 6544   2.689   2.644   3.734
 1540  WAT   H2 6545   2.538   2.637   3.732
 1540  WAT  EPW 6546   2.616   2.597   3.735
 1541  WAT    O 6547   2.580   2.320   4.647
 1541  WAT   H1 6548   2.535   2.244   4.685
 1541  WAT   H2 6549   2.652   2.282   4.597
 1541  WAT  EPW 6550   2.583   2.305   4.646
 1542  WAT    O 6551   2.733   2.732   4.818
 1542  WAT   H1 6552   2.706   2.814   4.858
 1542  WAT   H2 6553   2.828   2.731   4.829
 1542  WAT  EPW 6554   2.742   2.742   4.825
 1543  WAT    O 6555   2.282   1.993   4.045
 1543  WAT   H1 6556   2.267   2.088   4.038
 1543  WAT   H2 6557   2.203   1.960   4.088
 1543  WAT  EPW 6558   2.270   2.001   4.050
 1544  WAT    O 6559   2.669   3.454   4.643
 1544  WAT   H1 6560   2.748   3.508   4.638
 1544  WAT   H2 6561   2.609   3.494   4.580
 1544  WAT  EPW 6562   2.671   3.466   4.634
 1545  WAT    O 6563   2.208   2.042   3.705
 1545  WAT   H1 6564   2.116   2.021   3.721
 1545  WAT   H2 6565   2.255   2.003   3.778
 1545  WAT  EPW 6566   2.202   2.035   3.716
 1546  WAT    O 6567   2.968   3.317   4.128
 1546  WAT   H1 6568   2.931   3.375   4.195
 1546  WAT   H2 6569   3.057   3.350   4.115
 1546  WAT  EPW 6570   2.974   3.329   4.135
 1547  WAT    O 6571   1.687   1.808   4.890
 1547  WAT   H1 6572   1.773   1.804   4.932
 1547  WAT   H2 6573   1.705   1.823   4.797
 1547  WAT  EPW 6574   1.700   1.809   4.884
 1548  WAT    O 6575   2.778   2.561   4.627
 1548  WAT   H1 6576   2.751   2.625   4.693
 1548  WAT   H2 6577   2.698   2.543   4.577
 1548  WAT  EPW 6578   2.765   2.567   4.629
 1549  WAT    O 6579   1.768   2.215   4.093
 1549  WAT   H1 6580   1.808   2.273   4.158
 1549  WAT   H2 6581   1.722   2.273   4.033
 1549  WAT  EPW 6582   1.767   2.230   4.094
 1550  WAT    O 6583   2.776   2.394   4.883
 1550  WAT   H1 6584   2.760   2.425   4.794
 1550  WAT   H2 6585   2.690   2.368   4.915
 1550  WAT  EPW 6586   2.763   2.395   4.876
 1551  WAT    O 6587   1.964   1.683   3.698
 1551  WAT   H1 6588   1.964   1.757   3.758
 1551  WAT   H2 6589   2.014   1.713   3.622
 1551  WAT  EPW 6590   1.971   1.696   3.696
 1552  WAT    O 6591   2.056   2.886   3.726
 1552  WAT   H1 6592   2.064   2.881   3.631
 1552  WAT   H2 6593   2.000   2.963   3.741
 1552  WAT  EPW 6594   2.050   2.896   3.716
 1553  WAT    O 6595   1.807   2.409   4.612
 1553  WAT   H1 6596   1.729   2.459   4.635
 1553  WAT   H2 6597   1.781   2.317   4.624
 1553  WAT  EPW 6598   1.794   2.403   4.616
 1554  WAT    O 6599   3.351   3.358   4.817
 1554  WAT   H1 6600   3.380   3.348   4.908
 1554  WAT   H2 6601   3.273   3.413   4.822
 1554  WAT  EPW 6602   3.345   3.364   4.829
 1555  WAT    O 6603   2.117   2.824   4.323
 1555  WAT   H1 6604   2.108   2.902   4.377
 1555  WAT   H2 6605   2.124   2.752   4.385
 1555  WAT  EPW 6606   2.116   2.825   4.338
 1556  WAT    O 6607   1.680   1.933   3.843
 1556  WAT   H1 6608   1.674   1.907   3.751
 1556  WAT   H2 6609   1.625   2.011   3.850
 1556  WAT  EPW 6610   1.672   1.939   3.832
 1557  WAT    O 6611   2.235   1.690   4.186
 1557  WAT   H1 6612   2.195   1.657   4.266
 1557  WAT   H2 6613   2.246   1.613   4.131
 1557  WAT  EPW 6614   2.231   1.676   4.189
 1558  WAT    O 6615   3.344   3.236   4.160
 1558  WAT   H1 6616   3.351   3.173   4.232
 1558  WAT   H2 6617   3.350   3.183   4.081
 1558  WAT  EPW 6618   3.345   3.221   4.159
 1559  WAT    O 6619   2.289   2.295   3.975
 1559  WAT   H1 6620   2.327   2.288   3.887
 1559  WAT   H2 6621   2.199   2.265   3.965
 1559  WAT  EPW 6622   2.283   2.290   3.962
 1560  WAT    O 6623   2.259   3.010   3.818
 1560  WAT   H1 6624   2.186   2.961   3.781
 1560  WAT   H2 6625   2.325   3.012   3.749
 1560  WAT  EPW 6626   2.258   3.004   3.805
 1561  WAT    O 6627   2.504   1.984   4.213
 1561  WAT   H1 6628   2.419   1.970   4.172
 1561  WAT   H2 6629   2.509   2.079   4.227
 1561  WAT  EPW 6630   2.494   1.995   4.210
 1562  WAT    O 6631   1.754   3.345   4.875
 1562  WAT   H1 6632   1.725   3.317   4.788
 1562  WAT   H2 6633   1.723   3.435   4.884
 1562  WAT  EPW 6634   1.746   3.353   4.865
 1563  WAT    O 6635   2.145   3.081   4.815
 1563  WAT   H1 6636   2.088   3.150   4.850
 1563  WAT   H2 6637   2.100   3.000   4.836
 1563  WAT  EPW 6638   2.132   3.080   4.822
 1564  WAT    O 6639   2.805   3.239   3.924
 1564  WAT   H1 6640   2.736   3.232   3.991
 1564  WAT   H2 6641   2.884   3.257   3.974
 1564  WAT  EPW 6642   2.806   3.241   3.939
 1565  WAT    O 6643   2.576   1.802   4.022
 1565  WAT   H1 6644   2.553   1.880   4.072
 1565  WAT   H2 6645   2.666   1.817   3.993
 1565  WAT  EPW 6646   2.584   1.814   4.025
 1566  WAT    O 6647   3.118   1.774   4.509
 1566  WAT   H1 6648   3.205   1.734   4.515
 1566  WAT   H2 6649   3.108   1.797   4.417
 1566  WAT  EPW 6650   3.128   1.772   4.498
 1567  WAT    O 6651   2.809   1.800   5.023
 1567  WAT   H1 6652   2.783   1.723   4.973
 1567  WAT   H2 6653   2.905   1.801   5.018
 1567  WAT  EPW 6654   2.818   1.790   5.016
 1568  WAT    O 6655   2.905   3.136   3.549
 1568  WAT   H1 6656   2.865   3.223   3.554
 1568  WAT   H2 6657   2.858   3.084   3.614
 1568  WAT  EPW 6658   2.894   3.141   3.558
 1569  WAT    O 6659   2.501   2.015   4.551
 1569  WAT   H1 6660   2.416   1.972   4.542
 1569  WAT   H2 6661   2.511   2.030   4.645
 1569  WAT  EPW 6662   2.491   2.012   4.562
 1570  WAT    O 6663   2.243   2.969   4.134
 1570  WAT   H1 6664   2.180   2.923   4.190
 1570  WAT   H2 6665   2.195   3.042   4.097
 1570  WAT  EPW 6666   2.229   2.972   4.137
 1571  WAT    O 6667   2.831   3.136   4.955
 1571  WAT   H1 6668   2.811   3.105   5.043
 1571  WAT   H2 6669   2.883   3.065   4.916
 1571  WAT  EPW 6670   2.835   3.123   4.961
 1572  WAT    O 6671   1.708   3.068   4.970
 1572  WAT   H1 6672   1.670   3.152   4.994
 1572  WAT   H2 6673   1.791   3.091   4.927
 1572  WAT  EPW 6674   1.714   3.082   4.968
 1573  WAT    O 6675   1.899   2.031   4.512
 1573  WAT   H1 6676   1.889   1.984   4.429
 1573  WAT   H2 6677   1.981   1.998   4.549
 1573  WAT  EPW 6678   1.908   2.021   4.506
 1574  WAT    O 6679   3.362   2.680   5.001
 1574  WAT   H1 6680   3.273   2.701   5.029
 1574  WAT   H2 6681   3.390   2.755   4.949
 1574  WAT  EPW 6682   3.354   2.692   4.998
 1575  WAT    O 6683   3.269   2.882   4.045
 1575  WAT   H1 6684   3.271   2.893   4.140
 1575  WAT   H2 6685   3.286   2.969   4.009
 1575  WAT  EPW 6686   3.272   2.894   4.052
 1576  WAT    O 6687   3.207   3.476   4.075
 1576  WAT   H1 6688   3.180   3.472   3.983
 1576  WAT   H2 6689   3.269   3.404   4.085
 1576  WAT  EPW 6690   3.211   3.466   4.065
 1577  WAT    O 6691   2.924   3.475   3.826
 1577  WAT   H1 6692   2.872   3.407   3.869
 1577  WAT   H2 6693   2.876   3.556   3.844
 1577  WAT  EPW 6694   2.911   3.477   3.834
 1578  WAT    O 6695   2.115   1.956   4.638
 1578  WAT   H1 6696   2.160   1.899   4.699
 1578  WAT   H2 6697   2.171   1.958   4.561
 1578  WAT  EPW 6698   2.128   1.949   4.636
 1579  WAT    O 6699   2.898   3.630   4.656
 1579  WAT   H1 6700   2.975   3.614   4.603
 1579  WAT   H2 6701   2.895   3.725   4.667
 1579  WAT  EPW 6702   2.907   3.640   4.651
 1580  WAT    O 6703   2.555   3.271   4.079
 1580  WAT   H1 6704   2.531   3.190   4.124
 1580  WAT   H2 6705   2.474   3.299   4.036
 1580  WAT  EPW 6706   2.541   3.264   4.079
 1581  WAT    O 6707   3.105   2.783   4.980
 1581  WAT   H1 6708   3.044   2.710   4.985
 1581  WAT   H2 6709   3.062   2.846   4.921
 1581  WAT  EPW 6710   3.092   2.782   4.973
 1582  WAT    O 6711   2.015   2.842   4.822
 1582  WAT   H1 6712   1.969   2.877   4.746
 1582  WAT   H2 6713   2.023   2.748   4.805
 1582  WAT  EPW 6714   2.010   2.835   4.810
 1583  WAT    O 6715   1.834   2.606   4.041
 1583  WAT   H1 6716   1.930   2.610   4.043
 1583  WAT   H2 6717   1.807   2.698   4.045
 1583  WAT  EPW 6718   1.843   2.618   4.042
 1584  WAT    O 6719   1.970   1.935   3.838
 1584  WAT   H1 6720   2.001   1.942   3.928
 1584  WAT   H2 6721   1.879   1.910   3.846
 1584  WAT  EPW 6722   1.963   1.933   3.850
 1585  WAT    O 6723   2.901   2.361   4.076
 1585  WAT   H1 6724   2.963   2.406   4.018
 1585  WAT   H2 6725   2.820   2.412   4.068
 1585  WAT  EPW 6726   2.899   2.374   4.068
 1586  WAT    O 6727   1.563   2.967   3.672
 1586  WAT   H1 6728   1.626   2.914   3.722
 1586  WAT   H2 6729   1.613   2.997   3.596
 1586  WAT  EPW 6730   1.578   2.964   3.669
 1587  WAT    O 6731   2.130   3.175   3.999
 1587  WAT   H1 6732   2.060   3.215   3.948
 1587  WAT   H2 6733   2.174   3.115   3.939
 1587  WAT  EPW 6734   2.127   3.172   3.985
 1588  WAT    O 6735   2.991   2.969   4.782
 1588  WAT   H1 6736   2.973   2.962   4.688
 1588  WAT   H2 6737   3.069   3.024   4.787
 1588  WAT  EPW 6738   2.998   2.975   4.770
 1589  WAT    O 6739   2.472   2.608   4.214
 1589  WAT   H1 6740   2.524   2.548   4.160
 1589  WAT   H2 6741   2.445   2.677   4.153
 1589  WAT  EPW 6742   2.475   2.609   4.199
 1590  WAT    O 6743   3.077   1.931   4.969
 1590  WAT   H1 6744   3.048   2.013   5.009
 1590  WAT   H2 6745   3.054   1.939   4.877
 1590  WAT  EPW 6746   3.070   1.942   4.963
 1591  WAT    O 6747   3.442   3.394   3.842
 1591  WAT   H1 6748   3.501   3.376   3.769
 1591  WAT   H2 6749   3.383   3.462   3.810
 1591  WAT  EPW 6750   3.442   3.400   3.829
 1592  WAT    O 6751   1.721   3.343   3.618
 1592  WAT   H1 6752   1.777   3.267   3.635
 1592  WAT   H2 6753   1.778   3.419   3.634
 1592  WAT  EPW 6754   1.735   3.343   3.622
 1593  WAT    O 6755   3.478   2.064   4.218
 1593  WAT   H1 6756   3.536   2.113   4.159
 1593  WAT   H2 6757   3.421   2.131   4.256
 1593  WAT  EPW 6758   3.478   2.079   4.215
 1594  WAT    O 6759   2.250   1.946   4.405
 1594  WAT   H1 6760   2.232   2.005   4.331
 1594  WAT   H2 6761   2.298   1.873   4.366
 1594  WAT  EPW 6762   2.254   1.944   4.390
 1595  WAT    O 6763   1.610   2.605   4.262
 1595  WAT   H1 6764   1.670   2.631   4.192
 1595  WAT   H2 6765   1.641   2.655   4.339
 1595  WAT  EPW 6766   1.622   2.615   4.263
 1596  WAT    O 6767   1.879   2.956   4.643
 1596  WAT   H1 6768   1.904   3.025   4.582
 1596  WAT   H2 6769   1.791   2.982   4.673
 1596  WAT  EPW 6770   1.871   2.968   4.639
 1597  WAT    O 6771   3.247   2.715   4.341
 1597  WAT   H1 6772   3.333   2.681   4.314
 1597  WAT   H2 6773   3.250   2.712   4.437
 1597  WAT  EPW 6774   3.259   2.710   4.350
 1598  WAT    O 6775   3.455   1.717   4.292
 1598  WAT   H1 6776   3.395   1.682   4.358
 1598  WAT   H2 6777   3.527   1.654   4.288
 1598  WAT  EPW 6778   3.457   1.705   4.300
 1599  WAT    O 6779   3.062   2.782   3.862
 1599  WAT   H1 6780   3.102   2.816   3.943
 1599  WAT   H2 6781   3.111   2.824   3.792
 1599  WAT  EPW 6782   3.073   2.792   3.864
 1600  WAT    O 6783   3.081   3.418   4.806
 1600  WAT   H1 6784   3.034   3.501   4.805
 1600  WAT   H2 6785   3.028   3.359   4.752
 1600  WAT  EPW 6786   3.068   3.421   4.799
 1601  WAT    O 6787   3.292   1.904   2.217
 1601  WAT   H1 6788   3.299   1.809   2.205
 1601  WAT   H2 6789   3.379   1.930   2.247
 1601  WAT  EPW 6790   3.304   1.895   2.219
 1602  WAT    O 6791   3.404   2.333   2.401
 1602  WAT   H1 6792   3.326   2.344   2.456
 1602  WAT   H2 6793   3.438   2.421   2.390
 1602  WAT  EPW 6794   3.398   2.345   2.407
 1603  WAT    O 6795   2.513   1.946   1.816
 1603  WAT   H1 6796   2.487   1.899   1.896
 1603  WAT   H2 6797   2.515   1.878   1.748
 1603  WAT  EPW 6798   2.510   1.931   1.818
 1604  WAT    O 6799   3.398   2.723   2.019
 1604  WAT   H1 6800   3.361   2.787   2.080
 1604  WAT   H2 6801   3.322   2.681   1.980
 1604  WAT  EPW 6802   3.384   2.726   2.022
 1605  WAT    O 6803   1.649   2.097   3.000
 1605  WAT   H1 6804   1.677   2.154   3.072
 1605  WAT   H2 6805   1.589   2.035   3.041
 1605  WAT  EPW 6806   1.645   2.097   3.015
 1606  WAT    O 6807   3.196   2.883   1.721
 1606  WAT   H1 6808   3.200   2.870   1.626
 1606  WAT   H2 6809   3.285   2.910   1.745
 1606  WAT  EPW 6810   3.208   2.885   1.712
 1607  WAT    O 6811   3.231   1.926   1.930
 1607  WAT   H1 6812   3.244   1.912   2.024
 1607  WAT   H2 6813   3.144   1.966   1.924
 1607  WAT  EPW 6814   3.221   1.929   1.941
 1608  WAT    O 6815   2.107   2.158   2.357
 1608  WAT   H1 6816   2.066   2.158   2.270
 1608  WAT   H2 6817   2.058   2.224   2.406
 1608  WAT  EPW 6818   2.095   2.166   2.352
 1609  WAT    O 6819   2.049   1.877   2.229
 1609  WAT   H1 6820   1.974   1.875   2.287
 1609  WAT   H2 6821   2.103   1.802   2.257
 1609  WAT  EPW 6822   2.047   1.867   2.240
 1610  WAT    O 6823   2.515   2.297   2.212
 1610  WAT   H1 6824   2.433   2.295   2.164
 1610  WAT   H2 6825   2.490   2.278   2.303
 1610  WAT  EPW 6826   2.502   2.294   2.217
 1611  WAT    O 6827   1.706   2.098   3.564
 1611  WAT   H1 6828   1.686   2.106   3.471
 1611  WAT   H2 6829   1.626   2.128   3.608
 1611  WAT  EPW 6830   1.693   2.103   3.558
 1612  WAT    O 6831   2.272   3.303   3.453
 1612  WAT   H1 6832   2.329   3.295   3.530
 1612  WAT   H2 6833   2.268   3.398   3.437
 1612  WAT  EPW 6834   2.279   3.314   3.461
 1613  WAT    O 6835   2.991   2.068   1.911
 1613  WAT   H1 6836   3.001   2.103   2.000
 1613  WAT   H2 6837   2.978   2.146   1.857
 1613  WAT  EPW 6838   2.990   2.083   1.916
 1614  WAT    O 6839   1.730   1.777   2.700
 1614  WAT   H1 6840   1.814   1.823   2.688
 1614  WAT   H2 6841   1.672   1.817   2.636
 1614  WAT  EPW 6842   1.734   1.788   2.691
 1615  WAT    O 6843   2.474   2.237   2.475
 1615  WAT   H1 6844   2.482   2.159   2.530
 1615  WAT   H2 6845   2.518   2.306   2.525
 1615  WAT  EPW 6846   2.480   2.236   2.489
 1616  WAT    O 6847   3.183   1.651   1.897
 1616  WAT   H1 6848   3.196   1.742   1.872
 1616  WAT   H2 6849   3.088   1.641   1.905
 1616  WAT  EPW 6850   3.173   1.661   1.895
 1617  WAT    O 6851   3.501   1.785   1.697
 1617  WAT   H1 6852   3.483   1.869   1.655
 1617  WAT   H2 6853   3.420   1.735   1.686
 1617  WAT  EPW 6854   3.488   1.789   1.690
 1618  WAT    O 6855   3.758   2.377   2.435
 1618  WAT   H1 6856   3.759   2.346   2.525
 1618  WAT   H2 6857   3.753   2.473   2.442
 1618  WAT  EPW 6858   3.757   2.386   2.447
 1619  WAT    O 6859   2.697   2.171   1.823
 1619  WAT   H1 6860   2.634   2.099   1.825
 1619  WAT   H2 6861   2.719   2.187   1.915
 1619  WAT  EPW 6862   2.692   2.164   1.835
 1620  WAT    O 6863   3.314   2.468   1.823
 1620  WAT   H1 6864   3.269   2.443   1.904
 1620  WAT   H2 6865   3.407   2.454   1.843
 1620  WAT  EPW 6866   3.320   2.463   1.836
 1621  WAT    O 6867   3.127   2.039   2.382
 1621  WAT   H1 6868   3.196   2.001   2.329
 1621  WAT   H2 6869   3.066   1.967   2.397
 1621  WAT  EPW 6870   3.128   2.025   2.377
 1622  WAT    O 6871   2.717   2.183   2.089
 1622  WAT   H1 6872   2.635   2.211   2.129
 1622  WAT   H2 6873   2.785   2.221   2.145
 1622  WAT  EPW 6874   2.715   2.191   2.102
 1623  WAT    O 6875   3.189   2.418   2.064
 1623  WAT   H1 6876   3.185   2.479   2.137
 1623  WAT   H2 6877   3.153   2.336   2.099
 1623  WAT  EPW 6878   3.184   2.415   2.077
 1624  WAT    O 6879   2.664   2.504   2.111
 1624  WAT   H1 6880   2.597   2.436   2.114
 1624  WAT   H2 6881   2.672   2.526   2.019
 1624  WAT  EPW 6882   2.657   2.498   2.100
 1625  WAT    O 6883   1.828   1.892   2.385
 1625  WAT   H1 6884   1.804   1.810   2.341
 1625  WAT   H2 6885   1.752   1.949   2.372
 1625  WAT  EPW 6886   1.815   1.889   2.378
 1626  WAT    O 6887   2.285   1.774   1.985
 1626  WAT   H1 6888   2.309   1.686   2.015
 1626  WAT   H2 6889   2.263   1.822   2.065
 1626  WAT  EPW 6890   2.285   1.769   1.999
 1627  WAT    O 6891   2.808   1.949   2.239
 1627  WAT   H1 6892   2.779   2.020   2.183
 1627  WAT   H2 6893   2.781   1.975   2.327
 1627  WAT  EPW 6894   2.801   1.961   2.243
 1628  WAT    O 6895   3.099   2.286   1.734
 1628  WAT   H1 6896   3.147   2.251   1.659
 1628  WAT   H2 6897   3.150   2.363   1.760
 1628  WAT  EPW 6898   3.112   2.291   1.728
 1629  WAT    O 6899   1.686   2.161   2.735
 1629  WAT   H1 6900   1.766   2.126   2.695
 1629  WAT   H2 6901   1.684   2.123   2.823
 1629  WAT  EPW 6902   1.696   2.152   2.741
 1630  WAT    O 6903   3.079   2.591   2.256
 1630  WAT   H1 6904   3.147   2.632   2.310
 1630  WAT   H2 6905   2.998   2.636   2.280
 1630  WAT  EPW 6906   3.077   2.602   2.266
 1631  WAT    O 6907   2.781   1.863   1.917
 1631  WAT   H1 6908   2.705   1.888   1.864
 1631  WAT   H2 6909   2.837   1.941   1.917
 1631  WAT  EPW 6910   2.779   1.876   1.910
 1632  WAT    O 6911   2.035   2.193   2.088
 1632  WAT   H1 6912   2.026   2.165   1.997
 1632  WAT   H2 6913   1.945   2.208   2.118
 1632  WAT  EPW 6914   2.022   2.191   2.080
 1633  WAT    O 6915   2.993   1.782   2.368
 1633  WAT   H1 6916   2.927   1.822   2.312
 1633  WAT   H2 6917   3.063   1.755   2.308
 1633  WAT  EPW 6918   2.994   1.784   2.353
 1634  WAT    O 6919   2.094   1.671   2.544
 1634  WAT   H1 6920   2.111   1.763   2.564
 1634  WAT   H2 6921   2.151   1.623   2.604
 1634  WAT  EPW 6922   2.103   1.677   2.554
 1635  WAT    O 6923   2.429   3.509   2.581
 1635  WAT   H1 6924   2.425   3.440   2.647
 1635  WAT   H2 6925   2.476   3.469   2.508
 1635  WAT  EPW 6926   2.434   3.495   2.580
 1636  WAT    O 6927   2.282   1.993   2.159
 1636  WAT   H1 6928   2.267   2.088   2.152
 1636  WAT   H2 6929   2.203   1.960   2.202
 1636  WAT  EPW 6930   2.270   2.001   2.164
 1637  WAT    O 6931   1.687   1.808   3.004
 1637  WAT   H1 6932   1.773   1.804   3.046
 1637  WAT   H2 6933   1.705   1.823   2.911
 1637  WAT  EPW 6934   1.700   1.809   2.998
 1638  WAT    O 6935   1.768   2.215   2.207
 1638  WAT   H1 6936   1.808   2.273   2.272
 1638  WAT   H2 6937   1.722   2.273   2.147
 1638  WAT  EPW 6938   1.767   2.230   2.208
 1639  WAT    O 6939   1.964   1.683   1.812
 1639  WAT   H1 6940   1.964   1.757   1.872
 1639  WAT   H2 6941   2.014   1.713   1.736
 1639  WAT  EPW 6942   1.971   1.696   1.810
 1640  WAT    O 6943   1.807   2.409   2.726
 1640  WAT   H1 6944   1.729   2.459   2.749
 1640  WAT   H2 6945   1.781   2.317   2.738
 1640  WAT  EPW 6946   1.794   2.403   2.730
 1641  WAT    O 6947   2.235   1.690   2.300
 1641  WAT   H1 6948   2.195   1.657   2.380
 1641  WAT   H2 6949   2.246   1.613   2.245
 1641  WAT  EPW 6950   2.231   1.676   2.303
 1642  WAT    O 6951   2.289   2.295   2.089
 1642  WAT   H1 6952   2.327   2.288   2.001
 1642  WAT   H2 6953   2.199   2.265   2.079
 1642  WAT  EPW 6954   2.283   2.290   2.076
 1643  WAT    O 6955   2.504   1.984   2.327
 1643  WAT   H1 6956   2.419   1.970   2.286
 1643  WAT   H2 6957   2.509   2.079   2.341
 1643  WAT  EPW 6958   2.494   1.995   2.324
 1644  WAT    O 6959   2.576   1.802   2.136
 1644  WAT   H1 6960   2.553   1.880   2.186
 1644  WAT   H2 6961   2.666   1.817   2.107
 1644  WAT  EPW 6962   2.584   1.814   2.139
 1645  WAT    O 6963   3.121   2.160   2.148
 1645  WAT   H1 6964   3.099   2.135   2.238
 1645  WAT   H2 6965   3.202   2.114   2.130
 1645  WAT  EPW 6966   3.128   2.151   2.157
 1646  WAT    O 6967   3.390   2.163   1.932
 1646  WAT   H1 6968   3.308   2.114   1.927
 1646  WAT   H2 6969   3.365   2.249   1.965
 1646  WAT  EPW 6970   3.376   2.167   1.935
 1647  WAT    O 6971   2.472   3.133   3.347
 1647  WAT   H1 6972   2.434   3.096   3.268
 1647  WAT   H2 6973   2.408   3.196   3.379
 1647  WAT  EPW 6974   2.459   3.136   3.341
 1648  WAT    O 6975   1.899   2.031   2.626
 1648  WAT   H1 6976   1.889   1.984   2.543
 1648  WAT   H2 6977   1.981   1.998   2.663
 1648  WAT  EPW 6978   1.908   2.021   2.620
 1649  WAT    O 6979   3.269   2.882   2.159
 1649  WAT   H1 6980   3.271   2.893   2.254
 1649  WAT   H2 6981   3.286   2.969   2.123
 1649  WAT  EPW 6982   3.272   2.894   2.166
 1650  WAT    O 6983   2.901   2.361   2.190
 1650  WAT   H1 6984   2.963   2.406   2.132
 1650  WAT   H2 6985   2.820   2.412   2.182
 1650  WAT  EPW 6986   2.899   2.374   2.182
 1651  WAT    O 6987   3.442   3.394   1.956
 1651  WAT   H1 6988   3.501   3.376   1.883
 1651  WAT   H2 6989   3.383   3.462   1.924
 1651  WAT  EPW 6990   3.442   3.400   1.943
 1652  WAT    O 6991   3.478   2.064   2.332
 1652  WAT   H1 6992   3.536   2.113   2.273
 1652  WAT   H2 6993   3.421   2.131   2.370
 1652  WAT  EPW 6994   3.478   2.079   2.329
 1653  WAT    O 6995   2.250   1.946   2.519
 1653  WAT   H1 6996   2.232   2.005   2.445
 1653  WAT   H2 6997   2.298   1.873   2.480
 1653  WAT  EPW 6998   2.254   1.944   2.504
 1654  WAT    O 6999   2.895   2.338   3.452
 1654  WAT   H1 7000   2.817   2.334   3.507
 1654  WAT   H2 7001   2.959   2.283   3.498
 1654  WAT  EPW 7002   2.893   2.331   3.465
 1655  WAT    O 7003   2.293   1.885   1.119
 1655  WAT   H1 7004   2.315   1.882   1.211
 1655  WAT   H2 7005   2.230   1.813   1.107
 1655  WAT  EPW 7006   2.287   1.875   1.129
 1656  WAT    O 7007   2.032   3.303   1.145
 1656  WAT   H1 7008   1.937   3.296   1.141
 1656  WAT   H2 7009   2.051   3.334   1.233
 1656  WAT  EPW 7010   2.023   3.306   1.155
 1657  WAT    O 7011   2.509   3.048   0.461
 1657  WAT   H1 7012   2.492   3.064   0.554
 1657  WAT   H2 7013   2.432   2.999   0.430
 1657  WAT  EPW 7014   2.497   3.043   0.469
 1658  WAT    O 7015   2.084   1.713   1.069
 1658  WAT   H1 7016   2.028   1.758   1.133
 1658  WAT   H2 7017   2.070   1.620   1.086
 1658  WAT  EPW 7018   2.075   1.707   1.079
 1659  WAT    O 7019   2.506   2.058   1.054
 1659  WAT   H1 7020   2.445   1.994   1.092
 1659  WAT   H2 7021   2.584   2.051   1.108
 1659  WAT  EPW 7022   2.508   2.049   1.066
 1660  WAT    O 7023   2.559   1.702   1.682
 1660  WAT   H1 7024   2.649   1.679   1.656
 1660  WAT   H2 7025   2.507   1.690   1.603
 1660  WAT  EPW 7026   2.564   1.698   1.669
 1661  WAT    O 7027   1.855   3.163   0.490
 1661  WAT   H1 7028   1.859   3.252   0.456
 1661  WAT   H2 7029   1.775   3.161   0.543
 1661  WAT  EPW 7030   1.845   3.174   0.493
 1662  WAT    O 7031   2.748   2.041   1.181
 1662  WAT   H1 7032   2.766   1.953   1.214
 1662  WAT   H2 7033   2.780   2.099   1.250
 1662  WAT  EPW 7034   2.754   2.037   1.194
 1663  WAT    O 7035   2.717   2.840   0.406
 1663  WAT   H1 7036   2.674   2.780   0.345
 1663  WAT   H2 7037   2.650   2.907   0.424
 1663  WAT  EPW 7038   2.703   2.841   0.400
 1664  WAT    O 7039   3.292   1.904   0.331
 1664  WAT   H1 7040   3.299   1.809   0.319
 1664  WAT   H2 7041   3.379   1.930   0.361
 1664  WAT  EPW 7042   3.304   1.895   0.333
 1665  WAT    O 7043   3.404   2.333   0.515
 1665  WAT   H1 7044   3.326   2.344   0.570
 1665  WAT   H2 7045   3.438   2.421   0.504
 1665  WAT  EPW 7046   3.398   2.345   0.521
 1666  WAT    O 7047   2.896   3.100   0.494
 1666  WAT   H1 7048   2.913   3.185   0.454
 1666  WAT   H2 7049   2.820   3.066   0.447
 1666  WAT  EPW 7050   2.888   3.107   0.483
 1667  WAT    O 7051   2.875   3.432   0.619
 1667  WAT   H1 7052   2.933   3.506   0.602
 1667  WAT   H2 7053   2.796   3.451   0.567
 1667  WAT  EPW 7054   2.872   3.444   0.610
 1668  WAT    O 7055   2.107   2.158   0.471
 1668  WAT   H1 7056   2.066   2.158   0.384
 1668  WAT   H2 7057   2.058   2.224   0.520
 1668  WAT  EPW 7058   2.095   2.166   0.466
 1669  WAT    O 7059   2.049   1.877   0.343
 1669  WAT   H1 7060   1.974   1.875   0.401
 1669  WAT   H2 7061   2.103   1.802   0.371
 1669  WAT  EPW 7062   2.047   1.867   0.354
 1670  WAT    O 7063   2.753   2.246   1.373
 1670  WAT   H1 7064   2.812   2.278   1.442
 1670  WAT   H2 7065   2.681   2.309   1.373
 1670  WAT  EPW 7066   2.752   2.258   1.382
 1671  WAT    O 7067   2.515   2.297   0.326
 1671  WAT   H1 7068   2.433   2.295   0.278
 1671  WAT   H2 7069   2.490   2.278   0.417
 1671  WAT  EPW 7070   2.502   2.294   0.331
 1672  WAT    O 7071   2.227   3.263   0.788
 1672  WAT   H1 7072   2.201   3.226   0.872
 1672  WAT   H2 7073   2.300   3.209   0.759
 1672  WAT  EPW 7074   2.233   3.251   0.795
 1673  WAT    O 7075   2.051   3.082   0.659
 1673  WAT   H1 7076   1.978   3.113   0.604
 1673  WAT   H2 7077   2.110   3.157   0.664
 1673  WAT  EPW 7078   2.049   3.096   0.653
 1674  WAT    O 7079   2.313   2.354   0.821
 1674  WAT   H1 7080   2.401   2.383   0.844
 1674  WAT   H2 7081   2.322   2.321   0.731
 1674  WAT  EPW 7082   2.325   2.354   0.812
 1675  WAT    O 7083   2.743   1.936   0.639
 1675  WAT   H1 7084   2.647   1.930   0.646
 1675  WAT   H2 7085   2.775   1.863   0.692
 1675  WAT  EPW 7086   2.735   1.926   0.647
 1676  WAT    O 7087   3.256   2.737   0.851
 1676  WAT   H1 7088   3.300   2.787   0.919
 1676  WAT   H2 7089   3.188   2.687   0.898
 1676  WAT  EPW 7090   3.253   2.737   0.866
 1677  WAT    O 7091   3.377   2.914   1.074
 1677  WAT   H1 7092   3.306   2.974   1.054
 1677  WAT   H2 7093   3.449   2.970   1.104
 1677  WAT  EPW 7094   3.377   2.928   1.075
 1678  WAT    O 7095   3.255   2.153   0.758
 1678  WAT   H1 7096   3.346   2.154   0.787
 1678  WAT   H2 7097   3.255   2.095   0.682
 1678  WAT  EPW 7098   3.266   2.146   0.752
 1679  WAT    O 7099   3.039   2.587   0.943
 1679  WAT   H1 7100   2.952   2.561   0.914
 1679  WAT   H2 7101   3.074   2.509   0.986
 1679  WAT  EPW 7102   3.033   2.574   0.945
 1680  WAT    O 7103   2.010   3.279   1.459
 1680  WAT   H1 7104   1.985   3.369   1.478
 1680  WAT   H2 7105   2.101   3.272   1.489
 1680  WAT  EPW 7106   2.019   3.289   1.465
 1681  WAT    O 7107   1.730   1.777   0.814
 1681  WAT   H1 7108   1.814   1.823   0.802
 1681  WAT   H2 7109   1.672   1.817   0.750
 1681  WAT  EPW 7110   1.734   1.788   0.805
 1682  WAT    O 7111   2.474   2.237   0.589
 1682  WAT   H1 7112   2.482   2.159   0.644
 1682  WAT   H2 7113   2.518   2.306   0.639
 1682  WAT  EPW 7114   2.480   2.236   0.603
 1683  WAT    O 7115   3.340   1.999   1.523
 1683  WAT   H1 7116   3.250   1.966   1.523
 1683  WAT   H2 7117   3.372   1.981   1.435
 1683  WAT  EPW 7118   3.333   1.992   1.512
 1684  WAT    O 7119   1.781   3.459   0.241
 1684  WAT   H1 7120   1.703   3.446   0.188
 1684  WAT   H2 7121   1.778   3.552   0.266
 1684  WAT  EPW 7122   1.771   3.469   0.238
 1685  WAT    O 7123   2.417   3.086   0.710
 1685  WAT   H1 7124   2.369   3.005   0.728
 1685  WAT   H2 7125   2.490   3.084   0.772
 1685  WAT  EPW 7126   2.420   3.075   0.721
 1686  WAT    O 7127   3.758   2.377   0.549
 1686  WAT   H1 7128   3.759   2.346   0.639
 1686  WAT   H2 7129   3.753   2.473   0.556
 1686  WAT  EPW 7130   3.757   2.386   0.561
 1687  WAT    O 7131   3.344   1.923   1.267
 1687  WAT   H1 7132   3.257   1.906   1.229
 1687  WAT   H2 7133   3.402   1.863   1.219
 1687  WAT  EPW 7134   3.340   1.913   1.256
 1688  WAT    O 7135   3.189   3.130   1.121
 1688  WAT   H1 7136   3.154   3.119   1.209
 1688  WAT   H2 7137   3.203   3.224   1.112
 1688  WAT  EPW 7138   3.186   3.140   1.131
 1689  WAT    O 7139   3.402   3.306   1.309
 1689  WAT   H1 7140   3.422   3.267   1.394
 1689  WAT   H2 7141   3.335   3.372   1.328
 1689  WAT  EPW 7142   3.396   3.310   1.322
 1690  WAT    O 7143   3.127   2.039   0.496
 1690  WAT   H1 7144   3.196   2.001   0.443
 1690  WAT   H2 7145   3.066   1.967   0.511
 1690  WAT  EPW 7146   3.128   2.025   0.491
 1691  WAT    O 7147   2.934   2.584   1.250
 1691  WAT   H1 7148   2.878   2.545   1.183
 1691  WAT   H2 7149   2.877   2.645   1.296
 1691  WAT  EPW 7150   2.920   2.587   1.247
 1692  WAT    O 7151   3.326   2.510   1.570
 1692  WAT   H1 7152   3.243   2.544   1.535
 1692  WAT   H2 7153   3.311   2.505   1.664
 1692  WAT  EPW 7154   3.313   2.514   1.577
 1693  WAT    O 7155   2.717   2.183   0.203
 1693  WAT   H1 7156   2.635   2.211   0.243
 1693  WAT   H2 7157   2.785   2.221   0.259
 1693  WAT  EPW 7158   2.715   2.191   0.216
 1694  WAT    O 7159   2.018   2.542   1.013
 1694  WAT   H1 7160   1.980   2.529   1.100
 1694  WAT   H2 7161   1.962   2.491   0.955
 1694  WAT  EPW 7162   2.006   2.534   1.016
 1695  WAT    O 7163   2.919   2.693   0.558
 1695  WAT   H1 7164   2.973   2.743   0.619
 1695  WAT   H2 7165   2.849   2.754   0.533
 1695  WAT  EPW 7166   2.917   2.707   0.563
 1696  WAT    O 7167   1.717   2.850   0.640
 1696  WAT   H1 7168   1.756   2.843   0.553
 1696  WAT   H2 7169   1.778   2.804   0.698
 1696  WAT  EPW 7170   1.730   2.843   0.637
 1697  WAT    O 7171   3.189   2.418   0.178
 1697  WAT   H1 7172   3.185   2.479   0.251
 1697  WAT   H2 7173   3.153   2.336   0.213
 1697  WAT  EPW 7174   3.184   2.415   0.191
 1698  WAT    O 7175   2.783   3.402   1.137
 1698  WAT   H1 7176   2.728   3.395   1.059
 1698  WAT   H2 7177   2.819   3.314   1.149
 1698  WAT  EPW 7178   2.780   3.390   1.129
 1699  WAT    O 7179   2.131   2.234   1.017
 1699  WAT   H1 7180   2.072   2.160   1.002
 1699  WAT   H2 7181   2.192   2.231   0.943
 1699  WAT  EPW 7182   2.131   2.224   1.006
 1700  WAT    O 7183   2.269   2.853   0.820
 1700  WAT   H1 7184   2.265   2.758   0.816
 1700  WAT   H2 7185   2.224   2.876   0.901
 1700  WAT  EPW 7186   2.263   2.844   0.830
 1701  WAT    O 7187   3.066   2.519   1.488
 1701  WAT   H1 7188   2.997   2.455   1.505
 1701  WAT   H2 7189   3.045   2.554   1.402
 1701  WAT  EPW 7190   3.054   2.515   1.479
 1702  WAT    O 7191   1.627   2.429   0.202
 1702  WAT   H1 7192   1.694   2.489   0.236
 1702  WAT   H2 7193   1.544   2.472   0.221
 1702  WAT  EPW 7194   1.625   2.442   0.209
 1703  WAT    O 7195   1.861   2.873   0.422
 1703  WAT   H1 7196   1.929   2.845   0.484
 1703  WAT   H2 7197   1.871   2.968   0.417
 1703  WAT  EPW 7198   1.871   2.882   0.430
 1704  WAT    O 7199   1.828   1.892   0.499
 1704  WAT   H1 7200   1.804   1.810   0.455
 1704  WAT   H2 7201   1.752   1.949   0.486
 1704  WAT  EPW 7202   1.815   1.889   0.492
 1705  WAT    O 7203   2.808   1.949   0.353
 1705  WAT   H1 7204   2.779   2.020   0.297
 1705  WAT   H2 7205   2.781   1.975   0.441
 1705  WAT  EPW 7206   2.801   1.961   0.357
 1706  WAT    O 7207   2.653   3.114   0.861
 1706  WAT   H1 7208   2.647   3.062   0.941
 1706  WAT   H2 7209   2.708   3.189   0.885
 1706  WAT  EPW 7210   2.660   3.117   0.875
 1707  WAT    O 7211   3.203   3.004   0.523
 1707  WAT   H1 7212   3.112   3.005   0.495
 1707  WAT   H2 7213   3.216   2.917   0.562
 1707  WAT  EPW 7214   3.193   2.993   0.524
 1708  WAT    O 7215   2.166   2.636   0.231
 1708  WAT   H1 7216   2.248   2.684   0.228
 1708  WAT   H2 7217   2.171   2.586   0.313
 1708  WAT  EPW 7218   2.177   2.636   0.241
 1709  WAT    O 7219   1.835   3.423   0.639
 1709  WAT   H1 7220   1.780   3.465   0.706
 1709  WAT   H2 7221   1.925   3.443   0.665
 1709  WAT  EPW 7222   1.839   3.431   0.651
 1710  WAT    O 7223   1.753   3.205   0.863
 1710  WAT   H1 7224   1.819   3.241   0.803
 1710  WAT   H2 7225   1.686   3.169   0.805
 1710  WAT  EPW 7226   1.753   3.205   0.848
 1711  WAT    O 7227   3.285   1.394   0.788
 1711  WAT   H1 7228   3.299   1.435   0.873
 1711  WAT   H2 7229   3.190   1.401   0.774
 1711  WAT  EPW 7230   3.274   1.400   0.797
 1712  WAT    O 7231   2.893   2.408   0.559
 1712  WAT   H1 7232   2.943   2.387   0.480
 1712  WAT   H2 7233   2.912   2.500   0.576
 1712  WAT  EPW 7234   2.902   2.417   0.551
 1713  WAT    O 7235   3.362   3.485   0.766
 1713  WAT   H1 7236   3.347   3.390   0.774
 1713  WAT   H2 7237   3.428   3.505   0.833
 1713  WAT  EPW 7238   3.369   3.475   0.776
 1714  WAT    O 7239   3.495   3.113   0.645
 1714  WAT   H1 7240   3.411   3.154   0.663
 1714  WAT   H2 7241   3.482   3.020   0.667
 1714  WAT  EPW 7242   3.483   3.106   0.650
 1715  WAT    O 7243   1.686   2.161   0.849
 1715  WAT   H1 7244   1.766   2.126   0.809
 1715  WAT   H2 7245   1.684   2.123   0.937
 1715  WAT  EPW 7246   1.696   2.152   0.855
 1716  WAT    O 7247   2.625   2.467   0.622
 1716  WAT   H1 7248   2.585   2.543   0.580
 1716  WAT   H2 7249   2.712   2.461   0.581
 1716  WAT  EPW 7250   2.631   2.476   0.611
 1717  WAT    O 7251   3.079   2.591   0.370
 1717  WAT   H1 7252   3.147   2.632   0.424
 1717  WAT   H2 7253   2.998   2.636   0.394
 1717  WAT  EPW 7254   3.077   2.602   0.380
 1718  WAT    O 7255   1.895   2.640   0.720
 1718  WAT   H1 7256   1.990   2.639   0.718
 1718  WAT   H2 7257   1.870   2.559   0.764
 1718  WAT  EPW 7258   1.904   2.630   0.726
 1719  WAT    O 7259   2.925   2.041   0.974
 1719  WAT   H1 7260   2.879   2.085   0.902
 1719  WAT   H2 7261   2.871   2.059   1.051
 1719  WAT  EPW 7262   2.912   2.049   0.975
 1720  WAT    O 7263   3.441   2.534   0.868
 1720  WAT   H1 7264   3.402   2.487   0.942
 1720  WAT   H2 7265   3.388   2.613   0.860
 1720  WAT  EPW 7266   3.430   2.538   0.877
 1721  WAT    O 7267   2.779   2.189   0.755
 1721  WAT   H1 7268   2.841   2.234   0.698
 1721  WAT   H2 7269   2.765   2.104   0.713
 1721  WAT  EPW 7270   2.785   2.184   0.742
 1722  WAT    O 7271   2.632   2.976   1.105
 1722  WAT   H1 7272   2.672   3.059   1.135
 1722  WAT   H2 7273   2.541   2.982   1.133
 1722  WAT  EPW 7274   2.626   2.988   1.112
 1723  WAT    O 7275   2.993   1.782   0.482
 1723  WAT   H1 7276   2.927   1.822   0.426
 1723  WAT   H2 7277   3.063   1.755   0.422
 1723  WAT  EPW 7278   2.994   1.784   0.467
 1724  WAT    O 7279   3.155   2.305   1.020
 1724  WAT   H1 7280   3.128   2.240   1.085
 1724  WAT   H2 7281   3.177   2.254   0.942
 1724  WAT  EPW 7282   3.154   2.290   1.018
 1725  WAT    O 7283   2.229   2.484   0.442
 1725  WAT   H1 7284   2.248   2.409   0.386
 1725  WAT   H2 7285   2.315   2.523   0.459
 1725  WAT  EPW 7286   2.243   2.480   0.437
 1726  WAT    O 7287   2.094   1.671   0.658
 1726  WAT   H1 7288   2.111   1.763   0.678
 1726  WAT   H2 7289   2.151   1.623   0.718
 1726  WAT  EPW 7290   2.103   1.677   0.668
 1727  WAT    O 7291   2.179   2.584   0.698
 1727  WAT   H1 7292   2.205   2.542   0.615
 1727  WAT   H2 7293   2.188   2.515   0.763
 1727  WAT  EPW 7294   2.184   2.570   0.695
 1728  WAT    O 7295   2.911   3.029   0.743
 1728  WAT   H1 7296   2.920   3.054   0.651
 1728  WAT   H2 7297   2.825   3.064   0.769
 1728  WAT  EPW 7298   2.901   3.037   0.735
 1729  WAT    O 7299   2.650   3.471   0.477
 1729  WAT   H1 7300   2.631   3.388   0.433
 1729  WAT   H2 7301   2.618   3.538   0.417
 1729  WAT  EPW 7302   2.643   3.469   0.464
 1730  WAT    O 7303   3.260   1.658   1.640
 1730  WAT   H1 7304   3.206   1.606   1.700
 1730  WAT   H2 7305   3.214   1.741   1.631
 1730  WAT  EPW 7306   3.247   1.662   1.646
 1731  WAT    O 7307   3.019   3.272   0.797
 1731  WAT   H1 7308   2.965   3.332   0.746
 1731  WAT   H2 7309   2.980   3.186   0.783
 1731  WAT  EPW 7310   3.007   3.269   0.789
 1732  WAT    O 7311   3.397   2.413   1.160
 1732  WAT   H1 7312   3.307   2.380   1.151
 1732  WAT   H2 7313   3.387   2.502   1.192
 1732  WAT  EPW 7314   3.384   2.420   1.163
 1733  WAT    O 7315   2.429   3.509   0.695
 1733  WAT   H1 7316   2.425   3.440   0.761
 1733  WAT   H2 7317   2.476   3.469   0.622
 1733  WAT  EPW 7318   2.434   3.495   0.694
 1734  WAT    O 7319   2.580   2.320   0.875
 1734  WAT   H1 7320   2.535   2.244   0.913
 1734  WAT   H2 7321   2.652   2.282   0.825
 1734  WAT  EPW 7322   2.583   2.305   0.874
 1735  WAT    O 7323   2.733   2.732   1.046
 1735  WAT   H1 7324   2.706   2.814   1.086
 1735  WAT   H2 7325   2.828   2.731   1.057
 1735  WAT  EPW 7326   2.742   2.742   1.053
 1736  WAT    O 7327   2.282   1.993   0.273
 1736  WAT   H1 7328   2.267   2.088   0.266
 1736  WAT   H2 7329   2.203   1.960   0.316
 1736  WAT  EPW 7330   2.270   2.001   0.278
 1737  WAT    O 7331   2.669   3.454   0.871
 1737  WAT   H1 7332   2.748   3.508   0.866
 1737  WAT   H2 7333   2.609   3.494   0.808
 1737  WAT  EPW 7334   2.671   3.466   0.862
 1738  WAT    O 7335   2.647   2.028   1.515
 1738  WAT   H1 7336   2.600   2.088   1.574
 1738  WAT   H2 7337   2.707   2.084   1.466
 1738  WAT  EPW 7338   2.649   2.043   1.516
 1739  WAT    O 7339   2.968   3.317   0.356
 1739  WAT   H1 7340   2.931   3.375   0.423
 1739  WAT   H2 7341   3.057   3.350   0.343
 1739  WAT  EPW 7342   2.974   3.329   0.363
 1740  WAT    O 7343   1.687   1.808   1.118
 1740  WAT   H1 7344   1.773   1.804   1.160
 1740  WAT   H2 7345   1.705   1.823   1.025
 1740  WAT  EPW 7346   1.700   1.809   1.112
 1741  WAT    O 7347   2.778   2.561   0.855
 1741  WAT   H1 7348   2.751   2.625   0.921
 1741  WAT   H2 7349   2.698   2.543   0.805
 1741  WAT  EPW 7350   2.765   2.567   0.857
 1742  WAT    O 7351   1.768   2.215   0.321
 1742  WAT   H1 7352   1.808   2.273   0.386
 1742  WAT   H2 7353   1.722   2.273   0.261
 1742  WAT  EPW 7354   1.767   2.230   0.322
 1743  WAT    O 7355   2.776   2.394   1.111
 1743  WAT   H1 7356   2.760   2.425   1.022
 1743  WAT   H2 7357   2.690   2.368   1.143
 1743  WAT  EPW 7358   2.763   2.395   1.104
 1744  WAT    O 7359   2.798   1.817   1.525
 1744  WAT   H1 7360   2.798   1.788   1.434
 1744  WAT   H2 7361   2.731   1.885   1.529
 1744  WAT  EPW 7362   2.789   1.822   1.514
 1745  WAT    O 7363   3.204   2.230   1.488
 1745  WAT   H1 7364   3.275   2.167   1.497
 1745  WAT   H2 7365   3.248   2.314   1.473
 1745  WAT  EPW 7366   3.219   2.233   1.487
 1746  WAT    O 7367   1.807   2.409   0.840
 1746  WAT   H1 7368   1.729   2.459   0.863
 1746  WAT   H2 7369   1.781   2.317   0.852
 1746  WAT  EPW 7370   1.794   2.403   0.844
 1747  WAT    O 7371   3.351   3.358   1.045
 1747  WAT   H1 7372   3.380   3.348   1.136
 1747  WAT   H2 7373   3.273   3.413   1.050
 1747  WAT  EPW 7374   3.345   3.364   1.057
 1748  WAT    O 7375   2.117   2.824   0.551
 1748  WAT   H1 7376   2.108   2.902   0.605
 1748  WAT   H2 7377   2.124   2.752   0.613
 1748  WAT  EPW 7378   2.116   2.825   0.566
 1749  WAT    O 7379   2.235   1.690   0.414
 1749  WAT   H1 7380   2.195   1.657   0.494
 1749  WAT   H2 7381   2.246   1.613   0.359
 1749  WAT  EPW 7382   2.231   1.676   0.417
 1750  WAT    O 7383   3.344   3.236   0.388
 1750  WAT   H1 7384   3.351   3.173   0.460
 1750  WAT   H2 7385   3.350   3.183   0.309
 1750  WAT  EPW 7386   3.345   3.221   0.387
 1751  WAT    O 7387   2.504   1.984   0.441
 1751  WAT   H1 7388   2.419   1.970   0.400
 1751  WAT   H2 7389   2.509   2.079   0.455
 1751  WAT  EPW 7390   2.494   1.995   0.438
 1752  WAT    O 7391   1.754   3.345   1.103
 1752  WAT   H1 7392   1.725   3.317   1.016
 1752  WAT   H2 7393   1.723   3.435   1.112
 1752  WAT  EPW 7394   1.746   3.353   1.093
 1753  WAT    O 7395   3.107   1.876   1.507
 1753  WAT   H1 7396   3.113   1.842   1.418
 1753  WAT   H2 7397   3.013   1.881   1.525
 1753  WAT  EPW 7398   3.095   1.873   1.498
 1754  WAT    O 7399   2.145   3.081   1.043
 1754  WAT   H1 7400   2.088   3.150   1.078
 1754  WAT   H2 7401   2.100   3.000   1.064
 1754  WAT  EPW 7402   2.132   3.080   1.050
 1755  WAT    O 7403   2.576   1.802   0.250
 1755  WAT   H1 7404   2.553   1.880   0.300
 1755  WAT   H2 7405   2.666   1.817   0.221
 1755  WAT  EPW 7406   2.584   1.814   0.253
 1756  WAT    O 7407   3.118   1.774   0.737
 1756  WAT   H1 7408   3.205   1.734   0.743
 1756  WAT   H2 7409   3.108   1.797   0.645
 1756  WAT  EPW 7410   3.128   1.772   0.726
 1757  WAT    O 7411   2.809   1.800   1.251
 1757  WAT   H1 7412   2.783   1.723   1.201
 1757  WAT   H2 7413   2.905   1.801   1.246
 1757  WAT  EPW 7414   2.818   1.790   1.244
 1758  WAT    O 7415   3.121   2.160   0.262
 1758  WAT   H1 7416   3.099   2.135   0.352
 1758  WAT   H2 7417   3.202   2.114   0.244
 1758  WAT  EPW 7418   3.128   2.151   0.271
 1759  WAT    O 7419   2.501   2.015   0.779
 1759  WAT   H1 7420   2.416   1.972   0.770
 1759  WAT   H2 7421   2.511   2.030   0.873
 1759  WAT  EPW 7422   2.491   2.012   0.790
 1760  WAT    O 7423   2.364   1.717   1.494
 1760  WAT   H1 7424   2.309   1.748   1.566
 1760  WAT   H2 7425   2.370   1.792   1.434
 1760  WAT  EPW 7426   2.358   1.731   1.495
 1761  WAT    O 7427   2.243   2.969   0.362
 1761  WAT   H1 7428   2.180   2.923   0.418
 1761  WAT   H2 7429   2.195   3.042   0.325
 1761  WAT  EPW 7430   2.229   2.972   0.365
 1762  WAT    O 7431   2.831   3.136   1.183
 1762  WAT   H1 7432   2.811   3.105   1.271
 1762  WAT   H2 7433   2.883   3.065   1.144
 1762  WAT  EPW 7434   2.835   3.123   1.189
 1763  WAT    O 7435   3.096   2.896   1.448
 1763  WAT   H1 7436   3.032   2.843   1.495
 1763  WAT   H2 7437   3.092   2.864   1.358
 1763  WAT  EPW 7438   3.087   2.885   1.442
 1764  WAT    O 7439   1.708   3.068   1.198
 1764  WAT   H1 7440   1.670   3.152   1.222
 1764  WAT   H2 7441   1.791   3.091   1.155
 1764  WAT  EPW 7442   1.714   3.082   1.196
 1765  WAT    O 7443   1.899   2.031   0.740
 1765  WAT   H1 7444   1.889   1.984   0.657
 1765  WAT   H2 7445   1.981   1.998   0.777
 1765  WAT  EPW 7446   1.908   2.021   0.734
 1766  WAT    O 7447   3.362   2.680   1.229
 1766  WAT   H1 7448   3.273   2.701   1.257
 1766  WAT   H2 7449   3.390   2.755   1.177
 1766  WAT  EPW 7450   3.354   2.692   1.226
 1767  WAT    O 7451   3.269   2.882   0.273
 1767  WAT   H1 7452   3.271   2.893   0.368
 1767  WAT   H2 7453   3.286   2.969   0.237
 1767  WAT  EPW 7454   3.272   2.894   0.280
 1768  WAT    O 7455   3.207   3.476   0.303
 1768  WAT   H1 7456   3.180   3.472   0.211
 1768  WAT   H2 7457   3.269   3.404   0.313
 1768  WAT  EPW 7458   3.211   3.466   0.293
 1769  WAT    O 7459   2.115   1.956   0.866
 1769  WAT   H1 7460   2.160   1.899   0.927
 1769  WAT   H2 7461   2.171   1.958   0.789
 1769  WAT  EPW 7462   2.128   1.949   0.864
 1770  WAT    O 7463   2.898   3.630   0.884
 1770  WAT   H1 7464   2.975   3.614   0.831
 1770  WAT   H2 7465   2.895   3.725   0.895
 1770  WAT  EPW 7466   2.907   3.640   0.879
 1771  WAT    O 7467   2.555   3.271   0.307
 1771  WAT   H1 7468   2.531   3.190   0.352
 1771  WAT   H2 7469   2.474   3.299   0.264
 1771  WAT  EPW 7470   2.541   3.264   0.307
 1772  WAT    O 7471   3.105   2.783   1.208
 1772  WAT   H1 7472   3.044   2.710   1.213
 1772  WAT   H2 7473   3.062   2.846   1.149
 1772  WAT  EPW 7474   3.092   2.782   1.201
 1773  WAT    O 7475   2.015   2.842   1.050
 1773  WAT   H1 7476   1.969   2.877   0.974
 1773  WAT   H2 7477   2.023   2.748   1.033
 1773  WAT  EPW 7478   2.010   2.835   1.038
 1774  WAT    O 7479   1.834   2.606   0.269
 1774  WAT   H1 7480   1.930   2.610   0.271
 1774  WAT   H2 7481   1.807   2.698   0.273
 1774  WAT  EPW 7482   1.843   2.618   0.270
 1775  WAT    O 7483   2.901   2.361   0.304
 1775  WAT   H1 7484   2.963   2.406   0.246
 1775  WAT   H2 7485   2.820   2.412   0.296
 1775  WAT  EPW 7486   2.899   2.374   0.296
 1776  WAT    O 7487   2.130   3.175   0.227
 1776  WAT   H1 7488   2.060   3.215   0.176
 1776  WAT   H2 7489   2.174   3.115   0.167
 1776  WAT  EPW 7490   2.127   3.172   0.213
 1777  WAT    O 7491   2.991   2.969   1.010
 1777  WAT   H1 7492   2.973   2.962   0.916
 1777  WAT   H2 7493   3.069   3.024   1.015
 1777  WAT  EPW 7494   2.998   2.975   0.998
 1778  WAT    O 7495   2.472   2.608   0.442
 1778  WAT   H1 7496   2.524   2.548   0.388
 1778  WAT   H2 7497   2.445   2.677   0.381
 1778  WAT  EPW 7498   2.475   2.609   0.427
 1779  WAT    O 7499   3.175   3.464   1.371
 1779  WAT   H1 7500   3.216   3.482   1.455
 1779  WAT   H2 7501   3.148   3.373   1.375
 1779  WAT  EPW 7502   3.177   3.455   1.382
 1780  WAT    O 7503   3.077   1.931   1.197
 1780  WAT   H1 7504   3.048   2.013   1.237
 1780  WAT   H2 7505   3.054   1.939   1.105
 1780  WAT  EPW 7506   3.070   1.942   1.191
 1781  WAT    O 7507   3.426   3.229   1.570
 1781  WAT   H1 7508   3.349   3.232   1.626
 1781  WAT   H2 7509   3.488   3.290   1.611
 1781  WAT  EPW 7510   3.424   3.237   1.582
 1782  WAT    O 7511   3.478   2.064   0.446
 1782  WAT   H1 7512   3.536   2.113   0.387
 1782  WAT   H2 7513   3.421   2.131   0.484
 1782  WAT  EPW 7514   3.478   2.079   0.443
 1783  WAT    O 7515   2.250   1.946   0.633
 1783  WAT   H1 7516   2.232   2.005   0.559
 1783  WAT   H2 7517   2.298   1.873   0.594
 1783  WAT  EPW 7518   2.254   1.944   0.618
 1784  WAT    O 7519   1.610   2.605   0.490
 1784  WAT   H1 7520   1.670   2.631   0.420
 1784  WAT   H2 7521   1.641   2.655   0.567
 1784  WAT  EPW 7522   1.622   2.615   0.491
 1785  WAT    O 7523   1.879   2.956   0.871
 1785  WAT   H1 7524   1.904   3.025   0.810
 1785  WAT   H2 7525   1.791   2.982   0.901
 1785  WAT  EPW 7526   1.871   2.968   0.867
 1786  WAT    O 7527   3.247   2.715   0.569
 1786  WAT   H1 7528   3.333   2.681   0.542
 1786  WAT   H2 7529   3.250   2.712   0.665
 1786  WAT  EPW 7530   3.259   2.710   0.578
 1787  WAT    O 7531   2.895   2.338   1.566
 1787  WAT   H1 7532   2.817   2.334   1.621
 1787  WAT   H2 7533   2.959   2.283   1.612
 1787  WAT  EPW 7534   2.893   2.331   1.579
 1788  WAT    O 7535   3.455   1.717   0.520
 1788  WAT   H1 7536   3.395   1.682   0.586
 1788  WAT   H2 7537   3.527   1.654   0.516
 1788  WAT  EPW 7538   3.457   1.705   0.528
 1789  WAT    O 7539   3.035   2.191   1.287
 1789  WAT   H1 7540   3.104   2.210   1.350
 1789  WAT   H2 7541   2.971   2.261   1.298
 1789  WAT  EPW 7542   3.036   2.202   1.296
 1790  WAT    O 7543   3.081   3.418   1.034
 1790  WAT   H1 7544   3.034   3.501   1.033
 1790  WAT   H2 7545   3.028   3.359   0.980
 1790  WAT  EPW 7546   3.068   3.421   1.027
 1791  WAT    O 7547   2.032   1.417   4.917
 1791  WAT   H1 7548   1.937   1.410   4.913
 1791  WAT   H2 7549   2.051   1.447   5.005
 1791  WAT  EPW 7550   2.023   1.420   4.927
 1792  WAT    O 7551   2.509   1.161   4.233
 1792  WAT   H1 7552   2.492   1.177   4.326
 1792  WAT   H2 7553   2.432   1.112   4.202
 1792  WAT  EPW 7554   2.497   1.157   4.241
 1793  WAT    O 7555   2.166   0.651   3.766
 1793  WAT   H1 7556   2.151   0.696   3.849
 1793  WAT   H2 7557   2.237   0.590   3.785
 1793  WAT  EPW 7558   2.173   0.649   3.779
 1794  WAT    O 7559   3.182   1.267   3.585
 1794  WAT   H1 7560   3.096   1.299   3.559
 1794  WAT   H2 7561   3.173   1.171   3.584
 1794  WAT  EPW 7562   3.170   1.259   3.581
 1795  WAT    O 7563   1.855   1.276   4.262
 1795  WAT   H1 7564   1.859   1.366   4.228
 1795  WAT   H2 7565   1.775   1.274   4.315
 1795  WAT  EPW 7566   1.845   1.287   4.265
 1796  WAT    O 7567   2.326   1.455   3.931
 1796  WAT   H1 7568   2.246   1.403   3.932
 1796  WAT   H2 7569   2.360   1.445   3.842
 1796  WAT  EPW 7570   2.320   1.447   3.920
 1797  WAT    O 7571   2.717   0.954   4.178
 1797  WAT   H1 7572   2.674   0.893   4.117
 1797  WAT   H2 7573   2.650   1.020   4.196
 1797  WAT  EPW 7574   2.703   0.955   4.172
 1798  WAT    O 7575   3.404   0.446   4.287
 1798  WAT   H1 7576   3.326   0.457   4.342
 1798  WAT   H2 7577   3.438   0.535   4.276
 1798  WAT  EPW 7578   3.398   0.459   4.293
 1799  WAT    O 7579   2.824   0.873   3.732
 1799  WAT   H1 7580   2.901   0.875   3.789
 1799  WAT   H2 7581   2.856   0.836   3.650
 1799  WAT  EPW 7582   2.838   0.868   3.729
 1800  WAT    O 7583   3.398   0.837   3.905
 1800  WAT   H1 7584   3.361   0.901   3.966
 1800  WAT   H2 7585   3.322   0.794   3.866
 1800  WAT  EPW 7586   3.384   0.839   3.908
 1801  WAT    O 7587   3.196   0.997   3.607
 1801  WAT   H1 7588   3.200   0.983   3.512
 1801  WAT   H2 7589   3.285   1.023   3.631
 1801  WAT  EPW 7590   3.208   0.998   3.598
 1802  WAT    O 7591   2.896   1.213   4.266
 1802  WAT   H1 7592   2.913   1.298   4.226
 1802  WAT   H2 7593   2.820   1.180   4.219
 1802  WAT  EPW 7594   2.888   1.220   4.255
 1803  WAT    O 7595   2.875   1.546   4.391
 1803  WAT   H1 7596   2.933   1.619   4.374
 1803  WAT   H2 7597   2.796   1.564   4.339
 1803  WAT  EPW 7598   2.872   1.558   4.382
 1804  WAT    O 7599   2.107   0.271   4.243
 1804  WAT   H1 7600   2.066   0.271   4.156
 1804  WAT   H2 7601   2.058   0.338   4.292
 1804  WAT  EPW 7602   2.095   0.280   4.238
 1805  WAT    O 7603   2.515   0.410   4.098
 1805  WAT   H1 7604   2.433   0.408   4.050
 1805  WAT   H2 7605   2.490   0.391   4.189
 1805  WAT  EPW 7606   2.502   0.407   4.103
 1806  WAT    O 7607   2.227   1.376   4.560
 1806  WAT   H1 7608   2.201   1.339   4.644
 1806  WAT   H2 7609   2.300   1.322   4.531
 1806  WAT  EPW 7610   2.233   1.365   4.567
 1807  WAT    O 7611   2.051   1.196   4.431
 1807  WAT   H1 7612   1.978   1.226   4.376
 1807  WAT   H2 7613   2.110   1.271   4.436
 1807  WAT  EPW 7614   2.049   1.209   4.425
 1808  WAT    O 7615   1.998   0.572   3.565
 1808  WAT   H1 7616   1.938   0.646   3.555
 1808  WAT   H2 7617   2.061   0.601   3.631
 1808  WAT  EPW 7618   1.998   0.585   3.572
 1809  WAT    O 7619   2.441   1.418   3.694
 1809  WAT   H1 7620   2.487   1.336   3.712
 1809  WAT   H2 7621   2.510   1.482   3.680
 1809  WAT  EPW 7622   2.455   1.416   3.695
 1810  WAT    O 7623   2.313   0.467   4.593
 1810  WAT   H1 7624   2.401   0.497   4.616
 1810  WAT   H2 7625   2.322   0.434   4.503
 1810  WAT  EPW 7626   2.325   0.467   4.584
 1811  WAT    O 7627   3.256   0.850   4.623
 1811  WAT   H1 7628   3.300   0.901   4.691
 1811  WAT   H2 7629   3.188   0.800   4.670
 1811  WAT  EPW 7630   3.253   0.850   4.638
 1812  WAT    O 7631   3.377   1.027   4.846
 1812  WAT   H1 7632   3.306   1.087   4.826
 1812  WAT   H2 7633   3.449   1.083   4.876
 1812  WAT  EPW 7634   3.377   1.042   4.847
 1813  WAT    O 7635   2.728   1.133   3.740
 1813  WAT   H1 7636   2.759   1.044   3.755
 1813  WAT   H2 7637   2.781   1.187   3.799
 1813  WAT  EPW 7638   2.739   1.128   3.749
 1814  WAT    O 7639   2.991   0.182   3.797
 1814  WAT   H1 7640   3.001   0.216   3.886
 1814  WAT   H2 7641   2.978   0.259   3.743
 1814  WAT  EPW 7642   2.990   0.196   3.802
 1815  WAT    O 7643   3.255   0.267   4.530
 1815  WAT   H1 7644   3.346   0.268   4.559
 1815  WAT   H2 7645   3.255   0.208   4.454
 1815  WAT  EPW 7646   3.266   0.259   4.524
 1816  WAT    O 7647   3.039   0.700   4.715
 1816  WAT   H1 7648   2.952   0.675   4.686
 1816  WAT   H2 7649   3.074   0.622   4.758
 1816  WAT  EPW 7650   3.033   0.687   4.717
 1817  WAT    O 7651   2.474   0.350   4.361
 1817  WAT   H1 7652   2.482   0.272   4.416
 1817  WAT   H2 7653   2.518   0.419   4.411
 1817  WAT  EPW 7654   2.480   0.349   4.375
 1818  WAT    O 7655   3.342   1.224   3.895
 1818  WAT   H1 7656   3.354   1.312   3.858
 1818  WAT   H2 7657   3.362   1.165   3.823
 1818  WAT  EPW 7658   3.346   1.228   3.881
 1819  WAT    O 7659   1.781   1.572   4.013
 1819  WAT   H1 7660   1.703   1.559   3.960
 1819  WAT   H2 7661   1.778   1.665   4.038
 1819  WAT  EPW 7662   1.771   1.583   4.010
 1820  WAT    O 7663   2.417   1.199   4.482
 1820  WAT   H1 7664   2.369   1.118   4.500
 1820  WAT   H2 7665   2.490   1.198   4.544
 1820  WAT  EPW 7666   2.420   1.189   4.493
 1821  WAT    O 7667   3.758   0.491   4.321
 1821  WAT   H1 7668   3.759   0.459   4.411
 1821  WAT   H2 7669   3.753   0.586   4.328
 1821  WAT  EPW 7670   3.757   0.499   4.333
 1822  WAT    O 7671   2.697   0.284   3.709
 1822  WAT   H1 7672   2.634   0.212   3.711
 1822  WAT   H2 7673   2.719   0.300   3.801
 1822  WAT  EPW 7674   2.692   0.277   3.721
 1823  WAT    O 7675   2.371   0.449   4.921
 1823  WAT   H1 7676   2.286   0.417   4.953
 1823  WAT   H2 7677   2.418   0.370   4.895
 1823  WAT  EPW 7678   2.366   0.435   4.922
 1824  WAT    O 7679   1.954   1.425   3.867
 1824  WAT   H1 7680   1.896   1.475   3.924
 1824  WAT   H2 7681   1.977   1.486   3.797
 1824  WAT  EPW 7682   1.950   1.439   3.865
 1825  WAT    O 7683   3.314   0.581   3.709
 1825  WAT   H1 7684   3.269   0.557   3.790
 1825  WAT   H2 7685   3.407   0.567   3.729
 1825  WAT  EPW 7686   3.320   0.576   3.722
 1826  WAT    O 7687   3.189   1.243   4.893
 1826  WAT   H1 7688   3.154   1.233   4.981
 1826  WAT   H2 7689   3.203   1.337   4.884
 1826  WAT  EPW 7690   3.186   1.254   4.903
 1827  WAT    O 7691   2.717   0.296   3.975
 1827  WAT   H1 7692   2.635   0.324   4.015
 1827  WAT   H2 7693   2.785   0.335   4.031
 1827  WAT  EPW 7694   2.715   0.305   3.988
 1828  WAT    O 7695   2.018   0.655   4.785
 1828  WAT   H1 7696   1.980   0.643   4.872
 1828  WAT   H2 7697   1.962   0.604   4.727
 1828  WAT  EPW 7698   2.006   0.647   4.788
 1829  WAT    O 7699   2.919   0.806   4.330
 1829  WAT   H1 7700   2.973   0.856   4.391
 1829  WAT   H2 7701   2.849   0.867   4.305
 1829  WAT  EPW 7702   2.917   0.820   4.335
 1830  WAT    O 7703   1.717   0.963   4.412
 1830  WAT   H1 7704   1.756   0.956   4.325
 1830  WAT   H2 7705   1.778   0.917   4.470
 1830  WAT  EPW 7706   1.730   0.956   4.409
 1831  WAT    O 7707   3.189   0.531   3.950
 1831  WAT   H1 7708   3.185   0.593   4.023
 1831  WAT   H2 7709   3.153   0.450   3.985
 1831  WAT  EPW 7710   3.184   0.528   3.963
 1832  WAT    O 7711   2.664   0.617   3.997
 1832  WAT   H1 7712   2.597   0.549   4.000
 1832  WAT   H2 7713   2.672   0.639   3.905
 1832  WAT  EPW 7714   2.657   0.611   3.986
 1833  WAT    O 7715   2.783   1.515   4.909
 1833  WAT   H1 7716   2.728   1.508   4.831
 1833  WAT   H2 7717   2.819   1.427   4.921
 1833  WAT  EPW 7718   2.780   1.503   4.901
 1834  WAT    O 7719   2.131   0.347   4.789
 1834  WAT   H1 7720   2.072   0.273   4.774
 1834  WAT   H2 7721   2.192   0.345   4.715
 1834  WAT  EPW 7722   2.131   0.338   4.778
 1835  WAT    O 7723   2.269   0.967   4.592
 1835  WAT   H1 7724   2.265   0.871   4.588
 1835  WAT   H2 7725   2.224   0.989   4.673
 1835  WAT  EPW 7726   2.263   0.957   4.602
 1836  WAT    O 7727   1.627   0.542   3.974
 1836  WAT   H1 7728   1.694   0.602   4.008
 1836  WAT   H2 7729   1.544   0.585   3.993
 1836  WAT  EPW 7730   1.625   0.555   3.981
 1837  WAT    O 7731   1.861   0.987   4.194
 1837  WAT   H1 7732   1.929   0.959   4.256
 1837  WAT   H2 7733   1.871   1.082   4.189
 1837  WAT  EPW 7734   1.871   0.995   4.202
 1838  WAT    O 7735   2.402   0.860   3.703
 1838  WAT   H1 7736   2.364   0.829   3.621
 1838  WAT   H2 7737   2.426   0.951   3.685
 1838  WAT  EPW 7738   2.400   0.868   3.690
 1839  WAT    O 7739   2.653   1.228   4.633
 1839  WAT   H1 7740   2.647   1.176   4.713
 1839  WAT   H2 7741   2.708   1.303   4.657
 1839  WAT  EPW 7742   2.660   1.231   4.647
 1840  WAT    O 7743   3.203   1.117   4.295
 1840  WAT   H1 7744   3.112   1.118   4.267
 1840  WAT   H2 7745   3.216   1.030   4.334
 1840  WAT  EPW 7746   3.193   1.106   4.296
 1841  WAT    O 7747   1.969   0.314   3.675
 1841  WAT   H1 7748   1.876   0.289   3.678
 1841  WAT   H2 7749   1.968   0.406   3.648
 1841  WAT  EPW 7750   1.957   0.322   3.672
 1842  WAT    O 7751   2.166   0.749   4.003
 1842  WAT   H1 7752   2.248   0.798   4.000
 1842  WAT   H2 7753   2.171   0.699   4.085
 1842  WAT  EPW 7754   2.177   0.749   4.013
 1843  WAT    O 7755   1.835   1.536   4.411
 1843  WAT   H1 7756   1.780   1.579   4.478
 1843  WAT   H2 7757   1.925   1.556   4.437
 1843  WAT  EPW 7758   1.839   1.544   4.423
 1844  WAT    O 7759   2.395   0.913   4.004
 1844  WAT   H1 7760   2.343   0.983   4.042
 1844  WAT   H2 7761   2.396   0.932   3.910
 1844  WAT  EPW 7762   2.389   0.924   3.997
 1845  WAT    O 7763   3.099   0.399   3.620
 1845  WAT   H1 7764   3.147   0.364   3.545
 1845  WAT   H2 7765   3.150   0.477   3.646
 1845  WAT  EPW 7766   3.112   0.405   3.614
 1846  WAT    O 7767   2.380   1.117   4.961
 1846  WAT   H1 7768   2.301   1.158   4.924
 1846  WAT   H2 7769   2.351   1.030   4.988
 1846  WAT  EPW 7770   2.366   1.111   4.959
 1847  WAT    O 7771   1.753   1.318   4.635
 1847  WAT   H1 7772   1.819   1.354   4.575
 1847  WAT   H2 7773   1.686   1.283   4.577
 1847  WAT  EPW 7774   1.753   1.318   4.620
 1848  WAT    O 7775   2.282   0.713   4.808
 1848  WAT   H1 7776   2.315   0.632   4.849
 1848  WAT   H2 7777   2.195   0.689   4.776
 1848  WAT  EPW 7778   2.275   0.699   4.809
 1849  WAT    O 7779   2.893   0.521   4.331
 1849  WAT   H1 7780   2.943   0.500   4.252
 1849  WAT   H2 7781   2.912   0.613   4.348
 1849  WAT  EPW 7782   2.902   0.530   4.323
 1850  WAT    O 7783   2.356   0.395   3.705
 1850  WAT   H1 7784   2.308   0.314   3.692
 1850  WAT   H2 7785   2.399   0.411   3.622
 1850  WAT  EPW 7786   2.355   0.387   3.693
 1851  WAT    O 7787   1.752   0.899   3.751
 1851  WAT   H1 7788   1.829   0.867   3.799
 1851  WAT   H2 7789   1.678   0.875   3.807
 1851  WAT  EPW 7790   1.753   0.892   3.764
 1852  WAT    O 7791   3.362   1.598   4.538
 1852  WAT   H1 7792   3.347   1.504   4.546
 1852  WAT   H2 7793   3.428   1.618   4.605
 1852  WAT  EPW 7794   3.369   1.588   4.548
 1853  WAT    O 7795   3.495   1.226   4.417
 1853  WAT   H1 7796   3.411   1.267   4.435
 1853  WAT   H2 7797   3.482   1.134   4.439
 1853  WAT  EPW 7798   3.483   1.219   4.422
 1854  WAT    O 7799   1.686   0.275   4.621
 1854  WAT   H1 7800   1.766   0.240   4.581
 1854  WAT   H2 7801   1.684   0.237   4.709
 1854  WAT  EPW 7802   1.696   0.265   4.627
 1855  WAT    O 7803   2.625   0.580   4.394
 1855  WAT   H1 7804   2.585   0.656   4.352
 1855  WAT   H2 7805   2.712   0.574   4.353
 1855  WAT  EPW 7806   2.631   0.589   4.383
 1856  WAT    O 7807   3.079   0.704   4.142
 1856  WAT   H1 7808   3.147   0.746   4.196
 1856  WAT   H2 7809   2.998   0.749   4.166
 1856  WAT  EPW 7810   3.077   0.715   4.152
 1857  WAT    O 7811   1.895   0.753   4.492
 1857  WAT   H1 7812   1.990   0.752   4.490
 1857  WAT   H2 7813   1.870   0.672   4.536
 1857  WAT  EPW 7814   1.904   0.743   4.498
 1858  WAT    O 7815   3.441   0.647   4.640
 1858  WAT   H1 7816   3.402   0.600   4.714
 1858  WAT   H2 7817   3.388   0.726   4.632
 1858  WAT  EPW 7818   3.430   0.651   4.649
 1859  WAT    O 7819   2.779   0.302   4.527
 1859  WAT   H1 7820   2.841   0.347   4.470
 1859  WAT   H2 7821   2.765   0.217   4.485
 1859  WAT  EPW 7822   2.785   0.297   4.514
 1860  WAT    O 7823   2.632   1.090   4.877
 1860  WAT   H1 7824   2.672   1.172   4.907
 1860  WAT   H2 7825   2.541   1.095   4.905
 1860  WAT  EPW 7826   2.626   1.101   4.884
 1861  WAT    O 7827   2.035   0.306   3.974
 1861  WAT   H1 7828   2.026   0.279   3.883
 1861  WAT   H2 7829   1.945   0.322   4.004
 1861  WAT  EPW 7830   2.022   0.304   3.966
 1862  WAT    O 7831   3.155   0.418   4.792
 1862  WAT   H1 7832   3.128   0.353   4.857
 1862  WAT   H2 7833   3.177   0.367   4.714
 1862  WAT  EPW 7834   3.154   0.403   4.790
 1863  WAT    O 7835   2.229   0.597   4.214
 1863  WAT   H1 7836   2.248   0.522   4.158
 1863  WAT   H2 7837   2.315   0.637   4.231
 1863  WAT  EPW 7838   2.243   0.593   4.209
 1864  WAT    O 7839   2.474   1.118   3.643
 1864  WAT   H1 7840   2.559   1.114   3.688
 1864  WAT   H2 7841   2.497   1.139   3.552
 1864  WAT  EPW 7842   2.488   1.120   3.637
 1865  WAT    O 7843   2.179   0.697   4.470
 1865  WAT   H1 7844   2.205   0.655   4.387
 1865  WAT   H2 7845   2.188   0.628   4.535
 1865  WAT  EPW 7846   2.184   0.683   4.467
 1866  WAT    O 7847   2.911   1.143   4.515
 1866  WAT   H1 7848   2.920   1.167   4.423
 1866  WAT   H2 7849   2.825   1.178   4.541
 1866  WAT  EPW 7850   2.901   1.150   4.507
 1867  WAT    O 7851   2.650   1.584   4.249
 1867  WAT   H1 7852   2.631   1.501   4.205
 1867  WAT   H2 7853   2.618   1.651   4.189
 1867  WAT  EPW 7854   2.643   1.582   4.236
 1868  WAT    O 7855   3.019   1.385   4.569
 1868  WAT   H1 7856   2.965   1.445   4.518
 1868  WAT   H2 7857   2.980   1.299   4.555
 1868  WAT  EPW 7858   3.007   1.382   4.561
 1869  WAT    O 7859   3.397   0.526   4.932
 1869  WAT   H1 7860   3.307   0.494   4.923
 1869  WAT   H2 7861   3.387   0.616   4.964
 1869  WAT  EPW 7862   3.384   0.533   4.935
 1870  WAT    O 7863   2.429   1.622   4.467
 1870  WAT   H1 7864   2.425   1.553   4.533
 1870  WAT   H2 7865   2.476   1.583   4.394
 1870  WAT  EPW 7866   2.434   1.608   4.466
 1871  WAT    O 7867   2.616   0.695   3.735
 1871  WAT   H1 7868   2.689   0.757   3.734
 1871  WAT   H2 7869   2.538   0.750   3.732
 1871  WAT  EPW 7870   2.616   0.710   3.735
 1872  WAT    O 7871   2.580   0.433   4.647
 1872  WAT   H1 7872   2.535   0.358   4.685
 1872  WAT   H2 7873   2.652   0.395   4.597
 1872  WAT  EPW 7874   2.583   0.418   4.646
 1873  WAT    O 7875   2.733   0.845   4.818
 1873  WAT   H1 7876   2.706   0.928   4.858
 1873  WAT   H2 7877   2.828   0.844   4.829
 1873  WAT  EPW 7878   2.742   0.856   4.825
 1874  WAT    O 7879   2.669   1.568   4.643
 1874  WAT   H1 7880   2.748   1.621   4.638
 1874  WAT   H2 7881   2.609   1.607   4.580
 1874  WAT  EPW 7882   2.671   1.580   4.634
 1875  WAT    O 7883   2.968   1.431   4.128
 1875  WAT   H1 7884   2.931   1.489   4.195
 1875  WAT   H2 7885   3.057   1.463   4.115
 1875  WAT  EPW 7886   2.974   1.442   4.135
 1876  WAT    O 7887   2.778   0.674   4.627
 1876  WAT   H1 7888   2.751   0.739   4.693
 1876  WAT   H2 7889   2.698   0.656   4.577
 1876  WAT  EPW 7890   2.765   0.680   4.629
 1877  WAT    O 7891   1.768   0.328   4.093
 1877  WAT   H1 7892   1.808   0.387   4.158
 1877  WAT   H2 7893   1.722   0.387   4.033
 1877  WAT  EPW 7894   1.767   0.343   4.094
 1878  WAT    O 7895   2.776   0.508   4.883
 1878  WAT   H1 7896   2.760   0.539   4.794
 1878  WAT   H2 7897   2.690   0.481   4.915
 1878  WAT  EPW 7898   2.763   0.508   4.876
 1879  WAT    O 7899   2.056   1.000   3.726
 1879  WAT   H1 7900   2.064   0.995   3.631
 1879  WAT   H2 7901   2.000   1.077   3.741
 1879  WAT  EPW 7902   2.050   1.009   3.716
 1880  WAT    O 7903   1.807   0.522   4.612
 1880  WAT   H1 7904   1.729   0.572   4.635
 1880  WAT   H2 7905   1.781   0.431   4.624
 1880  WAT  EPW 7906   1.794   0.517   4.616
 1881  WAT    O 7907   3.351   1.471   4.817
 1881  WAT   H1 7908   3.380   1.462   4.908
 1881  WAT   H2 7909   3.273   1.526   4.822
 1881  WAT  EPW 7910   3.345   1.477   4.829
 1882  WAT    O 7911   2.117   0.938   4.323
 1882  WAT   H1 7912   2.108   1.016   4.377
 1882  WAT   H2 7913   2.124   0.865   4.385
 1882  WAT  EPW 7914   2.116   0.938   4.338
 1883  WAT    O 7915   3.344   1.349   4.160
 1883  WAT   H1 7916   3.351   1.286   4.232
 1883  WAT   H2 7917   3.350   1.296   4.081
 1883  WAT  EPW 7918   3.345   1.334   4.159
 1884  WAT    O 7919   2.289   0.408   3.975
 1884  WAT   H1 7920   2.327   0.401   3.887
 1884  WAT   H2 7921   2.199   0.378   3.965
 1884  WAT  EPW 7922   2.283   0.403   3.962
 1885  WAT    O 7923   2.259   1.124   3.818
 1885  WAT   H1 7924   2.186   1.075   3.781
 1885  WAT   H2 7925   2.325   1.125   3.749
 1885  WAT  EPW 7926   2.258   1.117   3.805
 1886  WAT    O 7927   1.754   1.458   4.875
 1886  WAT   H1 7928   1.725   1.431   4.788
 1886  WAT   H2 7929   1.723   1.548   4.884
 1886  WAT  EPW 7930   1.746   1.466   4.865
 1887  WAT    O 7931   2.608   0.465   3.537
 1887  WAT   H1 7932   2.606   0.530   3.607
 1887  WAT   H2 7933   2.644   0.386   3.578
 1887  WAT  EPW 7934   2.613   0.463   3.551
 1888  WAT    O 7935   2.145   1.194   4.815
 1888  WAT   H1 7936   2.088   1.263   4.850
 1888  WAT   H2 7937   2.100   1.113   4.836
 1888  WAT  EPW 7938   2.132   1.193   4.822
 1889  WAT    O 7939   2.805   1.353   3.924
 1889  WAT   H1 7940   2.736   1.345   3.991
 1889  WAT   H2 7941   2.884   1.370   3.974
 1889  WAT  EPW 7942   2.806   1.354   3.939
 1890  WAT    O 7943   3.121   0.273   4.034
 1890  WAT   H1 7944   3.099   0.248   4.124
 1890  WAT   H2 7945   3.202   0.227   4.016
 1890  WAT  EPW 7946   3.128   0.264   4.043
 1891  WAT    O 7947   2.905   1.250   3.549
 1891  WAT   H1 7948   2.865   1.337   3.554
 1891  WAT   H2 7949   2.858   1.198   3.614
 1891  WAT  EPW 7950   2.894   1.254   3.558
 1892  WAT    O 7951   2.243   1.082   4.134
 1892  WAT   H1 7952   2.180   1.036   4.190
 1892  WAT   H2 7953   2.195   1.155   4.097
 1892  WAT  EPW 7954   2.229   1.085   4.137
 1893  WAT    O 7955   2.831   1.249   4.955
 1893  WAT   H1 7956   2.811   1.218   5.043
 1893  WAT   H2 7957   2.883   1.178   4.916
 1893  WAT  EPW 7958   2.835   1.236   4.961
 1894  WAT    O 7959   3.390   0.276   3.818
 1894  WAT   H1 7960   3.308   0.227   3.813
 1894  WAT   H2 7961   3.365   0.362   3.851
 1894  WAT  EPW 7962   3.376   0.281   3.821
 1895  WAT    O 7963   1.708   1.181   4.970
 1895  WAT   H1 7964   1.670   1.266   4.994
 1895  WAT   H2 7965   1.791   1.204   4.927
 1895  WAT  EPW 7966   1.714   1.195   4.968
 1896  WAT    O 7967   3.362   0.793   5.001
 1896  WAT   H1 7968   3.273   0.814   5.029
 1896  WAT   H2 7969   3.390   0.868   4.949
 1896  WAT  EPW 7970   3.354   0.805   4.998
 1897  WAT    O 7971   3.269   0.995   4.045
 1897  WAT   H1 7972   3.271   1.007   4.140
 1897  WAT   H2 7973   3.286   1.082   4.009
 1897  WAT  EPW 7974   3.272   1.008   4.052
 1898  WAT    O 7975   3.207   1.589   4.075
 1898  WAT   H1 7976   3.180   1.586   3.983
 1898  WAT   H2 7977   3.269   1.517   4.085
 1898  WAT  EPW 7978   3.211   1.579   4.065
 1899  WAT    O 7979   2.924   1.589   3.826
 1899  WAT   H1 7980   2.872   1.520   3.869
 1899  WAT   H2 7981   2.876   1.669   3.844
 1899  WAT  EPW 7982   2.911   1.590   3.834
 1900  WAT    O 7983   2.898   1.743   4.656
 1900  WAT   H1 7984   2.975   1.727   4.603
 1900  WAT   H2 7985   2.895   1.838   4.667
 1900  WAT  EPW 7986   2.907   1.753   4.651
 1901  WAT    O 7987   2.555   1.384   4.079
 1901  WAT   H1 7988   2.531   1.303   4.124
 1901  WAT   H2 7989   2.474   1.412   4.036
 1901  WAT  EPW 7990   2.541   1.377   4.079
 1902  WAT    O 7991   3.105   0.897   4.980
 1902  WAT   H1 7992   3.044   0.823   4.985
 1902  WAT   H2 7993   3.062   0.959   4.921
 1902  WAT  EPW 7994   3.092   0.895   4.973
 1903  WAT    O 7995   2.015   0.956   4.822
 1903  WAT   H1 7996   1.969   0.990   4.746
 1903  WAT   H2 7997   2.023   0.862   4.805
 1903  WAT  EPW 7998   2.010   0.948   4.810
 1904  WAT    O 7999   1.834   0.720   4.041
 1904  WAT   H1 8000   1.930   0.723   4.043
 1904  WAT   H2 8001   1.807   0.811   4.045
 1904  WAT  EPW 8002   1.843   0.732   4.042
 1905  WAT    O 8003   2.901   0.475   4.076
 1905  WAT   H1 8004   2.963   0.519   4.018
 1905  WAT   H2 8005   2.820   0.525   4.068
 1905  WAT  EPW 8006   2.899   0.487   4.068
 1906  WAT    O 8007   1.563   1.080   3.672
 1906  WAT   H1 8008   1.626   1.028   3.722
 1906  WAT   H2 8009   1.613   1.111   3.596
 1906  WAT  EPW 8010   1.578   1.077   3.669
 1907  WAT    O 8011   2.130   1.288   3.999
 1907  WAT   H1 8012   2.060   1.328   3.948
 1907  WAT   H2 8013   2.174   1.228   3.939
 1907  WAT  EPW 8014   2.127   1.286   3.985
 1908  WAT    O 8015   2.991   1.083   4.782
 1908  WAT   H1 8016   2.973   1.075   4.688
 1908  WAT   H2 8017   3.069   1.137   4.787
 1908  WAT  EPW 8018   2.998   1.089   4.770
 1909  WAT    O 8019   2.472   0.721   4.214
 1909  WAT   H1 8020   2.524   0.661   4.160
 1909  WAT   H2 8021   2.445   0.790   4.153
 1909  WAT  EPW 8022   2.475   0.722   4.199
 1910  WAT    O 8023   1.721   1.457   3.618
 1910  WAT   H1 8024   1.777   1.381   3.635
 1910  WAT   H2 8025   1.778   1.532   3.634
 1910  WAT  EPW 8026   1.735   1.456   3.622
 1911  WAT    O 8027   3.478   0.178   4.218
 1911  WAT   H1 8028   3.536   0.226   4.159
 1911  WAT   H2 8029   3.421   0.245   4.256
 1911  WAT  EPW 8030   3.478   0.192   4.215
 1912  WAT    O 8031   1.610   0.718   4.262
 1912  WAT   H1 8032   1.670   0.744   4.192
 1912  WAT   H2 8033   1.641   0.768   4.339
 1912  WAT  EPW 8034   1.622   0.728   4.263
 1913  WAT    O 8035   1.879   1.069   4.643
 1913  WAT   H1 8036   1.904   1.138   4.582
 1913  WAT   H2 8037   1.791   1.095   4.673
 1913  WAT  EPW 8038   1.871   1.081   4.639
 1914  WAT    O 8039   3.247   0.828   4.341
 1914  WAT   H1 8040   3.333   0.794   4.314
 1914  WAT   H2 8041   3.250   0.825   4.437
 1914  WAT  EPW 8042   3.259   0.823   4.350
 1915  WAT    O 8043   3.062   0.895   3.862
 1915  WAT   H1 8044   3.102   0.929   3.943
 1915  WAT   H2 8045   3.111   0.937   3.792
 1915  WAT  EPW 8046   3.073   0.905   3.864
 1916  WAT    O 8047   3.081   1.531   4.806
 1916  WAT   H1 8048   3.034   1.614   4.805
 1916  WAT   H2 8049   3.028   1.473   4.752
 1916  WAT  EPW 8050   3.068   1.534   4.799
 1917  WAT    O 8051   2.032   1.417   3.031
 1917  WAT   H1 8052   1.937   1.410   3.027
 1917  WAT   H2 8053   2.051   1.447   3.119
 1917  WAT  EPW 8054   2.023   1.420   3.041
 1918  WAT    O 8055   2.509   1.161   2.347
 1918  WAT   H1 8056   2.492   1.177   2.440
 1918  WAT   H2 8057   2.432   1.112   2.316
 1918  WAT  EPW 8058   2.497   1.157   2.355
 1919  WAT    O 8059   2.166   0.651   1.880
 1919  WAT   H1 8060   2.151   0.696   1.963
 1919  WAT   H2 8061   2.237   0.590   1.899
 1919  WAT  EPW 8062   2.173   0.649   1.893
 1920  WAT    O 8063   3.182   1.267   1.699
 1920  WAT   H1 8064   3.096   1.299   1.673
 1920  WAT   H2 8065   3.173   1.171   1.698
 1920  WAT  EPW 8066   3.170   1.259   1.695
 1921  WAT    O 8067   1.855   1.276   2.376
 1921  WAT   H1 8068   1.859   1.366   2.342
 1921  WAT   H2 8069   1.775   1.274   2.429
 1921  WAT  EPW 8070   1.845   1.287   2.379
 1922  WAT    O 8071   2.326   1.455   2.045
 1922  WAT   H1 8072   2.246   1.403   2.046
 1922  WAT   H2 8073   2.360   1.445   1.956
 1922  WAT  EPW 8074   2.320   1.447   2.034
 1923  WAT    O 8075   2.717   0.954   2.292
 1923  WAT   H1 8076   2.674   0.893   2.231
 1923  WAT   H2 8077   2.650   1.020   2.310
 1923  WAT  EPW 8078   2.703   0.955   2.286
 1924  WAT    O 8079   3.404   0.446   2.401
 1924  WAT   H1 8080   3.326   0.457   2.456
 1924  WAT   H2 8081   3.438   0.535   2.390
 1924  WAT  EPW 8082   3.398   0.459   2.407
 1925  WAT    O 8083   2.537   0.778   3.144
 1925  WAT   H1 8084   2.524   0.691   3.183
 1925  WAT   H2 8085   2.581   0.760   3.061
 1925  WAT  EPW 8086   2.541   0.764   3.139
 1926  WAT    O 8087   2.824   0.873   1.846
 1926  WAT   H1 8088   2.901   0.875   1.903
 1926  WAT   H2 8089   2.856   0.836   1.764
 1926  WAT  EPW 8090   2.838   0.868   1.843
 1927  WAT    O 8091   3.398   0.837   2.019
 1927  WAT   H1 8092   3.361   0.901   2.080
 1927  WAT   H2 8093   3.322   0.794   1.980
 1927  WAT  EPW 8094   3.384   0.839   2.022
 1928  WAT    O 8095   3.196   0.997   1.721
 1928  WAT   H1 8096   3.200   0.983   1.626
 1928  WAT   H2 8097   3.285   1.023   1.745
 1928  WAT  EPW 8098   3.208   0.998   1.712
 1929  WAT    O 8099   1.737   0.844   3.259
 1929  WAT   H1 8100   1.644   0.822   3.245
 1929  WAT   H2 8101   1.745   0.855   3.354
 1929  WAT  EPW 8102   1.726   0.843   3.270
 1930  WAT    O 8103   2.896   1.213   2.380
 1930  WAT   H1 8104   2.913   1.298   2.340
 1930  WAT   H2 8105   2.820   1.180   2.333
 1930  WAT  EPW 8106   2.888   1.220   2.369
 1931  WAT    O 8107   2.107   0.271   2.357
 1931  WAT   H1 8108   2.066   0.271   2.270
 1931  WAT   H2 8109   2.058   0.338   2.406
 1931  WAT  EPW 8110   2.095   0.280   2.352
 1932  WAT    O 8111   2.753   0.360   3.259
 1932  WAT   H1 8112   2.812   0.391   3.328
 1932  WAT   H2 8113   2.681   0.422   3.259
 1932  WAT  EPW 8114   2.752   0.372   3.268
 1933  WAT    O 8115   2.515   0.410   2.212
 1933  WAT   H1 8116   2.433   0.408   2.164
 1933  WAT   H2 8117   2.490   0.391   2.303
 1933  WAT  EPW 8118   2.502   0.407   2.217
 1934  WAT    O 8119   2.051   1.196   2.545
 1934  WAT   H1 8120   1.978   1.226   2.490
 1934  WAT   H2 8121   2.110   1.271   2.550
 1934  WAT  EPW 8122   2.049   1.209   2.539
 1935  WAT    O 8123   1.706   0.211   3.564
 1935  WAT   H1 8124   1.686   0.219   3.471
 1935  WAT   H2 8125   1.626   0.241   3.608
 1935  WAT  EPW 8126   1.693   0.216   3.558
 1936  WAT    O 8127   1.998   0.572   1.679
 1936  WAT   H1 8128   1.938   0.646   1.669
 1936  WAT   H2 8129   2.061   0.601   1.745
 1936  WAT  EPW 8130   1.998   0.585   1.686
 1937  WAT    O 8131   2.441   1.418   1.808
 1937  WAT   H1 8132   2.487   1.336   1.826
 1937  WAT   H2 8133   2.510   1.482   1.794
 1937  WAT  EPW 8134   2.455   1.416   1.809
 1938  WAT    O 8135   2.313   0.467   2.707
 1938  WAT   H1 8136   2.401   0.497   2.730
 1938  WAT   H2 8137   2.322   0.434   2.617
 1938  WAT  EPW 8138   2.325   0.467   2.698
 1939  WAT    O 8139   1.702   1.114   3.440
 1939  WAT   H1 8140   1.626   1.170   3.428
 1939  WAT   H2 8141   1.723   1.083   3.352
 1939  WAT  EPW 8142   1.695   1.117   3.427
 1940  WAT    O 8143   1.909   1.243   3.574
 1940  WAT   H1 8144   1.958   1.299   3.513
 1940  WAT   H2 8145   1.865   1.180   3.518
 1940  WAT  EPW 8146   1.910   1.242   3.559
 1941  WAT    O 8147   2.272   1.417   3.453
 1941  WAT   H1 8148   2.329   1.408   3.530
 1941  WAT   H2 8149   2.268   1.511   3.437
 1941  WAT  EPW 8150   2.279   1.428   3.461
 1942  WAT    O 8151   3.256   0.850   2.737
 1942  WAT   H1 8152   3.300   0.901   2.805
 1942  WAT   H2 8153   3.188   0.800   2.784
 1942  WAT  EPW 8154   3.253   0.850   2.752
 1943  WAT    O 8155   3.377   1.027   2.960
 1943  WAT   H1 8156   3.306   1.087   2.940
 1943  WAT   H2 8157   3.449   1.083   2.990
 1943  WAT  EPW 8158   3.377   1.042   2.961
 1944  WAT    O 8159   2.308   0.802   3.444
 1944  WAT   H1 8160   2.292   0.708   3.440
 1944  WAT   H2 8161   2.299   0.831   3.353
 1944  WAT  EPW 8162   2.304   0.794   3.431
 1945  WAT    O 8163   2.728   1.133   1.854
 1945  WAT   H1 8164   2.759   1.044   1.869
 1945  WAT   H2 8165   2.781   1.187   1.913
 1945  WAT  EPW 8166   2.739   1.128   1.863
 1946  WAT    O 8167   2.991   0.182   1.911
 1946  WAT   H1 8168   3.001   0.216   2.000
 1946  WAT   H2 8169   2.978   0.259   1.857
 1946  WAT  EPW 8170   2.990   0.196   1.916
 1947  WAT    O 8171   3.255   0.267   2.644
 1947  WAT   H1 8172   3.346   0.268   2.673
 1947  WAT   H2 8173   3.255   0.208   2.568
 1947  WAT  EPW 8174   3.266   0.259   2.638
 1948  WAT    O 8175   3.039   0.700   2.829
 1948  WAT   H1 8176   2.952   0.675   2.800
 1948  WAT   H2 8177   3.074   0.622   2.872
 1948  WAT  EPW 8178   3.033   0.687   2.831
 1949  WAT    O 8179   2.010   1.392   3.345
 1949  WAT   H1 8180   1.985   1.482   3.364
 1949  WAT   H2 8181   2.101   1.385   3.375
 1949  WAT  EPW 8182   2.019   1.403   3.351
 1950  WAT    O 8183   2.474   0.350   2.475
 1950  WAT   H1 8184   2.482   0.272   2.530
 1950  WAT   H2 8185   2.518   0.419   2.525
 1950  WAT  EPW 8186   2.480   0.349   2.489
 1951  WAT    O 8187   3.342   1.224   2.009
 1951  WAT   H1 8188   3.354   1.312   1.972
 1951  WAT   H2 8189   3.362   1.165   1.937
 1951  WAT  EPW 8190   3.346   1.228   1.995
 1952  WAT    O 8191   1.781   1.572   2.127
 1952  WAT   H1 8192   1.703   1.559   2.074
 1952  WAT   H2 8193   1.778   1.665   2.152
 1952  WAT  EPW 8194   1.771   1.583   2.124
 1953  WAT    O 8195   3.758   0.491   2.435
 1953  WAT   H1 8196   3.759   0.459   2.525
 1953  WAT   H2 8197   3.753   0.586   2.442
 1953  WAT  EPW 8198   3.757   0.499   2.447
 1954  WAT    O 8199   2.697   0.284   1.823
 1954  WAT   H1 8200   2.634   0.212   1.825
 1954  WAT   H2 8201   2.719   0.300   1.915
 1954  WAT  EPW 8202   2.692   0.277   1.835
 1955  WAT    O 8203   2.371   0.449   3.035
 1955  WAT   H1 8204   2.286   0.417   3.067
 1955  WAT   H2 8205   2.418   0.370   3.009
 1955  WAT  EPW 8206   2.366   0.435   3.036
 1956  WAT    O 8207   2.064   0.968   3.468
 1956  WAT   H1 8208   2.145   0.919   3.454
 1956  WAT   H2 8209   2.037   0.995   3.381
 1956  WAT  EPW 8210   2.070   0.965   3.455
 1957  WAT    O 8211   1.954   1.425   1.981
 1957  WAT   H1 8212   1.896   1.475   2.038
 1957  WAT   H2 8213   1.977   1.486   1.911
 1957  WAT  EPW 8214   1.950   1.439   1.979
 1958  WAT    O 8215   3.314   0.581   1.823
 1958  WAT   H1 8216   3.269   0.557   1.904
 1958  WAT   H2 8217   3.407   0.567   1.843
 1958  WAT  EPW 8218   3.320   0.576   1.836
 1959  WAT    O 8219   2.290   0.872   3.171
 1959  WAT   H1 8220   2.378   0.834   3.166
 1959  WAT   H2 8221   2.236   0.814   3.118
 1959  WAT  EPW 8222   2.294   0.860   3.164
 1960  WAT    O 8223   2.934   0.697   3.136
 1960  WAT   H1 8224   2.878   0.658   3.069
 1960  WAT   H2 8225   2.877   0.758   3.182
 1960  WAT  EPW 8226   2.920   0.700   3.133
 1961  WAT    O 8227   3.326   0.624   3.456
 1961  WAT   H1 8228   3.243   0.658   3.421
 1961  WAT   H2 8229   3.311   0.618   3.550
 1961  WAT  EPW 8230   3.313   0.627   3.463
 1962  WAT    O 8231   2.717   0.296   2.089
 1962  WAT   H1 8232   2.635   0.324   2.129
 1962  WAT   H2 8233   2.785   0.335   2.145
 1962  WAT  EPW 8234   2.715   0.305   2.102
 1963  WAT    O 8235   2.018   0.655   2.899
 1963  WAT   H1 8236   1.980   0.643   2.986
 1963  WAT   H2 8237   1.962   0.604   2.841
 1963  WAT  EPW 8238   2.006   0.647   2.902
 1964  WAT    O 8239   2.919   0.806   2.444
 1964  WAT   H1 8240   2.973   0.856   2.505
 1964  WAT   H2 8241   2.849   0.867   2.419
 1964  WAT  EPW 8242   2.917   0.820   2.449
 1965  WAT    O 8243   1.717   0.963   2.526
 1965  WAT   H1 8244   1.756   0.956   2.439
 1965  WAT   H2 8245   1.778   0.917   2.584
 1965  WAT  EPW 8246   1.730   0.956   2.523
 1966  WAT    O 8247   3.189   0.531   2.064
 1966  WAT   H1 8248   3.185   0.593   2.137
 1966  WAT   H2 8249   3.153   0.450   2.099
 1966  WAT  EPW 8250   3.184   0.528   2.077
 1967  WAT    O 8251   2.664   0.617   2.111
 1967  WAT   H1 8252   2.597   0.549   2.114
 1967  WAT   H2 8253   2.672   0.639   2.019
 1967  WAT  EPW 8254   2.657   0.611   2.100
 1968  WAT    O 8255   2.226   0.515   3.418
 1968  WAT   H1 8256   2.215   0.486   3.328
 1968  WAT   H2 8257   2.137   0.525   3.452
 1968  WAT  EPW 8258   2.213   0.512   3.411
 1969  WAT    O 8259   2.131   0.347   2.903
 1969  WAT   H1 8260   2.072   0.273   2.888
 1969  WAT   H2 8261   2.192   0.345   2.829
 1969  WAT  EPW 8262   2.131   0.338   2.892
 1970  WAT    O 8263   2.269   0.967   2.706
 1970  WAT   H1 8264   2.265   0.871   2.702
 1970  WAT   H2 8265   2.224   0.989   2.787
 1970  WAT  EPW 8266   2.263   0.957   2.716
 1971  WAT    O 8267   3.066   0.632   3.374
 1971  WAT   H1 8268   2.997   0.568   3.391
 1971  WAT   H2 8269   3.045   0.667   3.288
 1971  WAT  EPW 8270   3.054   0.628   3.365
 1972  WAT    O 8271   1.627   0.542   2.088
 1972  WAT   H1 8272   1.694   0.602   2.122
 1972  WAT   H2 8273   1.544   0.585   2.107
 1972  WAT  EPW 8274   1.625   0.555   2.095
 1973  WAT    O 8275   1.861   0.987   2.308
 1973  WAT   H1 8276   1.929   0.959   2.370
 1973  WAT   H2 8277   1.871   1.082   2.303
 1973  WAT  EPW 8278   1.871   0.995   2.316
 1974  WAT    O 8279   2.402   0.860   1.817
 1974  WAT   H1 8280   2.364   0.829   1.735
 1974  WAT   H2 8281   2.426   0.951   1.799
 1974  WAT  EPW 8282   2.400   0.868   1.804
 1975  WAT    O 8283   3.203   1.117   2.409
 1975  WAT   H1 8284   3.112   1.118   2.381
 1975  WAT   H2 8285   3.216   1.030   2.448
 1975  WAT  EPW 8286   3.193   1.106   2.410
 1976  WAT    O 8287   1.969   0.314   1.789
 1976  WAT   H1 8288   1.876   0.289   1.792
 1976  WAT   H2 8289   1.968   0.406   1.762
 1976  WAT  EPW 8290   1.957   0.322   1.786
 1977  WAT    O 8291   2.166   0.749   2.117
 1977  WAT   H1 8292   2.248   0.798   2.114
 1977  WAT   H2 8293   2.171   0.699   2.199
 1977  WAT  EPW 8294   2.177   0.749   2.127
 1978  WAT    O 8295   1.835   1.536   2.525
 1978  WAT   H1 8296   1.780   1.579   2.592
 1978  WAT   H2 8297   1.925   1.556   2.551
 1978  WAT  EPW 8298   1.839   1.544   2.537
 1979  WAT    O 8299   2.395   0.913   2.118
 1979  WAT   H1 8300   2.343   0.983   2.156
 1979  WAT   H2 8301   2.396   0.932   2.024
 1979  WAT  EPW 8302   2.389   0.924   2.111
 1980  WAT    O 8303   3.099   0.399   1.734
 1980  WAT   H1 8304   3.147   0.364   1.659
 1980  WAT   H2 8305   3.150   0.477   1.760
 1980  WAT  EPW 8306   3.112   0.405   1.728
 1981  WAT    O 8307   1.989   0.943   3.217
 1981  WAT   H1 8308   1.985   0.975   3.127
 1981  WAT   H2 8309   1.902   0.907   3.234
 1981  WAT  EPW 8310   1.977   0.942   3.208
 1982  WAT    O 8311   2.380   1.117   3.075
 1982  WAT   H1 8312   2.301   1.158   3.038
 1982  WAT   H2 8313   2.351   1.030   3.102
 1982  WAT  EPW 8314   2.366   1.111   3.073
 1983  WAT    O 8315   1.753   1.318   2.749
 1983  WAT   H1 8316   1.819   1.354   2.689
 1983  WAT   H2 8317   1.686   1.283   2.691
 1983  WAT  EPW 8318   1.753   1.318   2.734
 1984  WAT    O 8319   2.282   0.713   2.922
 1984  WAT   H1 8320   2.315   0.632   2.963
 1984  WAT   H2 8321   2.195   0.689   2.890
 1984  WAT  EPW 8322   2.275   0.699   2.923
 1985  WAT    O 8323   1.844   0.806   3.519
 1985  WAT   H1 8324   1.924   0.857   3.508
 1985  WAT   H2 8325   1.799   0.848   3.593
 1985  WAT  EPW 8326   1.848   0.818   3.527
 1986  WAT    O 8327   2.893   0.521   2.445
 1986  WAT   H1 8328   2.943   0.500   2.366
 1986  WAT   H2 8329   2.912   0.613   2.462
 1986  WAT  EPW 8330   2.902   0.530   2.437
 1987  WAT    O 8331   2.356   0.395   1.819
 1987  WAT   H1 8332   2.308   0.314   1.806
 1987  WAT   H2 8333   2.399   0.411   1.736
 1987  WAT  EPW 8334   2.355   0.387   1.807
 1988  WAT    O 8335   1.752   0.899   1.865
 1988  WAT   H1 8336   1.829   0.867   1.913
 1988  WAT   H2 8337   1.678   0.875   1.921
 1988  WAT  EPW 8338   1.753   0.892   1.878
 1989  WAT    O 8339   1.686   0.275   2.735
 1989  WAT   H1 8340   1.766   0.240   2.695
 1989  WAT   H2 8341   1.684   0.237   2.823
 1989  WAT  EPW 8342   1.696   0.265   2.741
 1990  WAT    O 8343   2.625   0.580   2.508
 1990  WAT   H1 8344   2.585   0.656   2.466
 1990  WAT   H2 8345   2.712   0.574   2.467
 1990  WAT  EPW 8346   2.631   0.589   2.497
 1991  WAT    O 8347   3.079   0.704   2.256
 1991  WAT   H1 8348   3.147   0.746   2.310
 1991  WAT   H2 8349   2.998   0.749   2.280
 1991  WAT  EPW 8350   3.077   0.715   2.266
 1992  WAT    O 8351   1.895   0.753   2.606
 1992  WAT   H1 8352   1.990   0.752   2.604
 1992  WAT   H2 8353   1.870   0.672   2.650
 1992  WAT  EPW 8354   1.904   0.743   2.612
 1993  WAT    O 8355   3.441   0.647   2.754
 1993  WAT   H1 8356   3.402   0.600   2.828
 1993  WAT   H2 8357   3.388   0.726   2.746
 1993  WAT  EPW 8358   3.430   0.651   2.763
 1994  WAT    O 8359   2.779   0.302   2.641
 1994  WAT   H1 8360   2.841   0.347   2.584
 1994  WAT   H2 8361   2.765   0.217   2.599
 1994  WAT  EPW 8362   2.785   0.297   2.628
 1995  WAT    O 8363   2.035   0.306   2.088
 1995  WAT   H1 8364   2.026   0.279   1.997
 1995  WAT   H2 8365   1.945   0.322   2.118
 1995  WAT  EPW 8366   2.022   0.304   2.080
 1996  WAT    O 8367   3.155   0.418   2.906
 1996  WAT   H1 8368   3.128   0.353   2.971
 1996  WAT   H2 8369   3.177   0.367   2.828
 1996  WAT  EPW 8370   3.154   0.403   2.904
 1997  WAT    O 8371   2.229   0.597   2.328
 1997  WAT   H1 8372   2.248   0.522   2.272
 1997  WAT   H2 8373   2.315   0.637   2.345
 1997  WAT  EPW 8374   2.243   0.593   2.323
 1998  WAT    O 8375   2.474   1.118   1.757
 1998  WAT   H1 8376   2.559   1.114   1.802
 1998  WAT   H2 8377   2.497   1.139   1.666
 1998  WAT  EPW 8378   2.488   1.120   1.751
 1999  WAT    O 8379   2.179   0.697   2.584
 1999  WAT   H1 8380   2.205   0.655   2.501
 1999  WAT   H2 8381   2.188   0.628   2.649
 1999  WAT  EPW 8382   2.184   0.683   2.581
 2000  WAT    O 8383   2.911   1.143   2.629
 2000  WAT   H1 8384   2.920   1.167   2.537
 2000  WAT   H2 8385   2.825   1.178   2.655
 2000  WAT  EPW 8386   2.901   1.150   2.621
 2001  WAT    O 8387   2.808   1.508   1.672
 2001  WAT   H1 8388   2.824   1.591   1.629
 2001  WAT   H2 8389   2.835   1.522   1.763
 2001  WAT  EPW 8390   2.814   1.520   1.678
 2002  WAT    O 8391   3.397   0.526   3.046
 2002  WAT   H1 8392   3.307   0.494   3.037
 2002  WAT   H2 8393   3.387   0.616   3.078
 2002  WAT  EPW 8394   3.384   0.533   3.049
 2003  WAT    O 8395   2.616   0.695   1.849
 2003  WAT   H1 8396   2.689   0.757   1.848
 2003  WAT   H2 8397   2.538   0.750   1.846
 2003  WAT  EPW 8398   2.616   0.710   1.849
 2004  WAT    O 8399   2.580   0.433   2.761
 2004  WAT   H1 8400   2.535   0.358   2.799
 2004  WAT   H2 8401   2.652   0.395   2.711
 2004  WAT  EPW 8402   2.583   0.418   2.760
 2005  WAT    O 8403   2.733   0.845   2.932
 2005  WAT   H1 8404   2.706   0.928   2.972
 2005  WAT   H2 8405   2.828   0.844   2.943
 2005  WAT  EPW 8406   2.742   0.856   2.939
 2006  WAT    O 8407   1.872   0.630   3.146
 2006  WAT   H1 8408   1.804   0.694   3.168
 2006  WAT   H2 8409   1.831   0.545   3.162
 2006  WAT  EPW 8410   1.858   0.627   3.151
 2007  WAT    O 8411   2.968   1.431   2.242
 2007  WAT   H1 8412   2.931   1.489   2.309
 2007  WAT   H2 8413   3.057   1.463   2.229
 2007  WAT  EPW 8414   2.974   1.442   2.249
 2008  WAT    O 8415   2.778   0.674   2.741
 2008  WAT   H1 8416   2.751   0.739   2.807
 2008  WAT   H2 8417   2.698   0.656   2.691
 2008  WAT  EPW 8418   2.765   0.680   2.743
 2009  WAT    O 8419   1.632   0.438   3.403
 2009  WAT   H1 8420   1.572   0.511   3.417
 2009  WAT   H2 8421   1.687   0.436   3.481
 2009  WAT  EPW 8422   1.632   0.447   3.415
 2010  WAT    O 8423   1.768   0.328   2.207
 2010  WAT   H1 8424   1.808   0.387   2.272
 2010  WAT   H2 8425   1.722   0.387   2.147
 2010  WAT  EPW 8426   1.767   0.343   2.208
 2011  WAT    O 8427   2.776   0.508   2.997
 2011  WAT   H1 8428   2.760   0.539   2.908
 2011  WAT   H2 8429   2.690   0.481   3.029
 2011  WAT  EPW 8430   2.763   0.508   2.990
 2012  WAT    O 8431   2.056   1.000   1.840
 2012  WAT   H1 8432   2.064   0.995   1.745
 2012  WAT   H2 8433   2.000   1.077   1.855
 2012  WAT  EPW 8434   2.050   1.009   1.830
 2013  WAT    O 8435   2.769   0.874   3.251
 2013  WAT   H1 8436   2.687   0.858   3.204
 2013  WAT   H2 8437   2.774   0.969   3.260
 2013  WAT  EPW 8438   2.759   0.884   3.246
 2014  WAT    O 8439   3.204   0.344   3.374
 2014  WAT   H1 8440   3.275   0.280   3.383
 2014  WAT   H2 8441   3.248   0.427   3.359
 2014  WAT  EPW 8442   3.219   0.346   3.373
 2015  WAT    O 8443   1.807   0.522   2.726
 2015  WAT   H1 8444   1.729   0.572   2.749
 2015  WAT   H2 8445   1.781   0.431   2.738
 2015  WAT  EPW 8446   1.794   0.517   2.730
 2016  WAT    O 8447   2.117   0.938   2.437
 2016  WAT   H1 8448   2.108   1.016   2.491
 2016  WAT   H2 8449   2.124   0.865   2.499
 2016  WAT  EPW 8450   2.116   0.938   2.452
 2017  WAT    O 8451   2.127   0.452   3.155
 2017  WAT   H1 8452   2.118   0.440   3.060
 2017  WAT   H2 8453   2.054   0.509   3.179
 2017  WAT  EPW 8454   2.116   0.458   3.146
 2018  WAT    O 8455   2.289   0.408   2.089
 2018  WAT   H1 8456   2.327   0.401   2.001
 2018  WAT   H2 8457   2.199   0.378   2.079
 2018  WAT  EPW 8458   2.283   0.403   2.076
 2019  WAT    O 8459   2.259   1.124   1.932
 2019  WAT   H1 8460   2.186   1.075   1.895
 2019  WAT   H2 8461   2.325   1.125   1.863
 2019  WAT  EPW 8462   2.258   1.117   1.919
 2020  WAT    O 8463   1.754   1.458   2.989
 2020  WAT   H1 8464   1.725   1.431   2.902
 2020  WAT   H2 8465   1.723   1.548   2.998
 2020  WAT  EPW 8466   1.746   1.466   2.979
 2021  WAT    O 8467   2.608   0.465   1.651
 2021  WAT   H1 8468   2.606   0.530   1.721
 2021  WAT   H2 8469   2.644   0.386   1.692
 2021  WAT  EPW 8470   2.613   0.463   1.665
 2022  WAT    O 8471   2.145   1.194   2.929
 2022  WAT   H1 8472   2.088   1.263   2.964
 2022  WAT   H2 8473   2.100   1.113   2.950
 2022  WAT  EPW 8474   2.132   1.193   2.936
 2023  WAT    O 8475   2.805   1.353   2.038
 2023  WAT   H1 8476   2.736   1.345   2.105
 2023  WAT   H2 8477   2.884   1.370   2.088
 2023  WAT  EPW 8478   2.806   1.354   2.053
 2024  WAT    O 8479   3.121   0.273   2.148
 2024  WAT   H1 8480   3.099   0.248   2.238
 2024  WAT   H2 8481   3.202   0.227   2.130
 2024  WAT  EPW 8482   3.128   0.264   2.157
 2025  WAT    O 8483   2.905   1.250   1.663
 2025  WAT   H1 8484   2.865   1.337   1.668
 2025  WAT   H2 8485   2.858   1.198   1.728
 2025  WAT  EPW 8486   2.894   1.254   1.672
 2026  WAT    O 8487   2.243   1.082   2.248
 2026  WAT   H1 8488   2.180   1.036   2.304
 2026  WAT   H2 8489   2.195   1.155   2.211
 2026  WAT  EPW 8490   2.229   1.085   2.251
 2027  WAT    O 8491   3.390   0.276   1.932
 2027  WAT   H1 8492   3.308   0.227   1.927
 2027  WAT   H2 8493   3.365   0.362   1.965
 2027  WAT  EPW 8494   3.376   0.281   1.935
 2028  WAT    O 8495   3.096   1.009   3.334
 2028  WAT   H1 8496   3.032   0.956   3.381
 2028  WAT   H2 8497   3.092   0.977   3.244
 2028  WAT  EPW 8498   3.087   0.998   3.328
 2029  WAT    O 8499   2.472   1.246   3.347
 2029  WAT   H1 8500   2.434   1.209   3.268
 2029  WAT   H2 8501   2.408   1.309   3.379
 2029  WAT  EPW 8502   2.459   1.249   3.341
 2030  WAT    O 8503   1.708   1.181   3.084
 2030  WAT   H1 8504   1.670   1.266   3.108
 2030  WAT   H2 8505   1.791   1.204   3.041
 2030  WAT  EPW 8506   1.714   1.195   3.082
 2031  WAT    O 8507   3.362   0.793   3.115
 2031  WAT   H1 8508   3.273   0.814   3.143
 2031  WAT   H2 8509   3.390   0.868   3.063
 2031  WAT  EPW 8510   3.354   0.805   3.112
 2032  WAT    O 8511   3.269   0.995   2.159
 2032  WAT   H1 8512   3.271   1.007   2.254
 2032  WAT   H2 8513   3.286   1.082   2.123
 2032  WAT  EPW 8514   3.272   1.008   2.166
 2033  WAT    O 8515   3.207   1.589   2.189
 2033  WAT   H1 8516   3.180   1.586   2.097
 2033  WAT   H2 8517   3.269   1.517   2.199
 2033  WAT  EPW 8518   3.211   1.579   2.179
 2034  WAT    O 8519   2.924   1.589   1.940
 2034  WAT   H1 8520   2.872   1.520   1.983
 2034  WAT   H2 8521   2.876   1.669   1.958
 2034  WAT  EPW 8522   2.911   1.590   1.948
 2035  WAT    O 8523   1.773   0.380   3.179
 2035  WAT   H1 8524   1.717   0.416   3.111
 2035  WAT   H2 8525   1.724   0.391   3.260
 2035  WAT  EPW 8526   1.760   0.386   3.180
 2036  WAT    O 8527   2.555   1.384   2.193
 2036  WAT   H1 8528   2.531   1.303   2.238
 2036  WAT   H2 8529   2.474   1.412   2.150
 2036  WAT  EPW 8530   2.541   1.377   2.193
 2037  WAT    O 8531   3.105   0.897   3.094
 2037  WAT   H1 8532   3.044   0.823   3.099
 2037  WAT   H2 8533   3.062   0.959   3.035
 2037  WAT  EPW 8534   3.092   0.895   3.087
 2038  WAT    O 8535   2.015   0.956   2.936
 2038  WAT   H1 8536   1.969   0.990   2.860
 2038  WAT   H2 8537   2.023   0.862   2.919
 2038  WAT  EPW 8538   2.010   0.948   2.924
 2039  WAT    O 8539   1.834   0.720   2.155
 2039  WAT   H1 8540   1.930   0.723   2.157
 2039  WAT   H2 8541   1.807   0.811   2.159
 2039  WAT  EPW 8542   1.843   0.732   2.156
 2040  WAT    O 8543   2.318   0.266   3.449
 2040  WAT   H1 8544   2.242   0.226   3.491
 2040  WAT   H2 8545   2.293   0.357   3.434
 2040  WAT  EPW 8546   2.305   0.272   3.453
 2041  WAT    O 8547   2.901   0.475   2.190
 2041  WAT   H1 8548   2.963   0.519   2.132
 2041  WAT   H2 8549   2.820   0.525   2.182
 2041  WAT  EPW 8550   2.899   0.487   2.182
 2042  WAT    O 8551   1.563   1.080   1.786
 2042  WAT   H1 8552   1.626   1.028   1.836
 2042  WAT   H2 8553   1.613   1.111   1.710
 2042  WAT  EPW 8554   1.578   1.077   1.783
 2043  WAT    O 8555   2.130   1.288   2.113
 2043  WAT   H1 8556   2.060   1.328   2.062
 2043  WAT   H2 8557   2.174   1.228   2.053
 2043  WAT  EPW 8558   2.127   1.286   2.099
 2044  WAT    O 8559   2.472   0.721   2.328
 2044  WAT   H1 8560   2.524   0.661   2.274
 2044  WAT   H2 8561   2.445   0.790   2.267
 2044  WAT  EPW 8562   2.475   0.722   2.313
 2045  WAT    O 8563   3.442   1.507   1.956
 2045  WAT   H1 8564   3.501   1.489   1.883
 2045  WAT   H2 8565   3.383   1.575   1.924
 2045  WAT  EPW 8566   3.442   1.513   1.943
 2046  WAT    O 8567   1.721   1.457   1.732
 2046  WAT   H1 8568   1.777   1.381   1.749
 2046  WAT   H2 8569   1.778   1.532   1.748
 2046  WAT  EPW 8570   1.735   1.456   1.736
 2047  WAT    O 8571   3.426   1.342   3.456
 2047  WAT   H1 8572   3.349   1.346   3.512
 2047  WAT   H2 8573   3.488   1.403   3.497
 2047  WAT  EPW 8574   3.424   1.351   3.468
 2048  WAT    O 8575   3.478   0.178   2.332
 2048  WAT   H1 8576   3.536   0.226   2.273
 2048  WAT   H2 8577   3.421   0.245   2.370
 2048  WAT  EPW 8578   3.478   0.192   2.329
 2049  WAT    O 8579   2.916   0.855   3.463
 2049  WAT   H1 8580   2.835   0.859   3.412
 2049  WAT   H2 8581   2.952   0.769   3.443
 2049  WAT  EPW 8582   2.910   0.845   3.454
 2050  WAT    O 8583   1.610   0.718   2.376
 2050  WAT   H1 8584   1.670   0.744   2.306
 2050  WAT   H2 8585   1.641   0.768   2.453
 2050  WAT  EPW 8586   1.622   0.728   2.377
 2051  WAT    O 8587   1.879   1.069   2.757
 2051  WAT   H1 8588   1.904   1.138   2.696
 2051  WAT   H2 8589   1.791   1.095   2.787
 2051  WAT  EPW 8590   1.871   1.081   2.753
 2052  WAT    O 8591   3.247   0.828   2.455
 2052  WAT   H1 8592   3.333   0.794   2.428
 2052  WAT   H2 8593   3.250   0.825   2.551
 2052  WAT  EPW 8594   3.259   0.823   2.464
 2053  WAT    O 8595   2.540   0.519   3.245
 2053  WAT   H1 8596   2.465   0.486   3.197
 2053  WAT   H2 8597   2.520   0.499   3.337
 2053  WAT  EPW 8598   2.528   0.512   3.251
 2054  WAT    O 8599   2.895   0.452   3.452
 2054  WAT   H1 8600   2.817   0.448   3.507
 2054  WAT   H2 8601   2.959   0.396   3.498
 2054  WAT  EPW 8602   2.893   0.444   3.465
 2055  WAT    O 8603   3.062   0.895   1.976
 2055  WAT   H1 8604   3.102   0.929   2.057
 2055  WAT   H2 8605   3.111   0.937   1.906
 2055  WAT  EPW 8606   3.073   0.905   1.978
 2056  WAT    O 8607   3.035   0.304   3.173
 2056  WAT   H1 8608   3.104   0.323   3.236
 2056  WAT   H2 8609   2.971   0.374   3.184
 2056  WAT  EPW 8610   3.036   0.315   3.182
 2057  WAT    O 8611   2.032   1.417   1.145
 2057  WAT   H1 8612   1.937   1.410   1.141
 2057  WAT   H2 8613   2.051   1.447   1.233
 2057  WAT  EPW 8614   2.023   1.420   1.155
 2058  WAT    O 8615   2.509   1.161   0.461
 2058  WAT   H1 8616   2.492   1.177   0.554
 2058  WAT   H2 8617   2.432   1.112   0.430
 2058  WAT  EPW 8618   2.497   1.157   0.469
 2059  WAT    O 8619   1.855   1.276   0.490
 2059  WAT   H1 8620   1.859   1.366   0.456
 2059  WAT   H2 8621   1.775   1.274   0.543
 2059  WAT  EPW 8622   1.845   1.287   0.493
 2060  WAT    O 8623   2.717   0.954   0.406
 2060  WAT   H1 8624   2.674   0.893   0.345
 2060  WAT   H2 8625   2.650   1.020   0.424
 2060  WAT  EPW 8626   2.703   0.955   0.400
 2061  WAT    O 8627   2.537   0.778   1.258
 2061  WAT   H1 8628   2.524   0.691   1.297
 2061  WAT   H2 8629   2.581   0.760   1.175
 2061  WAT  EPW 8630   2.541   0.764   1.253
 2062  WAT    O 8631   1.737   0.844   1.373
 2062  WAT   H1 8632   1.644   0.822   1.359
 2062  WAT   H2 8633   1.745   0.855   1.468
 2062  WAT  EPW 8634   1.726   0.843   1.384
 2063  WAT    O 8635   2.896   1.213   0.494
 2063  WAT   H1 8636   2.913   1.298   0.454
 2063  WAT   H2 8637   2.820   1.180   0.447
 2063  WAT  EPW 8638   2.888   1.220   0.483
 2064  WAT    O 8639   2.875   1.546   0.619
 2064  WAT   H1 8640   2.933   1.619   0.602
 2064  WAT   H2 8641   2.796   1.564   0.567
 2064  WAT  EPW 8642   2.872   1.558   0.610
 2065  WAT    O 8643   2.107   0.271   0.471
 2065  WAT   H1 8644   2.066   0.271   0.384
 2065  WAT   H2 8645   2.058   0.338   0.520
 2065  WAT  EPW 8646   2.095   0.280   0.466
 2066  WAT    O 8647   2.753   0.360   1.373
 2066  WAT   H1 8648   2.812   0.391   1.442
 2066  WAT   H2 8649   2.681   0.422   1.373
 2066  WAT  EPW 8650   2.752   0.372   1.382
 2067  WAT    O 8651   2.515   0.410   0.326
 2067  WAT   H1 8652   2.433   0.408   0.278
 2067  WAT   H2 8653   2.490   0.391   0.417
 2067  WAT  EPW 8654   2.502   0.407   0.331
 2068  WAT    O 8655   2.227   1.376   0.788
 2068  WAT   H1 8656   2.201   1.339   0.872
 2068  WAT   H2 8657   2.300   1.322   0.759
 2068  WAT  EPW 8658   2.233   1.365   0.795
 2069  WAT    O 8659   2.051   1.196   0.659
 2069  WAT   H1 8660   1.978   1.226   0.604
 2069  WAT   H2 8661   2.110   1.271   0.664
 2069  WAT  EPW 8662   2.049   1.209   0.653
 2070  WAT    O 8663   1.706   0.211   1.678
 2070  WAT   H1 8664   1.686   0.219   1.585
 2070  WAT   H2 8665   1.626   0.241   1.722
 2070  WAT  EPW 8666   1.693   0.216   1.672
 2071  WAT    O 8667   2.313   0.467   0.821
 2071  WAT   H1 8668   2.401   0.497   0.844
 2071  WAT   H2 8669   2.322   0.434   0.731
 2071  WAT  EPW 8670   2.325   0.467   0.812
 2072  WAT    O 8671   1.702   1.114   1.554
 2072  WAT   H1 8672   1.626   1.170   1.542
 2072  WAT   H2 8673   1.723   1.083   1.466
 2072  WAT  EPW 8674   1.695   1.117   1.541
 2073  WAT    O 8675   1.909   1.243   1.688
 2073  WAT   H1 8676   1.958   1.299   1.627
 2073  WAT   H2 8677   1.865   1.180   1.632
 2073  WAT  EPW 8678   1.910   1.242   1.673
 2074  WAT    O 8679   2.272   1.417   1.567
 2074  WAT   H1 8680   2.329   1.408   1.644
 2074  WAT   H2 8681   2.268   1.511   1.551
 2074  WAT  EPW 8682   2.279   1.428   1.575
 2075  WAT    O 8683   3.256   0.850   0.851
 2075  WAT   H1 8684   3.300   0.901   0.919
 2075  WAT   H2 8685   3.188   0.800   0.898
 2075  WAT  EPW 8686   3.253   0.850   0.866
 2076  WAT    O 8687   3.377   1.027   1.074
 2076  WAT   H1 8688   3.306   1.087   1.054
 2076  WAT   H2 8689   3.449   1.083   1.104
 2076  WAT  EPW 8690   3.377   1.042   1.075
 2077  WAT    O 8691   2.308   0.802   1.558
 2077  WAT   H1 8692   2.292   0.708   1.554
 2077  WAT   H2 8693   2.299   0.831   1.467
 2077  WAT  EPW 8694   2.304   0.794   1.545
 2078  WAT    O 8695   3.255   0.267   0.758
 2078  WAT   H1 8696   3.346   0.268   0.787
 2078  WAT   H2 8697   3.255   0.208   0.682
 2078  WAT  EPW 8698   3.266   0.259   0.752
 2079  WAT    O 8699   3.039   0.700   0.943
 2079  WAT   H1 8700   2.952   0.675   0.914
 2079  WAT   H2 8701   3.074   0.622   0.986
 2079  WAT  EPW 8702   3.033   0.687   0.945
 2080  WAT    O 8703   2.010   1.392   1.459
 2080  WAT   H1 8704   1.985   1.482   1.478
 2080  WAT   H2 8705   2.101   1.385   1.489
 2080  WAT  EPW 8706   2.019   1.403   1.465
 2081  WAT    O 8707   2.474   0.350   0.589
 2081  WAT   H1 8708   2.482   0.272   0.644
 2081  WAT   H2 8709   2.518   0.419   0.639
 2081  WAT  EPW 8710   2.480   0.349   0.603
 2082  WAT    O 8711   1.781   1.572   0.241
 2082  WAT   H1 8712   1.703   1.559   0.188
 2082  WAT   H2 8713   1.778   1.665   0.266
 2082  WAT  EPW 8714   1.771   1.583   0.238
 2083  WAT    O 8715   2.786   1.153   1.436
 2083  WAT   H1 8716   2.845   1.136   1.511
 2083  WAT   H2 8717   2.727   1.221   1.467
 2083  WAT  EPW 8718   2.786   1.159   1.450
 2084  WAT    O 8719   2.417   1.199   0.710
 2084  WAT   H1 8720   2.369   1.118   0.728
 2084  WAT   H2 8721   2.490   1.198   0.772
 2084  WAT  EPW 8722   2.420   1.189   0.721
 2085  WAT    O 8723   3.758   0.491   0.549
 2085  WAT   H1 8724   3.759   0.459   0.639
 2085  WAT   H2 8725   3.753   0.586   0.556
 2085  WAT  EPW 8726   3.757   0.499   0.561
 2086  WAT    O 8727   2.371   0.449   1.149
 2086  WAT   H1 8728   2.286   0.417   1.181
 2086  WAT   H2 8729   2.418   0.370   1.123
 2086  WAT  EPW 8730   2.366   0.435   1.150
 2087  WAT    O 8731   2.064   0.968   1.582
 2087  WAT   H1 8732   2.145   0.919   1.568
 2087  WAT   H2 8733   2.037   0.995   1.495
 2087  WAT  EPW 8734   2.070   0.965   1.569
 2088  WAT    O 8735   2.290   0.872   1.285
 2088  WAT   H1 8736   2.378   0.834   1.280
 2088  WAT   H2 8737   2.236   0.814   1.232
 2088  WAT  EPW 8738   2.294   0.860   1.278
 2089  WAT    O 8739   3.189   1.243   1.121
 2089  WAT   H1 8740   3.154   1.233   1.209
 2089  WAT   H2 8741   3.203   1.337   1.112
 2089  WAT  EPW 8742   3.186   1.254   1.131
 2090  WAT    O 8743   3.402   1.420   1.309
 2090  WAT   H1 8744   3.422   1.380   1.394
 2090  WAT   H2 8745   3.335   1.485   1.328
 2090  WAT  EPW 8746   3.396   1.423   1.322
 2091  WAT    O 8747   2.934   0.697   1.250
 2091  WAT   H1 8748   2.878   0.658   1.183
 2091  WAT   H2 8749   2.877   0.758   1.296
 2091  WAT  EPW 8750   2.920   0.700   1.247
 2092  WAT    O 8751   3.326   0.624   1.570
 2092  WAT   H1 8752   3.243   0.658   1.535
 2092  WAT   H2 8753   3.311   0.618   1.664
 2092  WAT  EPW 8754   3.313   0.627   1.577
 2093  WAT    O 8755   2.717   0.296   0.203
 2093  WAT   H1 8756   2.635   0.324   0.243
 2093  WAT   H2 8757   2.785   0.335   0.259
 2093  WAT  EPW 8758   2.715   0.305   0.216
 2094  WAT    O 8759   2.018   0.655   1.013
 2094  WAT   H1 8760   1.980   0.643   1.100
 2094  WAT   H2 8761   1.962   0.604   0.955
 2094  WAT  EPW 8762   2.006   0.647   1.016
 2095  WAT    O 8763   2.919   0.806   0.558
 2095  WAT   H1 8764   2.973   0.856   0.619
 2095  WAT   H2 8765   2.849   0.867   0.533
 2095  WAT  EPW 8766   2.917   0.820   0.563
 2096  WAT    O 8767   1.717   0.963   0.640
 2096  WAT   H1 8768   1.756   0.956   0.553
 2096  WAT   H2 8769   1.778   0.917   0.698
 2096  WAT  EPW 8770   1.730   0.956   0.637
 2097  WAT    O 8771   3.189   0.531   0.178
 2097  WAT   H1 8772   3.185   0.593   0.251
 2097  WAT   H2 8773   3.153   0.450   0.213
 2097  WAT  EPW 8774   3.184   0.528   0.191
 2098  WAT    O 8775   2.783   1.515   1.137
 2098  WAT   H1 8776   2.728   1.508   1.059
 2098  WAT   H2 8777   2.819   1.427   1.149
 2098  WAT  EPW 8778   2.780   1.503   1.129
 2099  WAT    O 8779   2.226   0.515   1.532
 2099  WAT   H1 8780   2.215   0.486   1.442
 2099  WAT   H2 8781   2.137   0.525   1.566
 2099  WAT  EPW 8782   2.213   0.512   1.525
 2100  WAT    O 8783   2.131   0.347   1.017
 2100  WAT   H1 8784   2.072   0.273   1.002
 2100  WAT   H2 8785   2.192   0.345   0.943
 2100  WAT  EPW 8786   2.131   0.338   1.006
 2101  WAT    O 8787   2.269   0.967   0.820
 2101  WAT   H1 8788   2.265   0.871   0.816
 2101  WAT   H2 8789   2.224   0.989   0.901
 2101  WAT  EPW 8790   2.263   0.957   0.830
 2102  WAT    O 8791   3.066   0.632   1.488
 2102  WAT   H1 8792   2.997   0.568   1.505
 2102  WAT   H2 8793   3.045   0.667   1.402
 2102  WAT  EPW 8794   3.054   0.628   1.479
 2103  WAT    O 8795   1.627   0.542   0.202
 2103  WAT   H1 8796   1.694   0.602   0.236
 2103  WAT   H2 8797   1.544   0.585   0.221
 2103  WAT  EPW 8798   1.625   0.555   0.209
 2104  WAT    O 8799   1.861   0.987   0.422
 2104  WAT   H1 8800   1.929   0.959   0.484
 2104  WAT   H2 8801   1.871   1.082   0.417
 2104  WAT  EPW 8802   1.871   0.995   0.430
 2105  WAT    O 8803   2.653   1.228   0.861
 2105  WAT   H1 8804   2.647   1.176   0.941
 2105  WAT   H2 8805   2.708   1.303   0.885
 2105  WAT  EPW 8806   2.660   1.231   0.875
 2106  WAT    O 8807   3.203   1.117   0.523
 2106  WAT   H1 8808   3.112   1.118   0.495
 2106  WAT   H2 8809   3.216   1.030   0.562
 2106  WAT  EPW 8810   3.193   1.106   0.524
 2107  WAT    O 8811   2.166   0.749   0.231
 2107  WAT   H1 8812   2.248   0.798   0.228
 2107  WAT   H2 8813   2.171   0.699   0.313
 2107  WAT  EPW 8814   2.177   0.749   0.241
 2108  WAT    O 8815   1.835   1.536   0.639
 2108  WAT   H1 8816   1.780   1.579   0.706
 2108  WAT   H2 8817   1.925   1.556   0.665
 2108  WAT  EPW 8818   1.839   1.544   0.651
 2109  WAT    O 8819   1.989   0.943   1.331
 2109  WAT   H1 8820   1.985   0.975   1.241
 2109  WAT   H2 8821   1.902   0.907   1.348
 2109  WAT  EPW 8822   1.977   0.942   1.322
 2110  WAT    O 8823   2.380   1.117   1.189
 2110  WAT   H1 8824   2.301   1.158   1.152
 2110  WAT   H2 8825   2.351   1.030   1.216
 2110  WAT  EPW 8826   2.366   1.111   1.187
 2111  WAT    O 8827   1.753   1.318   0.863
 2111  WAT   H1 8828   1.819   1.354   0.803
 2111  WAT   H2 8829   1.686   1.283   0.805
 2111  WAT  EPW 8830   1.753   1.318   0.848
 2112  WAT    O 8831   2.282   0.713   1.036
 2112  WAT   H1 8832   2.315   0.632   1.077
 2112  WAT   H2 8833   2.195   0.689   1.004
 2112  WAT  EPW 8834   2.275   0.699   1.037
 2113  WAT    O 8835   1.844   0.806   1.633
 2113  WAT   H1 8836   1.924   0.857   1.622
 2113  WAT   H2 8837   1.799   0.848   1.707
 2113  WAT  EPW 8838   1.848   0.818   1.641
 2114  WAT    O 8839   2.893   0.521   0.559
 2114  WAT   H1 8840   2.943   0.500   0.480
 2114  WAT   H2 8841   2.912   0.613   0.576
 2114  WAT  EPW 8842   2.902   0.530   0.551
 2115  WAT    O 8843   3.362   1.598   0.766
 2115  WAT   H1 8844   3.347   1.504   0.774
 2115  WAT   H2 8845   3.428   1.618   0.833
 2115  WAT  EPW 8846   3.369   1.588   0.776
 2116  WAT    O 8847   3.495   1.226   0.645
 2116  WAT   H1 8848   3.411   1.267   0.663
 2116  WAT   H2 8849   3.482   1.134   0.667
 2116  WAT  EPW 8850   3.483   1.219   0.650
 2117  WAT    O 8851   1.686   0.275   0.849
 2117  WAT   H1 8852   1.766   0.240   0.809
 2117  WAT   H2 8853   1.684   0.237   0.937
 2117  WAT  EPW 8854   1.696   0.265   0.855
 2118  WAT    O 8855   2.625   0.580   0.622
 2118  WAT   H1 8856   2.585   0.656   0.580
 2118  WAT   H2 8857   2.712   0.574   0.581
 2118  WAT  EPW 8858   2.631   0.589   0.611
 2119  WAT    O 8859   3.079   0.704   0.370
 2119  WAT   H1 8860   3.147   0.746   0.424
 2119  WAT   H2 8861   2.998   0.749   0.394
 2119  WAT  EPW 8862   3.077   0.715   0.380
 2120  WAT    O 8863   1.895   0.753   0.720
 2120  WAT   H1 8864   1.990   0.752   0.718
 2120  WAT   H2 8865   1.870   0.672   0.764
 2120  WAT  EPW 8866   1.904   0.743   0.726
 2121  WAT    O 8867   3.441   0.647   0.868
 2121  WAT   H1 8868   3.402   0.600   0.942
 2121  WAT   H2 8869   3.388   0.726   0.860
 2121  WAT  EPW 8870   3.430   0.651   0.877
 2122  WAT    O 8871   2.779   0.302   0.755
 2122  WAT   H1 8872   2.841   0.347   0.698
 2122  WAT   H2 8873   2.765   0.217   0.713
 2122  WAT  EPW 8874   2.785   0.297   0.742
 2123  WAT    O 8875   2.632   1.090   1.105
 2123  WAT   H1 8876   2.672   1.172   1.135
 2123  WAT   H2 8877   2.541   1.095   1.133
 2123  WAT  EPW 8878   2.626   1.101   1.112
 2124  WAT    O 8879   3.155   0.418   1.020
 2124  WAT   H1 8880   3.128   0.353   1.085
 2124  WAT   H2 8881   3.177   0.367   0.942
 2124  WAT  EPW 8882   3.154   0.403   1.018
 2125  WAT    O 8883   2.229   0.597   0.442
 2125  WAT   H1 8884   2.248   0.522   0.386
 2125  WAT   H2 8885   2.315   0.637   0.459
 2125  WAT  EPW 8886   2.243   0.593   0.437
 2126  WAT    O 8887   2.179   0.697   0.698
 2126  WAT   H1 8888   2.205   0.655   0.615
 2126  WAT   H2 8889   2.188   0.628   0.763
 2126  WAT  EPW 8890   2.184   0.683   0.695
 2127  WAT    O 8891   2.911   1.143   0.743
 2127  WAT   H1 8892   2.920   1.167   0.651
 2127  WAT   H2 8893   2.825   1.178   0.769
 2127  WAT  EPW 8894   2.901   1.150   0.735
 2128  WAT    O 8895   2.650   1.584   0.477
 2128  WAT   H1 8896   2.631   1.501   0.433
 2128  WAT   H2 8897   2.618   1.651   0.417
 2128  WAT  EPW 8898   2.643   1.582   0.464
 2129  WAT    O 8899   3.019   1.385   0.797
 2129  WAT   H1 8900   2.965   1.445   0.746
 2129  WAT   H2 8901   2.980   1.299   0.783
 2129  WAT  EPW 8902   3.007   1.382   0.789
 2130  WAT    O 8903   3.397   0.526   1.160
 2130  WAT   H1 8904   3.307   0.494   1.151
 2130  WAT   H2 8905   3.387   0.616   1.192
 2130  WAT  EPW 8906   3.384   0.533   1.163
 2131  WAT    O 8907   2.429   1.622   0.695
 2131  WAT   H1 8908   2.425   1.553   0.761
 2131  WAT   H2 8909   2.476   1.583   0.622
 2131  WAT  EPW 8910   2.434   1.608   0.694
 2132  WAT    O 8911   2.580   0.433   0.875
 2132  WAT   H1 8912   2.535   0.358   0.913
 2132  WAT   H2 8913   2.652   0.395   0.825
 2132  WAT  EPW 8914   2.583   0.418   0.874
 2133  WAT    O 8915   2.733   0.845   1.046
 2133  WAT   H1 8916   2.706   0.928   1.086
 2133  WAT   H2 8917   2.828   0.844   1.057
 2133  WAT  EPW 8918   2.742   0.856   1.053
 2134  WAT    O 8919   2.669   1.568   0.871
 2134  WAT   H1 8920   2.748   1.621   0.866
 2134  WAT   H2 8921   2.609   1.607   0.808
 2134  WAT  EPW 8922   2.671   1.580   0.862
 2135  WAT    O 8923   1.872   0.630   1.260
 2135  WAT   H1 8924   1.804   0.694   1.282
 2135  WAT   H2 8925   1.831   0.545   1.276
 2135  WAT  EPW 8926   1.858   0.627   1.265
 2136  WAT    O 8927   2.968   1.431   0.356
 2136  WAT   H1 8928   2.931   1.489   0.423
 2136  WAT   H2 8929   3.057   1.463   0.343
 2136  WAT  EPW 8930   2.974   1.442   0.363
 2137  WAT    O 8931   2.778   0.674   0.855
 2137  WAT   H1 8932   2.751   0.739   0.921
 2137  WAT   H2 8933   2.698   0.656   0.805
 2137  WAT  EPW 8934   2.765   0.680   0.857
 2138  WAT    O 8935   1.632   0.438   1.517
 2138  WAT   H1 8936   1.572   0.511   1.531
 2138  WAT   H2 8937   1.687   0.436   1.595
 2138  WAT  EPW 8938   1.632   0.447   1.529
 2139  WAT    O 8939   1.768   0.328   0.321
 2139  WAT   H1 8940   1.808   0.387   0.386
 2139  WAT   H2 8941   1.722   0.387   0.261
 2139  WAT  EPW 8942   1.767   0.343   0.322
 2140  WAT    O 8943   2.776   0.508   1.111
 2140  WAT   H1 8944   2.760   0.539   1.022
 2140  WAT   H2 8945   2.690   0.481   1.143
 2140  WAT  EPW 8946   2.763   0.508   1.104
 2141  WAT    O 8947   2.769   0.874   1.365
 2141  WAT   H1 8948   2.687   0.858   1.318
 2141  WAT   H2 8949   2.774   0.969   1.374
 2141  WAT  EPW 8950   2.759   0.884   1.360
 2142  WAT    O 8951   3.204   0.344   1.488
 2142  WAT   H1 8952   3.275   0.280   1.497
 2142  WAT   H2 8953   3.248   0.427   1.473
 2142  WAT  EPW 8954   3.219   0.346   1.487
 2143  WAT    O 8955   1.807   0.522   0.840
 2143  WAT   H1 8956   1.729   0.572   0.863
 2143  WAT   H2 8957   1.781   0.431   0.852
 2143  WAT  EPW 8958   1.794   0.517   0.844
 2144  WAT    O 8959   3.351   1.471   1.045
 2144  WAT   H1 8960   3.380   1.462   1.136
 2144  WAT   H2 8961   3.273   1.526   1.050
 2144  WAT  EPW 8962   3.345   1.477   1.057
 2145  WAT    O 8963   2.117   0.938   0.551
 2145  WAT   H1 8964   2.108   1.016   0.605
 2145  WAT   H2 8965   2.124   0.865   0.613
 2145  WAT  EPW 8966   2.116   0.938   0.566
 2146  WAT    O 8967   2.127   0.452   1.269
 2146  WAT   H1 8968   2.118   0.440   1.174
 2146  WAT   H2 8969   2.054   0.509   1.293
 2146  WAT  EPW 8970   2.116   0.458   1.260
 2147  WAT    O 8971   3.344   1.349   0.388
 2147  WAT   H1 8972   3.351   1.286   0.460
 2147  WAT   H2 8973   3.350   1.296   0.309
 2147  WAT  EPW 8974   3.345   1.334   0.387
 2148  WAT    O 8975   1.754   1.458   1.103
 2148  WAT   H1 8976   1.725   1.431   1.016
 2148  WAT   H2 8977   1.723   1.548   1.112
 2148  WAT  EPW 8978   1.746   1.466   1.093
 2149  WAT    O 8979   2.145   1.194   1.043
 2149  WAT   H1 8980   2.088   1.263   1.078
 2149  WAT   H2 8981   2.100   1.113   1.064
 2149  WAT  EPW 8982   2.132   1.193   1.050
 2150  WAT    O 8983   3.121   0.273   0.262
 2150  WAT   H1 8984   3.099   0.248   0.352
 2150  WAT   H2 8985   3.202   0.227   0.244
 2150  WAT  EPW 8986   3.128   0.264   0.271
 2151  WAT    O 8987   2.243   1.082   0.362
 2151  WAT   H1 8988   2.180   1.036   0.418
 2151  WAT   H2 8989   2.195   1.155   0.325
 2151  WAT  EPW 8990   2.229   1.085   0.365
 2152  WAT    O 8991   2.831   1.249   1.183
 2152  WAT   H1 8992   2.811   1.218   1.271
 2152  WAT   H2 8993   2.883   1.178   1.144
 2152  WAT  EPW 8994   2.835   1.236   1.189
 2153  WAT    O 8995   3.096   1.009   1.448
 2153  WAT   H1 8996   3.032   0.956   1.495
 2153  WAT   H2 8997   3.092   0.977   1.358
 2153  WAT  EPW 8998   3.087   0.998   1.442
 2154  WAT    O 8999   2.472   1.246   1.461
 2154  WAT   H1 9000   2.434   1.209   1.382
 2154  WAT   H2 9001   2.408   1.309   1.493
 2154  WAT  EPW 9002   2.459   1.249   1.455
 2155  WAT    O 9003   1.708   1.181   1.198
 2155  WAT   H1 9004   1.670   1.266   1.222
 2155  WAT   H2 9005   1.791   1.204   1.155
 2155  WAT  EPW 9006   1.714   1.195   1.196
 2156  WAT    O 9007   3.362   0.793   1.229
 2156  WAT   H1 9008   3.273   0.814   1.257
 2156  WAT   H2 9009   3.390   0.868   1.177
 2156  WAT  EPW 9010   3.354   0.805   1.226
 2157  WAT    O 9011   3.269   0.995   0.273
 2157  WAT   H1 9012   3.271   1.007   0.368
 2157  WAT   H2 9013   3.286   1.082   0.237
 2157  WAT  EPW 9014   3.272   1.008   0.280
 2158  WAT    O 9015   3.207   1.589   0.303
 2158  WAT   H1 9016   3.180   1.586   0.211
 2158  WAT   H2 9017   3.269   1.517   0.313
 2158  WAT  EPW 9018   3.211   1.579   0.293
 2159  WAT    O 9019   1.773   0.380   1.293
 2159  WAT   H1 9020   1.717   0.416   1.225
 2159  WAT   H2 9021   1.724   0.391   1.374
 2159  WAT  EPW 9022   1.760   0.386   1.294
 2160  WAT    O 9023   2.898   1.743   0.884
 2160  WAT   H1 9024   2.975   1.727   0.831
 2160  WAT   H2 9025   2.895   1.838   0.895
 2160  WAT  EPW 9026   2.907   1.753   0.879
 2161  WAT    O 9027   2.555   1.384   0.307
 2161  WAT   H1 9028   2.531   1.303   0.352
 2161  WAT   H2 9029   2.474   1.412   0.264
 2161  WAT  EPW 9030   2.541   1.377   0.307
 2162  WAT    O 9031   3.074   1.326   1.438
 2162  WAT   H1 9032   3.101   1.236   1.454
 2162  WAT   H2 9033   2.979   1.325   1.448
 2162  WAT  EPW 9034   3.065   1.314   1.441
 2163  WAT    O 9035   3.105   0.897   1.208
 2163  WAT   H1 9036   3.044   0.823   1.213
 2163  WAT   H2 9037   3.062   0.959   1.149
 2163  WAT  EPW 9038   3.092   0.895   1.201
 2164  WAT    O 9039   2.015   0.956   1.050
 2164  WAT   H1 9040   1.969   0.990   0.974
 2164  WAT   H2 9041   2.023   0.862   1.033
 2164  WAT  EPW 9042   2.010   0.948   1.038
 2165  WAT    O 9043   1.834   0.720   0.269
 2165  WAT   H1 9044   1.930   0.723   0.271
 2165  WAT   H2 9045   1.807   0.811   0.273
 2165  WAT  EPW 9046   1.843   0.732   0.270
 2166  WAT    O 9047   2.318   0.266   1.563
 2166  WAT   H1 9048   2.242   0.226   1.605
 2166  WAT   H2 9049   2.293   0.357   1.548
 2166  WAT  EPW 9050   2.305   0.272   1.567
 2167  WAT    O 9051   2.901   0.475   0.304
 2167  WAT   H1 9052   2.963   0.519   0.246
 2167  WAT   H2 9053   2.820   0.525   0.296
 2167  WAT  EPW 9054   2.899   0.487   0.296
 2168  WAT    O 9055   2.130   1.288   0.227
 2168  WAT   H1 9056   2.060   1.328   0.176
 2168  WAT   H2 9057   2.174   1.228   0.167
 2168  WAT  EPW 9058   2.127   1.286   0.213
 2169  WAT    O 9059   2.991   1.083   1.010
 2169  WAT   H1 9060   2.973   1.075   0.916
 2169  WAT   H2 9061   3.069   1.137   1.015
 2169  WAT  EPW 9062   2.998   1.089   0.998
 2170  WAT    O 9063   2.472   0.721   0.442
 2170  WAT   H1 9064   2.524   0.661   0.388
 2170  WAT   H2 9065   2.445   0.790   0.381
 2170  WAT  EPW 9066   2.475   0.722   0.427
 2171  WAT    O 9067   3.175   1.578   1.371
 2171  WAT   H1 9068   3.216   1.595   1.455
 2171  WAT   H2 9069   3.148   1.486   1.375
 2171  WAT  EPW 9070   3.177   1.568   1.382
 2172  WAT    O 9071   3.426   1.342   1.570
 2172  WAT   H1 9072   3.349   1.346   1.626
 2172  WAT   H2 9073   3.488   1.403   1.611
 2172  WAT  EPW 9074   3.424   1.351   1.582
 2173  WAT    O 9075   3.478   0.178   0.446
 2173  WAT   H1 9076   3.536   0.226   0.387
 2173  WAT   H2 9077   3.421   0.245   0.484
 2173  WAT  EPW 9078   3.478   0.192   0.443
 2174  WAT    O 9079   2.916   0.855   1.577
 2174  WAT   H1 9080   2.835   0.859   1.526
 2174  WAT   H2 9081   2.952   0.769   1.557
 2174  WAT  EPW 9082   2.910   0.845   1.568
 2175  WAT    O 9083   1.610   0.718   0.490
 2175  WAT   H1 9084   1.670   0.744   0.420
 2175  WAT   H2 9085   1.641   0.768   0.567
 2175  WAT  EPW 9086   1.622   0.728   0.491
 2176  WAT    O 9087   1.879   1.069   0.871
 2176  WAT   H1 9088   1.904   1.138   0.810
 2176  WAT   H2 9089   1.791   1.095   0.901
 2176  WAT  EPW 9090   1.871   1.081   0.867
 2177  WAT    O 9091   3.247   0.828   0.569
 2177  WAT   H1 9092   3.333   0.794   0.542
 2177  WAT   H2 9093   3.250   0.825   0.665
 2177  WAT  EPW 9094   3.259   0.823   0.578
 2178  WAT    O 9095   2.540   0.519   1.359
 2178  WAT   H1 9096   2.465   0.486   1.311
 2178  WAT   H2 9097   2.520   0.499   1.451
 2178  WAT  EPW 9098   2.528   0.512   1.365
 2179  WAT    O 9099   2.895   0.452   1.566
 2179  WAT   H1 9100   2.817   0.448   1.621
 2179  WAT   H2 9101   2.959   0.396   1.612
 2179  WAT  EPW 9102   2.893   0.444   1.579
 2180  WAT    O 9103   3.035   0.304   1.287
 2180  WAT   H1 9104   3.104   0.323   1.350
 2180  WAT   H2 9105   2.971   0.374   1.298
 2180  WAT  EPW 9106   3.036   0.315   1.296
 2181  WAT    O 9107   3.081   1.531   1.034
 2181  WAT   H1 9108   3.034   1.614   1.033
 2181  WAT   H2 9109   3.028   1.473   0.980
 2181  WAT  EPW 9110   3.068   1.534   1.027
 2182  WAT    O 9111   0.407   3.771   4.891
 2182  WAT   H1 9112   0.429   3.769   4.983
 2182  WAT   H2 9113   0.344   3.700   4.879
 2182  WAT  EPW 9114   0.401   3.762   4.901
 2183  WAT    O 9115   0.623   4.934   4.233
 2183  WAT   H1 9116   0.606   4.950   4.326
 2183  WAT   H2 9117   0.546   4.886   4.202
 2183  WAT  EPW 9118   0.611   4.930   4.241
 2184  WAT    O 9119   0.280   4.424   3.766
 2184  WAT   H1 9120   0.265   4.470   3.849
 2184  WAT   H2 9121   0.351   4.363   3.785
 2184  WAT  EPW 9122   0.287   4.422   3.779
 2185  WAT    O 9123   0.620   3.945   4.826
 2185  WAT   H1 9124   0.559   3.881   4.864
 2185  WAT   H2 9125   0.698   3.938   4.880
 2185  WAT  EPW 9126   0.622   3.936   4.838
 2186  WAT    O 9127   0.862   3.928   4.953
 2186  WAT   H1 9128   0.880   3.839   4.986
 2186  WAT   H2 9129   0.894   3.986   5.022
 2186  WAT  EPW 9130   0.868   3.924   4.966
 2187  WAT    O 9131   0.831   4.727   4.178
 2187  WAT   H1 9132   0.788   4.666   4.117
 2187  WAT   H2 9133   0.764   4.794   4.196
 2187  WAT  EPW 9134   0.817   4.728   4.172
 2188  WAT    O 9135   1.406   3.790   4.103
 2188  WAT   H1 9136   1.413   3.696   4.091
 2188  WAT   H2 9137   1.493   3.817   4.133
 2188  WAT  EPW 9138   1.418   3.782   4.105
 2189  WAT    O 9139   1.518   4.219   4.287
 2189  WAT   H1 9140   1.440   4.230   4.342
 2189  WAT   H2 9141   1.552   4.308   4.276
 2189  WAT  EPW 9142   1.512   4.232   4.293
 2190  WAT    O 9143   0.627   3.832   3.702
 2190  WAT   H1 9144   0.601   3.786   3.782
 2190  WAT   H2 9145   0.629   3.765   3.634
 2190  WAT  EPW 9146   0.624   3.818   3.704
 2191  WAT    O 9147   0.938   4.646   3.732
 2191  WAT   H1 9148   1.015   4.648   3.789
 2191  WAT   H2 9149   0.970   4.610   3.650
 2191  WAT  EPW 9150   0.952   4.642   3.729
 2192  WAT    O 9151   1.512   4.610   3.905
 2192  WAT   H1 9152   1.475   4.674   3.966
 2192  WAT   H2 9153   1.436   4.568   3.866
 2192  WAT  EPW 9154   1.498   4.613   3.908
 2193  WAT    O 9155   1.310   4.770   3.607
 2193  WAT   H1 9156   1.314   4.757   3.512
 2193  WAT   H2 9157   1.399   4.797   3.631
 2193  WAT  EPW 9158   1.322   4.772   3.598
 2194  WAT    O 9159   1.345   3.813   3.816
 2194  WAT   H1 9160   1.358   3.799   3.910
 2194  WAT   H2 9161   1.258   3.853   3.810
 2194  WAT  EPW 9162   1.335   3.816   3.827
 2195  WAT    O 9163   0.221   4.045   4.243
 2195  WAT   H1 9164   0.180   4.045   4.156
 2195  WAT   H2 9165   0.172   4.111   4.292
 2195  WAT  EPW 9166   0.209   4.053   4.238
 2196  WAT    O 9167   0.629   4.183   4.098
 2196  WAT   H1 9168   0.547   4.181   4.050
 2196  WAT   H2 9169   0.604   4.165   4.189
 2196  WAT  EPW 9170   0.616   4.181   4.103
 2197  WAT    O 9171   0.427   4.241   4.593
 2197  WAT   H1 9172   0.515   4.270   4.616
 2197  WAT   H2 9173   0.436   4.207   4.503
 2197  WAT  EPW 9174   0.439   4.240   4.584
 2198  WAT    O 9175   0.857   3.823   4.411
 2198  WAT   H1 9176   0.761   3.816   4.418
 2198  WAT   H2 9177   0.889   3.750   4.464
 2198  WAT  EPW 9178   0.849   3.813   4.419
 2199  WAT    O 9179   1.370   4.623   4.623
 2199  WAT   H1 9180   1.414   4.674   4.691
 2199  WAT   H2 9181   1.302   4.574   4.670
 2199  WAT  EPW 9182   1.367   4.624   4.638
 2200  WAT    O 9183   1.491   4.800   4.846
 2200  WAT   H1 9184   1.420   4.861   4.826
 2200  WAT   H2 9185   1.563   4.857   4.876
 2200  WAT  EPW 9186   1.491   4.815   4.847
 2201  WAT    O 9187   1.105   3.955   3.797
 2201  WAT   H1 9188   1.115   3.990   3.886
 2201  WAT   H2 9189   1.092   4.033   3.743
 2201  WAT  EPW 9190   1.104   3.969   3.802
 2202  WAT    O 9191   1.369   4.040   4.530
 2202  WAT   H1 9192   1.460   4.041   4.559
 2202  WAT   H2 9193   1.369   3.981   4.454
 2202  WAT  EPW 9194   1.380   4.033   4.524
 2203  WAT    O 9195   1.153   4.474   4.715
 2203  WAT   H1 9196   1.066   4.448   4.686
 2203  WAT   H2 9197   1.188   4.395   4.758
 2203  WAT  EPW 9198   1.147   4.460   4.717
 2204  WAT    O 9199   0.327   3.673   3.596
 2204  WAT   H1 9200   0.362   3.673   3.685
 2204  WAT   H2 9201   0.279   3.755   3.588
 2204  WAT  EPW 9202   0.326   3.683   3.606
 2205  WAT    O 9203   0.588   4.124   4.361
 2205  WAT   H1 9204   0.596   4.045   4.416
 2205  WAT   H2 9205   0.632   4.192   4.411
 2205  WAT  EPW 9206   0.594   4.122   4.375
 2206  WAT    O 9207   1.297   3.538   3.783
 2206  WAT   H1 9208   1.310   3.629   3.758
 2206  WAT   H2 9209   1.202   3.528   3.791
 2206  WAT  EPW 9210   1.287   3.548   3.781
 2207  WAT    O 9211   1.615   3.671   3.583
 2207  WAT   H1 9212   1.597   3.755   3.541
 2207  WAT   H2 9213   1.534   3.621   3.572
 2207  WAT  EPW 9214   1.602   3.676   3.576
 2208  WAT    O 9215   1.872   4.264   4.321
 2208  WAT   H1 9216   1.873   4.233   4.411
 2208  WAT   H2 9217   1.867   4.359   4.328
 2208  WAT  EPW 9218   1.871   4.272   4.333
 2209  WAT    O 9219   0.811   4.058   3.709
 2209  WAT   H1 9220   0.748   3.985   3.711
 2209  WAT   H2 9221   0.833   4.074   3.801
 2209  WAT  EPW 9222   0.806   4.051   3.721
 2210  WAT    O 9223   0.485   4.223   4.921
 2210  WAT   H1 9224   0.400   4.191   4.953
 2210  WAT   H2 9225   0.532   4.143   4.895
 2210  WAT  EPW 9226   0.480   4.208   4.922
 2211  WAT    O 9227   1.458   3.809   5.039
 2211  WAT   H1 9228   1.371   3.793   5.001
 2211  WAT   H2 9229   1.516   3.750   4.991
 2211  WAT  EPW 9230   1.454   3.800   5.028
 2212  WAT    O 9231   1.428   4.354   3.709
 2212  WAT   H1 9232   1.383   4.330   3.790
 2212  WAT   H2 9233   1.521   4.340   3.729
 2212  WAT  EPW 9234   1.434   4.349   3.722
 2213  WAT    O 9235   1.241   3.926   4.268
 2213  WAT   H1 9236   1.310   3.887   4.215
 2213  WAT   H2 9237   1.180   3.854   4.283
 2213  WAT  EPW 9238   1.242   3.912   4.263
 2214  WAT    O 9239   0.831   4.070   3.975
 2214  WAT   H1 9240   0.749   4.098   4.015
 2214  WAT   H2 9241   0.899   4.108   4.031
 2214  WAT  EPW 9242   0.829   4.078   3.988
 2215  WAT    O 9243   1.033   4.580   4.330
 2215  WAT   H1 9244   1.087   4.630   4.391
 2215  WAT   H2 9245   0.963   4.640   4.305
 2215  WAT  EPW 9246   1.031   4.594   4.335
 2216  WAT    O 9247   1.303   4.304   3.950
 2216  WAT   H1 9248   1.299   4.366   4.023
 2216  WAT   H2 9249   1.267   4.223   3.985
 2216  WAT  EPW 9250   1.298   4.302   3.963
 2217  WAT    O 9251   0.778   4.391   3.997
 2217  WAT   H1 9252   0.711   4.323   4.000
 2217  WAT   H2 9253   0.786   4.412   3.905
 2217  WAT  EPW 9254   0.771   4.385   3.986
 2218  WAT    O 9255   0.245   4.121   4.789
 2218  WAT   H1 9256   0.186   4.047   4.774
 2218  WAT   H2 9257   0.306   4.118   4.715
 2218  WAT  EPW 9258   0.245   4.111   4.778
 2219  WAT    O 9259   0.383   4.740   4.592
 2219  WAT   H1 9260   0.379   4.644   4.588
 2219  WAT   H2 9261   0.338   4.763   4.673
 2219  WAT  EPW 9262   0.377   4.731   4.602
 2220  WAT    O 9263   0.516   4.634   3.703
 2220  WAT   H1 9264   0.478   4.603   3.621
 2220  WAT   H2 9265   0.540   4.725   3.685
 2220  WAT  EPW 9266   0.514   4.641   3.690
 2221  WAT    O 9267   0.922   3.835   4.125
 2221  WAT   H1 9268   0.893   3.907   4.069
 2221  WAT   H2 9269   0.895   3.862   4.213
 2221  WAT  EPW 9270   0.915   3.848   4.129
 2222  WAT    O 9271   1.317   4.891   4.295
 2222  WAT   H1 9272   1.226   4.892   4.267
 2222  WAT   H2 9273   1.330   4.804   4.334
 2222  WAT  EPW 9274   1.307   4.880   4.296
 2223  WAT    O 9275   0.280   4.522   4.003
 2223  WAT   H1 9276   0.362   4.571   4.000
 2223  WAT   H2 9277   0.285   4.473   4.085
 2223  WAT  EPW 9278   0.291   4.522   4.013
 2224  WAT    O 9279   0.509   4.686   4.004
 2224  WAT   H1 9280   0.457   4.756   4.042
 2224  WAT   H2 9281   0.510   4.706   3.910
 2224  WAT  EPW 9282   0.503   4.698   3.997
 2225  WAT    O 9283   1.213   4.173   3.620
 2225  WAT   H1 9284   1.261   4.137   3.545
 2225  WAT   H2 9285   1.264   4.250   3.646
 2225  WAT  EPW 9286   1.226   4.178   3.614
 2226  WAT    O 9287   0.494   4.890   4.961
 2226  WAT   H1 9288   0.415   4.931   4.924
 2226  WAT   H2 9289   0.465   4.803   4.988
 2226  WAT  EPW 9290   0.480   4.884   4.959
 2227  WAT    O 9291   1.399   3.281   4.560
 2227  WAT   H1 9292   1.413   3.321   4.645
 2227  WAT   H2 9293   1.304   3.288   4.546
 2227  WAT  EPW 9294   1.388   3.287   4.569
 2228  WAT    O 9295   0.396   4.486   4.808
 2228  WAT   H1 9296   0.429   4.406   4.849
 2228  WAT   H2 9297   0.309   4.463   4.776
 2228  WAT  EPW 9298   0.389   4.473   4.809
 2229  WAT    O 9299   1.007   4.294   4.331
 2229  WAT   H1 9300   1.057   4.274   4.252
 2229  WAT   H2 9301   1.026   4.387   4.348
 2229  WAT  EPW 9302   1.016   4.303   4.323
 2230  WAT    O 9303   0.470   4.169   3.705
 2230  WAT   H1 9304   0.422   4.087   3.692
 2230  WAT   H2 9305   0.513   4.185   3.622
 2230  WAT  EPW 9306   0.469   4.160   3.693
 2231  WAT    O 9307   0.739   4.354   4.394
 2231  WAT   H1 9308   0.699   4.430   4.352
 2231  WAT   H2 9309   0.826   4.347   4.353
 2231  WAT  EPW 9310   0.745   4.363   4.383
 2232  WAT    O 9311   1.193   4.478   4.142
 2232  WAT   H1 9312   1.261   4.519   4.196
 2232  WAT   H2 9313   1.112   4.522   4.166
 2232  WAT  EPW 9314   1.191   4.489   4.152
 2233  WAT    O 9315   1.039   3.928   4.746
 2233  WAT   H1 9316   0.993   3.972   4.674
 2233  WAT   H2 9317   0.985   3.945   4.823
 2233  WAT  EPW 9318   1.026   3.936   4.747
 2234  WAT    O 9319   1.555   4.421   4.640
 2234  WAT   H1 9320   1.516   4.373   4.714
 2234  WAT   H2 9321   1.502   4.500   4.632
 2234  WAT  EPW 9322   1.544   4.425   4.649
 2235  WAT    O 9323   0.893   4.075   4.527
 2235  WAT   H1 9324   0.955   4.120   4.470
 2235  WAT   H2 9325   0.879   3.991   4.485
 2235  WAT  EPW 9326   0.899   4.070   4.514
 2236  WAT    O 9327   0.746   4.863   4.877
 2236  WAT   H1 9328   0.786   4.945   4.907
 2236  WAT   H2 9329   0.655   4.869   4.905
 2236  WAT  EPW 9330   0.740   4.874   4.884
 2237  WAT    O 9331   0.895   3.750   3.803
 2237  WAT   H1 9332   0.819   3.775   3.750
 2237  WAT   H2 9333   0.951   3.828   3.803
 2237  WAT  EPW 9334   0.893   3.763   3.796
 2238  WAT    O 9335   1.107   3.668   4.254
 2238  WAT   H1 9336   1.041   3.709   4.198
 2238  WAT   H2 9337   1.177   3.642   4.194
 2238  WAT  EPW 9338   1.108   3.670   4.239
 2239  WAT    O 9339   1.269   4.192   4.792
 2239  WAT   H1 9340   1.242   4.126   4.857
 2239  WAT   H2 9341   1.291   4.140   4.714
 2239  WAT  EPW 9342   1.268   4.177   4.790
 2240  WAT    O 9343   0.343   4.371   4.214
 2240  WAT   H1 9344   0.362   4.296   4.158
 2240  WAT   H2 9345   0.429   4.410   4.231
 2240  WAT  EPW 9346   0.357   4.366   4.209
 2241  WAT    O 9347   0.208   3.558   4.430
 2241  WAT   H1 9348   0.225   3.650   4.450
 2241  WAT   H2 9349   0.265   3.509   4.490
 2241  WAT  EPW 9350   0.217   3.563   4.440
 2242  WAT    O 9351   0.588   4.892   3.643
 2242  WAT   H1 9352   0.673   4.888   3.688
 2242  WAT   H2 9353   0.611   4.912   3.552
 2242  WAT  EPW 9354   0.602   4.894   3.637
 2243  WAT    O 9355   0.293   4.471   4.470
 2243  WAT   H1 9356   0.319   4.429   4.387
 2243  WAT   H2 9357   0.302   4.401   4.535
 2243  WAT  EPW 9358   0.298   4.456   4.467
 2244  WAT    O 9359   1.025   4.916   4.515
 2244  WAT   H1 9360   1.034   4.941   4.423
 2244  WAT   H2 9361   0.939   4.951   4.541
 2244  WAT  EPW 9362   1.015   4.924   4.507
 2245  WAT    O 9363   1.511   4.300   4.932
 2245  WAT   H1 9364   1.421   4.267   4.923
 2245  WAT   H2 9365   1.501   4.389   4.964
 2245  WAT  EPW 9366   1.498   4.307   4.935
 2246  WAT    O 9367   0.730   4.468   3.735
 2246  WAT   H1 9368   0.803   4.530   3.734
 2246  WAT   H2 9369   0.652   4.523   3.732
 2246  WAT  EPW 9370   0.730   4.483   3.735
 2247  WAT    O 9371   0.694   4.206   4.647
 2247  WAT   H1 9372   0.649   4.131   4.685
 2247  WAT   H2 9373   0.766   4.168   4.597
 2247  WAT  EPW 9374   0.697   4.192   4.646
 2248  WAT    O 9375   0.847   4.619   4.818
 2248  WAT   H1 9376   0.820   4.701   4.858
 2248  WAT   H2 9377   0.942   4.617   4.829
 2248  WAT  EPW 9378   0.856   4.629   4.825
 2249  WAT    O 9379   0.396   3.880   4.045
 2249  WAT   H1 9380   0.381   3.974   4.038
 2249  WAT   H2 9381   0.317   3.847   4.088
 2249  WAT  EPW 9382   0.384   3.888   4.050
 2250  WAT    O 9383   0.322   3.929   3.705
 2250  WAT   H1 9384   0.230   3.907   3.721
 2250  WAT   H2 9385   0.369   3.890   3.778
 2250  WAT  EPW 9386   0.316   3.921   3.716
 2251  WAT    O 9387   0.892   4.448   4.627
 2251  WAT   H1 9388   0.865   4.512   4.693
 2251  WAT   H2 9389   0.812   4.430   4.577
 2251  WAT  EPW 9390   0.879   4.454   4.629
 2252  WAT    O 9391   0.890   4.281   4.883
 2252  WAT   H1 9392   0.874   4.312   4.794
 2252  WAT   H2 9393   0.804   4.255   4.915
 2252  WAT  EPW 9394   0.877   4.282   4.876
 2253  WAT    O 9395   0.231   4.711   4.323
 2253  WAT   H1 9396   0.222   4.789   4.377
 2253  WAT   H2 9397   0.238   4.639   4.385
 2253  WAT  EPW 9398   0.230   4.712   4.338
 2254  WAT    O 9399   0.349   3.577   4.186
 2254  WAT   H1 9400   0.309   3.544   4.266
 2254  WAT   H2 9401   0.360   3.499   4.131
 2254  WAT  EPW 9402   0.345   3.563   4.189
 2255  WAT    O 9403   0.403   4.181   3.975
 2255  WAT   H1 9404   0.441   4.175   3.887
 2255  WAT   H2 9405   0.313   4.152   3.965
 2255  WAT  EPW 9406   0.397   4.177   3.962
 2256  WAT    O 9407   0.373   4.897   3.818
 2256  WAT   H1 9408   0.300   4.848   3.781
 2256  WAT   H2 9409   0.439   4.898   3.749
 2256  WAT  EPW 9410   0.372   4.891   3.805
 2257  WAT    O 9411   0.618   3.871   4.213
 2257  WAT   H1 9412   0.533   3.857   4.172
 2257  WAT   H2 9413   0.623   3.966   4.227
 2257  WAT  EPW 9414   0.608   3.881   4.210
 2258  WAT    O 9415   0.722   4.238   3.537
 2258  WAT   H1 9416   0.720   4.303   3.607
 2258  WAT   H2 9417   0.758   4.159   3.578
 2258  WAT  EPW 9418   0.727   4.236   3.551
 2259  WAT    O 9419   0.690   3.688   4.022
 2259  WAT   H1 9420   0.667   3.767   4.072
 2259  WAT   H2 9421   0.780   3.704   3.993
 2259  WAT  EPW 9422   0.698   3.700   4.025
 2260  WAT    O 9423   1.232   3.660   4.509
 2260  WAT   H1 9424   1.319   3.621   4.515
 2260  WAT   H2 9425   1.222   3.683   4.417
 2260  WAT  EPW 9426   1.242   3.658   4.498
 2261  WAT    O 9427   0.923   3.687   5.023
 2261  WAT   H1 9428   0.897   3.609   4.973
 2261  WAT   H2 9429   1.019   3.688   5.018
 2261  WAT  EPW 9430   0.932   3.677   5.016
 2262  WAT    O 9431   1.235   4.047   4.034
 2262  WAT   H1 9432   1.213   4.022   4.124
 2262  WAT   H2 9433   1.316   4.000   4.016
 2262  WAT  EPW 9434   1.242   4.038   4.043
 2263  WAT    O 9435   0.615   3.902   4.551
 2263  WAT   H1 9436   0.530   3.859   4.542
 2263  WAT   H2 9437   0.625   3.917   4.645
 2263  WAT  EPW 9438   0.605   3.898   4.562
 2264  WAT    O 9439   0.357   4.855   4.134
 2264  WAT   H1 9440   0.294   4.810   4.190
 2264  WAT   H2 9441   0.309   4.929   4.097
 2264  WAT  EPW 9442   0.343   4.859   4.137
 2265  WAT    O 9443   1.504   4.049   3.818
 2265  WAT   H1 9444   1.422   4.001   3.813
 2265  WAT   H2 9445   1.479   4.136   3.851
 2265  WAT  EPW 9446   1.490   4.054   3.821
 2266  WAT    O 9447   1.476   4.566   5.001
 2266  WAT   H1 9448   1.387   4.588   5.029
 2266  WAT   H2 9449   1.504   4.642   4.949
 2266  WAT  EPW 9450   1.468   4.579   4.998
 2267  WAT    O 9451   1.383   4.768   4.045
 2267  WAT   H1 9452   1.385   4.780   4.140
 2267  WAT   H2 9453   1.400   4.856   4.009
 2267  WAT  EPW 9454   1.386   4.781   4.052
 2268  WAT    O 9455   0.229   3.843   4.638
 2268  WAT   H1 9456   0.274   3.785   4.699
 2268  WAT   H2 9457   0.285   3.845   4.561
 2268  WAT  EPW 9458   0.242   3.836   4.636
 2269  WAT    O 9459   1.219   4.670   4.980
 2269  WAT   H1 9460   1.158   4.597   4.985
 2269  WAT   H2 9461   1.176   4.733   4.921
 2269  WAT  EPW 9462   1.206   4.669   4.973
 2270  WAT    O 9463   1.015   4.248   4.076
 2270  WAT   H1 9464   1.077   4.293   4.018
 2270  WAT   H2 9465   0.934   4.299   4.068
 2270  WAT  EPW 9466   1.013   4.260   4.068
 2271  WAT    O 9467   1.105   4.856   4.782
 2271  WAT   H1 9468   1.087   4.848   4.688
 2271  WAT   H2 9469   1.183   4.911   4.787
 2271  WAT  EPW 9470   1.112   4.862   4.770
 2272  WAT    O 9471   0.586   4.494   4.214
 2272  WAT   H1 9472   0.638   4.434   4.160
 2272  WAT   H2 9473   0.559   4.563   4.153
 2272  WAT  EPW 9474   0.589   4.496   4.199
 2273  WAT    O 9475   1.191   3.817   4.969
 2273  WAT   H1 9476   1.162   3.900   5.009
 2273  WAT   H2 9477   1.168   3.826   4.877
 2273  WAT  EPW 9478   1.184   3.829   4.963
 2274  WAT    O 9479   1.592   3.951   4.218
 2274  WAT   H1 9480   1.650   3.999   4.159
 2274  WAT   H2 9481   1.535   4.018   4.256
 2274  WAT  EPW 9482   1.592   3.966   4.215
 2275  WAT    O 9483   0.364   3.833   4.405
 2275  WAT   H1 9484   0.346   3.892   4.331
 2275  WAT   H2 9485   0.412   3.760   4.366
 2275  WAT  EPW 9486   0.368   3.831   4.390
 2276  WAT    O 9487   1.361   4.602   4.341
 2276  WAT   H1 9488   1.447   4.567   4.314
 2276  WAT   H2 9489   1.364   4.599   4.437
 2276  WAT  EPW 9490   1.373   4.597   4.350
 2277  WAT    O 9491   1.569   3.604   4.292
 2277  WAT   H1 9492   1.509   3.569   4.358
 2277  WAT   H2 9493   1.641   3.541   4.288
 2277  WAT  EPW 9494   1.571   3.592   4.300
 2278  WAT    O 9495   1.176   4.669   3.862
 2278  WAT   H1 9496   1.216   4.703   3.943
 2278  WAT   H2 9497   1.225   4.711   3.792
 2278  WAT  EPW 9498   1.187   4.678   3.864
 2279  WAT    O 9499   0.407   3.771   3.005
 2279  WAT   H1 9500   0.429   3.769   3.097
 2279  WAT   H2 9501   0.344   3.700   2.993
 2279  WAT  EPW 9502   0.401   3.762   3.015
 2280  WAT    O 9503   0.623   4.934   2.347
 2280  WAT   H1 9504   0.606   4.950   2.440
 2280  WAT   H2 9505   0.546   4.886   2.316
 2280  WAT  EPW 9506   0.611   4.930   2.355
 2281  WAT    O 9507   0.280   4.424   1.880
 2281  WAT   H1 9508   0.265   4.470   1.963
 2281  WAT   H2 9509   0.351   4.363   1.899
 2281  WAT  EPW 9510   0.287   4.422   1.893
 2282  WAT    O 9511   0.620   3.945   2.940
 2282  WAT   H1 9512   0.559   3.881   2.978
 2282  WAT   H2 9513   0.698   3.938   2.994
 2282  WAT  EPW 9514   0.622   3.936   2.952
 2283  WAT    O 9515   0.673   3.589   3.568
 2283  WAT   H1 9516   0.763   3.566   3.542
 2283  WAT   H2 9517   0.621   3.577   3.489
 2283  WAT  EPW 9518   0.678   3.584   3.555
 2284  WAT    O 9519   0.862   3.928   3.067
 2284  WAT   H1 9520   0.880   3.839   3.100
 2284  WAT   H2 9521   0.894   3.986   3.136
 2284  WAT  EPW 9522   0.868   3.924   3.080
 2285  WAT    O 9523   0.831   4.727   2.292
 2285  WAT   H1 9524   0.788   4.666   2.231
 2285  WAT   H2 9525   0.764   4.794   2.310
 2285  WAT  EPW 9526   0.817   4.728   2.286
 2286  WAT    O 9527   1.518   4.219   2.401
 2286  WAT   H1 9528   1.440   4.230   2.456
 2286  WAT   H2 9529   1.552   4.308   2.390
 2286  WAT  EPW 9530   1.512   4.232   2.407
 2287  WAT    O 9531   0.627   3.832   1.816
 2287  WAT   H1 9532   0.601   3.786   1.896
 2287  WAT   H2 9533   0.629   3.765   1.748
 2287  WAT  EPW 9534   0.624   3.818   1.818
 2288  WAT    O 9535   0.651   4.551   3.144
 2288  WAT   H1 9536   0.638   4.465   3.183
 2288  WAT   H2 9537   0.695   4.534   3.061
 2288  WAT  EPW 9538   0.655   4.538   3.139
 2289  WAT    O 9539   0.938   4.646   1.846
 2289  WAT   H1 9540   1.015   4.648   1.903
 2289  WAT   H2 9541   0.970   4.610   1.764
 2289  WAT  EPW 9542   0.952   4.642   1.843
 2290  WAT    O 9543   1.512   4.610   2.019
 2290  WAT   H1 9544   1.475   4.674   2.080
 2290  WAT   H2 9545   1.436   4.568   1.980
 2290  WAT  EPW 9546   1.498   4.613   2.022
 2291  WAT    O 9547   1.310   4.770   1.721
 2291  WAT   H1 9548   1.314   4.757   1.626
 2291  WAT   H2 9549   1.399   4.797   1.745
 2291  WAT  EPW 9550   1.322   4.772   1.712
 2292  WAT    O 9551   0.221   4.045   2.357
 2292  WAT   H1 9552   0.180   4.045   2.270
 2292  WAT   H2 9553   0.172   4.111   2.406
 2292  WAT  EPW 9554   0.209   4.053   2.352
 2293  WAT    O 9555   0.867   4.133   3.259
 2293  WAT   H1 9556   0.926   4.164   3.328
 2293  WAT   H2 9557   0.795   4.196   3.259
 2293  WAT  EPW 9558   0.866   4.145   3.268
 2294  WAT    O 9559   0.629   4.183   2.212
 2294  WAT   H1 9560   0.547   4.181   2.164
 2294  WAT   H2 9561   0.604   4.165   2.303
 2294  WAT  EPW 9562   0.616   4.181   2.217
 2295  WAT    O 9563   0.427   4.241   2.707
 2295  WAT   H1 9564   0.515   4.270   2.730
 2295  WAT   H2 9565   0.436   4.207   2.617
 2295  WAT  EPW 9566   0.439   4.240   2.698
 2296  WAT    O 9567   0.857   3.823   2.525
 2296  WAT   H1 9568   0.761   3.816   2.532
 2296  WAT   H2 9569   0.889   3.750   2.578
 2296  WAT  EPW 9570   0.849   3.813   2.533
 2297  WAT    O 9571   1.370   4.623   2.737
 2297  WAT   H1 9572   1.414   4.674   2.805
 2297  WAT   H2 9573   1.302   4.574   2.784
 2297  WAT  EPW 9574   1.367   4.624   2.752
 2298  WAT    O 9575   1.491   4.800   2.960
 2298  WAT   H1 9576   1.420   4.861   2.940
 2298  WAT   H2 9577   1.563   4.857   2.990
 2298  WAT  EPW 9578   1.491   4.815   2.961
 2299  WAT    O 9579   0.422   4.576   3.444
 2299  WAT   H1 9580   0.406   4.481   3.440
 2299  WAT   H2 9581   0.413   4.605   3.353
 2299  WAT  EPW 9582   0.418   4.567   3.431
 2300  WAT    O 9583   1.105   3.955   1.911
 2300  WAT   H1 9584   1.115   3.990   2.000
 2300  WAT   H2 9585   1.092   4.033   1.857
 2300  WAT  EPW 9586   1.104   3.969   1.916
 2301  WAT    O 9587   1.369   4.040   2.644
 2301  WAT   H1 9588   1.460   4.041   2.673
 2301  WAT   H2 9589   1.369   3.981   2.568
 2301  WAT  EPW 9590   1.380   4.033   2.638
 2302  WAT    O 9591   1.153   4.474   2.829
 2302  WAT   H1 9592   1.066   4.448   2.800
 2302  WAT   H2 9593   1.188   4.395   2.872
 2302  WAT  EPW 9594   1.147   4.460   2.831
 2303  WAT    O 9595   0.327   3.673   1.710
 2303  WAT   H1 9596   0.362   3.673   1.799
 2303  WAT   H2 9597   0.279   3.755   1.702
 2303  WAT  EPW 9598   0.326   3.683   1.720
 2304  WAT    O 9599   0.588   4.124   2.475
 2304  WAT   H1 9600   0.596   4.045   2.530
 2304  WAT   H2 9601   0.632   4.192   2.525
 2304  WAT  EPW 9602   0.594   4.122   2.489
 2305  WAT    O 9603   1.454   3.885   3.409
 2305  WAT   H1 9604   1.364   3.853   3.409
 2305  WAT   H2 9605   1.486   3.868   3.321
 2305  WAT  EPW 9606   1.447   3.879   3.398
 2306  WAT    O 9607   1.872   4.264   2.435
 2306  WAT   H1 9608   1.873   4.233   2.525
 2306  WAT   H2 9609   1.867   4.359   2.442
 2306  WAT  EPW 9610   1.871   4.272   2.447
 2307  WAT    O 9611   0.811   4.058   1.823
 2307  WAT   H1 9612   0.748   3.985   1.825
 2307  WAT   H2 9613   0.833   4.074   1.915
 2307  WAT  EPW 9614   0.806   4.051   1.835
 2308  WAT    O 9615   0.485   4.223   3.035
 2308  WAT   H1 9616   0.400   4.191   3.067
 2308  WAT   H2 9617   0.532   4.143   3.009
 2308  WAT  EPW 9618   0.480   4.208   3.036
 2309  WAT    O 9619   0.178   4.741   3.468
 2309  WAT   H1 9620   0.259   4.692   3.454
 2309  WAT   H2 9621   0.151   4.769   3.381
 2309  WAT  EPW 9622   0.184   4.738   3.455
 2310  WAT    O 9623   1.458   3.809   3.153
 2310  WAT   H1 9624   1.371   3.793   3.115
 2310  WAT   H2 9625   1.516   3.750   3.105
 2310  WAT  EPW 9626   1.454   3.800   3.142
 2311  WAT    O 9627   1.428   4.354   1.823
 2311  WAT   H1 9628   1.383   4.330   1.904
 2311  WAT   H2 9629   1.521   4.340   1.843
 2311  WAT  EPW 9630   1.434   4.349   1.836
 2312  WAT    O 9631   0.404   4.645   3.171
 2312  WAT   H1 9632   0.492   4.608   3.166
 2312  WAT   H2 9633   0.350   4.587   3.118
 2312  WAT  EPW 9634   0.408   4.633   3.164
 2313  WAT    O 9635   1.048   4.471   3.136
 2313  WAT   H1 9636   0.992   4.431   3.069
 2313  WAT   H2 9637   0.991   4.532   3.182
 2313  WAT  EPW 9638   1.034   4.474   3.133
 2314  WAT    O 9639   1.440   4.397   3.456
 2314  WAT   H1 9640   1.357   4.431   3.421
 2314  WAT   H2 9641   1.425   4.391   3.550
 2314  WAT  EPW 9642   1.427   4.401   3.463
 2315  WAT    O 9643   0.831   4.070   2.089
 2315  WAT   H1 9644   0.749   4.098   2.129
 2315  WAT   H2 9645   0.899   4.108   2.145
 2315  WAT  EPW 9646   0.829   4.078   2.102
 2316  WAT    O 9647   1.033   4.580   2.444
 2316  WAT   H1 9648   1.087   4.630   2.505
 2316  WAT   H2 9649   0.963   4.640   2.419
 2316  WAT  EPW 9650   1.031   4.594   2.449
 2317  WAT    O 9651   1.303   4.304   2.064
 2317  WAT   H1 9652   1.299   4.366   2.137
 2317  WAT   H2 9653   1.267   4.223   2.099
 2317  WAT  EPW 9654   1.298   4.302   2.077
 2318  WAT    O 9655   0.778   4.391   2.111
 2318  WAT   H1 9656   0.711   4.323   2.114
 2318  WAT   H2 9657   0.786   4.412   2.019
 2318  WAT  EPW 9658   0.771   4.385   2.100
 2319  WAT    O 9659   0.340   4.288   3.418
 2319  WAT   H1 9660   0.329   4.260   3.328
 2319  WAT   H2 9661   0.251   4.298   3.452
 2319  WAT  EPW 9662   0.327   4.286   3.411
 2320  WAT    O 9663   0.245   4.121   2.903
 2320  WAT   H1 9664   0.186   4.047   2.888
 2320  WAT   H2 9665   0.306   4.118   2.829
 2320  WAT  EPW 9666   0.245   4.111   2.892
 2321  WAT    O 9667   0.383   4.740   2.706
 2321  WAT   H1 9668   0.379   4.644   2.702
 2321  WAT   H2 9669   0.338   4.763   2.787
 2321  WAT  EPW 9670   0.377   4.731   2.716
 2322  WAT    O 9671   1.180   4.405   3.374
 2322  WAT   H1 9672   1.111   4.341   3.391
 2322  WAT   H2 9673   1.159   4.441   3.288
 2322  WAT  EPW 9674   1.168   4.402   3.365
 2323  WAT    O 9675   0.516   4.634   1.817
 2323  WAT   H1 9676   0.478   4.603   1.735
 2323  WAT   H2 9677   0.540   4.725   1.799
 2323  WAT  EPW 9678   0.514   4.641   1.804
 2324  WAT    O 9679   0.399   3.661   1.985
 2324  WAT   H1 9680   0.423   3.573   2.015
 2324  WAT   H2 9681   0.377   3.708   2.065
 2324  WAT  EPW 9682   0.399   3.655   1.999
 2325  WAT    O 9683   0.922   3.835   2.239
 2325  WAT   H1 9684   0.893   3.907   2.183
 2325  WAT   H2 9685   0.895   3.862   2.327
 2325  WAT  EPW 9686   0.915   3.848   2.243
 2326  WAT    O 9687   1.317   4.891   2.409
 2326  WAT   H1 9688   1.226   4.892   2.381
 2326  WAT   H2 9689   1.330   4.804   2.448
 2326  WAT  EPW 9690   1.307   4.880   2.410
 2327  WAT    O 9691   0.280   4.522   2.117
 2327  WAT   H1 9692   0.362   4.571   2.114
 2327  WAT   H2 9693   0.285   4.473   2.199
 2327  WAT  EPW 9694   0.291   4.522   2.127
 2328  WAT    O 9695   0.509   4.686   2.118
 2328  WAT   H1 9696   0.457   4.756   2.156
 2328  WAT   H2 9697   0.510   4.706   2.024
 2328  WAT  EPW 9698   0.503   4.698   2.111
 2329  WAT    O 9699   1.213   4.173   1.734
 2329  WAT   H1 9700   1.261   4.137   1.659
 2329  WAT   H2 9701   1.264   4.250   1.760
 2329  WAT  EPW 9702   1.226   4.178   1.728
 2330  WAT    O 9703   0.494   4.890   3.075
 2330  WAT   H1 9704   0.415   4.931   3.038
 2330  WAT   H2 9705   0.465   4.803   3.102
 2330  WAT  EPW 9706   0.480   4.884   3.073
 2331  WAT    O 9707   0.396   4.486   2.922
 2331  WAT   H1 9708   0.429   4.406   2.963
 2331  WAT   H2 9709   0.309   4.463   2.890
 2331  WAT  EPW 9710   0.389   4.473   2.923
 2332  WAT    O 9711   1.007   4.294   2.445
 2332  WAT   H1 9712   1.057   4.274   2.366
 2332  WAT   H2 9713   1.026   4.387   2.462
 2332  WAT  EPW 9714   1.016   4.303   2.437
 2333  WAT    O 9715   0.470   4.169   1.819
 2333  WAT   H1 9716   0.422   4.087   1.806
 2333  WAT   H2 9717   0.513   4.185   1.736
 2333  WAT  EPW 9718   0.469   4.160   1.807
 2334  WAT    O 9719   0.739   4.354   2.508
 2334  WAT   H1 9720   0.699   4.430   2.466
 2334  WAT   H2 9721   0.826   4.347   2.467
 2334  WAT  EPW 9722   0.745   4.363   2.497
 2335  WAT    O 9723   1.193   4.478   2.256
 2335  WAT   H1 9724   1.261   4.519   2.310
 2335  WAT   H2 9725   1.112   4.522   2.280
 2335  WAT  EPW 9726   1.191   4.489   2.266
 2336  WAT    O 9727   1.039   3.928   2.860
 2336  WAT   H1 9728   0.993   3.972   2.788
 2336  WAT   H2 9729   0.985   3.945   2.937
 2336  WAT  EPW 9730   1.026   3.936   2.861
 2337  WAT    O 9731   1.555   4.421   2.754
 2337  WAT   H1 9732   1.516   4.373   2.828
 2337  WAT   H2 9733   1.502   4.500   2.746
 2337  WAT  EPW 9734   1.544   4.425   2.763
 2338  WAT    O 9735   0.893   4.075   2.641
 2338  WAT   H1 9736   0.955   4.120   2.584
 2338  WAT   H2 9737   0.879   3.991   2.599
 2338  WAT  EPW 9738   0.899   4.070   2.628
 2339  WAT    O 9739   0.746   4.863   2.991
 2339  WAT   H1 9740   0.786   4.945   3.021
 2339  WAT   H2 9741   0.655   4.869   3.019
 2339  WAT  EPW 9742   0.740   4.874   2.998
 2340  WAT    O 9743   0.895   3.750   1.917
 2340  WAT   H1 9744   0.819   3.775   1.864
 2340  WAT   H2 9745   0.951   3.828   1.917
 2340  WAT  EPW 9746   0.893   3.763   1.910
 2341  WAT    O 9747   1.269   4.192   2.906
 2341  WAT   H1 9748   1.242   4.126   2.971
 2341  WAT   H2 9749   1.291   4.140   2.828
 2341  WAT  EPW 9750   1.268   4.177   2.904
 2342  WAT    O 9751   0.343   4.371   2.328
 2342  WAT   H1 9752   0.362   4.296   2.272
 2342  WAT   H2 9753   0.429   4.410   2.345
 2342  WAT  EPW 9754   0.357   4.366   2.323
 2343  WAT    O 9755   0.509   3.857   3.252
 2343  WAT   H1 9756   0.601   3.864   3.277
 2343  WAT   H2 9757   0.464   3.919   3.310
 2343  WAT  EPW 9758   0.515   3.866   3.263
 2344  WAT    O 9759   0.208   3.558   2.544
 2344  WAT   H1 9760   0.225   3.650   2.564
 2344  WAT   H2 9761   0.265   3.509   2.604
 2344  WAT  EPW 9762   0.217   3.563   2.554
 2345  WAT    O 9763   0.588   4.892   1.757
 2345  WAT   H1 9764   0.673   4.888   1.802
 2345  WAT   H2 9765   0.611   4.912   1.666
 2345  WAT  EPW 9766   0.602   4.894   1.751
 2346  WAT    O 9767   0.293   4.471   2.584
 2346  WAT   H1 9768   0.319   4.429   2.501
 2346  WAT   H2 9769   0.302   4.401   2.649
 2346  WAT  EPW 9770   0.298   4.456   2.581
 2347  WAT    O 9771   1.025   4.916   2.629
 2347  WAT   H1 9772   1.034   4.941   2.537
 2347  WAT   H2 9773   0.939   4.951   2.655
 2347  WAT  EPW 9774   1.015   4.924   2.621
 2348  WAT    O 9775   1.374   3.544   3.526
 2348  WAT   H1 9776   1.320   3.493   3.586
 2348  WAT   H2 9777   1.328   3.628   3.517
 2348  WAT  EPW 9778   1.361   3.549   3.532
 2349  WAT    O 9779   1.511   4.300   3.046
 2349  WAT   H1 9780   1.421   4.267   3.037
 2349  WAT   H2 9781   1.501   4.389   3.078
 2349  WAT  EPW 9782   1.498   4.307   3.049
 2350  WAT    O 9783   0.730   4.468   1.849
 2350  WAT   H1 9784   0.803   4.530   1.848
 2350  WAT   H2 9785   0.652   4.523   1.846
 2350  WAT  EPW 9786   0.730   4.483   1.849
 2351  WAT    O 9787   0.694   4.206   2.761
 2351  WAT   H1 9788   0.649   4.131   2.799
 2351  WAT   H2 9789   0.766   4.168   2.711
 2351  WAT  EPW 9790   0.697   4.192   2.760
 2352  WAT    O 9791   0.847   4.619   2.932
 2352  WAT   H1 9792   0.820   4.701   2.972
 2352  WAT   H2 9793   0.942   4.617   2.943
 2352  WAT  EPW 9794   0.856   4.629   2.939
 2353  WAT    O 9795   0.396   3.880   2.159
 2353  WAT   H1 9796   0.381   3.974   2.152
 2353  WAT   H2 9797   0.317   3.847   2.202
 2353  WAT  EPW 9798   0.384   3.888   2.164
 2354  WAT    O 9799   0.761   3.914   3.401
 2354  WAT   H1 9800   0.714   3.974   3.460
 2354  WAT   H2 9801   0.821   3.971   3.352
 2354  WAT  EPW 9802   0.763   3.929   3.402
 2355  WAT    O 9803   0.322   3.929   1.819
 2355  WAT   H1 9804   0.230   3.907   1.835
 2355  WAT   H2 9805   0.369   3.890   1.892
 2355  WAT  EPW 9806   0.316   3.921   1.830
 2356  WAT    O 9807   0.892   4.448   2.741
 2356  WAT   H1 9808   0.865   4.512   2.807
 2356  WAT   H2 9809   0.812   4.430   2.691
 2356  WAT  EPW 9810   0.879   4.454   2.743
 2357  WAT    O 9811   0.890   4.281   2.997
 2357  WAT   H1 9812   0.874   4.312   2.908
 2357  WAT   H2 9813   0.804   4.255   3.029
 2357  WAT  EPW 9814   0.877   4.282   2.990
 2358  WAT    O 9815   0.912   3.703   3.411
 2358  WAT   H1 9816   0.912   3.674   3.320
 2358  WAT   H2 9817   0.845   3.771   3.415
 2358  WAT  EPW 9818   0.903   3.708   3.400
 2359  WAT    O 9819   0.883   4.647   3.251
 2359  WAT   H1 9820   0.801   4.632   3.204
 2359  WAT   H2 9821   0.888   4.743   3.260
 2359  WAT  EPW 9822   0.873   4.658   3.246
 2360  WAT    O 9823   1.318   4.117   3.374
 2360  WAT   H1 9824   1.389   4.054   3.383
 2360  WAT   H2 9825   1.362   4.201   3.359
 2360  WAT  EPW 9826   1.333   4.120   3.373
 2361  WAT    O 9827   0.231   4.711   2.437
 2361  WAT   H1 9828   0.222   4.789   2.491
 2361  WAT   H2 9829   0.238   4.639   2.499
 2361  WAT  EPW 9830   0.230   4.712   2.452
 2362  WAT    O 9831   0.241   4.225   3.155
 2362  WAT   H1 9832   0.232   4.213   3.060
 2362  WAT   H2 9833   0.168   4.283   3.179
 2362  WAT  EPW 9834   0.230   4.231   3.146
 2363  WAT    O 9835   0.349   3.577   2.300
 2363  WAT   H1 9836   0.309   3.544   2.380
 2363  WAT   H2 9837   0.360   3.499   2.245
 2363  WAT  EPW 9838   0.345   3.563   2.303
 2364  WAT    O 9839   0.403   4.181   2.089
 2364  WAT   H1 9840   0.441   4.175   2.001
 2364  WAT   H2 9841   0.313   4.152   2.079
 2364  WAT  EPW 9842   0.397   4.177   2.076
 2365  WAT    O 9843   0.373   4.897   1.932
 2365  WAT   H1 9844   0.300   4.848   1.895
 2365  WAT   H2 9845   0.439   4.898   1.863
 2365  WAT  EPW 9846   0.372   4.891   1.919
 2366  WAT    O 9847   0.618   3.871   2.327
 2366  WAT   H1 9848   0.533   3.857   2.286
 2366  WAT   H2 9849   0.623   3.966   2.341
 2366  WAT  EPW 9850   0.608   3.881   2.324
 2367  WAT    O 9851   0.722   4.238   1.651
 2367  WAT   H1 9852   0.720   4.303   1.721
 2367  WAT   H2 9853   0.758   4.159   1.692
 2367  WAT  EPW 9854   0.727   4.236   1.665
 2368  WAT    O 9855   1.221   3.763   3.393
 2368  WAT   H1 9856   1.227   3.728   3.304
 2368  WAT   H2 9857   1.127   3.768   3.411
 2368  WAT  EPW 9858   1.209   3.759   3.384
 2369  WAT    O 9859   0.690   3.688   2.136
 2369  WAT   H1 9860   0.667   3.767   2.186
 2369  WAT   H2 9861   0.780   3.704   2.107
 2369  WAT  EPW 9862   0.698   3.700   2.139
 2370  WAT    O 9863   0.923   3.687   3.137
 2370  WAT   H1 9864   0.897   3.609   3.087
 2370  WAT   H2 9865   1.019   3.688   3.132
 2370  WAT  EPW 9866   0.932   3.677   3.130
 2371  WAT    O 9867   0.615   3.902   2.665
 2371  WAT   H1 9868   0.530   3.859   2.656
 2371  WAT   H2 9869   0.625   3.917   2.759
 2371  WAT  EPW 9870   0.605   3.898   2.676
 2372  WAT    O 9871   0.478   3.604   3.380
 2372  WAT   H1 9872   0.423   3.635   3.452
 2372  WAT   H2 9873   0.484   3.679   3.320
 2372  WAT  EPW 9874   0.472   3.617   3.381
 2373  WAT    O 9875   0.357   4.855   2.248
 2373  WAT   H1 9876   0.294   4.810   2.304
 2373  WAT   H2 9877   0.309   4.929   2.211
 2373  WAT  EPW 9878   0.343   4.859   2.251
 2374  WAT    O 9879   1.504   4.049   1.932
 2374  WAT   H1 9880   1.422   4.001   1.927
 2374  WAT   H2 9881   1.479   4.136   1.965
 2374  WAT  EPW 9882   1.490   4.054   1.935
 2375  WAT    O 9883   1.210   4.783   3.334
 2375  WAT   H1 9884   1.146   4.729   3.381
 2375  WAT   H2 9885   1.206   4.750   3.244
 2375  WAT  EPW 9886   1.201   4.772   3.328
 2376  WAT    O 9887   1.476   4.566   3.115
 2376  WAT   H1 9888   1.387   4.588   3.143
 2376  WAT   H2 9889   1.504   4.642   3.063
 2376  WAT  EPW 9890   1.468   4.579   3.112
 2377  WAT    O 9891   1.383   4.768   2.159
 2377  WAT   H1 9892   1.385   4.780   2.254
 2377  WAT   H2 9893   1.400   4.856   2.123
 2377  WAT  EPW 9894   1.386   4.781   2.166
 2378  WAT    O 9895   0.229   3.843   2.752
 2378  WAT   H1 9896   0.274   3.785   2.813
 2378  WAT   H2 9897   0.285   3.845   2.675
 2378  WAT  EPW 9898   0.242   3.836   2.750
 2379  WAT    O 9899   1.219   4.670   3.094
 2379  WAT   H1 9900   1.158   4.597   3.099
 2379  WAT   H2 9901   1.176   4.733   3.035
 2379  WAT  EPW 9902   1.206   4.669   3.087
 2380  WAT    O 9903   0.432   4.039   3.449
 2380  WAT   H1 9904   0.356   3.999   3.491
 2380  WAT   H2 9905   0.407   4.130   3.434
 2380  WAT  EPW 9906   0.419   4.046   3.453
 2381  WAT    O 9907   1.015   4.248   2.190
 2381  WAT   H1 9908   1.077   4.293   2.132
 2381  WAT   H2 9909   0.934   4.299   2.182
 2381  WAT  EPW 9910   1.013   4.260   2.182
 2382  WAT    O 9911   1.105   4.856   2.896
 2382  WAT   H1 9912   1.087   4.848   2.802
 2382  WAT   H2 9913   1.183   4.911   2.901
 2382  WAT  EPW 9914   1.112   4.862   2.884
 2383  WAT    O 9915   0.586   4.494   2.328
 2383  WAT   H1 9916   0.638   4.434   2.274
 2383  WAT   H2 9917   0.559   4.563   2.267
 2383  WAT  EPW 9918   0.589   4.496   2.313
 2384  WAT    O 9919   1.191   3.817   3.083
 2384  WAT   H1 9920   1.162   3.900   3.123
 2384  WAT   H2 9921   1.168   3.826   2.991
 2384  WAT  EPW 9922   1.184   3.829   3.077
 2385  WAT    O 9923   1.030   4.629   3.463
 2385  WAT   H1 9924   0.949   4.632   3.412
 2385  WAT   H2 9925   1.066   4.542   3.443
 2385  WAT  EPW 9926   1.024   4.618   3.454
 2386  WAT    O 9927   0.364   3.833   2.519
 2386  WAT   H1 9928   0.346   3.892   2.445
 2386  WAT   H2 9929   0.412   3.760   2.480
 2386  WAT  EPW 9930   0.368   3.831   2.504
 2387  WAT    O 9931   1.361   4.602   2.455
 2387  WAT   H1 9932   1.447   4.567   2.428
 2387  WAT   H2 9933   1.364   4.599   2.551
 2387  WAT  EPW 9934   1.373   4.597   2.464
 2388  WAT    O 9935   0.654   4.293   3.245
 2388  WAT   H1 9936   0.579   4.260   3.197
 2388  WAT   H2 9937   0.634   4.273   3.337
 2388  WAT  EPW 9938   0.642   4.286   3.251
 2389  WAT    O 9939   1.009   4.225   3.452
 2389  WAT   H1 9940   0.931   4.221   3.507
 2389  WAT   H2 9941   1.073   4.170   3.498
 2389  WAT  EPW 9942   1.007   4.217   3.465
 2390  WAT    O 9943   1.176   4.669   1.976
 2390  WAT   H1 9944   1.216   4.703   2.057
 2390  WAT   H2 9945   1.225   4.711   1.906
 2390  WAT  EPW 9946   1.187   4.678   1.978
 2391  WAT    O 9947   1.149   4.077   3.173
 2391  WAT   H1 9948   1.218   4.097   3.236
 2391  WAT   H2 9949   1.085   4.148   3.184
 2391  WAT  EPW 9950   1.150   4.089   3.182
 2392  WAT    O 9951   0.407   3.771   1.119
 2392  WAT   H1 9952   0.429   3.769   1.211
 2392  WAT   H2 9953   0.344   3.700   1.107
 2392  WAT  EPW 9954   0.401   3.762   1.129
 2393  WAT    O 9955   0.623   4.934   0.461
 2393  WAT   H1 9956   0.606   4.950   0.554
 2393  WAT   H2 9957   0.546   4.886   0.430
 2393  WAT  EPW 9958   0.611   4.930   0.469
 2394  WAT    O 9959   0.620   3.945   1.054
 2394  WAT   H1 9960   0.559   3.881   1.092
 2394  WAT   H2 9961   0.698   3.938   1.108
 2394  WAT  EPW 9962   0.622   3.936   1.066
 2395  WAT    O 9963   0.673   3.589   1.682
 2395  WAT   H1 9964   0.763   3.566   1.656
 2395  WAT   H2 9965   0.621   3.577   1.603
 2395  WAT  EPW 9966   0.678   3.584   1.669
 2396  WAT    O 9967   0.862   3.928   1.181
 2396  WAT   H1 9968   0.880   3.839   1.214
 2396  WAT   H2 9969   0.894   3.986   1.250
 2396  WAT  EPW 9970   0.868   3.924   1.194
 2397  WAT    O 9971   0.831   4.727   0.406
 2397  WAT   H1 9972   0.788   4.666   0.345
 2397  WAT   H2 9973   0.764   4.794   0.424
 2397  WAT  EPW 9974   0.817   4.728   0.400
 2398  WAT    O 9975   1.406   3.790   0.331
 2398  WAT   H1 9976   1.413   3.696   0.319
 2398  WAT   H2 9977   1.493   3.817   0.361
 2398  WAT  EPW 9978   1.418   3.782   0.333
 2399  WAT    O 9979   1.518   4.219   0.515
 2399  WAT   H1 9980   1.440   4.230   0.570
 2399  WAT   H2 9981   1.552   4.308   0.504
 2399  WAT  EPW 9982   1.512   4.232   0.521
 2400  WAT    O 9983   0.651   4.551   1.258
 2400  WAT   H1 9984   0.638   4.465   1.297
 2400  WAT   H2 9985   0.695   4.534   1.175
 2400  WAT  EPW 9986   0.655   4.538   1.253
 2401  WAT    O 9987   0.221   4.045   0.471
 2401  WAT   H1 9988   0.180   4.045   0.384
 2401  WAT   H2 9989   0.172   4.111   0.520
 2401  WAT  EPW 9990   0.209   4.053   0.466
 2402  WAT    O 9991   0.867   4.133   1.373
 2402  WAT   H1 9992   0.926   4.164   1.442
 2402  WAT   H2 9993   0.795   4.196   1.373
 2402  WAT  EPW 9994   0.866   4.145   1.382
 2403  WAT    O 9995   0.629   4.183   0.326
 2403  WAT   H1 9996   0.547   4.181   0.278
 2403  WAT   H2 9997   0.604   4.165   0.417
 2403  WAT  EPW 9998   0.616   4.181   0.331
 2404  WAT    O 9999   0.427   4.241   0.821
 2404  WAT   H110000   0.515   4.270   0.844
 2404  WAT   H210001   0.436   4.207   0.731
 2404  WAT  EPW10002   0.439   4.240   0.812
 2405  WAT    O10003   0.857   3.823   0.639
 2405  WAT   H110004   0.761   3.816   0.646
 2405  WAT   H210005   0.889   3.750   0.692
 2405  WAT  EPW10006   0.849   3.813   0.647
 2406  WAT    O10007   1.370   4.623   0.851
 2406  WAT   H110008   1.414   4.674   0.919
 2406  WAT   H210009   1.302   4.574   0.898
 2406  WAT  EPW10010   1.367   4.624   0.866
 2407  WAT    O10011   1.491   4.800   1.074
 2407  WAT   H110012   1.420   4.861   1.054
 2407  WAT   H210013   1.563   4.857   1.104
 2407  WAT  EPW10014   1.491   4.815   1.075
 2408  WAT    O10015   0.422   4.576   1.558
 2408  WAT   H110016   0.406   4.481   1.554
 2408  WAT   H210017   0.413   4.605   1.467
 2408  WAT  EPW10018   0.418   4.567   1.545
 2409  WAT    O10019   1.369   4.040   0.758
 2409  WAT   H110020   1.460   4.041   0.787
 2409  WAT   H210021   1.369   3.981   0.682
 2409  WAT  EPW10022   1.380   4.033   0.752
 2410  WAT    O10023   1.153   4.474   0.943
 2410  WAT   H110024   1.066   4.448   0.914
 2410  WAT   H210025   1.188   4.395   0.986
 2410  WAT  EPW10026   1.147   4.460   0.945
 2411  WAT    O10027   0.588   4.124   0.589
 2411  WAT   H110028   0.596   4.045   0.644
 2411  WAT   H210029   0.632   4.192   0.639
 2411  WAT  EPW10030   0.594   4.122   0.603
 2412  WAT    O10031   1.454   3.885   1.523
 2412  WAT   H110032   1.364   3.853   1.523
 2412  WAT   H210033   1.486   3.868   1.435
 2412  WAT  EPW10034   1.447   3.879   1.512
 2413  WAT    O10035   1.872   4.264   0.549
 2413  WAT   H110036   1.873   4.233   0.639
 2413  WAT   H210037   1.867   4.359   0.556
 2413  WAT  EPW10038   1.871   4.272   0.561
 2414  WAT    O10039   0.485   4.223   1.149
 2414  WAT   H110040   0.400   4.191   1.181
 2414  WAT   H210041   0.532   4.143   1.123
 2414  WAT  EPW10042   0.480   4.208   1.150
 2415  WAT    O10043   0.178   4.741   1.582
 2415  WAT   H110044   0.259   4.692   1.568
 2415  WAT   H210045   0.151   4.769   1.495
 2415  WAT  EPW10046   0.184   4.738   1.569
 2416  WAT    O10047   1.458   3.809   1.267
 2416  WAT   H110048   1.371   3.793   1.229
 2416  WAT   H210049   1.516   3.750   1.219
 2416  WAT  EPW10050   1.454   3.800   1.256
 2417  WAT    O10051   0.404   4.645   1.285
 2417  WAT   H110052   0.492   4.608   1.280
 2417  WAT   H210053   0.350   4.587   1.232
 2417  WAT  EPW10054   0.408   4.633   1.278
 2418  WAT    O10055   1.241   3.926   0.496
 2418  WAT   H110056   1.310   3.887   0.443
 2418  WAT   H210057   1.180   3.854   0.511
 2418  WAT  EPW10058   1.242   3.912   0.491
 2419  WAT    O10059   1.048   4.471   1.250
 2419  WAT   H110060   0.992   4.431   1.183
 2419  WAT   H210061   0.991   4.532   1.296
 2419  WAT  EPW10062   1.034   4.474   1.247
 2420  WAT    O10063   1.440   4.397   1.570
 2420  WAT   H110064   1.357   4.431   1.535
 2420  WAT   H210065   1.425   4.391   1.664
 2420  WAT  EPW10066   1.427   4.401   1.577
 2421  WAT    O10067   0.831   4.070   0.203
 2421  WAT   H110068   0.749   4.098   0.243
 2421  WAT   H210069   0.899   4.108   0.259
 2421  WAT  EPW10070   0.829   4.078   0.216
 2422  WAT    O10071   1.033   4.580   0.558
 2422  WAT   H110072   1.087   4.630   0.619
 2422  WAT   H210073   0.963   4.640   0.533
 2422  WAT  EPW10074   1.031   4.594   0.563
 2423  WAT    O10075   1.303   4.304   0.178
 2423  WAT   H110076   1.299   4.366   0.251
 2423  WAT   H210077   1.267   4.223   0.213
 2423  WAT  EPW10078   1.298   4.302   0.191
 2424  WAT    O10079   0.340   4.288   1.532
 2424  WAT   H110080   0.329   4.260   1.442
 2424  WAT   H210081   0.251   4.298   1.566
 2424  WAT  EPW10082   0.327   4.286   1.525
 2425  WAT    O10083   0.245   4.121   1.017
 2425  WAT   H110084   0.186   4.047   1.002
 2425  WAT   H210085   0.306   4.118   0.943
 2425  WAT  EPW10086   0.245   4.111   1.006
 2426  WAT    O10087   0.383   4.740   0.820
 2426  WAT   H110088   0.379   4.644   0.816
 2426  WAT   H210089   0.338   4.763   0.901
 2426  WAT  EPW10090   0.377   4.731   0.830
 2427  WAT    O10091   1.180   4.405   1.488
 2427  WAT   H110092   1.111   4.341   1.505
 2427  WAT   H210093   1.159   4.441   1.402
 2427  WAT  EPW10094   1.168   4.402   1.479
 2428  WAT    O10095   0.922   3.835   0.353
 2428  WAT   H110096   0.893   3.907   0.297
 2428  WAT   H210097   0.895   3.862   0.441
 2428  WAT  EPW10098   0.915   3.848   0.357
 2429  WAT    O10099   1.317   4.891   0.523
 2429  WAT   H110100   1.226   4.892   0.495
 2429  WAT   H210101   1.330   4.804   0.562
 2429  WAT  EPW10102   1.307   4.880   0.524
 2430  WAT    O10103   0.280   4.522   0.231
 2430  WAT   H110104   0.362   4.571   0.228
 2430  WAT   H210105   0.285   4.473   0.313
 2430  WAT  EPW10106   0.291   4.522   0.241
 2431  WAT    O10107   0.494   4.890   1.189
 2431  WAT   H110108   0.415   4.931   1.152
 2431  WAT   H210109   0.465   4.803   1.216
 2431  WAT  EPW10110   0.480   4.884   1.187
 2432  WAT    O10111   1.399   3.281   0.788
 2432  WAT   H110112   1.413   3.321   0.873
 2432  WAT   H210113   1.304   3.288   0.774
 2432  WAT  EPW10114   1.388   3.287   0.797
 2433  WAT    O10115   0.396   4.486   1.036
 2433  WAT   H110116   0.429   4.406   1.077
 2433  WAT   H210117   0.309   4.463   1.004
 2433  WAT  EPW10118   0.389   4.473   1.037
 2434  WAT    O10119   1.007   4.294   0.559
 2434  WAT   H110120   1.057   4.274   0.480
 2434  WAT   H210121   1.026   4.387   0.576
 2434  WAT  EPW10122   1.016   4.303   0.551
 2435  WAT    O10123   0.739   4.354   0.622
 2435  WAT   H110124   0.699   4.430   0.580
 2435  WAT   H210125   0.826   4.347   0.581
 2435  WAT  EPW10126   0.745   4.363   0.611
 2436  WAT    O10127   1.193   4.478   0.370
 2436  WAT   H110128   1.261   4.519   0.424
 2436  WAT   H210129   1.112   4.522   0.394
 2436  WAT  EPW10130   1.191   4.489   0.380
 2437  WAT    O10131   1.039   3.928   0.974
 2437  WAT   H110132   0.993   3.972   0.902
 2437  WAT   H210133   0.985   3.945   1.051
 2437  WAT  EPW10134   1.026   3.936   0.975
 2438  WAT    O10135   1.555   4.421   0.868
 2438  WAT   H110136   1.516   4.373   0.942
 2438  WAT   H210137   1.502   4.500   0.860
 2438  WAT  EPW10138   1.544   4.425   0.877
 2439  WAT    O10139   0.893   4.075   0.755
 2439  WAT   H110140   0.955   4.120   0.698
 2439  WAT   H210141   0.879   3.991   0.713
 2439  WAT  EPW10142   0.899   4.070   0.742
 2440  WAT    O10143   0.746   4.863   1.105
 2440  WAT   H110144   0.786   4.945   1.135
 2440  WAT   H210145   0.655   4.869   1.133
 2440  WAT  EPW10146   0.740   4.874   1.112
 2441  WAT    O10147   1.107   3.668   0.482
 2441  WAT   H110148   1.041   3.709   0.426
 2441  WAT   H210149   1.177   3.642   0.422
 2441  WAT  EPW10150   1.108   3.670   0.467
 2442  WAT    O10151   1.269   4.192   1.020
 2442  WAT   H110152   1.242   4.126   1.085
 2442  WAT   H210153   1.291   4.140   0.942
 2442  WAT  EPW10154   1.268   4.177   1.018
 2443  WAT    O10155   0.343   4.371   0.442
 2443  WAT   H110156   0.362   4.296   0.386
 2443  WAT   H210157   0.429   4.410   0.459
 2443  WAT  EPW10158   0.357   4.366   0.437
 2444  WAT    O10159   0.509   3.857   1.366
 2444  WAT   H110160   0.601   3.864   1.391
 2444  WAT   H210161   0.464   3.919   1.424
 2444  WAT  EPW10162   0.515   3.866   1.377
 2445  WAT    O10163   0.208   3.558   0.658
 2445  WAT   H110164   0.225   3.650   0.678
 2445  WAT   H210165   0.265   3.509   0.718
 2445  WAT  EPW10166   0.217   3.563   0.668
 2446  WAT    O10167   0.293   4.471   0.698
 2446  WAT   H110168   0.319   4.429   0.615
 2446  WAT   H210169   0.302   4.401   0.763
 2446  WAT  EPW10170   0.298   4.456   0.695
 2447  WAT    O10171   1.025   4.916   0.743
 2447  WAT   H110172   1.034   4.941   0.651
 2447  WAT   H210173   0.939   4.951   0.769
 2447  WAT  EPW10174   1.015   4.924   0.735
 2448  WAT    O10175   1.511   4.300   1.160
 2448  WAT   H110176   1.421   4.267   1.151
 2448  WAT   H210177   1.501   4.389   1.192
 2448  WAT  EPW10178   1.498   4.307   1.163
 2449  WAT    O10179   0.694   4.206   0.875
 2449  WAT   H110180   0.649   4.131   0.913
 2449  WAT   H210181   0.766   4.168   0.825
 2449  WAT  EPW10182   0.697   4.192   0.874
 2450  WAT    O10183   0.847   4.619   1.046
 2450  WAT   H110184   0.820   4.701   1.086
 2450  WAT   H210185   0.942   4.617   1.057
 2450  WAT  EPW10186   0.856   4.629   1.053
 2451  WAT    O10187   0.396   3.880   0.273
 2451  WAT   H110188   0.381   3.974   0.266
 2451  WAT   H210189   0.317   3.847   0.316
 2451  WAT  EPW10190   0.384   3.888   0.278
 2452  WAT    O10191   0.761   3.914   1.515
 2452  WAT   H110192   0.714   3.974   1.574
 2452  WAT   H210193   0.821   3.971   1.466
 2452  WAT  EPW10194   0.763   3.929   1.516
 2453  WAT    O10195   0.892   4.448   0.855
 2453  WAT   H110196   0.865   4.512   0.921
 2453  WAT   H210197   0.812   4.430   0.805
 2453  WAT  EPW10198   0.879   4.454   0.857
 2454  WAT    O10199   0.890   4.281   1.111
 2454  WAT   H110200   0.874   4.312   1.022
 2454  WAT   H210201   0.804   4.255   1.143
 2454  WAT  EPW10202   0.877   4.282   1.104
 2455  WAT    O10203   0.912   3.703   1.525
 2455  WAT   H110204   0.912   3.674   1.434
 2455  WAT   H210205   0.845   3.771   1.529
 2455  WAT  EPW10206   0.903   3.708   1.514
 2456  WAT    O10207   0.883   4.647   1.365
 2456  WAT   H110208   0.801   4.632   1.318
 2456  WAT   H210209   0.888   4.743   1.374
 2456  WAT  EPW10210   0.873   4.658   1.360
 2457  WAT    O10211   1.318   4.117   1.488
 2457  WAT   H110212   1.389   4.054   1.497
 2457  WAT   H210213   1.362   4.201   1.473
 2457  WAT  EPW10214   1.333   4.120   1.487
 2458  WAT    O10215   0.231   4.711   0.551
 2458  WAT   H110216   0.222   4.789   0.605
 2458  WAT   H210217   0.238   4.639   0.613
 2458  WAT  EPW10218   0.230   4.712   0.566
 2459  WAT    O10219   0.241   4.225   1.269
 2459  WAT   H110220   0.232   4.213   1.174
 2459  WAT   H210221   0.168   4.283   1.293
 2459  WAT  EPW10222   0.230   4.231   1.260
 2460  WAT    O10223   0.349   3.577   0.414
 2460  WAT   H110224   0.309   3.544   0.494
 2460  WAT   H210225   0.360   3.499   0.359
 2460  WAT  EPW10226   0.345   3.563   0.417
 2461  WAT    O10227   0.618   3.871   0.441
 2461  WAT   H110228   0.533   3.857   0.400
 2461  WAT   H210229   0.623   3.966   0.455
 2461  WAT  EPW10230   0.608   3.881   0.438
 2462  WAT    O10231   0.690   3.688   0.250
 2462  WAT   H110232   0.667   3.767   0.300
 2462  WAT   H210233   0.780   3.704   0.221
 2462  WAT  EPW10234   0.698   3.700   0.253
 2463  WAT    O10235   1.232   3.660   0.737
 2463  WAT   H110236   1.319   3.621   0.743
 2463  WAT   H210237   1.222   3.683   0.645
 2463  WAT  EPW10238   1.242   3.658   0.726
 2464  WAT    O10239   0.923   3.687   1.251
 2464  WAT   H110240   0.897   3.609   1.201
 2464  WAT   H210241   1.019   3.688   1.246
 2464  WAT  EPW10242   0.932   3.677   1.244
 2465  WAT    O10243   1.235   4.047   0.262
 2465  WAT   H110244   1.213   4.022   0.352
 2465  WAT   H210245   1.316   4.000   0.244
 2465  WAT  EPW10246   1.242   4.038   0.271
 2466  WAT    O10247   0.615   3.902   0.779
 2466  WAT   H110248   0.530   3.859   0.770
 2466  WAT   H210249   0.625   3.917   0.873
 2466  WAT  EPW10250   0.605   3.898   0.790
 2467  WAT    O10251   0.478   3.604   1.494
 2467  WAT   H110252   0.423   3.635   1.566
 2467  WAT   H210253   0.484   3.679   1.434
 2467  WAT  EPW10254   0.472   3.617   1.495
 2468  WAT    O10255   0.357   4.855   0.362
 2468  WAT   H110256   0.294   4.810   0.418
 2468  WAT   H210257   0.309   4.929   0.325
 2468  WAT  EPW10258   0.343   4.859   0.365
 2469  WAT    O10259   1.210   4.783   1.448
 2469  WAT   H110260   1.146   4.729   1.495
 2469  WAT   H210261   1.206   4.750   1.358
 2469  WAT  EPW10262   1.201   4.772   1.442
 2470  WAT    O10263   1.476   4.566   1.229
 2470  WAT   H110264   1.387   4.588   1.257
 2470  WAT   H210265   1.504   4.642   1.177
 2470  WAT  EPW10266   1.468   4.579   1.226
 2471  WAT    O10267   1.383   4.768   0.273
 2471  WAT   H110268   1.385   4.780   0.368
 2471  WAT   H210269   1.400   4.856   0.237
 2471  WAT  EPW10270   1.386   4.781   0.280
 2472  WAT    O10271   0.229   3.843   0.866
 2472  WAT   H110272   0.274   3.785   0.927
 2472  WAT   H210273   0.285   3.845   0.789
 2472  WAT  EPW10274   0.242   3.836   0.864
 2473  WAT    O10275   1.219   4.670   1.208
 2473  WAT   H110276   1.158   4.597   1.213
 2473  WAT   H210277   1.176   4.733   1.149
 2473  WAT  EPW10278   1.206   4.669   1.201
 2474  WAT    O10279   0.432   4.039   1.563
 2474  WAT   H110280   0.356   3.999   1.605
 2474  WAT   H210281   0.407   4.130   1.548
 2474  WAT  EPW10282   0.419   4.046   1.567
 2475  WAT    O10283   1.015   4.248   0.304
 2475  WAT   H110284   1.077   4.293   0.246
 2475  WAT   H210285   0.934   4.299   0.296
 2475  WAT  EPW10286   1.013   4.260   0.296
 2476  WAT    O10287   1.105   4.856   1.010
 2476  WAT   H110288   1.087   4.848   0.916
 2476  WAT   H210289   1.183   4.911   1.015
 2476  WAT  EPW10290   1.112   4.862   0.998
 2477  WAT    O10291   0.586   4.494   0.442
 2477  WAT   H110292   0.638   4.434   0.388
 2477  WAT   H210293   0.559   4.563   0.381
 2477  WAT  EPW10294   0.589   4.496   0.427
 2478  WAT    O10295   1.191   3.817   1.197
 2478  WAT   H110296   1.162   3.900   1.237
 2478  WAT   H210297   1.168   3.826   1.105
 2478  WAT  EPW10298   1.184   3.829   1.191
 2479  WAT    O10299   1.592   3.951   0.446
 2479  WAT   H110300   1.650   3.999   0.387
 2479  WAT   H210301   1.535   4.018   0.484
 2479  WAT  EPW10302   1.592   3.966   0.443
 2480  WAT    O10303   1.030   4.629   1.577
 2480  WAT   H110304   0.949   4.632   1.526
 2480  WAT   H210305   1.066   4.542   1.557
 2480  WAT  EPW10306   1.024   4.618   1.568
 2481  WAT    O10307   0.364   3.833   0.633
 2481  WAT   H110308   0.346   3.892   0.559
 2481  WAT   H210309   0.412   3.760   0.594
 2481  WAT  EPW10310   0.368   3.831   0.618
 2482  WAT    O10311   1.361   4.602   0.569
 2482  WAT   H110312   1.447   4.567   0.542
 2482  WAT   H210313   1.364   4.599   0.665
 2482  WAT  EPW10314   1.373   4.597   0.578
 2483  WAT    O10315   0.654   4.293   1.359
 2483  WAT   H110316   0.579   4.260   1.311
 2483  WAT   H210317   0.634   4.273   1.451
 2483  WAT  EPW10318   0.642   4.286   1.365
 2484  WAT    O10319   1.009   4.225   1.566
 2484  WAT   H110320   0.931   4.221   1.621
 2484  WAT   H210321   1.073   4.170   1.612
 2484  WAT  EPW10322   1.007   4.217   1.579
 2485  WAT    O10323   1.569   3.604   0.520
 2485  WAT   H110324   1.509   3.569   0.586
 2485  WAT   H210325   1.641   3.541   0.516
 2485  WAT  EPW10326   1.571   3.592   0.528
 2486  WAT    O10327   1.149   4.077   1.287
 2486  WAT   H110328   1.218   4.097   1.350
 2486  WAT   H210329   1.085   4.148   1.298
 2486  WAT  EPW10330   1.150   4.089   1.296
 2487  WAT    O10331   0.407   1.885   4.891
 2487  WAT   H110332   0.429   1.882   4.983
 2487  WAT   H210333   0.344   1.813   4.879
 2487  WAT  EPW10334   0.401   1.875   4.901
 2488  WAT    O10335   0.623   3.048   4.233
 2488  WAT   H110336   0.606   3.064   4.326
 2488  WAT   H210337   0.546   2.999   4.202
 2488  WAT  EPW10338   0.611   3.043   4.241
 2489  WAT    O10339   0.280   2.537   3.766
 2489  WAT   H110340   0.265   2.583   3.849
 2489  WAT   H210341   0.351   2.476   3.785
 2489  WAT  EPW10342   0.287   2.535   3.779
 2490  WAT    O10343   0.620   2.058   4.826
 2490  WAT   H110344   0.559   1.994   4.864
 2490  WAT   H210345   0.698   2.051   4.880
 2490  WAT  EPW10346   0.622   2.049   4.838
 2491  WAT    O10347   1.296   3.153   3.585
 2491  WAT   H110348   1.210   3.186   3.559
 2491  WAT   H210349   1.287   3.058   3.584
 2491  WAT  EPW10350   1.284   3.145   3.581
 2492  WAT    O10351   0.440   3.342   3.931
 2492  WAT   H110352   0.360   3.289   3.932
 2492  WAT   H210353   0.474   3.332   3.842
 2492  WAT  EPW10354   0.434   3.334   3.920
 2493  WAT    O10355   0.862   2.041   4.953
 2493  WAT   H110356   0.880   1.953   4.986
 2493  WAT   H210357   0.894   2.099   5.022
 2493  WAT  EPW10358   0.868   2.037   4.966
 2494  WAT    O10359   0.831   2.840   4.178
 2494  WAT   H110360   0.788   2.780   4.117
 2494  WAT   H210361   0.764   2.907   4.196
 2494  WAT  EPW10362   0.817   2.841   4.172
 2495  WAT    O10363   1.406   1.904   4.103
 2495  WAT   H110364   1.413   1.809   4.091
 2495  WAT   H210365   1.493   1.930   4.133
 2495  WAT  EPW10366   1.418   1.895   4.105
 2496  WAT    O10367   1.518   2.333   4.287
 2496  WAT   H110368   1.440   2.344   4.342
 2496  WAT   H210369   1.552   2.421   4.276
 2496  WAT  EPW10370   1.512   2.345   4.293
 2497  WAT    O10371   0.627   1.946   3.702
 2497  WAT   H110372   0.601   1.899   3.782
 2497  WAT   H210373   0.629   1.878   3.634
 2497  WAT  EPW10374   0.624   1.931   3.704
 2498  WAT    O10375   0.938   2.760   3.732
 2498  WAT   H110376   1.015   2.762   3.789
 2498  WAT   H210377   0.970   2.723   3.650
 2498  WAT  EPW10378   0.952   2.755   3.729
 2499  WAT    O10379   1.512   2.723   3.905
 2499  WAT   H110380   1.475   2.787   3.966
 2499  WAT   H210381   1.436   2.681   3.866
 2499  WAT  EPW10382   1.498   2.726   3.908
 2500  WAT    O10383   1.310   2.883   3.607
 2500  WAT   H110384   1.314   2.870   3.512
 2500  WAT   H210385   1.399   2.910   3.631
 2500  WAT  EPW10386   1.322   2.885   3.598
 2501  WAT    O10387   1.345   1.926   3.816
 2501  WAT   H110388   1.358   1.912   3.910
 2501  WAT   H210389   1.258   1.966   3.810
 2501  WAT  EPW10390   1.335   1.929   3.827
 2502  WAT    O10391   1.010   3.100   4.266
 2502  WAT   H110392   1.027   3.185   4.226
 2502  WAT   H210393   0.934   3.066   4.219
 2502  WAT  EPW10394   1.002   3.107   4.255
 2503  WAT    O10395   0.989   3.432   4.391
 2503  WAT   H110396   1.047   3.506   4.374
 2503  WAT   H210397   0.910   3.451   4.339
 2503  WAT  EPW10398   0.986   3.444   4.382
 2504  WAT    O10399   0.221   2.158   4.243
 2504  WAT   H110400   0.180   2.158   4.156
 2504  WAT   H210401   0.172   2.224   4.292
 2504  WAT  EPW10402   0.209   2.166   4.238
 2505  WAT    O10403   0.629   2.297   4.098
 2505  WAT   H110404   0.547   2.295   4.050
 2505  WAT   H210405   0.604   2.278   4.189
 2505  WAT  EPW10406   0.616   2.294   4.103
 2506  WAT    O10407   0.341   3.263   4.560
 2506  WAT   H110408   0.315   3.226   4.644
 2506  WAT   H210409   0.414   3.209   4.531
 2506  WAT  EPW10410   0.347   3.251   4.567
 2507  WAT    O10411   0.555   3.305   3.694
 2507  WAT   H110412   0.601   3.223   3.712
 2507  WAT   H210413   0.624   3.369   3.680
 2507  WAT  EPW10414   0.569   3.303   3.695
 2508  WAT    O10415   0.427   2.354   4.593
 2508  WAT   H110416   0.515   2.383   4.616
 2508  WAT   H210417   0.436   2.321   4.503
 2508  WAT  EPW10418   0.439   2.354   4.584
 2509  WAT    O10419   0.857   1.936   4.411
 2509  WAT   H110420   0.761   1.930   4.418
 2509  WAT   H210421   0.889   1.863   4.464
 2509  WAT  EPW10422   0.849   1.926   4.419
 2510  WAT    O10423   1.370   2.737   4.623
 2510  WAT   H110424   1.414   2.787   4.691
 2510  WAT   H210425   1.302   2.687   4.670
 2510  WAT  EPW10426   1.367   2.737   4.638
 2511  WAT    O10427   1.491   2.914   4.846
 2511  WAT   H110428   1.420   2.974   4.826
 2511  WAT   H210429   1.563   2.970   4.876
 2511  WAT  EPW10430   1.491   2.928   4.847
 2512  WAT    O10431   0.842   3.020   3.740
 2512  WAT   H110432   0.873   2.930   3.755
 2512  WAT   H210433   0.895   3.074   3.799
 2512  WAT  EPW10434   0.853   3.015   3.749
 2513  WAT    O10435   1.105   2.068   3.797
 2513  WAT   H110436   1.115   2.103   3.886
 2513  WAT   H210437   1.092   2.146   3.743
 2513  WAT  EPW10438   1.104   2.083   3.802
 2514  WAT    O10439   1.369   2.153   4.530
 2514  WAT   H110440   1.460   2.154   4.559
 2514  WAT   H210441   1.369   2.095   4.454
 2514  WAT  EPW10442   1.380   2.146   4.524
 2515  WAT    O10443   1.153   2.587   4.715
 2515  WAT   H110444   1.066   2.561   4.686
 2515  WAT   H210445   1.188   2.509   4.758
 2515  WAT  EPW10446   1.147   2.574   4.717
 2516  WAT    O10447   0.327   1.786   3.596
 2516  WAT   H110448   0.362   1.787   3.685
 2516  WAT   H210449   0.279   1.868   3.588
 2516  WAT  EPW10450   0.326   1.797   3.606
 2517  WAT    O10451   0.588   2.237   4.361
 2517  WAT   H110452   0.596   2.159   4.416
 2517  WAT   H210453   0.632   2.306   4.411
 2517  WAT  EPW10454   0.594   2.236   4.375
 2518  WAT    O10455   1.456   3.111   3.895
 2518  WAT   H110456   1.468   3.198   3.858
 2518  WAT   H210457   1.476   3.052   3.823
 2518  WAT  EPW10458   1.460   3.115   3.881
 2519  WAT    O10459   1.297   1.651   3.783
 2519  WAT   H110460   1.310   1.742   3.758
 2519  WAT   H210461   1.202   1.641   3.791
 2519  WAT  EPW10462   1.287   1.661   3.781
 2520  WAT    O10463   0.531   3.086   4.482
 2520  WAT   H110464   0.483   3.005   4.500
 2520  WAT   H210465   0.604   3.084   4.544
 2520  WAT  EPW10466   0.534   3.075   4.493
 2521  WAT    O10467   1.615   1.785   3.583
 2521  WAT   H110468   1.597   1.869   3.541
 2521  WAT   H210469   1.534   1.735   3.572
 2521  WAT  EPW10470   1.602   1.789   3.576
 2522  WAT    O10471   1.872   2.377   4.321
 2522  WAT   H110472   1.873   2.346   4.411
 2522  WAT   H210473   1.867   2.473   4.328
 2522  WAT  EPW10474   1.871   2.386   4.333
 2523  WAT    O10475   0.811   2.171   3.709
 2523  WAT   H110476   0.748   2.099   3.711
 2523  WAT   H210477   0.833   2.187   3.801
 2523  WAT  EPW10478   0.806   2.164   3.721
 2524  WAT    O10479   0.485   2.336   4.921
 2524  WAT   H110480   0.400   2.304   4.953
 2524  WAT   H210481   0.532   2.257   4.895
 2524  WAT  EPW10482   0.480   2.322   4.922
 2525  WAT    O10483   1.458   1.923   5.039
 2525  WAT   H110484   1.371   1.906   5.001
 2525  WAT   H210485   1.516   1.863   4.991
 2525  WAT  EPW10486   1.454   1.913   5.028
 2526  WAT    O10487   1.428   2.468   3.709
 2526  WAT   H110488   1.383   2.443   3.790
 2526  WAT   H210489   1.521   2.454   3.729
 2526  WAT  EPW10490   1.434   2.463   3.722
 2527  WAT    O10491   1.303   3.130   4.893
 2527  WAT   H110492   1.268   3.119   4.981
 2527  WAT   H210493   1.317   3.224   4.884
 2527  WAT  EPW10494   1.300   3.140   4.903
 2528  WAT    O10495   1.241   2.039   4.268
 2528  WAT   H110496   1.310   2.001   4.215
 2528  WAT   H210497   1.180   1.967   4.283
 2528  WAT  EPW10498   1.242   2.025   4.263
 2529  WAT    O10499   0.831   2.183   3.975
 2529  WAT   H110500   0.749   2.211   4.015
 2529  WAT   H210501   0.899   2.221   4.031
 2529  WAT  EPW10502   0.829   2.191   3.988
 2530  WAT    O10503   1.033   2.693   4.330
 2530  WAT   H110504   1.087   2.743   4.391
 2530  WAT   H210505   0.963   2.754   4.305
 2530  WAT  EPW10506   1.031   2.707   4.335
 2531  WAT    O10507   1.303   2.418   3.950
 2531  WAT   H110508   1.299   2.479   4.023
 2531  WAT   H210509   1.267   2.336   3.985
 2531  WAT  EPW10510   1.298   2.415   3.963
 2532  WAT    O10511   0.778   2.504   3.997
 2532  WAT   H110512   0.711   2.436   4.000
 2532  WAT   H210513   0.786   2.526   3.905
 2532  WAT  EPW10514   0.771   2.498   3.986
 2533  WAT    O10515   0.897   3.402   4.909
 2533  WAT   H110516   0.842   3.395   4.831
 2533  WAT   H210517   0.933   3.314   4.921
 2533  WAT  EPW10518   0.894   3.390   4.901
 2534  WAT    O10519   0.245   2.234   4.789
 2534  WAT   H110520   0.186   2.160   4.774
 2534  WAT   H210521   0.306   2.231   4.715
 2534  WAT  EPW10522   0.245   2.224   4.778
 2535  WAT    O10523   0.383   2.853   4.592
 2535  WAT   H110524   0.379   2.758   4.588
 2535  WAT   H210525   0.338   2.876   4.673
 2535  WAT  EPW10526   0.377   2.844   4.602
 2536  WAT    O10527   0.516   2.747   3.703
 2536  WAT   H110528   0.478   2.716   3.621
 2536  WAT   H210529   0.540   2.838   3.685
 2536  WAT  EPW10530   0.514   2.755   3.690
 2537  WAT    O10531   0.399   1.774   3.871
 2537  WAT   H110532   0.423   1.686   3.901
 2537  WAT   H210533   0.377   1.822   3.951
 2537  WAT  EPW10534   0.399   1.769   3.885
 2538  WAT    O10535   0.922   1.949   4.125
 2538  WAT   H110536   0.893   2.020   4.069
 2538  WAT   H210537   0.895   1.975   4.213
 2538  WAT  EPW10538   0.915   1.961   4.129
 2539  WAT    O10539   0.767   3.114   4.633
 2539  WAT   H110540   0.761   3.062   4.713
 2539  WAT   H210541   0.822   3.189   4.657
 2539  WAT  EPW10542   0.774   3.117   4.647
 2540  WAT    O10543   1.317   3.004   4.295
 2540  WAT   H110544   1.226   3.005   4.267
 2540  WAT   H210545   1.330   2.917   4.334
 2540  WAT  EPW10546   1.307   2.993   4.296
 2541  WAT    O10547   0.280   2.636   4.003
 2541  WAT   H110548   0.362   2.684   4.000
 2541  WAT   H210549   0.285   2.586   4.085
 2541  WAT  EPW10550   0.291   2.636   4.013
 2542  WAT    O10551   0.509   2.799   4.004
 2542  WAT   H110552   0.457   2.870   4.042
 2542  WAT   H210553   0.510   2.819   3.910
 2542  WAT  EPW10554   0.503   2.811   3.997
 2543  WAT    O10555   1.213   2.286   3.620
 2543  WAT   H110556   1.261   2.251   3.545
 2543  WAT   H210557   1.264   2.363   3.646
 2543  WAT  EPW10558   1.226   2.291   3.614
 2544  WAT    O10559   0.494   3.004   4.961
 2544  WAT   H110560   0.415   3.044   4.924
 2544  WAT   H210561   0.465   2.917   4.988
 2544  WAT  EPW10562   0.480   2.998   4.959
 2545  WAT    O10563   1.399   1.394   4.560
 2545  WAT   H110564   1.413   1.435   4.645
 2545  WAT   H210565   1.304   1.401   4.546
 2545  WAT  EPW10566   1.388   1.400   4.569
 2546  WAT    O10567   0.396   2.599   4.808
 2546  WAT   H110568   0.429   2.519   4.849
 2546  WAT   H210569   0.309   2.576   4.776
 2546  WAT  EPW10570   0.389   2.586   4.809
 2547  WAT    O10571   1.007   2.408   4.331
 2547  WAT   H110572   1.057   2.387   4.252
 2547  WAT   H210573   1.026   2.500   4.348
 2547  WAT  EPW10574   1.016   2.417   4.323
 2548  WAT    O10575   0.470   2.282   3.705
 2548  WAT   H110576   0.422   2.200   3.692
 2548  WAT   H210577   0.513   2.298   3.622
 2548  WAT  EPW10578   0.469   2.274   3.693
 2549  WAT    O10579   1.476   3.485   4.538
 2549  WAT   H110580   1.461   3.390   4.546
 2549  WAT   H210581   1.542   3.505   4.605
 2549  WAT  EPW10582   1.483   3.475   4.548
 2550  WAT    O10583   1.609   3.113   4.417
 2550  WAT   H110584   1.525   3.154   4.435
 2550  WAT   H210585   1.596   3.020   4.439
 2550  WAT  EPW10586   1.597   3.106   4.422
 2551  WAT    O10587   0.739   2.467   4.394
 2551  WAT   H110588   0.699   2.543   4.352
 2551  WAT   H210589   0.826   2.461   4.353
 2551  WAT  EPW10590   0.745   2.476   4.383
 2552  WAT    O10591   1.193   2.591   4.142
 2552  WAT   H110592   1.261   2.632   4.196
 2552  WAT   H210593   1.112   2.636   4.166
 2552  WAT  EPW10594   1.191   2.602   4.152
 2553  WAT    O10595   1.039   2.041   4.746
 2553  WAT   H110596   0.993   2.085   4.674
 2553  WAT   H210597   0.985   2.059   4.823
 2553  WAT  EPW10598   1.026   2.049   4.747
 2554  WAT    O10599   1.555   2.534   4.640
 2554  WAT   H110600   1.516   2.487   4.714
 2554  WAT   H210601   1.502   2.613   4.632
 2554  WAT  EPW10602   1.544   2.538   4.649
 2555  WAT    O10603   0.893   2.189   4.527
 2555  WAT   H110604   0.955   2.234   4.470
 2555  WAT   H210605   0.879   2.104   4.485
 2555  WAT  EPW10606   0.899   2.184   4.514
 2556  WAT    O10607   0.746   2.976   4.877
 2556  WAT   H110608   0.786   3.059   4.907
 2556  WAT   H210609   0.655   2.982   4.905
 2556  WAT  EPW10610   0.740   2.988   4.884
 2557  WAT    O10611   0.895   1.863   3.803
 2557  WAT   H110612   0.819   1.888   3.750
 2557  WAT   H210613   0.951   1.941   3.803
 2557  WAT  EPW10614   0.893   1.876   3.796
 2558  WAT    O10615   1.107   1.782   4.254
 2558  WAT   H110616   1.041   1.822   4.198
 2558  WAT   H210617   1.177   1.755   4.194
 2558  WAT  EPW10618   1.108   1.784   4.239
 2559  WAT    O10619   1.269   2.305   4.792
 2559  WAT   H110620   1.242   2.240   4.857
 2559  WAT   H210621   1.291   2.254   4.714
 2559  WAT  EPW10622   1.268   2.290   4.790
 2560  WAT    O10623   0.343   2.484   4.214
 2560  WAT   H110624   0.362   2.409   4.158
 2560  WAT   H210625   0.429   2.523   4.231
 2560  WAT  EPW10626   0.357   2.480   4.209
 2561  WAT    O10627   0.208   1.671   4.430
 2561  WAT   H110628   0.225   1.763   4.450
 2561  WAT   H210629   0.265   1.623   4.490
 2561  WAT  EPW10630   0.217   1.677   4.440
 2562  WAT    O10631   0.588   3.005   3.643
 2562  WAT   H110632   0.673   3.001   3.688
 2562  WAT   H210633   0.611   3.025   3.552
 2562  WAT  EPW10634   0.602   3.007   3.637
 2563  WAT    O10635   0.293   2.584   4.470
 2563  WAT   H110636   0.319   2.542   4.387
 2563  WAT   H210637   0.302   2.515   4.535
 2563  WAT  EPW10638   0.298   2.570   4.467
 2564  WAT    O10639   1.025   3.029   4.515
 2564  WAT   H110640   1.034   3.054   4.423
 2564  WAT   H210641   0.939   3.064   4.541
 2564  WAT  EPW10642   1.015   3.037   4.507
 2565  WAT    O10643   0.764   3.471   4.249
 2565  WAT   H110644   0.745   3.388   4.205
 2565  WAT   H210645   0.732   3.538   4.189
 2565  WAT  EPW10646   0.757   3.469   4.236
 2566  WAT    O10647   0.922   3.394   3.558
 2566  WAT   H110648   0.938   3.478   3.515
 2566  WAT   H210649   0.949   3.409   3.649
 2566  WAT  EPW10650   0.928   3.407   3.564
 2567  WAT    O10651   1.133   3.272   4.569
 2567  WAT   H110652   1.079   3.332   4.518
 2567  WAT   H210653   1.094   3.186   4.555
 2567  WAT  EPW10654   1.121   3.269   4.561
 2568  WAT    O10655   1.511   2.413   4.932
 2568  WAT   H110656   1.421   2.380   4.923
 2568  WAT   H210657   1.501   2.502   4.964
 2568  WAT  EPW10658   1.498   2.420   4.935
 2569  WAT    O10659   0.543   3.509   4.467
 2569  WAT   H110660   0.539   3.440   4.533
 2569  WAT   H210661   0.590   3.469   4.394
 2569  WAT  EPW10662   0.548   3.495   4.466
 2570  WAT    O10663   0.730   2.582   3.735
 2570  WAT   H110664   0.803   2.644   3.734
 2570  WAT   H210665   0.652   2.637   3.732
 2570  WAT  EPW10666   0.730   2.597   3.735
 2571  WAT    O10667   0.694   2.320   4.647
 2571  WAT   H110668   0.649   2.244   4.685
 2571  WAT   H210669   0.766   2.282   4.597
 2571  WAT  EPW10670   0.697   2.305   4.646
 2572  WAT    O10671   0.847   2.732   4.818
 2572  WAT   H110672   0.820   2.814   4.858
 2572  WAT   H210673   0.942   2.731   4.829
 2572  WAT  EPW10674   0.856   2.742   4.825
 2573  WAT    O10675   0.396   1.993   4.045
 2573  WAT   H110676   0.381   2.088   4.038
 2573  WAT   H210677   0.317   1.960   4.088
 2573  WAT  EPW10678   0.384   2.001   4.050
 2574  WAT    O10679   0.783   3.454   4.643
 2574  WAT   H110680   0.862   3.508   4.638
 2574  WAT   H210681   0.723   3.494   4.580
 2574  WAT  EPW10682   0.785   3.466   4.634
 2575  WAT    O10683   0.322   2.042   3.705
 2575  WAT   H110684   0.230   2.021   3.721
 2575  WAT   H210685   0.369   2.003   3.778
 2575  WAT  EPW10686   0.316   2.035   3.716
 2576  WAT    O10687   1.082   3.317   4.128
 2576  WAT   H110688   1.045   3.375   4.195
 2576  WAT   H210689   1.171   3.350   4.115
 2576  WAT  EPW10690   1.088   3.329   4.135
 2577  WAT    O10691   0.892   2.561   4.627
 2577  WAT   H110692   0.865   2.625   4.693
 2577  WAT   H210693   0.812   2.543   4.577
 2577  WAT  EPW10694   0.879   2.567   4.629
 2578  WAT    O10695   0.890   2.394   4.883
 2578  WAT   H110696   0.874   2.425   4.794
 2578  WAT   H210697   0.804   2.368   4.915
 2578  WAT  EPW10698   0.877   2.395   4.876
 2579  WAT    O10699   1.465   3.358   4.817
 2579  WAT   H110700   1.494   3.348   4.908
 2579  WAT   H210701   1.387   3.413   4.822
 2579  WAT  EPW10702   1.459   3.364   4.829
 2580  WAT    O10703   0.231   2.824   4.323
 2580  WAT   H110704   0.222   2.902   4.377
 2580  WAT   H210705   0.238   2.752   4.385
 2580  WAT  EPW10706   0.230   2.825   4.338
 2581  WAT    O10707   0.349   1.690   4.186
 2581  WAT   H110708   0.309   1.657   4.266
 2581  WAT   H210709   0.360   1.613   4.131
 2581  WAT  EPW10710   0.345   1.676   4.189
 2582  WAT    O10711   1.458   3.236   4.160
 2582  WAT   H110712   1.465   3.173   4.232
 2582  WAT   H210713   1.464   3.183   4.081
 2582  WAT  EPW10714   1.459   3.221   4.159
 2583  WAT    O10715   0.403   2.295   3.975
 2583  WAT   H110716   0.441   2.288   3.887
 2583  WAT   H210717   0.313   2.265   3.965
 2583  WAT  EPW10718   0.397   2.290   3.962
 2584  WAT    O10719   0.373   3.010   3.818
 2584  WAT   H110720   0.300   2.961   3.781
 2584  WAT   H210721   0.439   3.012   3.749
 2584  WAT  EPW10722   0.372   3.004   3.805
 2585  WAT    O10723   0.618   1.984   4.213
 2585  WAT   H110724   0.533   1.970   4.172
 2585  WAT   H210725   0.623   2.079   4.227
 2585  WAT  EPW10726   0.608   1.995   4.210
 2586  WAT    O10727   0.722   2.351   3.537
 2586  WAT   H110728   0.720   2.416   3.607
 2586  WAT   H210729   0.758   2.273   3.578
 2586  WAT  EPW10730   0.727   2.350   3.551
 2587  WAT    O10731   0.259   3.081   4.815
 2587  WAT   H110732   0.202   3.150   4.850
 2587  WAT   H210733   0.214   3.000   4.836
 2587  WAT  EPW10734   0.246   3.080   4.822
 2588  WAT    O10735   0.919   3.239   3.924
 2588  WAT   H110736   0.850   3.232   3.991
 2588  WAT   H210737   0.998   3.257   3.974
 2588  WAT  EPW10738   0.920   3.241   3.939
 2589  WAT    O10739   0.690   1.802   4.022
 2589  WAT   H110740   0.667   1.880   4.072
 2589  WAT   H210741   0.780   1.817   3.993
 2589  WAT  EPW10742   0.698   1.814   4.025
 2590  WAT    O10743   1.232   1.774   4.509
 2590  WAT   H110744   1.319   1.734   4.515
 2590  WAT   H210745   1.222   1.797   4.417
 2590  WAT  EPW10746   1.242   1.772   4.498
 2591  WAT    O10747   0.923   1.800   5.023
 2591  WAT   H110748   0.897   1.723   4.973
 2591  WAT   H210749   1.019   1.801   5.018
 2591  WAT  EPW10750   0.932   1.790   5.016
 2592  WAT    O10751   1.235   2.160   4.034
 2592  WAT   H110752   1.213   2.135   4.124
 2592  WAT   H210753   1.316   2.114   4.016
 2592  WAT  EPW10754   1.242   2.151   4.043
 2593  WAT    O10755   1.019   3.136   3.549
 2593  WAT   H110756   0.979   3.223   3.554
 2593  WAT   H210757   0.972   3.084   3.614
 2593  WAT  EPW10758   1.008   3.141   3.558
 2594  WAT    O10759   0.615   2.015   4.551
 2594  WAT   H110760   0.530   1.972   4.542
 2594  WAT   H210761   0.625   2.030   4.645
 2594  WAT  EPW10762   0.605   2.012   4.562
 2595  WAT    O10763   0.357   2.969   4.134
 2595  WAT   H110764   0.294   2.923   4.190
 2595  WAT   H210765   0.309   3.042   4.097
 2595  WAT  EPW10766   0.343   2.972   4.137
 2596  WAT    O10767   0.945   3.136   4.955
 2596  WAT   H110768   0.925   3.105   5.043
 2596  WAT   H210769   0.997   3.065   4.916
 2596  WAT  EPW10770   0.949   3.123   4.961
 2597  WAT    O10771   1.504   2.163   3.818
 2597  WAT   H110772   1.422   2.114   3.813
 2597  WAT   H210773   1.479   2.249   3.851
 2597  WAT  EPW10774   1.490   2.167   3.821
 2598  WAT    O10775   1.476   2.680   5.001
 2598  WAT   H110776   1.387   2.701   5.029
 2598  WAT   H210777   1.504   2.755   4.949
 2598  WAT  EPW10778   1.468   2.692   4.998
 2599  WAT    O10779   1.383   2.882   4.045
 2599  WAT   H110780   1.385   2.893   4.140
 2599  WAT   H210781   1.400   2.969   4.009
 2599  WAT  EPW10782   1.386   2.894   4.052
 2600  WAT    O10783   1.321   3.476   4.075
 2600  WAT   H110784   1.294   3.472   3.983
 2600  WAT   H210785   1.383   3.404   4.085
 2600  WAT  EPW10786   1.325   3.466   4.065
 2601  WAT    O10787   1.038   3.475   3.826
 2601  WAT   H110788   0.986   3.407   3.869
 2601  WAT   H210789   0.990   3.556   3.844
 2601  WAT  EPW10790   1.025   3.477   3.834
 2602  WAT    O10791   0.229   1.956   4.638
 2602  WAT   H110792   0.274   1.899   4.699
 2602  WAT   H210793   0.285   1.958   4.561
 2602  WAT  EPW10794   0.242   1.949   4.636
 2603  WAT    O10795   1.012   3.630   4.656
 2603  WAT   H110796   1.089   3.614   4.603
 2603  WAT   H210797   1.009   3.725   4.667
 2603  WAT  EPW10798   1.021   3.640   4.651
 2604  WAT    O10799   0.669   3.271   4.079
 2604  WAT   H110800   0.645   3.190   4.124
 2604  WAT   H210801   0.588   3.299   4.036
 2604  WAT  EPW10802   0.655   3.264   4.079
 2605  WAT    O10803   1.219   2.783   4.980
 2605  WAT   H110804   1.158   2.710   4.985
 2605  WAT   H210805   1.176   2.846   4.921
 2605  WAT  EPW10806   1.206   2.782   4.973
 2606  WAT    O10807   1.015   2.361   4.076
 2606  WAT   H110808   1.077   2.406   4.018
 2606  WAT   H210809   0.934   2.412   4.068
 2606  WAT  EPW10810   1.013   2.374   4.068
 2607  WAT    O10811   0.244   3.175   3.999
 2607  WAT   H110812   0.174   3.215   3.948
 2607  WAT   H210813   0.288   3.115   3.939
 2607  WAT  EPW10814   0.241   3.172   3.985
 2608  WAT    O10815   1.105   2.969   4.782
 2608  WAT   H110816   1.087   2.962   4.688
 2608  WAT   H210817   1.183   3.024   4.787
 2608  WAT  EPW10818   1.112   2.975   4.770
 2609  WAT    O10819   0.586   2.608   4.214
 2609  WAT   H110820   0.638   2.548   4.160
 2609  WAT   H210821   0.559   2.677   4.153
 2609  WAT  EPW10822   0.589   2.609   4.199
 2610  WAT    O10823   1.191   1.931   4.969
 2610  WAT   H110824   1.162   2.013   5.009
 2610  WAT   H210825   1.168   1.939   4.877
 2610  WAT  EPW10826   1.184   1.942   4.963
 2611  WAT    O10827   1.556   3.394   3.842
 2611  WAT   H110828   1.615   3.376   3.769
 2611  WAT   H210829   1.497   3.462   3.810
 2611  WAT  EPW10830   1.556   3.400   3.829
 2612  WAT    O10831   1.592   2.064   4.218
 2612  WAT   H110832   1.650   2.113   4.159
 2612  WAT   H210833   1.535   2.131   4.256
 2612  WAT  EPW10834   1.592   2.079   4.215
 2613  WAT    O10835   0.364   1.946   4.405
 2613  WAT   H110836   0.346   2.005   4.331
 2613  WAT   H210837   0.412   1.873   4.366
 2613  WAT  EPW10838   0.368   1.944   4.390
 2614  WAT    O10839   1.361   2.715   4.341
 2614  WAT   H110840   1.447   2.681   4.314
 2614  WAT   H210841   1.364   2.712   4.437
 2614  WAT  EPW10842   1.373   2.710   4.350
 2615  WAT    O10843   1.569   1.717   4.292
 2615  WAT   H110844   1.509   1.682   4.358
 2615  WAT   H210845   1.641   1.654   4.288
 2615  WAT  EPW10846   1.571   1.705   4.300
 2616  WAT    O10847   1.176   2.782   3.862
 2616  WAT   H110848   1.216   2.816   3.943
 2616  WAT   H210849   1.225   2.824   3.792
 2616  WAT  EPW10850   1.187   2.792   3.864
 2617  WAT    O10851   1.195   3.418   4.806
 2617  WAT   H110852   1.148   3.501   4.805
 2617  WAT   H210853   1.142   3.359   4.752
 2617  WAT  EPW10854   1.182   3.421   4.799
 2618  WAT    O10855   0.407   1.885   3.005
 2618  WAT   H110856   0.429   1.882   3.097
 2618  WAT   H210857   0.344   1.813   2.993
 2618  WAT  EPW10858   0.401   1.875   3.015
 2619  WAT    O10859   0.623   3.048   2.347
 2619  WAT   H110860   0.606   3.064   2.440
 2619  WAT   H210861   0.546   2.999   2.316
 2619  WAT  EPW10862   0.611   3.043   2.355
 2620  WAT    O10863   0.280   2.537   1.880
 2620  WAT   H110864   0.265   2.583   1.963
 2620  WAT   H210865   0.351   2.476   1.899
 2620  WAT  EPW10866   0.287   2.535   1.893
 2621  WAT    O10867   0.620   2.058   2.940
 2621  WAT   H110868   0.559   1.994   2.978
 2621  WAT   H210869   0.698   2.051   2.994
 2621  WAT  EPW10870   0.622   2.049   2.952
 2622  WAT    O10871   0.673   1.702   3.568
 2622  WAT   H110872   0.763   1.679   3.542
 2622  WAT   H210873   0.621   1.690   3.489
 2622  WAT  EPW10874   0.678   1.698   3.555
 2623  WAT    O10875   0.440   3.342   2.045
 2623  WAT   H110876   0.360   3.289   2.046
 2623  WAT   H210877   0.474   3.332   1.956
 2623  WAT  EPW10878   0.434   3.334   2.034
 2624  WAT    O10879   0.862   2.041   3.067
 2624  WAT   H110880   0.880   1.953   3.100
 2624  WAT   H210881   0.894   2.099   3.136
 2624  WAT  EPW10882   0.868   2.037   3.080
 2625  WAT    O10883   0.831   2.840   2.292
 2625  WAT   H110884   0.788   2.780   2.231
 2625  WAT   H210885   0.764   2.907   2.310
 2625  WAT  EPW10886   0.817   2.841   2.286
 2626  WAT    O10887   1.406   1.904   2.217
 2626  WAT   H110888   1.413   1.809   2.205
 2626  WAT   H210889   1.493   1.930   2.247
 2626  WAT  EPW10890   1.418   1.895   2.219
 2627  WAT    O10891   1.518   2.333   2.401
 2627  WAT   H110892   1.440   2.344   2.456
 2627  WAT   H210893   1.552   2.421   2.390
 2627  WAT  EPW10894   1.512   2.345   2.407
 2628  WAT    O10895   0.627   1.946   1.816
 2628  WAT   H110896   0.601   1.899   1.896
 2628  WAT   H210897   0.629   1.878   1.748
 2628  WAT  EPW10898   0.624   1.931   1.818
 2629  WAT    O10899   0.651   2.664   3.144
 2629  WAT   H110900   0.638   2.578   3.183
 2629  WAT   H210901   0.695   2.647   3.061
 2629  WAT  EPW10902   0.655   2.651   3.139
 2630  WAT    O10903   0.938   2.760   1.846
 2630  WAT   H110904   1.015   2.762   1.903
 2630  WAT   H210905   0.970   2.723   1.764
 2630  WAT  EPW10906   0.952   2.755   1.843
 2631  WAT    O10907   1.345   1.926   1.930
 2631  WAT   H110908   1.358   1.912   2.024
 2631  WAT   H210909   1.258   1.966   1.924
 2631  WAT  EPW10910   1.335   1.929   1.941
 2632  WAT    O10911   1.010   3.100   2.380
 2632  WAT   H110912   1.027   3.185   2.340
 2632  WAT   H210913   0.934   3.066   2.333
 2632  WAT  EPW10914   1.002   3.107   2.369
 2633  WAT    O10915   0.989   3.432   2.505
 2633  WAT   H110916   1.047   3.506   2.488
 2633  WAT   H210917   0.910   3.451   2.453
 2633  WAT  EPW10918   0.986   3.444   2.496
 2634  WAT    O10919   0.221   2.158   2.357
 2634  WAT   H110920   0.180   2.158   2.270
 2634  WAT   H210921   0.172   2.224   2.406
 2634  WAT  EPW10922   0.209   2.166   2.352
 2635  WAT    O10923   0.867   2.246   3.259
 2635  WAT   H110924   0.926   2.278   3.328
 2635  WAT   H210925   0.795   2.309   3.259
 2635  WAT  EPW10926   0.866   2.258   3.268
 2636  WAT    O10927   0.629   2.297   2.212
 2636  WAT   H110928   0.547   2.295   2.164
 2636  WAT   H210929   0.604   2.278   2.303
 2636  WAT  EPW10930   0.616   2.294   2.217
 2637  WAT    O10931   0.341   3.263   2.674
 2637  WAT   H110932   0.315   3.226   2.758
 2637  WAT   H210933   0.414   3.209   2.645
 2637  WAT  EPW10934   0.347   3.251   2.681
 2638  WAT    O10935   0.555   3.305   1.808
 2638  WAT   H110936   0.601   3.223   1.826
 2638  WAT   H210937   0.624   3.369   1.794
 2638  WAT  EPW10938   0.569   3.303   1.809
 2639  WAT    O10939   0.427   2.354   2.707
 2639  WAT   H110940   0.515   2.383   2.730
 2639  WAT   H210941   0.436   2.321   2.617
 2639  WAT  EPW10942   0.439   2.354   2.698
 2640  WAT    O10943   0.386   3.303   3.453
 2640  WAT   H110944   0.443   3.295   3.530
 2640  WAT   H210945   0.382   3.398   3.437
 2640  WAT  EPW10946   0.393   3.314   3.461
 2641  WAT    O10947   0.857   1.936   2.525
 2641  WAT   H110948   0.761   1.930   2.532
 2641  WAT   H210949   0.889   1.863   2.578
 2641  WAT  EPW10950   0.849   1.926   2.533
 2642  WAT    O10951   1.370   2.737   2.737
 2642  WAT   H110952   1.414   2.787   2.805
 2642  WAT   H210953   1.302   2.687   2.784
 2642  WAT  EPW10954   1.367   2.737   2.752
 2643  WAT    O10955   0.422   2.689   3.444
 2643  WAT   H110956   0.406   2.594   3.440
 2643  WAT   H210957   0.413   2.718   3.353
 2643  WAT  EPW10958   0.418   2.680   3.431
 2644  WAT    O10959   0.842   3.020   1.854
 2644  WAT   H110960   0.873   2.930   1.869
 2644  WAT   H210961   0.895   3.074   1.913
 2644  WAT  EPW10962   0.853   3.015   1.863
 2645  WAT    O10963   1.105   2.068   1.911
 2645  WAT   H110964   1.115   2.103   2.000
 2645  WAT   H210965   1.092   2.146   1.857
 2645  WAT  EPW10966   1.104   2.083   1.916
 2646  WAT    O10967   1.369   2.153   2.644
 2646  WAT   H110968   1.460   2.154   2.673
 2646  WAT   H210969   1.369   2.095   2.568
 2646  WAT  EPW10970   1.380   2.146   2.638
 2647  WAT    O10971   1.153   2.587   2.829
 2647  WAT   H110972   1.066   2.561   2.800
 2647  WAT   H210973   1.188   2.509   2.872
 2647  WAT  EPW10974   1.147   2.574   2.831
 2648  WAT    O10975   0.327   1.786   1.710
 2648  WAT   H110976   0.362   1.787   1.799
 2648  WAT   H210977   0.279   1.868   1.702
 2648  WAT  EPW10978   0.326   1.797   1.720
 2649  WAT    O10979   0.588   2.237   2.475
 2649  WAT   H110980   0.596   2.159   2.530
 2649  WAT   H210981   0.632   2.306   2.525
 2649  WAT  EPW10982   0.594   2.236   2.489
 2650  WAT    O10983   1.454   1.999   3.409
 2650  WAT   H110984   1.364   1.966   3.409
 2650  WAT   H210985   1.486   1.981   3.321
 2650  WAT  EPW10986   1.447   1.992   3.398
 2651  WAT    O10987   1.297   1.651   1.897
 2651  WAT   H110988   1.310   1.742   1.872
 2651  WAT   H210989   1.202   1.641   1.905
 2651  WAT  EPW10990   1.287   1.661   1.895
 2652  WAT    O10991   0.900   3.039   3.322
 2652  WAT   H110992   0.959   3.023   3.397
 2652  WAT   H210993   0.841   3.108   3.353
 2652  WAT  EPW10994   0.900   3.046   3.336
 2653  WAT    O10995   0.531   3.086   2.596
 2653  WAT   H110996   0.483   3.005   2.614
 2653  WAT   H210997   0.604   3.084   2.658
 2653  WAT  EPW10998   0.534   3.075   2.607
 2654  WAT    O10999   1.872   2.377   2.435
 2654  WAT   H111000   1.873   2.346   2.525
 2654  WAT   H211001   1.867   2.473   2.442
 2654  WAT  EPW11002   1.871   2.386   2.447
 2655  WAT    O11003   0.811   2.171   1.823
 2655  WAT   H111004   0.748   2.099   1.825
 2655  WAT   H211005   0.833   2.187   1.915
 2655  WAT  EPW11006   0.806   2.164   1.835
 2656  WAT    O11007   0.485   2.336   3.035
 2656  WAT   H111008   0.400   2.304   3.067
 2656  WAT   H211009   0.532   2.257   3.009
 2656  WAT  EPW11010   0.480   2.322   3.036
 2657  WAT    O11011   0.178   2.854   3.468
 2657  WAT   H111012   0.259   2.806   3.454
 2657  WAT   H211013   0.151   2.882   3.381
 2657  WAT  EPW11014   0.184   2.852   3.455
 2658  WAT    O11015   1.458   1.923   3.153
 2658  WAT   H111016   1.371   1.906   3.115
 2658  WAT   H211017   1.516   1.863   3.105
 2658  WAT  EPW11018   1.454   1.913   3.142
 2659  WAT    O11019   0.404   2.758   3.171
 2659  WAT   H111020   0.492   2.721   3.166
 2659  WAT   H211021   0.350   2.700   3.118
 2659  WAT  EPW11022   0.408   2.746   3.164
 2660  WAT    O11023   1.303   3.130   3.007
 2660  WAT   H111024   1.268   3.119   3.095
 2660  WAT   H211025   1.317   3.224   2.998
 2660  WAT  EPW11026   1.300   3.140   3.017
 2661  WAT    O11027   1.241   2.039   2.382
 2661  WAT   H111028   1.310   2.001   2.329
 2661  WAT   H211029   1.180   1.967   2.397
 2661  WAT  EPW11030   1.242   2.025   2.377
 2662  WAT    O11031   1.048   2.584   3.136
 2662  WAT   H111032   0.992   2.545   3.069
 2662  WAT   H211033   0.991   2.645   3.182
 2662  WAT  EPW11034   1.034   2.587   3.133
 2663  WAT    O11035   1.440   2.510   3.456
 2663  WAT   H111036   1.357   2.544   3.421
 2663  WAT   H211037   1.425   2.505   3.550
 2663  WAT  EPW11038   1.427   2.514   3.463
 2664  WAT    O11039   0.831   2.183   2.089
 2664  WAT   H111040   0.749   2.211   2.129
 2664  WAT   H211041   0.899   2.221   2.145
 2664  WAT  EPW11042   0.829   2.191   2.102
 2665  WAT    O11043   1.033   2.693   2.444
 2665  WAT   H111044   1.087   2.743   2.505
 2665  WAT   H211045   0.963   2.754   2.419
 2665  WAT  EPW11046   1.031   2.707   2.449
 2666  WAT    O11047   0.778   2.504   2.111
 2666  WAT   H111048   0.711   2.436   2.114
 2666  WAT   H211049   0.786   2.526   2.019
 2666  WAT  EPW11050   0.771   2.498   2.100
 2667  WAT    O11051   0.897   3.402   3.023
 2667  WAT   H111052   0.842   3.395   2.945
 2667  WAT   H211053   0.933   3.314   3.035
 2667  WAT  EPW11054   0.894   3.390   3.015
 2668  WAT    O11055   0.340   2.401   3.418
 2668  WAT   H111056   0.329   2.373   3.328
 2668  WAT   H211057   0.251   2.412   3.452
 2668  WAT  EPW11058   0.327   2.399   3.411
 2669  WAT    O11059   0.245   2.234   2.903
 2669  WAT   H111060   0.186   2.160   2.888
 2669  WAT   H211061   0.306   2.231   2.829
 2669  WAT  EPW11062   0.245   2.224   2.892
 2670  WAT    O11063   0.383   2.853   2.706
 2670  WAT   H111064   0.379   2.758   2.702
 2670  WAT   H211065   0.338   2.876   2.787
 2670  WAT  EPW11066   0.377   2.844   2.716
 2671  WAT    O11067   1.180   2.519   3.374
 2671  WAT   H111068   1.111   2.455   3.391
 2671  WAT   H211069   1.159   2.554   3.288
 2671  WAT  EPW11070   1.168   2.515   3.365
 2672  WAT    O11071   0.516   2.747   1.817
 2672  WAT   H111072   0.478   2.716   1.735
 2672  WAT   H211073   0.540   2.838   1.799
 2672  WAT  EPW11074   0.514   2.755   1.804
 2673  WAT    O11075   0.399   1.774   1.985
 2673  WAT   H111076   0.423   1.686   2.015
 2673  WAT   H211077   0.377   1.822   2.065
 2673  WAT  EPW11078   0.399   1.769   1.999
 2674  WAT    O11079   0.922   1.949   2.239
 2674  WAT   H111080   0.893   2.020   2.183
 2674  WAT   H211081   0.895   1.975   2.327
 2674  WAT  EPW11082   0.915   1.961   2.243
 2675  WAT    O11083   0.767   3.114   2.747
 2675  WAT   H111084   0.761   3.062   2.827
 2675  WAT   H211085   0.822   3.189   2.771
 2675  WAT  EPW11086   0.774   3.117   2.761
 2676  WAT    O11087   0.280   2.636   2.117
 2676  WAT   H111088   0.362   2.684   2.114
 2676  WAT   H211089   0.285   2.586   2.199
 2676  WAT  EPW11090   0.291   2.636   2.127
 2677  WAT    O11091   0.509   2.799   2.118
 2677  WAT   H111092   0.457   2.870   2.156
 2677  WAT   H211093   0.510   2.819   2.024
 2677  WAT  EPW11094   0.503   2.811   2.111
 2678  WAT    O11095   1.213   2.286   1.734
 2678  WAT   H111096   1.261   2.251   1.659
 2678  WAT   H211097   1.264   2.363   1.760
 2678  WAT  EPW11098   1.226   2.291   1.728
 2679  WAT    O11099   0.494   3.004   3.075
 2679  WAT   H111100   0.415   3.044   3.038
 2679  WAT   H211101   0.465   2.917   3.102
 2679  WAT  EPW11102   0.480   2.998   3.073
 2680  WAT    O11103   1.399   1.394   2.674
 2680  WAT   H111104   1.413   1.435   2.759
 2680  WAT   H211105   1.304   1.401   2.660
 2680  WAT  EPW11106   1.388   1.400   2.683
 2681  WAT    O11107   0.396   2.599   2.922
 2681  WAT   H111108   0.429   2.519   2.963
 2681  WAT   H211109   0.309   2.576   2.890
 2681  WAT  EPW11110   0.389   2.586   2.923
 2682  WAT    O11111   1.007   2.408   2.445
 2682  WAT   H111112   1.057   2.387   2.366
 2682  WAT   H211113   1.026   2.500   2.462
 2682  WAT  EPW11114   1.016   2.417   2.437
 2683  WAT    O11115   0.470   2.282   1.819
 2683  WAT   H111116   0.422   2.200   1.806
 2683  WAT   H211117   0.513   2.298   1.736
 2683  WAT  EPW11118   0.469   2.274   1.807
 2684  WAT    O11119   0.739   2.467   2.508
 2684  WAT   H111120   0.699   2.543   2.466
 2684  WAT   H211121   0.826   2.461   2.467
 2684  WAT  EPW11122   0.745   2.476   2.497
 2685  WAT    O11123   1.193   2.591   2.256
 2685  WAT   H111124   1.261   2.632   2.310
 2685  WAT   H211125   1.112   2.636   2.280
 2685  WAT  EPW11126   1.191   2.602   2.266
 2686  WAT    O11127   1.039   2.041   2.860
 2686  WAT   H111128   0.993   2.085   2.788
 2686  WAT   H211129   0.985   2.059   2.937
 2686  WAT  EPW11130   1.026   2.049   2.861
 2687  WAT    O11131   1.555   2.534   2.754
 2687  WAT   H111132   1.516   2.487   2.828
 2687  WAT   H211133   1.502   2.613   2.746
 2687  WAT  EPW11134   1.544   2.538   2.763
 2688  WAT    O11135   0.893   2.189   2.641
 2688  WAT   H111136   0.955   2.234   2.584
 2688  WAT   H211137   0.879   2.104   2.599
 2688  WAT  EPW11138   0.899   2.184   2.628
 2689  WAT    O11139   0.746   2.976   2.991
 2689  WAT   H111140   0.786   3.059   3.021
 2689  WAT   H211141   0.655   2.982   3.019
 2689  WAT  EPW11142   0.740   2.988   2.998
 2690  WAT    O11143   0.895   1.863   1.917
 2690  WAT   H111144   0.819   1.888   1.864
 2690  WAT   H211145   0.951   1.941   1.917
 2690  WAT  EPW11146   0.893   1.876   1.910
 2691  WAT    O11147   1.107   1.782   2.368
 2691  WAT   H111148   1.041   1.822   2.312
 2691  WAT   H211149   1.177   1.755   2.308
 2691  WAT  EPW11150   1.108   1.784   2.353
 2692  WAT    O11151   1.269   2.305   2.906
 2692  WAT   H111152   1.242   2.240   2.971
 2692  WAT   H211153   1.291   2.254   2.828
 2692  WAT  EPW11154   1.268   2.290   2.904
 2693  WAT    O11155   0.343   2.484   2.328
 2693  WAT   H111156   0.362   2.409   2.272
 2693  WAT   H211157   0.429   2.523   2.345
 2693  WAT  EPW11158   0.357   2.480   2.323
 2694  WAT    O11159   0.509   1.970   3.252
 2694  WAT   H111160   0.601   1.978   3.277
 2694  WAT   H211161   0.464   2.032   3.310
 2694  WAT  EPW11162   0.515   1.979   3.263
 2695  WAT    O11163   0.208   1.671   2.544
 2695  WAT   H111164   0.225   1.763   2.564
 2695  WAT   H211165   0.265   1.623   2.604
 2695  WAT  EPW11166   0.217   1.677   2.554
 2696  WAT    O11167   0.588   3.005   1.757
 2696  WAT   H111168   0.673   3.001   1.802
 2696  WAT   H211169   0.611   3.025   1.666
 2696  WAT  EPW11170   0.602   3.007   1.751
 2697  WAT    O11171   0.293   2.584   2.584
 2697  WAT   H111172   0.319   2.542   2.501
 2697  WAT   H211173   0.302   2.515   2.649
 2697  WAT  EPW11174   0.298   2.570   2.581
 2698  WAT    O11175   1.025   3.029   2.629
 2698  WAT   H111176   1.034   3.054   2.537
 2698  WAT   H211177   0.939   3.064   2.655
 2698  WAT  EPW11178   1.015   3.037   2.621
 2699  WAT    O11179   0.764   3.471   2.363
 2699  WAT   H111180   0.745   3.388   2.319
 2699  WAT   H211181   0.732   3.538   2.303
 2699  WAT  EPW11182   0.757   3.469   2.350
 2700  WAT    O11183   1.374   1.658   3.526
 2700  WAT   H111184   1.320   1.606   3.586
 2700  WAT   H211185   1.328   1.741   3.517
 2700  WAT  EPW11186   1.361   1.662   3.532
 2701  WAT    O11187   0.922   3.394   1.672
 2701  WAT   H111188   0.938   3.478   1.629
 2701  WAT   H211189   0.949   3.409   1.763
 2701  WAT  EPW11190   0.928   3.407   1.678
 2702  WAT    O11191   1.133   3.272   2.683
 2702  WAT   H111192   1.079   3.332   2.632
 2702  WAT   H211193   1.094   3.186   2.669
 2702  WAT  EPW11194   1.121   3.269   2.675
 2703  WAT    O11195   1.511   2.413   3.046
 2703  WAT   H111196   1.421   2.380   3.037
 2703  WAT   H211197   1.501   2.502   3.078
 2703  WAT  EPW11198   1.498   2.420   3.049
 2704  WAT    O11199   0.543   3.509   2.581
 2704  WAT   H111200   0.539   3.440   2.647
 2704  WAT   H211201   0.590   3.469   2.508
 2704  WAT  EPW11202   0.548   3.495   2.580
 2705  WAT    O11203   0.730   2.582   1.849
 2705  WAT   H111204   0.803   2.644   1.848
 2705  WAT   H211205   0.652   2.637   1.846
 2705  WAT  EPW11206   0.730   2.597   1.849
 2706  WAT    O11207   0.694   2.320   2.761
 2706  WAT   H111208   0.649   2.244   2.799
 2706  WAT   H211209   0.766   2.282   2.711
 2706  WAT  EPW11210   0.697   2.305   2.760
 2707  WAT    O11211   0.847   2.732   2.932
 2707  WAT   H111212   0.820   2.814   2.972
 2707  WAT   H211213   0.942   2.731   2.943
 2707  WAT  EPW11214   0.856   2.742   2.939
 2708  WAT    O11215   0.396   1.993   2.159
 2708  WAT   H111216   0.381   2.088   2.152
 2708  WAT   H211217   0.317   1.960   2.202
 2708  WAT  EPW11218   0.384   2.001   2.164
 2709  WAT    O11219   0.783   3.454   2.757
 2709  WAT   H111220   0.862   3.508   2.752
 2709  WAT   H211221   0.723   3.494   2.694
 2709  WAT  EPW11222   0.785   3.466   2.748
 2710  WAT    O11223   0.761   2.028   3.401
 2710  WAT   H111224   0.714   2.088   3.460
 2710  WAT   H211225   0.821   2.084   3.352
 2710  WAT  EPW11226   0.763   2.043   3.402
 2711  WAT    O11227   0.322   2.042   1.819
 2711  WAT   H111228   0.230   2.021   1.835
 2711  WAT   H211229   0.369   2.003   1.892
 2711  WAT  EPW11230   0.316   2.035   1.830
 2712  WAT    O11231   1.082   3.317   2.242
 2712  WAT   H111232   1.045   3.375   2.309
 2712  WAT   H211233   1.171   3.350   2.229
 2712  WAT  EPW11234   1.088   3.329   2.249
 2713  WAT    O11235   0.892   2.561   2.741
 2713  WAT   H111236   0.865   2.625   2.807
 2713  WAT   H211237   0.812   2.543   2.691
 2713  WAT  EPW11238   0.879   2.567   2.743
 2714  WAT    O11239   0.890   2.394   2.997
 2714  WAT   H111240   0.874   2.425   2.908
 2714  WAT   H211241   0.804   2.368   3.029
 2714  WAT  EPW11242   0.877   2.395   2.990
 2715  WAT    O11243   0.912   1.817   3.411
 2715  WAT   H111244   0.912   1.788   3.320
 2715  WAT   H211245   0.845   1.885   3.415
 2715  WAT  EPW11246   0.903   1.822   3.400
 2716  WAT    O11247   0.883   2.761   3.251
 2716  WAT   H111248   0.801   2.745   3.204
 2716  WAT   H211249   0.888   2.856   3.260
 2716  WAT  EPW11250   0.873   2.771   3.246
 2717  WAT    O11251   1.318   2.230   3.374
 2717  WAT   H111252   1.389   2.167   3.383
 2717  WAT   H211253   1.362   2.314   3.359
 2717  WAT  EPW11254   1.333   2.233   3.373
 2718  WAT    O11255   0.231   2.824   2.437
 2718  WAT   H111256   0.222   2.902   2.491
 2718  WAT   H211257   0.238   2.752   2.499
 2718  WAT  EPW11258   0.230   2.825   2.452
 2719  WAT    O11259   0.241   2.338   3.155
 2719  WAT   H111260   0.232   2.326   3.060
 2719  WAT   H211261   0.168   2.396   3.179
 2719  WAT  EPW11262   0.230   2.344   3.146
 2720  WAT    O11263   0.349   1.690   2.300
 2720  WAT   H111264   0.309   1.657   2.380
 2720  WAT   H211265   0.360   1.613   2.245
 2720  WAT  EPW11266   0.345   1.676   2.303
 2721  WAT    O11267   0.403   2.295   2.089
 2721  WAT   H111268   0.441   2.288   2.001
 2721  WAT   H211269   0.313   2.265   2.079
 2721  WAT  EPW11270   0.397   2.290   2.076
 2722  WAT    O11271   0.373   3.010   1.932
 2722  WAT   H111272   0.300   2.961   1.895
 2722  WAT   H211273   0.439   3.012   1.863
 2722  WAT  EPW11274   0.372   3.004   1.919
 2723  WAT    O11275   0.618   1.984   2.327
 2723  WAT   H111276   0.533   1.970   2.286
 2723  WAT   H211277   0.623   2.079   2.341
 2723  WAT  EPW11278   0.608   1.995   2.324
 2724  WAT    O11279   0.722   2.351   1.651
 2724  WAT   H111280   0.720   2.416   1.721
 2724  WAT   H211281   0.758   2.273   1.692
 2724  WAT  EPW11282   0.727   2.350   1.665
 2725  WAT    O11283   1.221   1.876   3.393
 2725  WAT   H111284   1.227   1.842   3.304
 2725  WAT   H211285   1.127   1.881   3.411
 2725  WAT  EPW11286   1.209   1.873   3.384
 2726  WAT    O11287   0.259   3.081   2.929
 2726  WAT   H111288   0.202   3.150   2.964
 2726  WAT   H211289   0.214   3.000   2.950
 2726  WAT  EPW11290   0.246   3.080   2.936
 2727  WAT    O11291   0.690   1.802   2.136
 2727  WAT   H111292   0.667   1.880   2.186
 2727  WAT   H211293   0.780   1.817   2.107
 2727  WAT  EPW11294   0.698   1.814   2.139
 2728  WAT    O11295   1.232   1.774   2.623
 2728  WAT   H111296   1.319   1.734   2.629
 2728  WAT   H211297   1.222   1.797   2.531
 2728  WAT  EPW11298   1.242   1.772   2.612
 2729  WAT    O11299   0.923   1.800   3.137
 2729  WAT   H111300   0.897   1.723   3.087
 2729  WAT   H211301   1.019   1.801   3.132
 2729  WAT  EPW11302   0.932   1.790   3.130
 2730  WAT    O11303   1.235   2.160   2.148
 2730  WAT   H111304   1.213   2.135   2.238
 2730  WAT   H211305   1.316   2.114   2.130
 2730  WAT  EPW11306   1.242   2.151   2.157
 2731  WAT    O11307   1.019   3.136   1.663
 2731  WAT   H111308   0.979   3.223   1.668
 2731  WAT   H211309   0.972   3.084   1.728
 2731  WAT  EPW11310   1.008   3.141   1.672
 2732  WAT    O11311   0.615   2.015   2.665
 2732  WAT   H111312   0.530   1.972   2.656
 2732  WAT   H211313   0.625   2.030   2.759
 2732  WAT  EPW11314   0.605   2.012   2.676
 2733  WAT    O11315   0.478   1.717   3.380
 2733  WAT   H111316   0.423   1.748   3.452
 2733  WAT   H211317   0.484   1.792   3.320
 2733  WAT  EPW11318   0.472   1.731   3.381
 2734  WAT    O11319   0.357   2.969   2.248
 2734  WAT   H111320   0.294   2.923   2.304
 2734  WAT   H211321   0.309   3.042   2.211
 2734  WAT  EPW11322   0.343   2.972   2.251
 2735  WAT    O11323   0.945   3.136   3.069
 2735  WAT   H111324   0.925   3.105   3.157
 2735  WAT   H211325   0.997   3.065   3.030
 2735  WAT  EPW11326   0.949   3.123   3.075
 2736  WAT    O11327   1.210   2.896   3.334
 2736  WAT   H111328   1.146   2.843   3.381
 2736  WAT   H211329   1.206   2.864   3.244
 2736  WAT  EPW11330   1.201   2.885   3.328
 2737  WAT    O11331   0.586   3.133   3.347
 2737  WAT   H111332   0.548   3.096   3.268
 2737  WAT   H211333   0.522   3.196   3.379
 2737  WAT  EPW11334   0.573   3.136   3.341
 2738  WAT    O11335   0.229   1.956   2.752
 2738  WAT   H111336   0.274   1.899   2.813
 2738  WAT   H211337   0.285   1.958   2.675
 2738  WAT  EPW11338   0.242   1.949   2.750
 2739  WAT    O11339   1.012   3.630   2.770
 2739  WAT   H111340   1.089   3.614   2.717
 2739  WAT   H211341   1.009   3.725   2.781
 2739  WAT  EPW11342   1.021   3.640   2.765
 2740  WAT    O11343   0.669   3.271   2.193
 2740  WAT   H111344   0.645   3.190   2.238
 2740  WAT   H211345   0.588   3.299   2.150
 2740  WAT  EPW11346   0.655   3.264   2.193
 2741  WAT    O11347   1.188   3.213   3.324
 2741  WAT   H111348   1.215   3.122   3.340
 2741  WAT   H211349   1.093   3.212   3.334
 2741  WAT  EPW11350   1.179   3.201   3.327
 2742  WAT    O11351   1.219   2.783   3.094
 2742  WAT   H111352   1.158   2.710   3.099
 2742  WAT   H211353   1.176   2.846   3.035
 2742  WAT  EPW11354   1.206   2.782   3.087
 2743  WAT    O11355   0.432   2.152   3.449
 2743  WAT   H111356   0.356   2.113   3.491
 2743  WAT   H211357   0.407   2.243   3.434
 2743  WAT  EPW11358   0.419   2.159   3.453
 2744  WAT    O11359   1.015   2.361   2.190
 2744  WAT   H111360   1.077   2.406   2.132
 2744  WAT   H211361   0.934   2.412   2.182
 2744  WAT  EPW11362   1.013   2.374   2.182
 2745  WAT    O11363   0.244   3.175   2.113
 2745  WAT   H111364   0.174   3.215   2.062
 2745  WAT   H211365   0.288   3.115   2.053
 2745  WAT  EPW11366   0.241   3.172   2.099
 2746  WAT    O11367   1.105   2.969   2.896
 2746  WAT   H111368   1.087   2.962   2.802
 2746  WAT   H211369   1.183   3.024   2.901
 2746  WAT  EPW11370   1.112   2.975   2.884
 2747  WAT    O11371   0.586   2.608   2.328
 2747  WAT   H111372   0.638   2.548   2.274
 2747  WAT   H211373   0.559   2.677   2.267
 2747  WAT  EPW11374   0.589   2.609   2.313
 2748  WAT    O11375   1.289   3.464   3.257
 2748  WAT   H111376   1.330   3.482   3.341
 2748  WAT   H211377   1.262   3.373   3.261
 2748  WAT  EPW11378   1.291   3.455   3.268
 2749  WAT    O11379   1.191   1.931   3.083
 2749  WAT   H111380   1.162   2.013   3.123
 2749  WAT   H211381   1.168   1.939   2.991
 2749  WAT  EPW11382   1.184   1.942   3.077
 2750  WAT    O11383   1.592   2.064   2.332
 2750  WAT   H111384   1.650   2.113   2.273
 2750  WAT   H211385   1.535   2.131   2.370
 2750  WAT  EPW11386   1.592   2.079   2.329
 2751  WAT    O11387   1.030   2.742   3.463
 2751  WAT   H111388   0.949   2.746   3.412
 2751  WAT   H211389   1.066   2.656   3.443
 2751  WAT  EPW11390   1.024   2.731   3.454
 2752  WAT    O11391   0.364   1.946   2.519
 2752  WAT   H111392   0.346   2.005   2.445
 2752  WAT   H211393   0.412   1.873   2.480
 2752  WAT  EPW11394   0.368   1.944   2.504
 2753  WAT    O11395   1.361   2.715   2.455
 2753  WAT   H111396   1.447   2.681   2.428
 2753  WAT   H211397   1.364   2.712   2.551
 2753  WAT  EPW11398   1.373   2.710   2.464
 2754  WAT    O11399   0.654   2.406   3.245
 2754  WAT   H111400   0.579   2.373   3.197
 2754  WAT   H211401   0.634   2.386   3.337
 2754  WAT  EPW11402   0.642   2.399   3.251
 2755  WAT    O11403   1.009   2.338   3.452
 2755  WAT   H111404   0.931   2.334   3.507
 2755  WAT   H211405   1.073   2.283   3.498
 2755  WAT  EPW11406   1.007   2.331   3.465
 2756  WAT    O11407   1.569   1.717   2.406
 2756  WAT   H111408   1.509   1.682   2.472
 2756  WAT   H211409   1.641   1.654   2.402
 2756  WAT  EPW11410   1.571   1.705   2.414
 2757  WAT    O11411   1.176   2.782   1.976
 2757  WAT   H111412   1.216   2.816   2.057
 2757  WAT   H211413   1.225   2.824   1.906
 2757  WAT  EPW11414   1.187   2.792   1.978
 2758  WAT    O11415   1.149   2.191   3.173
 2758  WAT   H111416   1.218   2.210   3.236
 2758  WAT   H211417   1.085   2.261   3.184
 2758  WAT  EPW11418   1.150   2.202   3.182
 2759  WAT    O11419   1.195   3.418   2.920
 2759  WAT   H111420   1.148   3.501   2.919
 2759  WAT   H211421   1.142   3.359   2.866
 2759  WAT  EPW11422   1.182   3.421   2.913
 2760  WAT    O11423   0.407   1.885   1.119
 2760  WAT   H111424   0.429   1.882   1.211
 2760  WAT   H211425   0.344   1.813   1.107
 2760  WAT  EPW11426   0.401   1.875   1.129
 2761  WAT    O11427   0.623   3.048   0.461
 2761  WAT   H111428   0.606   3.064   0.554
 2761  WAT   H211429   0.546   2.999   0.430
 2761  WAT  EPW11430   0.611   3.043   0.469
 2762  WAT    O11431   0.620   2.058   1.054
 2762  WAT   H111432   0.559   1.994   1.092
 2762  WAT   H211433   0.698   2.051   1.108
 2762  WAT  EPW11434   0.622   2.049   1.066
 2763  WAT    O11435   0.673   1.702   1.682
 2763  WAT   H111436   0.763   1.679   1.656
 2763  WAT   H211437   0.621   1.690   1.603
 2763  WAT  EPW11438   0.678   1.698   1.669
 2764  WAT    O11439   0.862   2.041   1.181
 2764  WAT   H111440   0.880   1.953   1.214
 2764  WAT   H211441   0.894   2.099   1.250
 2764  WAT  EPW11442   0.868   2.037   1.194
 2765  WAT    O11443   0.831   2.840   0.406
 2765  WAT   H111444   0.788   2.780   0.345
 2765  WAT   H211445   0.764   2.907   0.424
 2765  WAT  EPW11446   0.817   2.841   0.400
 2766  WAT    O11447   1.406   1.904   0.331
 2766  WAT   H111448   1.413   1.809   0.319
 2766  WAT   H211449   1.493   1.930   0.361
 2766  WAT  EPW11450   1.418   1.895   0.333
 2767  WAT    O11451   1.518   2.333   0.515
 2767  WAT   H111452   1.440   2.344   0.570
 2767  WAT   H211453   1.552   2.421   0.504
 2767  WAT  EPW11454   1.512   2.345   0.521
 2768  WAT    O11455   0.651   2.664   1.258
 2768  WAT   H111456   0.638   2.578   1.297
 2768  WAT   H211457   0.695   2.647   1.175
 2768  WAT  EPW11458   0.655   2.651   1.253
 2769  WAT    O11459   1.010   3.100   0.494
 2769  WAT   H111460   1.027   3.185   0.454
 2769  WAT   H211461   0.934   3.066   0.447
 2769  WAT  EPW11462   1.002   3.107   0.483
 2770  WAT    O11463   0.989   3.432   0.619
 2770  WAT   H111464   1.047   3.506   0.602
 2770  WAT   H211465   0.910   3.451   0.567
 2770  WAT  EPW11466   0.986   3.444   0.610
 2771  WAT    O11467   0.221   2.158   0.471
 2771  WAT   H111468   0.180   2.158   0.384
 2771  WAT   H211469   0.172   2.224   0.520
 2771  WAT  EPW11470   0.209   2.166   0.466
 2772  WAT    O11471   0.867   2.246   1.373
 2772  WAT   H111472   0.926   2.278   1.442
 2772  WAT   H211473   0.795   2.309   1.373
 2772  WAT  EPW11474   0.866   2.258   1.382
 2773  WAT    O11475   0.629   2.297   0.326
 2773  WAT   H111476   0.547   2.295   0.278
 2773  WAT   H211477   0.604   2.278   0.417
 2773  WAT  EPW11478   0.616   2.294   0.331
 2774  WAT    O11479   0.341   3.263   0.788
 2774  WAT   H111480   0.315   3.226   0.872
 2774  WAT   H211481   0.414   3.209   0.759
 2774  WAT  EPW11482   0.347   3.251   0.795
 2775  WAT    O11483   0.427   2.354   0.821
 2775  WAT   H111484   0.515   2.383   0.844
 2775  WAT   H211485   0.436   2.321   0.731
 2775  WAT  EPW11486   0.439   2.354   0.812
 2776  WAT    O11487   0.386   3.303   1.567
 2776  WAT   H111488   0.443   3.295   1.644
 2776  WAT   H211489   0.382   3.398   1.551
 2776  WAT  EPW11490   0.393   3.314   1.575
 2777  WAT    O11491   0.857   1.936   0.639
 2777  WAT   H111492   0.761   1.930   0.646
 2777  WAT   H211493   0.889   1.863   0.692
 2777  WAT  EPW11494   0.849   1.926   0.647
 2778  WAT    O11495   1.491   2.914   1.074
 2778  WAT   H111496   1.420   2.974   1.054
 2778  WAT   H211497   1.563   2.970   1.104
 2778  WAT  EPW11498   1.491   2.928   1.075
 2779  WAT    O11499   0.422   2.689   1.558
 2779  WAT   H111500   0.406   2.594   1.554
 2779  WAT   H211501   0.413   2.718   1.467
 2779  WAT  EPW11502   0.418   2.680   1.545
 2780  WAT    O11503   1.369   2.153   0.758
 2780  WAT   H111504   1.460   2.154   0.787
 2780  WAT   H211505   1.369   2.095   0.682
 2780  WAT  EPW11506   1.380   2.146   0.752
 2781  WAT    O11507   1.153   2.587   0.943
 2781  WAT   H111508   1.066   2.561   0.914
 2781  WAT   H211509   1.188   2.509   0.986
 2781  WAT  EPW11510   1.147   2.574   0.945
 2782  WAT    O11511   0.588   2.237   0.589
 2782  WAT   H111512   0.596   2.159   0.644
 2782  WAT   H211513   0.632   2.306   0.639
 2782  WAT  EPW11514   0.594   2.236   0.603
 2783  WAT    O11515   0.900   3.039   1.436
 2783  WAT   H111516   0.959   3.023   1.511
 2783  WAT   H211517   0.841   3.108   1.467
 2783  WAT  EPW11518   0.900   3.046   1.450
 2784  WAT    O11519   0.531   3.086   0.710
 2784  WAT   H111520   0.483   3.005   0.728
 2784  WAT   H211521   0.604   3.084   0.772
 2784  WAT  EPW11522   0.534   3.075   0.721
 2785  WAT    O11523   1.872   2.377   0.549
 2785  WAT   H111524   1.873   2.346   0.639
 2785  WAT   H211525   1.867   2.473   0.556
 2785  WAT  EPW11526   1.871   2.386   0.561
 2786  WAT    O11527   0.485   2.336   1.149
 2786  WAT   H111528   0.400   2.304   1.181
 2786  WAT   H211529   0.532   2.257   1.123
 2786  WAT  EPW11530   0.480   2.322   1.150
 2787  WAT    O11531   0.178   2.854   1.582
 2787  WAT   H111532   0.259   2.806   1.568
 2787  WAT   H211533   0.151   2.882   1.495
 2787  WAT  EPW11534   0.184   2.852   1.569
 2788  WAT    O11535   1.458   1.923   1.267
 2788  WAT   H111536   1.371   1.906   1.229
 2788  WAT   H211537   1.516   1.863   1.219
 2788  WAT  EPW11538   1.454   1.913   1.256
 2789  WAT    O11539   0.404   2.758   1.285
 2789  WAT   H111540   0.492   2.721   1.280
 2789  WAT   H211541   0.350   2.700   1.232
 2789  WAT  EPW11542   0.408   2.746   1.278
 2790  WAT    O11543   1.303   3.130   1.121
 2790  WAT   H111544   1.268   3.119   1.209
 2790  WAT   H211545   1.317   3.224   1.112
 2790  WAT  EPW11546   1.300   3.140   1.131
 2791  WAT    O11547   1.241   2.039   0.496
 2791  WAT   H111548   1.310   2.001   0.443
 2791  WAT   H211549   1.180   1.967   0.511
 2791  WAT  EPW11550   1.242   2.025   0.491
 2792  WAT    O11551   1.048   2.584   1.250
 2792  WAT   H111552   0.992   2.545   1.183
 2792  WAT   H211553   0.991   2.645   1.296
 2792  WAT  EPW11554   1.034   2.587   1.247
 2793  WAT    O11555   0.831   2.183   0.203
 2793  WAT   H111556   0.749   2.211   0.243
 2793  WAT   H211557   0.899   2.221   0.259
 2793  WAT  EPW11558   0.829   2.191   0.216
 2794  WAT    O11559   1.033   2.693   0.558
 2794  WAT   H111560   1.087   2.743   0.619
 2794  WAT   H211561   0.963   2.754   0.533
 2794  WAT  EPW11562   1.031   2.707   0.563
 2795  WAT    O11563   1.303   2.418   0.178
 2795  WAT   H111564   1.299   2.479   0.251
 2795  WAT   H211565   1.267   2.336   0.213
 2795  WAT  EPW11566   1.298   2.415   0.191
 2796  WAT    O11567   0.897   3.402   1.137
 2796  WAT   H111568   0.842   3.395   1.059
 2796  WAT   H211569   0.933   3.314   1.149
 2796  WAT  EPW11570   0.894   3.390   1.129
 2797  WAT    O11571   0.340   2.401   1.532
 2797  WAT   H111572   0.329   2.373   1.442
 2797  WAT   H211573   0.251   2.412   1.566
 2797  WAT  EPW11574   0.327   2.399   1.525
 2798  WAT    O11575   0.245   2.234   1.017
 2798  WAT   H111576   0.186   2.160   1.002
 2798  WAT   H211577   0.306   2.231   0.943
 2798  WAT  EPW11578   0.245   2.224   1.006
 2799  WAT    O11579   0.383   2.853   0.820
 2799  WAT   H111580   0.379   2.758   0.816
 2799  WAT   H211581   0.338   2.876   0.901
 2799  WAT  EPW11582   0.377   2.844   0.830
 2800  WAT    O11583   1.180   2.519   1.488
 2800  WAT   H111584   1.111   2.455   1.505
 2800  WAT   H211585   1.159   2.554   1.402
 2800  WAT  EPW11586   1.168   2.515   1.479
 2801  WAT    O11587   0.922   1.949   0.353
 2801  WAT   H111588   0.893   2.020   0.297
 2801  WAT   H211589   0.895   1.975   0.441
 2801  WAT  EPW11590   0.915   1.961   0.357
 2802  WAT    O11591   0.767   3.114   0.861
 2802  WAT   H111592   0.761   3.062   0.941
 2802  WAT   H211593   0.822   3.189   0.885
 2802  WAT  EPW11594   0.774   3.117   0.875
 2803  WAT    O11595   1.317   3.004   0.523
 2803  WAT   H111596   1.226   3.005   0.495
 2803  WAT   H211597   1.330   2.917   0.562
 2803  WAT  EPW11598   1.307   2.993   0.524
 2804  WAT    O11599   0.280   2.636   0.231
 2804  WAT   H111600   0.362   2.684   0.228
 2804  WAT   H211601   0.285   2.586   0.313
 2804  WAT  EPW11602   0.291   2.636   0.241
 2805  WAT    O11603   0.494   3.004   1.189
 2805  WAT   H111604   0.415   3.044   1.152
 2805  WAT   H211605   0.465   2.917   1.216
 2805  WAT  EPW11606   0.480   2.998   1.187
 2806  WAT    O11607   1.399   1.394   0.788
 2806  WAT   H111608   1.413   1.435   0.873
 2806  WAT   H211609   1.304   1.401   0.774
 2806  WAT  EPW11610   1.388   1.400   0.797
 2807  WAT    O11611   0.396   2.599   1.036
 2807  WAT   H111612   0.429   2.519   1.077
 2807  WAT   H211613   0.309   2.576   1.004
 2807  WAT  EPW11614   0.389   2.586   1.037
 2808  WAT    O11615   1.007   2.408   0.559
 2808  WAT   H111616   1.057   2.387   0.480
 2808  WAT   H211617   1.026   2.500   0.576
 2808  WAT  EPW11618   1.016   2.417   0.551
 2809  WAT    O11619   1.476   3.485   0.766
 2809  WAT   H111620   1.461   3.390   0.774
 2809  WAT   H211621   1.542   3.505   0.833
 2809  WAT  EPW11622   1.483   3.475   0.776
 2810  WAT    O11623   1.609   3.113   0.645
 2810  WAT   H111624   1.525   3.154   0.663
 2810  WAT   H211625   1.596   3.020   0.667
 2810  WAT  EPW11626   1.597   3.106   0.650
 2811  WAT    O11627   0.739   2.467   0.622
 2811  WAT   H111628   0.699   2.543   0.580
 2811  WAT   H211629   0.826   2.461   0.581
 2811  WAT  EPW11630   0.745   2.476   0.611
 2812  WAT    O11631   1.193   2.591   0.370
 2812  WAT   H111632   1.261   2.632   0.424
 2812  WAT   H211633   1.112   2.636   0.394
 2812  WAT  EPW11634   1.191   2.602   0.380
 2813  WAT    O11635   1.039   2.041   0.974
 2813  WAT   H111636   0.993   2.085   0.902
 2813  WAT   H211637   0.985   2.059   1.051
 2813  WAT  EPW11638   1.026   2.049   0.975
 2814  WAT    O11639   1.555   2.534   0.868
 2814  WAT   H111640   1.516   2.487   0.942
 2814  WAT   H211641   1.502   2.613   0.860
 2814  WAT  EPW11642   1.544   2.538   0.877
 2815  WAT    O11643   0.893   2.189   0.755
 2815  WAT   H111644   0.955   2.234   0.698
 2815  WAT   H211645   0.879   2.104   0.713
 2815  WAT  EPW11646   0.899   2.184   0.742
 2816  WAT    O11647   0.746   2.976   1.105
 2816  WAT   H111648   0.786   3.059   1.135
 2816  WAT   H211649   0.655   2.982   1.133
 2816  WAT  EPW11650   0.740   2.988   1.112
 2817  WAT    O11651   1.107   1.782   0.482
 2817  WAT   H111652   1.041   1.822   0.426
 2817  WAT   H211653   1.177   1.755   0.422
 2817  WAT  EPW11654   1.108   1.784   0.467
 2818  WAT    O11655   1.269   2.305   1.020
 2818  WAT   H111656   1.242   2.240   1.085
 2818  WAT   H211657   1.291   2.254   0.942
 2818  WAT  EPW11658   1.268   2.290   1.018
 2819  WAT    O11659   0.343   2.484   0.442
 2819  WAT   H111660   0.362   2.409   0.386
 2819  WAT   H211661   0.429   2.523   0.459
 2819  WAT  EPW11662   0.357   2.480   0.437
 2820  WAT    O11663   0.509   1.970   1.366
 2820  WAT   H111664   0.601   1.978   1.391
 2820  WAT   H211665   0.464   2.032   1.424
 2820  WAT  EPW11666   0.515   1.979   1.377
 2821  WAT    O11667   0.208   1.671   0.658
 2821  WAT   H111668   0.225   1.763   0.678
 2821  WAT   H211669   0.265   1.623   0.718
 2821  WAT  EPW11670   0.217   1.677   0.668
 2822  WAT    O11671   0.293   2.584   0.698
 2822  WAT   H111672   0.319   2.542   0.615
 2822  WAT   H211673   0.302   2.515   0.763
 2822  WAT  EPW11674   0.298   2.570   0.695
 2823  WAT    O11675   1.025   3.029   0.743
 2823  WAT   H111676   1.034   3.054   0.651
 2823  WAT   H211677   0.939   3.064   0.769
 2823  WAT  EPW11678   1.015   3.037   0.735
 2824  WAT    O11679   0.764   3.471   0.477
 2824  WAT   H111680   0.745   3.388   0.433
 2824  WAT   H211681   0.732   3.538   0.417
 2824  WAT  EPW11682   0.757   3.469   0.464
 2825  WAT    O11683   1.374   1.658   1.640
 2825  WAT   H111684   1.320   1.606   1.700
 2825  WAT   H211685   1.328   1.741   1.631
 2825  WAT  EPW11686   1.361   1.662   1.646
 2826  WAT    O11687   1.133   3.272   0.797
 2826  WAT   H111688   1.079   3.332   0.746
 2826  WAT   H211689   1.094   3.186   0.783
 2826  WAT  EPW11690   1.121   3.269   0.789
 2827  WAT    O11691   1.511   2.413   1.160
 2827  WAT   H111692   1.421   2.380   1.151
 2827  WAT   H211693   1.501   2.502   1.192
 2827  WAT  EPW11694   1.498   2.420   1.163
 2828  WAT    O11695   0.543   3.509   0.695
 2828  WAT   H111696   0.539   3.440   0.761
 2828  WAT   H211697   0.590   3.469   0.622
 2828  WAT  EPW11698   0.548   3.495   0.694
 2829  WAT    O11699   0.694   2.320   0.875
 2829  WAT   H111700   0.649   2.244   0.913
 2829  WAT   H211701   0.766   2.282   0.825
 2829  WAT  EPW11702   0.697   2.305   0.874
 2830  WAT    O11703   0.847   2.732   1.046
 2830  WAT   H111704   0.820   2.814   1.086
 2830  WAT   H211705   0.942   2.731   1.057
 2830  WAT  EPW11706   0.856   2.742   1.053
 2831  WAT    O11707   0.396   1.993   0.273
 2831  WAT   H111708   0.381   2.088   0.266
 2831  WAT   H211709   0.317   1.960   0.316
 2831  WAT  EPW11710   0.384   2.001   0.278
 2832  WAT    O11711   0.783   3.454   0.871
 2832  WAT   H111712   0.862   3.508   0.866
 2832  WAT   H211713   0.723   3.494   0.808
 2832  WAT  EPW11714   0.785   3.466   0.862
 2833  WAT    O11715   0.761   2.028   1.515
 2833  WAT   H111716   0.714   2.088   1.574
 2833  WAT   H211717   0.821   2.084   1.466
 2833  WAT  EPW11718   0.763   2.043   1.516
 2834  WAT    O11719   1.082   3.317   0.356
 2834  WAT   H111720   1.045   3.375   0.423
 2834  WAT   H211721   1.171   3.350   0.343
 2834  WAT  EPW11722   1.088   3.329   0.363
 2835  WAT    O11723   0.892   2.561   0.855
 2835  WAT   H111724   0.865   2.625   0.921
 2835  WAT   H211725   0.812   2.543   0.805
 2835  WAT  EPW11726   0.879   2.567   0.857
 2836  WAT    O11727   0.890   2.394   1.111
 2836  WAT   H111728   0.874   2.425   1.022
 2836  WAT   H211729   0.804   2.368   1.143
 2836  WAT  EPW11730   0.877   2.395   1.104
 2837  WAT    O11731   0.912   1.817   1.525
 2837  WAT   H111732   0.912   1.788   1.434
 2837  WAT   H211733   0.845   1.885   1.529
 2837  WAT  EPW11734   0.903   1.822   1.514
 2838  WAT    O11735   0.883   2.761   1.365
 2838  WAT   H111736   0.801   2.745   1.318
 2838  WAT   H211737   0.888   2.856   1.374
 2838  WAT  EPW11738   0.873   2.771   1.360
 2839  WAT    O11739   1.465   3.358   1.045
 2839  WAT   H111740   1.494   3.348   1.136
 2839  WAT   H211741   1.387   3.413   1.050
 2839  WAT  EPW11742   1.459   3.364   1.057
 2840  WAT    O11743   0.231   2.824   0.551
 2840  WAT   H111744   0.222   2.902   0.605
 2840  WAT   H211745   0.238   2.752   0.613
 2840  WAT  EPW11746   0.230   2.825   0.566
 2841  WAT    O11747   0.241   2.338   1.269
 2841  WAT   H111748   0.232   2.326   1.174
 2841  WAT   H211749   0.168   2.396   1.293
 2841  WAT  EPW11750   0.230   2.344   1.260
 2842  WAT    O11751   0.349   1.690   0.414
 2842  WAT   H111752   0.309   1.657   0.494
 2842  WAT   H211753   0.360   1.613   0.359
 2842  WAT  EPW11754   0.345   1.676   0.417
 2843  WAT    O11755   1.458   3.236   0.388
 2843  WAT   H111756   1.465   3.173   0.460
 2843  WAT   H211757   1.464   3.183   0.309
 2843  WAT  EPW11758   1.459   3.221   0.387
 2844  WAT    O11759   0.618   1.984   0.441
 2844  WAT   H111760   0.533   1.970   0.400
 2844  WAT   H211761   0.623   2.079   0.455
 2844  WAT  EPW11762   0.608   1.995   0.438
 2845  WAT    O11763   1.221   1.876   1.507
 2845  WAT   H111764   1.227   1.842   1.418
 2845  WAT   H211765   1.127   1.881   1.525
 2845  WAT  EPW11766   1.209   1.873   1.498
 2846  WAT    O11767   0.259   3.081   1.043
 2846  WAT   H111768   0.202   3.150   1.078
 2846  WAT   H211769   0.214   3.000   1.064
 2846  WAT  EPW11770   0.246   3.080   1.050
 2847  WAT    O11771   0.690   1.802   0.250
 2847  WAT   H111772   0.667   1.880   0.300
 2847  WAT   H211773   0.780   1.817   0.221
 2847  WAT  EPW11774   0.698   1.814   0.253
 2848  WAT    O11775   1.232   1.774   0.737
 2848  WAT   H111776   1.319   1.734   0.743
 2848  WAT   H211777   1.222   1.797   0.645
 2848  WAT  EPW11778   1.242   1.772   0.726
 2849  WAT    O11779   0.923   1.800   1.251
 2849  WAT   H111780   0.897   1.723   1.201
 2849  WAT   H211781   1.019   1.801   1.246
 2849  WAT  EPW11782   0.932   1.790   1.244
 2850  WAT    O11783   1.235   2.160   0.262
 2850  WAT   H111784   1.213   2.135   0.352
 2850  WAT   H211785   1.316   2.114   0.244
 2850  WAT  EPW11786   1.242   2.151   0.271
 2851  WAT    O11787   0.615   2.015   0.779
 2851  WAT   H111788   0.530   1.972   0.770
 2851  WAT   H211789   0.625   2.030   0.873
 2851  WAT  EPW11790   0.605   2.012   0.790
 2852  WAT    O11791   0.478   1.717   1.494
 2852  WAT   H111792   0.423   1.748   1.566
 2852  WAT   H211793   0.484   1.792   1.434
 2852  WAT  EPW11794   0.472   1.731   1.495
 2853  WAT    O11795   0.357   2.969   0.362
 2853  WAT   H111796   0.294   2.923   0.418
 2853  WAT   H211797   0.309   3.042   0.325
 2853  WAT  EPW11798   0.343   2.972   0.365
 2854  WAT    O11799   0.945   3.136   1.183
 2854  WAT   H111800   0.925   3.105   1.271
 2854  WAT   H211801   0.997   3.065   1.144
 2854  WAT  EPW11802   0.949   3.123   1.189
 2855  WAT    O11803   1.210   2.896   1.448
 2855  WAT   H111804   1.146   2.843   1.495
 2855  WAT   H211805   1.206   2.864   1.358
 2855  WAT  EPW11806   1.201   2.885   1.442
 2856  WAT    O11807   0.586   3.133   1.461
 2856  WAT   H111808   0.548   3.096   1.382
 2856  WAT   H211809   0.522   3.196   1.493
 2856  WAT  EPW11810   0.573   3.136   1.455
 2857  WAT    O11811   1.476   2.680   1.229
 2857  WAT   H111812   1.387   2.701   1.257
 2857  WAT   H211813   1.504   2.755   1.177
 2857  WAT  EPW11814   1.468   2.692   1.226
 2858  WAT    O11815   1.383   2.882   0.273
 2858  WAT   H111816   1.385   2.893   0.368
 2858  WAT   H211817   1.400   2.969   0.237
 2858  WAT  EPW11818   1.386   2.894   0.280
 2859  WAT    O11819   1.321   3.476   0.303
 2859  WAT   H111820   1.294   3.472   0.211
 2859  WAT   H211821   1.383   3.404   0.313
 2859  WAT  EPW11822   1.325   3.466   0.293
 2860  WAT    O11823   0.229   1.956   0.866
 2860  WAT   H111824   0.274   1.899   0.927
 2860  WAT   H211825   0.285   1.958   0.789
 2860  WAT  EPW11826   0.242   1.949   0.864
 2861  WAT    O11827   1.012   3.630   0.884
 2861  WAT   H111828   1.089   3.614   0.831
 2861  WAT   H211829   1.009   3.725   0.895
 2861  WAT  EPW11830   1.021   3.640   0.879
 2862  WAT    O11831   0.669   3.271   0.307
 2862  WAT   H111832   0.645   3.190   0.352
 2862  WAT   H211833   0.588   3.299   0.264
 2862  WAT  EPW11834   0.655   3.264   0.307
 2863  WAT    O11835   1.188   3.213   1.438
 2863  WAT   H111836   1.215   3.122   1.454
 2863  WAT   H211837   1.093   3.212   1.448
 2863  WAT  EPW11838   1.179   3.201   1.441
 2864  WAT    O11839   1.219   2.783   1.208
 2864  WAT   H111840   1.158   2.710   1.213
 2864  WAT   H211841   1.176   2.846   1.149
 2864  WAT  EPW11842   1.206   2.782   1.201
 2865  WAT    O11843   0.432   2.152   1.563
 2865  WAT   H111844   0.356   2.113   1.605
 2865  WAT   H211845   0.407   2.243   1.548
 2865  WAT  EPW11846   0.419   2.159   1.567
 2866  WAT    O11847   1.015   2.361   0.304
 2866  WAT   H111848   1.077   2.406   0.246
 2866  WAT   H211849   0.934   2.412   0.296
 2866  WAT  EPW11850   1.013   2.374   0.296
 2867  WAT    O11851   0.244   3.175   0.227
 2867  WAT   H111852   0.174   3.215   0.176
 2867  WAT   H211853   0.288   3.115   0.167
 2867  WAT  EPW11854   0.241   3.172   0.213
 2868  WAT    O11855   1.105   2.969   1.010
 2868  WAT   H111856   1.087   2.962   0.916
 2868  WAT   H211857   1.183   3.024   1.015
 2868  WAT  EPW11858   1.112   2.975   0.998
 2869  WAT    O11859   0.586   2.608   0.442
 2869  WAT   H111860   0.638   2.548   0.388
 2869  WAT   H211861   0.559   2.677   0.381
 2869  WAT  EPW11862   0.589   2.609   0.427
 2870  WAT    O11863   1.191   1.931   1.197
 2870  WAT   H111864   1.162   2.013   1.237
 2870  WAT   H211865   1.168   1.939   1.105
 2870  WAT  EPW11866   1.184   1.942   1.191
 2871  WAT    O11867   1.592   2.064   0.446
 2871  WAT   H111868   1.650   2.113   0.387
 2871  WAT   H211869   1.535   2.131   0.484
 2871  WAT  EPW11870   1.592   2.079   0.443
 2872  WAT    O11871   1.030   2.742   1.577
 2872  WAT   H111872   0.949   2.746   1.526
 2872  WAT   H211873   1.066   2.656   1.557
 2872  WAT  EPW11874   1.024   2.731   1.568
 2873  WAT    O11875   0.364   1.946   0.633
 2873  WAT   H111876   0.346   2.005   0.559
 2873  WAT   H211877   0.412   1.873   0.594
 2873  WAT  EPW11878   0.368   1.944   0.618
 2874  WAT    O11879   1.361   2.715   0.569
 2874  WAT   H111880   1.447   2.681   0.542
 2874  WAT   H211881   1.364   2.712   0.665
 2874  WAT  EPW11882   1.373   2.710   0.578
 2875  WAT    O11883   0.654   2.406   1.359
 2875  WAT   H111884   0.579   2.373   1.311
 2875  WAT   H211885   0.634   2.386   1.451
 2875  WAT  EPW11886   0.642   2.399   1.365
 2876  WAT    O11887   1.009   2.338   1.566
 2876  WAT   H111888   0.931   2.334   1.621
 2876  WAT   H211889   1.073   2.283   1.612
 2876  WAT  EPW11890   1.007   2.331   1.579
 2877  WAT    O11891   1.569   1.717   0.520
 2877  WAT   H111892   1.509   1.682   0.586
 2877  WAT   H211893   1.641   1.654   0.516
 2877  WAT  EPW11894   1.571   1.705   0.528
 2878  WAT    O11895   1.149   2.191   1.287
 2878  WAT   H111896   1.218   2.210   1.350
 2878  WAT   H211897   1.085   2.261   1.298
 2878  WAT  EPW11898   1.150   2.202   1.296
 2879  WAT    O11899   1.195   3.418   1.034
 2879  WAT   H111900   1.148   3.501   1.033
 2879  WAT   H211901   1.142   3.359   0.980
 2879  WAT  EPW11902   1.182   3.421   1.027
 2880  WAT    O11903   0.623   1.161   4.233
 2880  WAT   H111904   0.606   1.177   4.326
 2880  WAT   H211905   0.546   1.112   4.202
 2880  WAT  EPW11906   0.611   1.157   4.241
 2881  WAT    O11907   0.280   0.651   3.766
 2881  WAT   H111908   0.265   0.696   3.849
 2881  WAT   H211909   0.351   0.590   3.785
 2881  WAT  EPW11910   0.287   0.649   3.779
 2882  WAT    O11911   1.296   1.267   3.585
 2882  WAT   H111912   1.210   1.299   3.559
 2882  WAT   H211913   1.287   1.171   3.584
 2882  WAT  EPW11914   1.284   1.259   3.581
 2883  WAT    O11915   0.440   1.455   3.931
 2883  WAT   H111916   0.360   1.403   3.932
 2883  WAT   H211917   0.474   1.445   3.842
 2883  WAT  EPW11918   0.434   1.447   3.920
 2884  WAT    O11919   0.831   0.954   4.178
 2884  WAT   H111920   0.788   0.893   4.117
 2884  WAT   H211921   0.764   1.020   4.196
 2884  WAT  EPW11922   0.817   0.955   4.172
 2885  WAT    O11923   1.518   0.446   4.287
 2885  WAT   H111924   1.440   0.457   4.342
 2885  WAT   H211925   1.552   0.535   4.276
 2885  WAT  EPW11926   1.512   0.459   4.293
 2886  WAT    O11927   0.938   0.873   3.732
 2886  WAT   H111928   1.015   0.875   3.789
 2886  WAT   H211929   0.970   0.836   3.650
 2886  WAT  EPW11930   0.952   0.868   3.729
 2887  WAT    O11931   1.512   0.837   3.905
 2887  WAT   H111932   1.475   0.901   3.966
 2887  WAT   H211933   1.436   0.794   3.866
 2887  WAT  EPW11934   1.498   0.839   3.908
 2888  WAT    O11935   1.310   0.997   3.607
 2888  WAT   H111936   1.314   0.983   3.512
 2888  WAT   H211937   1.399   1.023   3.631
 2888  WAT  EPW11938   1.322   0.998   3.598
 2889  WAT    O11939   1.010   1.213   4.266
 2889  WAT   H111940   1.027   1.298   4.226
 2889  WAT   H211941   0.934   1.180   4.219
 2889  WAT  EPW11942   1.002   1.220   4.255
 2890  WAT    O11943   0.989   1.546   4.391
 2890  WAT   H111944   1.047   1.619   4.374
 2890  WAT   H211945   0.910   1.564   4.339
 2890  WAT  EPW11946   0.986   1.558   4.382
 2891  WAT    O11947   0.221   0.271   4.243
 2891  WAT   H111948   0.180   0.271   4.156
 2891  WAT   H211949   0.172   0.338   4.292
 2891  WAT  EPW11950   0.209   0.280   4.238
 2892  WAT    O11951   0.629   0.410   4.098
 2892  WAT   H111952   0.547   0.408   4.050
 2892  WAT   H211953   0.604   0.391   4.189
 2892  WAT  EPW11954   0.616   0.407   4.103
 2893  WAT    O11955   0.341   1.376   4.560
 2893  WAT   H111956   0.315   1.339   4.644
 2893  WAT   H211957   0.414   1.322   4.531
 2893  WAT  EPW11958   0.347   1.365   4.567
 2894  WAT    O11959   0.555   1.418   3.694
 2894  WAT   H111960   0.601   1.336   3.712
 2894  WAT   H211961   0.624   1.482   3.680
 2894  WAT  EPW11962   0.569   1.416   3.695
 2895  WAT    O11963   0.427   0.467   4.593
 2895  WAT   H111964   0.515   0.497   4.616
 2895  WAT   H211965   0.436   0.434   4.503
 2895  WAT  EPW11966   0.439   0.467   4.584
 2896  WAT    O11967   1.370   0.850   4.623
 2896  WAT   H111968   1.414   0.901   4.691
 2896  WAT   H211969   1.302   0.800   4.670
 2896  WAT  EPW11970   1.367   0.850   4.638
 2897  WAT    O11971   1.491   1.027   4.846
 2897  WAT   H111972   1.420   1.087   4.826
 2897  WAT   H211973   1.563   1.083   4.876
 2897  WAT  EPW11974   1.491   1.042   4.847
 2898  WAT    O11975   0.842   1.133   3.740
 2898  WAT   H111976   0.873   1.044   3.755
 2898  WAT   H211977   0.895   1.187   3.799
 2898  WAT  EPW11978   0.853   1.128   3.749
 2899  WAT    O11979   1.105   0.182   3.797
 2899  WAT   H111980   1.115   0.216   3.886
 2899  WAT   H211981   1.092   0.259   3.743
 2899  WAT  EPW11982   1.104   0.196   3.802
 2900  WAT    O11983   1.369   0.267   4.530
 2900  WAT   H111984   1.460   0.268   4.559
 2900  WAT   H211985   1.369   0.208   4.454
 2900  WAT  EPW11986   1.380   0.259   4.524
 2901  WAT    O11987   1.153   0.700   4.715
 2901  WAT   H111988   1.066   0.675   4.686
 2901  WAT   H211989   1.188   0.622   4.758
 2901  WAT  EPW11990   1.147   0.687   4.717
 2902  WAT    O11991   0.588   0.350   4.361
 2902  WAT   H111992   0.596   0.272   4.416
 2902  WAT   H211993   0.632   0.419   4.411
 2902  WAT  EPW11994   0.594   0.349   4.375
 2903  WAT    O11995   1.456   1.224   3.895
 2903  WAT   H111996   1.468   1.312   3.858
 2903  WAT   H211997   1.476   1.165   3.823
 2903  WAT  EPW11998   1.460   1.228   3.881
 2904  WAT    O11999   0.531   1.199   4.482
 2904  WAT   H112000   0.483   1.118   4.500
 2904  WAT   H212001   0.604   1.198   4.544
 2904  WAT  EPW12002   0.534   1.189   4.493
 2905  WAT    O12003   1.872   0.491   4.321
 2905  WAT   H112004   1.873   0.459   4.411
 2905  WAT   H212005   1.867   0.586   4.328
 2905  WAT  EPW12006   1.871   0.499   4.333
 2906  WAT    O12007   0.811   0.284   3.709
 2906  WAT   H112008   0.748   0.212   3.711
 2906  WAT   H212009   0.833   0.300   3.801
 2906  WAT  EPW12010   0.806   0.277   3.721
 2907  WAT    O12011   0.485   0.449   4.921
 2907  WAT   H112012   0.400   0.417   4.953
 2907  WAT   H212013   0.532   0.370   4.895
 2907  WAT  EPW12014   0.480   0.435   4.922
 2908  WAT    O12015   1.428   0.581   3.709
 2908  WAT   H112016   1.383   0.557   3.790
 2908  WAT   H212017   1.521   0.567   3.729
 2908  WAT  EPW12018   1.434   0.576   3.722
 2909  WAT    O12019   1.303   1.243   4.893
 2909  WAT   H112020   1.268   1.233   4.981
 2909  WAT   H212021   1.317   1.337   4.884
 2909  WAT  EPW12022   1.300   1.254   4.903
 2910  WAT    O12023   0.831   0.296   3.975
 2910  WAT   H112024   0.749   0.324   4.015
 2910  WAT   H212025   0.899   0.335   4.031
 2910  WAT  EPW12026   0.829   0.305   3.988
 2911  WAT    O12027   1.033   0.806   4.330
 2911  WAT   H112028   1.087   0.856   4.391
 2911  WAT   H212029   0.963   0.867   4.305
 2911  WAT  EPW12030   1.031   0.820   4.335
 2912  WAT    O12031   1.303   0.531   3.950
 2912  WAT   H112032   1.299   0.593   4.023
 2912  WAT   H212033   1.267   0.450   3.985
 2912  WAT  EPW12034   1.298   0.528   3.963
 2913  WAT    O12035   0.778   0.617   3.997
 2913  WAT   H112036   0.711   0.549   4.000
 2913  WAT   H212037   0.786   0.639   3.905
 2913  WAT  EPW12038   0.771   0.611   3.986
 2914  WAT    O12039   0.897   1.515   4.909
 2914  WAT   H112040   0.842   1.508   4.831
 2914  WAT   H212041   0.933   1.427   4.921
 2914  WAT  EPW12042   0.894   1.503   4.901
 2915  WAT    O12043   0.245   0.347   4.789
 2915  WAT   H112044   0.186   0.273   4.774
 2915  WAT   H212045   0.306   0.345   4.715
 2915  WAT  EPW12046   0.245   0.338   4.778
 2916  WAT    O12047   0.383   0.967   4.592
 2916  WAT   H112048   0.379   0.871   4.588
 2916  WAT   H212049   0.338   0.989   4.673
 2916  WAT  EPW12050   0.377   0.957   4.602
 2917  WAT    O12051   0.516   0.860   3.703
 2917  WAT   H112052   0.478   0.829   3.621
 2917  WAT   H212053   0.540   0.951   3.685
 2917  WAT  EPW12054   0.514   0.868   3.690
 2918  WAT    O12055   0.767   1.228   4.633
 2918  WAT   H112056   0.761   1.176   4.713
 2918  WAT   H212057   0.822   1.303   4.657
 2918  WAT  EPW12058   0.774   1.231   4.647
 2919  WAT    O12059   1.317   1.117   4.295
 2919  WAT   H112060   1.226   1.118   4.267
 2919  WAT   H212061   1.330   1.030   4.334
 2919  WAT  EPW12062   1.307   1.106   4.296
 2920  WAT    O12063   0.280   0.749   4.003
 2920  WAT   H112064   0.362   0.798   4.000
 2920  WAT   H212065   0.285   0.699   4.085
 2920  WAT  EPW12066   0.291   0.749   4.013
 2921  WAT    O12067   0.509   0.913   4.004
 2921  WAT   H112068   0.457   0.983   4.042
 2921  WAT   H212069   0.510   0.932   3.910
 2921  WAT  EPW12070   0.503   0.924   3.997
 2922  WAT    O12071   1.213   0.399   3.620
 2922  WAT   H112072   1.261   0.364   3.545
 2922  WAT   H212073   1.264   0.477   3.646
 2922  WAT  EPW12074   1.226   0.405   3.614
 2923  WAT    O12075   0.494   1.117   4.961
 2923  WAT   H112076   0.415   1.158   4.924
 2923  WAT   H212077   0.465   1.030   4.988
 2923  WAT  EPW12078   0.480   1.111   4.959
 2924  WAT    O12079   0.396   0.713   4.808
 2924  WAT   H112080   0.429   0.632   4.849
 2924  WAT   H212081   0.309   0.689   4.776
 2924  WAT  EPW12082   0.389   0.699   4.809
 2925  WAT    O12083   1.007   0.521   4.331
 2925  WAT   H112084   1.057   0.500   4.252
 2925  WAT   H212085   1.026   0.613   4.348
 2925  WAT  EPW12086   1.016   0.530   4.323
 2926  WAT    O12087   0.470   0.395   3.705
 2926  WAT   H112088   0.422   0.314   3.692
 2926  WAT   H212089   0.513   0.411   3.622
 2926  WAT  EPW12090   0.469   0.387   3.693
 2927  WAT    O12091   1.476   1.598   4.538
 2927  WAT   H112092   1.461   1.504   4.546
 2927  WAT   H212093   1.542   1.618   4.605
 2927  WAT  EPW12094   1.483   1.588   4.548
 2928  WAT    O12095   1.609   1.226   4.417
 2928  WAT   H112096   1.525   1.267   4.435
 2928  WAT   H212097   1.596   1.134   4.439
 2928  WAT  EPW12098   1.597   1.219   4.422
 2929  WAT    O12099   0.739   0.580   4.394
 2929  WAT   H112100   0.699   0.656   4.352
 2929  WAT   H212101   0.826   0.574   4.353
 2929  WAT  EPW12102   0.745   0.589   4.383
 2930  WAT    O12103   1.193   0.704   4.142
 2930  WAT   H112104   1.261   0.746   4.196
 2930  WAT   H212105   1.112   0.749   4.166
 2930  WAT  EPW12106   1.191   0.715   4.152
 2931  WAT    O12107   1.555   0.647   4.640
 2931  WAT   H112108   1.516   0.600   4.714
 2931  WAT   H212109   1.502   0.726   4.632
 2931  WAT  EPW12110   1.544   0.651   4.649
 2932  WAT    O12111   0.893   0.302   4.527
 2932  WAT   H112112   0.955   0.347   4.470
 2932  WAT   H212113   0.879   0.217   4.485
 2932  WAT  EPW12114   0.899   0.297   4.514
 2933  WAT    O12115   0.746   1.090   4.877
 2933  WAT   H112116   0.786   1.172   4.907
 2933  WAT   H212117   0.655   1.095   4.905
 2933  WAT  EPW12118   0.740   1.101   4.884
 2934  WAT    O12119   1.269   0.418   4.792
 2934  WAT   H112120   1.242   0.353   4.857
 2934  WAT   H212121   1.291   0.367   4.714
 2934  WAT  EPW12122   1.268   0.403   4.790
 2935  WAT    O12123   0.343   0.597   4.214
 2935  WAT   H112124   0.362   0.522   4.158
 2935  WAT   H212125   0.429   0.637   4.231
 2935  WAT  EPW12126   0.357   0.593   4.209
 2936  WAT    O12127   0.588   1.118   3.643
 2936  WAT   H112128   0.673   1.114   3.688
 2936  WAT   H212129   0.611   1.139   3.552
 2936  WAT  EPW12130   0.602   1.120   3.637
 2937  WAT    O12131   1.025   1.143   4.515
 2937  WAT   H112132   1.034   1.167   4.423
 2937  WAT   H212133   0.939   1.178   4.541
 2937  WAT  EPW12134   1.015   1.150   4.507
 2938  WAT    O12135   0.764   1.584   4.249
 2938  WAT   H112136   0.745   1.501   4.205
 2938  WAT   H212137   0.732   1.651   4.189
 2938  WAT  EPW12138   0.757   1.582   4.236
 2939  WAT    O12139   0.922   1.508   3.558
 2939  WAT   H112140   0.938   1.591   3.515
 2939  WAT   H212141   0.949   1.522   3.649
 2939  WAT  EPW12142   0.928   1.520   3.564
 2940  WAT    O12143   1.133   1.385   4.569
 2940  WAT   H112144   1.079   1.445   4.518
 2940  WAT   H212145   1.094   1.299   4.555
 2940  WAT  EPW12146   1.121   1.382   4.561
 2941  WAT    O12147   1.511   0.526   4.932
 2941  WAT   H112148   1.421   0.494   4.923
 2941  WAT   H212149   1.501   0.616   4.964
 2941  WAT  EPW12150   1.498   0.533   4.935
 2942  WAT    O12151   0.543   1.622   4.467
 2942  WAT   H112152   0.539   1.553   4.533
 2942  WAT   H212153   0.590   1.583   4.394
 2942  WAT  EPW12154   0.548   1.608   4.466
 2943  WAT    O12155   0.730   0.695   3.735
 2943  WAT   H112156   0.803   0.757   3.734
 2943  WAT   H212157   0.652   0.750   3.732
 2943  WAT  EPW12158   0.730   0.710   3.735
 2944  WAT    O12159   0.694   0.433   4.647
 2944  WAT   H112160   0.649   0.358   4.685
 2944  WAT   H212161   0.766   0.395   4.597
 2944  WAT  EPW12162   0.697   0.418   4.646
 2945  WAT    O12163   0.847   0.845   4.818
 2945  WAT   H112164   0.820   0.928   4.858
 2945  WAT   H212165   0.942   0.844   4.829
 2945  WAT  EPW12166   0.856   0.856   4.825
 2946  WAT    O12167   0.783   1.568   4.643
 2946  WAT   H112168   0.862   1.621   4.638
 2946  WAT   H212169   0.723   1.607   4.580
 2946  WAT  EPW12170   0.785   1.580   4.634
 2947  WAT    O12171   1.082   1.431   4.128
 2947  WAT   H112172   1.045   1.489   4.195
 2947  WAT   H212173   1.171   1.463   4.115
 2947  WAT  EPW12174   1.088   1.442   4.135
 2948  WAT    O12175   0.892   0.674   4.627
 2948  WAT   H112176   0.865   0.739   4.693
 2948  WAT   H212177   0.812   0.656   4.577
 2948  WAT  EPW12178   0.879   0.680   4.629
 2949  WAT    O12179   0.890   0.508   4.883
 2949  WAT   H112180   0.874   0.539   4.794
 2949  WAT   H212181   0.804   0.481   4.915
 2949  WAT  EPW12182   0.877   0.508   4.876
 2950  WAT    O12183   1.465   1.471   4.817
 2950  WAT   H112184   1.494   1.462   4.908
 2950  WAT   H212185   1.387   1.526   4.822
 2950  WAT  EPW12186   1.459   1.477   4.829
 2951  WAT    O12187   0.231   0.938   4.323
 2951  WAT   H112188   0.222   1.016   4.377
 2951  WAT   H212189   0.238   0.865   4.385
 2951  WAT  EPW12190   0.230   0.938   4.338
 2952  WAT    O12191   1.458   1.349   4.160
 2952  WAT   H112192   1.465   1.286   4.232
 2952  WAT   H212193   1.464   1.296   4.081
 2952  WAT  EPW12194   1.459   1.334   4.159
 2953  WAT    O12195   0.403   0.408   3.975
 2953  WAT   H112196   0.441   0.401   3.887
 2953  WAT   H212197   0.313   0.378   3.965
 2953  WAT  EPW12198   0.397   0.403   3.962
 2954  WAT    O12199   0.373   1.124   3.818
 2954  WAT   H112200   0.300   1.075   3.781
 2954  WAT   H212201   0.439   1.125   3.749
 2954  WAT  EPW12202   0.372   1.117   3.805
 2955  WAT    O12203   0.722   0.465   3.537
 2955  WAT   H112204   0.720   0.530   3.607
 2955  WAT   H212205   0.758   0.386   3.578
 2955  WAT  EPW12206   0.727   0.463   3.551
 2956  WAT    O12207   0.259   1.194   4.815
 2956  WAT   H112208   0.202   1.263   4.850
 2956  WAT   H212209   0.214   1.113   4.836
 2956  WAT  EPW12210   0.246   1.193   4.822
 2957  WAT    O12211   0.919   1.353   3.924
 2957  WAT   H112212   0.850   1.345   3.991
 2957  WAT   H212213   0.998   1.370   3.974
 2957  WAT  EPW12214   0.920   1.354   3.939
 2958  WAT    O12215   1.235   0.273   4.034
 2958  WAT   H112216   1.213   0.248   4.124
 2958  WAT   H212217   1.316   0.227   4.016
 2958  WAT  EPW12218   1.242   0.264   4.043
 2959  WAT    O12219   1.019   1.250   3.549
 2959  WAT   H112220   0.979   1.337   3.554
 2959  WAT   H212221   0.972   1.198   3.614
 2959  WAT  EPW12222   1.008   1.254   3.558
 2960  WAT    O12223   0.357   1.082   4.134
 2960  WAT   H112224   0.294   1.036   4.190
 2960  WAT   H212225   0.309   1.155   4.097
 2960  WAT  EPW12226   0.343   1.085   4.137
 2961  WAT    O12227   0.945   1.249   4.955
 2961  WAT   H112228   0.925   1.218   5.043
 2961  WAT   H212229   0.997   1.178   4.916
 2961  WAT  EPW12230   0.949   1.236   4.961
 2962  WAT    O12231   1.504   0.276   3.818
 2962  WAT   H112232   1.422   0.227   3.813
 2962  WAT   H212233   1.479   0.362   3.851
 2962  WAT  EPW12234   1.490   0.281   3.821
 2963  WAT    O12235   1.476   0.793   5.001
 2963  WAT   H112236   1.387   0.814   5.029
 2963  WAT   H212237   1.504   0.868   4.949
 2963  WAT  EPW12238   1.468   0.805   4.998
 2964  WAT    O12239   1.383   0.995   4.045
 2964  WAT   H112240   1.385   1.007   4.140
 2964  WAT   H212241   1.400   1.082   4.009
 2964  WAT  EPW12242   1.386   1.008   4.052
 2965  WAT    O12243   1.321   1.589   4.075
 2965  WAT   H112244   1.294   1.586   3.983
 2965  WAT   H212245   1.383   1.517   4.085
 2965  WAT  EPW12246   1.325   1.579   4.065
 2966  WAT    O12247   1.038   1.589   3.826
 2966  WAT   H112248   0.986   1.520   3.869
 2966  WAT   H212249   0.990   1.669   3.844
 2966  WAT  EPW12250   1.025   1.590   3.834
 2967  WAT    O12251   1.012   1.743   4.656
 2967  WAT   H112252   1.089   1.727   4.603
 2967  WAT   H212253   1.009   1.838   4.667
 2967  WAT  EPW12254   1.021   1.753   4.651
 2968  WAT    O12255   0.669   1.384   4.079
 2968  WAT   H112256   0.645   1.303   4.124
 2968  WAT   H212257   0.588   1.412   4.036
 2968  WAT  EPW12258   0.655   1.377   4.079
 2969  WAT    O12259   1.219   0.897   4.980
 2969  WAT   H112260   1.158   0.823   4.985
 2969  WAT   H212261   1.176   0.959   4.921
 2969  WAT  EPW12262   1.206   0.895   4.973
 2970  WAT    O12263   1.015   0.475   4.076
 2970  WAT   H112264   1.077   0.519   4.018
 2970  WAT   H212265   0.934   0.525   4.068
 2970  WAT  EPW12266   1.013   0.487   4.068
 2971  WAT    O12267   0.244   1.288   3.999
 2971  WAT   H112268   0.174   1.328   3.948
 2971  WAT   H212269   0.288   1.228   3.939
 2971  WAT  EPW12270   0.241   1.286   3.985
 2972  WAT    O12271   1.105   1.083   4.782
 2972  WAT   H112272   1.087   1.075   4.688
 2972  WAT   H212273   1.183   1.137   4.787
 2972  WAT  EPW12274   1.112   1.089   4.770
 2973  WAT    O12275   0.586   0.721   4.214
 2973  WAT   H112276   0.638   0.661   4.160
 2973  WAT   H212277   0.559   0.790   4.153
 2973  WAT  EPW12278   0.589   0.722   4.199
 2974  WAT    O12279   1.556   1.507   3.842
 2974  WAT   H112280   1.615   1.489   3.769
 2974  WAT   H212281   1.497   1.575   3.810
 2974  WAT  EPW12282   1.556   1.513   3.829
 2975  WAT    O12283   1.592   0.178   4.218
 2975  WAT   H112284   1.650   0.226   4.159
 2975  WAT   H212285   1.535   0.245   4.256
 2975  WAT  EPW12286   1.592   0.192   4.215
 2976  WAT    O12287   1.361   0.828   4.341
 2976  WAT   H112288   1.447   0.794   4.314
 2976  WAT   H212289   1.364   0.825   4.437
 2976  WAT  EPW12290   1.373   0.823   4.350
 2977  WAT    O12291   1.176   0.895   3.862
 2977  WAT   H112292   1.216   0.929   3.943
 2977  WAT   H212293   1.225   0.937   3.792
 2977  WAT  EPW12294   1.187   0.905   3.864
 2978  WAT    O12295   1.195   1.531   4.806
 2978  WAT   H112296   1.148   1.614   4.805
 2978  WAT   H212297   1.142   1.473   4.752
 2978  WAT  EPW12298   1.182   1.534   4.799
 2979  WAT    O12299   0.623   1.161   2.347
 2979  WAT   H112300   0.606   1.177   2.440
 2979  WAT   H212301   0.546   1.112   2.316
 2979  WAT  EPW12302   0.611   1.157   2.355
 2980  WAT    O12303   0.280   0.651   1.880
 2980  WAT   H112304   0.265   0.696   1.963
 2980  WAT   H212305   0.351   0.590   1.899
 2980  WAT  EPW12306   0.287   0.649   1.893
 2981  WAT    O12307   1.296   1.267   1.699
 2981  WAT   H112308   1.210   1.299   1.673
 2981  WAT   H212309   1.287   1.171   1.698
 2981  WAT  EPW12310   1.284   1.259   1.695
 2982  WAT    O12311   0.440   1.455   2.045
 2982  WAT   H112312   0.360   1.403   2.046
 2982  WAT   H212313   0.474   1.445   1.956
 2982  WAT  EPW12314   0.434   1.447   2.034
 2983  WAT    O12315   0.831   0.954   2.292
 2983  WAT   H112316   0.788   0.893   2.231
 2983  WAT   H212317   0.764   1.020   2.310
 2983  WAT  EPW12318   0.817   0.955   2.286
 2984  WAT    O12319   1.518   0.446   2.401
 2984  WAT   H112320   1.440   0.457   2.456
 2984  WAT   H212321   1.552   0.535   2.390
 2984  WAT  EPW12322   1.512   0.459   2.407
 2985  WAT    O12323   0.651   0.778   3.144
 2985  WAT   H112324   0.638   0.691   3.183
 2985  WAT   H212325   0.695   0.760   3.061
 2985  WAT  EPW12326   0.655   0.764   3.139
 2986  WAT    O12327   0.938   0.873   1.846
 2986  WAT   H112328   1.015   0.875   1.903
 2986  WAT   H212329   0.970   0.836   1.764
 2986  WAT  EPW12330   0.952   0.868   1.843
 2987  WAT    O12331   1.512   0.837   2.019
 2987  WAT   H112332   1.475   0.901   2.080
 2987  WAT   H212333   1.436   0.794   1.980
 2987  WAT  EPW12334   1.498   0.839   2.022
 2988  WAT    O12335   1.310   0.997   1.721
 2988  WAT   H112336   1.314   0.983   1.626
 2988  WAT   H212337   1.399   1.023   1.745
 2988  WAT  EPW12338   1.322   0.998   1.712
 2989  WAT    O12339   1.010   1.213   2.380
 2989  WAT   H112340   1.027   1.298   2.340
 2989  WAT   H212341   0.934   1.180   2.333
 2989  WAT  EPW12342   1.002   1.220   2.369
 2990  WAT    O12343   0.989   1.546   2.505
 2990  WAT   H112344   1.047   1.619   2.488
 2990  WAT   H212345   0.910   1.564   2.453
 2990  WAT  EPW12346   0.986   1.558   2.496
 2991  WAT    O12347   0.221   0.271   2.357
 2991  WAT   H112348   0.180   0.271   2.270
 2991  WAT   H212349   0.172   0.338   2.406
 2991  WAT  EPW12350   0.209   0.280   2.352
 2992  WAT    O12351   0.867   0.360   3.259
 2992  WAT   H112352   0.926   0.391   3.328
 2992  WAT   H212353   0.795   0.422   3.259
 2992  WAT  EPW12354   0.866   0.372   3.268
 2993  WAT    O12355   0.629   0.410   2.212
 2993  WAT   H112356   0.547   0.408   2.164
 2993  WAT   H212357   0.604   0.391   2.303
 2993  WAT  EPW12358   0.616   0.407   2.217
 2994  WAT    O12359   0.555   1.418   1.808
 2994  WAT   H112360   0.601   1.336   1.826
 2994  WAT   H212361   0.624   1.482   1.794
 2994  WAT  EPW12362   0.569   1.416   1.809
 2995  WAT    O12363   0.427   0.467   2.707
 2995  WAT   H112364   0.515   0.497   2.730
 2995  WAT   H212365   0.436   0.434   2.617
 2995  WAT  EPW12366   0.439   0.467   2.698
 2996  WAT    O12367   0.386   1.417   3.453
 2996  WAT   H112368   0.443   1.408   3.530
 2996  WAT   H212369   0.382   1.511   3.437
 2996  WAT  EPW12370   0.393   1.428   3.461
 2997  WAT    O12371   1.370   0.850   2.737
 2997  WAT   H112372   1.414   0.901   2.805
 2997  WAT   H212373   1.302   0.800   2.784
 2997  WAT  EPW12374   1.367   0.850   2.752
 2998  WAT    O12375   1.491   1.027   2.960
 2998  WAT   H112376   1.420   1.087   2.940
 2998  WAT   H212377   1.563   1.083   2.990
 2998  WAT  EPW12378   1.491   1.042   2.961
 2999  WAT    O12379   0.422   0.802   3.444
 2999  WAT   H112380   0.406   0.708   3.440
 2999  WAT   H212381   0.413   0.831   3.353
 2999  WAT  EPW12382   0.418   0.794   3.431
 3000  WAT    O12383   0.842   1.133   1.854
 3000  WAT   H112384   0.873   1.044   1.869
 3000  WAT   H212385   0.895   1.187   1.913
 3000  WAT  EPW12386   0.853   1.128   1.863
 3001  WAT    O12387   1.105   0.182   1.911
 3001  WAT   H112388   1.115   0.216   2.000
 3001  WAT   H212389   1.092   0.259   1.857
 3001  WAT  EPW12390   1.104   0.196   1.916
 3002  WAT    O12391   1.369   0.267   2.644
 3002  WAT   H112392   1.460   0.268   2.673
 3002  WAT   H212393   1.369   0.208   2.568
 3002  WAT  EPW12394   1.380   0.259   2.638
 3003  WAT    O12395   1.153   0.700   2.829
 3003  WAT   H112396   1.066   0.675   2.800
 3003  WAT   H212397   1.188   0.622   2.872
 3003  WAT  EPW12398   1.147   0.687   2.831
 3004  WAT    O12399   0.588   0.350   2.475
 3004  WAT   H112400   0.596   0.272   2.530
 3004  WAT   H212401   0.632   0.419   2.525
 3004  WAT  EPW12402   0.594   0.349   2.489
 3005  WAT    O12403   1.456   1.224   2.009
 3005  WAT   H112404   1.468   1.312   1.972
 3005  WAT   H212405   1.476   1.165   1.937
 3005  WAT  EPW12406   1.460   1.228   1.995
 3006  WAT    O12407   0.900   1.153   3.322
 3006  WAT   H112408   0.959   1.136   3.397
 3006  WAT   H212409   0.841   1.221   3.353
 3006  WAT  EPW12410   0.900   1.159   3.336
 3007  WAT    O12411   0.531   1.199   2.596
 3007  WAT   H112412   0.483   1.118   2.614
 3007  WAT   H212413   0.604   1.198   2.658
 3007  WAT  EPW12414   0.534   1.189   2.607
 3008  WAT    O12415   1.872   0.491   2.435
 3008  WAT   H112416   1.873   0.459   2.525
 3008  WAT   H212417   1.867   0.586   2.442
 3008  WAT  EPW12418   1.871   0.499   2.447
 3009  WAT    O12419   0.811   0.284   1.823
 3009  WAT   H112420   0.748   0.212   1.825
 3009  WAT   H212421   0.833   0.300   1.915
 3009  WAT  EPW12422   0.806   0.277   1.835
 3010  WAT    O12423   0.485   0.449   3.035
 3010  WAT   H112424   0.400   0.417   3.067
 3010  WAT   H212425   0.532   0.370   3.009
 3010  WAT  EPW12426   0.480   0.435   3.036
 3011  WAT    O12427   0.178   0.968   3.468
 3011  WAT   H112428   0.259   0.919   3.454
 3011  WAT   H212429   0.151   0.995   3.381
 3011  WAT  EPW12430   0.184   0.965   3.455
 3012  WAT    O12431   1.428   0.581   1.823
 3012  WAT   H112432   1.383   0.557   1.904
 3012  WAT   H212433   1.521   0.567   1.843
 3012  WAT  EPW12434   1.434   0.576   1.836
 3013  WAT    O12435   0.404   0.872   3.171
 3013  WAT   H112436   0.492   0.834   3.166
 3013  WAT   H212437   0.350   0.814   3.118
 3013  WAT  EPW12438   0.408   0.860   3.164
 3014  WAT    O12439   1.303   1.243   3.007
 3014  WAT   H112440   1.268   1.233   3.095
 3014  WAT   H212441   1.317   1.337   2.998
 3014  WAT  EPW12442   1.300   1.254   3.017
 3015  WAT    O12443   1.516   1.420   3.195
 3015  WAT   H112444   1.536   1.380   3.280
 3015  WAT   H212445   1.449   1.485   3.214
 3015  WAT  EPW12446   1.510   1.423   3.208
 3016  WAT    O12447   1.048   0.697   3.136
 3016  WAT   H112448   0.992   0.658   3.069
 3016  WAT   H212449   0.991   0.758   3.182
 3016  WAT  EPW12450   1.034   0.700   3.133
 3017  WAT    O12451   1.440   0.624   3.456
 3017  WAT   H112452   1.357   0.658   3.421
 3017  WAT   H212453   1.425   0.618   3.550
 3017  WAT  EPW12454   1.427   0.627   3.463
 3018  WAT    O12455   0.831   0.296   2.089
 3018  WAT   H112456   0.749   0.324   2.129
 3018  WAT   H212457   0.899   0.335   2.145
 3018  WAT  EPW12458   0.829   0.305   2.102
 3019  WAT    O12459   1.033   0.806   2.444
 3019  WAT   H112460   1.087   0.856   2.505
 3019  WAT   H212461   0.963   0.867   2.419
 3019  WAT  EPW12462   1.031   0.820   2.449
 3020  WAT    O12463   1.303   0.531   2.064
 3020  WAT   H112464   1.299   0.593   2.137
 3020  WAT   H212465   1.267   0.450   2.099
 3020  WAT  EPW12466   1.298   0.528   2.077
 3021  WAT    O12467   0.778   0.617   2.111
 3021  WAT   H112468   0.711   0.549   2.114
 3021  WAT   H212469   0.786   0.639   2.019
 3021  WAT  EPW12470   0.771   0.611   2.100
 3022  WAT    O12471   0.897   1.515   3.023
 3022  WAT   H112472   0.842   1.508   2.945
 3022  WAT   H212473   0.933   1.427   3.035
 3022  WAT  EPW12474   0.894   1.503   3.015
 3023  WAT    O12475   0.340   0.515   3.418
 3023  WAT   H112476   0.329   0.486   3.328
 3023  WAT   H212477   0.251   0.525   3.452
 3023  WAT  EPW12478   0.327   0.512   3.411
 3024  WAT    O12479   0.245   0.347   2.903
 3024  WAT   H112480   0.186   0.273   2.888
 3024  WAT   H212481   0.306   0.345   2.829
 3024  WAT  EPW12482   0.245   0.338   2.892
 3025  WAT    O12483   0.383   0.967   2.706
 3025  WAT   H112484   0.379   0.871   2.702
 3025  WAT   H212485   0.338   0.989   2.787
 3025  WAT  EPW12486   0.377   0.957   2.716
 3026  WAT    O12487   1.180   0.632   3.374
 3026  WAT   H112488   1.111   0.568   3.391
 3026  WAT   H212489   1.159   0.667   3.288
 3026  WAT  EPW12490   1.168   0.628   3.365
 3027  WAT    O12491   0.516   0.860   1.817
 3027  WAT   H112492   0.478   0.829   1.735
 3027  WAT   H212493   0.540   0.951   1.799
 3027  WAT  EPW12494   0.514   0.868   1.804
 3028  WAT    O12495   0.767   1.228   2.747
 3028  WAT   H112496   0.761   1.176   2.827
 3028  WAT   H212497   0.822   1.303   2.771
 3028  WAT  EPW12498   0.774   1.231   2.761
 3029  WAT    O12499   1.317   1.117   2.409
 3029  WAT   H112500   1.226   1.118   2.381
 3029  WAT   H212501   1.330   1.030   2.448
 3029  WAT  EPW12502   1.307   1.106   2.410
 3030  WAT    O12503   0.280   0.749   2.117
 3030  WAT   H112504   0.362   0.798   2.114
 3030  WAT   H212505   0.285   0.699   2.199
 3030  WAT  EPW12506   0.291   0.749   2.127
 3031  WAT    O12507   0.509   0.913   2.118
 3031  WAT   H112508   0.457   0.983   2.156
 3031  WAT   H212509   0.510   0.932   2.024
 3031  WAT  EPW12510   0.503   0.924   2.111
 3032  WAT    O12511   1.213   0.399   1.734
 3032  WAT   H112512   1.261   0.364   1.659
 3032  WAT   H212513   1.264   0.477   1.760
 3032  WAT  EPW12514   1.226   0.405   1.728
 3033  WAT    O12515   0.494   1.117   3.075
 3033  WAT   H112516   0.415   1.158   3.038
 3033  WAT   H212517   0.465   1.030   3.102
 3033  WAT  EPW12518   0.480   1.111   3.073
 3034  WAT    O12519   0.396   0.713   2.922
 3034  WAT   H112520   0.429   0.632   2.963
 3034  WAT   H212521   0.309   0.689   2.890
 3034  WAT  EPW12522   0.389   0.699   2.923
 3035  WAT    O12523   1.007   0.521   2.445
 3035  WAT   H112524   1.057   0.500   2.366
 3035  WAT   H212525   1.026   0.613   2.462
 3035  WAT  EPW12526   1.016   0.530   2.437
 3036  WAT    O12527   0.470   0.395   1.819
 3036  WAT   H112528   0.422   0.314   1.806
 3036  WAT   H212529   0.513   0.411   1.736
 3036  WAT  EPW12530   0.469   0.387   1.807
 3037  WAT    O12531   1.476   1.598   2.652
 3037  WAT   H112532   1.461   1.504   2.660
 3037  WAT   H212533   1.542   1.618   2.719
 3037  WAT  EPW12534   1.483   1.588   2.662
 3038  WAT    O12535   1.609   1.226   2.531
 3038  WAT   H112536   1.525   1.267   2.549
 3038  WAT   H212537   1.596   1.134   2.553
 3038  WAT  EPW12538   1.597   1.219   2.536
 3039  WAT    O12539   0.739   0.580   2.508
 3039  WAT   H112540   0.699   0.656   2.466
 3039  WAT   H212541   0.826   0.574   2.467
 3039  WAT  EPW12542   0.745   0.589   2.497
 3040  WAT    O12543   1.193   0.704   2.256
 3040  WAT   H112544   1.261   0.746   2.310
 3040  WAT   H212545   1.112   0.749   2.280
 3040  WAT  EPW12546   1.191   0.715   2.266
 3041  WAT    O12547   1.555   0.647   2.754
 3041  WAT   H112548   1.516   0.600   2.828
 3041  WAT   H212549   1.502   0.726   2.746
 3041  WAT  EPW12550   1.544   0.651   2.763
 3042  WAT    O12551   0.893   0.302   2.641
 3042  WAT   H112552   0.955   0.347   2.584
 3042  WAT   H212553   0.879   0.217   2.599
 3042  WAT  EPW12554   0.899   0.297   2.628
 3043  WAT    O12555   0.746   1.090   2.991
 3043  WAT   H112556   0.786   1.172   3.021
 3043  WAT   H212557   0.655   1.095   3.019
 3043  WAT  EPW12558   0.740   1.101   2.998
 3044  WAT    O12559   1.269   0.418   2.906
 3044  WAT   H112560   1.242   0.353   2.971
 3044  WAT   H212561   1.291   0.367   2.828
 3044  WAT  EPW12562   1.268   0.403   2.904
 3045  WAT    O12563   0.343   0.597   2.328
 3045  WAT   H112564   0.362   0.522   2.272
 3045  WAT   H212565   0.429   0.637   2.345
 3045  WAT  EPW12566   0.357   0.593   2.323
 3046  WAT    O12567   0.588   1.118   1.757
 3046  WAT   H112568   0.673   1.114   1.802
 3046  WAT   H212569   0.611   1.139   1.666
 3046  WAT  EPW12570   0.602   1.120   1.751
 3047  WAT    O12571   0.293   0.697   2.584
 3047  WAT   H112572   0.319   0.655   2.501
 3047  WAT   H212573   0.302   0.628   2.649
 3047  WAT  EPW12574   0.298   0.683   2.581
 3048  WAT    O12575   1.025   1.143   2.629
 3048  WAT   H112576   1.034   1.167   2.537
 3048  WAT   H212577   0.939   1.178   2.655
 3048  WAT  EPW12578   1.015   1.150   2.621
 3049  WAT    O12579   0.764   1.584   2.363
 3049  WAT   H112580   0.745   1.501   2.319
 3049  WAT   H212581   0.732   1.651   2.303
 3049  WAT  EPW12582   0.757   1.582   2.350
 3050  WAT    O12583   0.922   1.508   1.672
 3050  WAT   H112584   0.938   1.591   1.629
 3050  WAT   H212585   0.949   1.522   1.763
 3050  WAT  EPW12586   0.928   1.520   1.678
 3051  WAT    O12587   1.133   1.385   2.683
 3051  WAT   H112588   1.079   1.445   2.632
 3051  WAT   H212589   1.094   1.299   2.669
 3051  WAT  EPW12590   1.121   1.382   2.675
 3052  WAT    O12591   1.511   0.526   3.046
 3052  WAT   H112592   1.421   0.494   3.037
 3052  WAT   H212593   1.501   0.616   3.078
 3052  WAT  EPW12594   1.498   0.533   3.049
 3053  WAT    O12595   0.543   1.622   2.581
 3053  WAT   H112596   0.539   1.553   2.647
 3053  WAT   H212597   0.590   1.583   2.508
 3053  WAT  EPW12598   0.548   1.608   2.580
 3054  WAT    O12599   0.730   0.695   1.849
 3054  WAT   H112600   0.803   0.757   1.848
 3054  WAT   H212601   0.652   0.750   1.846
 3054  WAT  EPW12602   0.730   0.710   1.849
 3055  WAT    O12603   0.694   0.433   2.761
 3055  WAT   H112604   0.649   0.358   2.799
 3055  WAT   H212605   0.766   0.395   2.711
 3055  WAT  EPW12606   0.697   0.418   2.760
 3056  WAT    O12607   0.847   0.845   2.932
 3056  WAT   H112608   0.820   0.928   2.972
 3056  WAT   H212609   0.942   0.844   2.943
 3056  WAT  EPW12610   0.856   0.856   2.939
 3057  WAT    O12611   0.783   1.568   2.757
 3057  WAT   H112612   0.862   1.621   2.752
 3057  WAT   H212613   0.723   1.607   2.694
 3057  WAT  EPW12614   0.785   1.580   2.748
 3058  WAT    O12615   1.082   1.431   2.242
 3058  WAT   H112616   1.045   1.489   2.309
 3058  WAT   H212617   1.171   1.463   2.229
 3058  WAT  EPW12618   1.088   1.442   2.249
 3059  WAT    O12619   0.892   0.674   2.741
 3059  WAT   H112620   0.865   0.739   2.807
 3059  WAT   H212621   0.812   0.656   2.691
 3059  WAT  EPW12622   0.879   0.680   2.743
 3060  WAT    O12623   0.890   0.508   2.997
 3060  WAT   H112624   0.874   0.539   2.908
 3060  WAT   H212625   0.804   0.481   3.029
 3060  WAT  EPW12626   0.877   0.508   2.990
 3061  WAT    O12627   0.883   0.874   3.251
 3061  WAT   H112628   0.801   0.858   3.204
 3061  WAT   H212629   0.888   0.969   3.260
 3061  WAT  EPW12630   0.873   0.884   3.246
 3062  WAT    O12631   1.318   0.344   3.374
 3062  WAT   H112632   1.389   0.280   3.383
 3062  WAT   H212633   1.362   0.427   3.359
 3062  WAT  EPW12634   1.333   0.346   3.373
 3063  WAT    O12635   1.465   1.471   2.931
 3063  WAT   H112636   1.494   1.462   3.022
 3063  WAT   H212637   1.387   1.526   2.936
 3063  WAT  EPW12638   1.459   1.477   2.943
 3064  WAT    O12639   0.231   0.938   2.437
 3064  WAT   H112640   0.222   1.016   2.491
 3064  WAT   H212641   0.238   0.865   2.499
 3064  WAT  EPW12642   0.230   0.938   2.452
 3065  WAT    O12643   0.241   0.452   3.155
 3065  WAT   H112644   0.232   0.440   3.060
 3065  WAT   H212645   0.168   0.509   3.179
 3065  WAT  EPW12646   0.230   0.458   3.146
 3066  WAT    O12647   1.458   1.349   2.274
 3066  WAT   H112648   1.465   1.286   2.346
 3066  WAT   H212649   1.464   1.296   2.195
 3066  WAT  EPW12650   1.459   1.334   2.273
 3067  WAT    O12651   0.403   0.408   2.089
 3067  WAT   H112652   0.441   0.401   2.001
 3067  WAT   H212653   0.313   0.378   2.079
 3067  WAT  EPW12654   0.397   0.403   2.076
 3068  WAT    O12655   0.373   1.124   1.932
 3068  WAT   H112656   0.300   1.075   1.895
 3068  WAT   H212657   0.439   1.125   1.863
 3068  WAT  EPW12658   0.372   1.117   1.919
 3069  WAT    O12659   0.722   0.465   1.651
 3069  WAT   H112660   0.720   0.530   1.721
 3069  WAT   H212661   0.758   0.386   1.692
 3069  WAT  EPW12662   0.727   0.463   1.665
 3070  WAT    O12663   0.259   1.194   2.929
 3070  WAT   H112664   0.202   1.263   2.964
 3070  WAT   H212665   0.214   1.113   2.950
 3070  WAT  EPW12666   0.246   1.193   2.936
 3071  WAT    O12667   0.919   1.353   2.038
 3071  WAT   H112668   0.850   1.345   2.105
 3071  WAT   H212669   0.998   1.370   2.088
 3071  WAT  EPW12670   0.920   1.354   2.053
 3072  WAT    O12671   1.235   0.273   2.148
 3072  WAT   H112672   1.213   0.248   2.238
 3072  WAT   H212673   1.316   0.227   2.130
 3072  WAT  EPW12674   1.242   0.264   2.157
 3073  WAT    O12675   1.019   1.250   1.663
 3073  WAT   H112676   0.979   1.337   1.668
 3073  WAT   H212677   0.972   1.198   1.728
 3073  WAT  EPW12678   1.008   1.254   1.672
 3074  WAT    O12679   0.357   1.082   2.248
 3074  WAT   H112680   0.294   1.036   2.304
 3074  WAT   H212681   0.309   1.155   2.211
 3074  WAT  EPW12682   0.343   1.085   2.251
 3075  WAT    O12683   0.945   1.249   3.069
 3075  WAT   H112684   0.925   1.218   3.157
 3075  WAT   H212685   0.997   1.178   3.030
 3075  WAT  EPW12686   0.949   1.236   3.075
 3076  WAT    O12687   1.504   0.276   1.932
 3076  WAT   H112688   1.422   0.227   1.927
 3076  WAT   H212689   1.479   0.362   1.965
 3076  WAT  EPW12690   1.490   0.281   1.935
 3077  WAT    O12691   1.210   1.009   3.334
 3077  WAT   H112692   1.146   0.956   3.381
 3077  WAT   H212693   1.206   0.977   3.244
 3077  WAT  EPW12694   1.201   0.998   3.328
 3078  WAT    O12695   0.586   1.246   3.347
 3078  WAT   H112696   0.548   1.209   3.268
 3078  WAT   H212697   0.522   1.309   3.379
 3078  WAT  EPW12698   0.573   1.249   3.341
 3079  WAT    O12699   1.476   0.793   3.115
 3079  WAT   H112700   1.387   0.814   3.143
 3079  WAT   H212701   1.504   0.868   3.063
 3079  WAT  EPW12702   1.468   0.805   3.112
 3080  WAT    O12703   1.383   0.995   2.159
 3080  WAT   H112704   1.385   1.007   2.254
 3080  WAT   H212705   1.400   1.082   2.123
 3080  WAT  EPW12706   1.386   1.008   2.166
 3081  WAT    O12707   1.321   1.589   2.189
 3081  WAT   H112708   1.294   1.586   2.097
 3081  WAT   H212709   1.383   1.517   2.199
 3081  WAT  EPW12710   1.325   1.579   2.179
 3082  WAT    O12711   1.038   1.589   1.940
 3082  WAT   H112712   0.986   1.520   1.983
 3082  WAT   H212713   0.990   1.669   1.958
 3082  WAT  EPW12714   1.025   1.590   1.948
 3083  WAT    O12715   1.012   1.743   2.770
 3083  WAT   H112716   1.089   1.727   2.717
 3083  WAT   H212717   1.009   1.838   2.781
 3083  WAT  EPW12718   1.021   1.753   2.765
 3084  WAT    O12719   0.669   1.384   2.193
 3084  WAT   H112720   0.645   1.303   2.238
 3084  WAT   H212721   0.588   1.412   2.150
 3084  WAT  EPW12722   0.655   1.377   2.193
 3085  WAT    O12723   1.188   1.326   3.324
 3085  WAT   H112724   1.215   1.236   3.340
 3085  WAT   H212725   1.093   1.325   3.334
 3085  WAT  EPW12726   1.179   1.314   3.327
 3086  WAT    O12727   1.219   0.897   3.094
 3086  WAT   H112728   1.158   0.823   3.099
 3086  WAT   H212729   1.176   0.959   3.035
 3086  WAT  EPW12730   1.206   0.895   3.087
 3087  WAT    O12731   0.432   0.266   3.449
 3087  WAT   H112732   0.356   0.226   3.491
 3087  WAT   H212733   0.407   0.357   3.434
 3087  WAT  EPW12734   0.419   0.272   3.453
 3088  WAT    O12735   1.015   0.475   2.190
 3088  WAT   H112736   1.077   0.519   2.132
 3088  WAT   H212737   0.934   0.525   2.182
 3088  WAT  EPW12738   1.013   0.487   2.182
 3089  WAT    O12739   0.244   1.288   2.113
 3089  WAT   H112740   0.174   1.328   2.062
 3089  WAT   H212741   0.288   1.228   2.053
 3089  WAT  EPW12742   0.241   1.286   2.099
 3090  WAT    O12743   1.105   1.083   2.896
 3090  WAT   H112744   1.087   1.075   2.802
 3090  WAT   H212745   1.183   1.137   2.901
 3090  WAT  EPW12746   1.112   1.089   2.884
 3091  WAT    O12747   0.586   0.721   2.328
 3091  WAT   H112748   0.638   0.661   2.274
 3091  WAT   H212749   0.559   0.790   2.267
 3091  WAT  EPW12750   0.589   0.722   2.313
 3092  WAT    O12751   1.289   1.578   3.257
 3092  WAT   H112752   1.330   1.595   3.341
 3092  WAT   H212753   1.262   1.486   3.261
 3092  WAT  EPW12754   1.291   1.568   3.268
 3093  WAT    O12755   1.556   1.507   1.956
 3093  WAT   H112756   1.615   1.489   1.883
 3093  WAT   H212757   1.497   1.575   1.924
 3093  WAT  EPW12758   1.556   1.513   1.943
 3094  WAT    O12759   1.540   1.342   3.456
 3094  WAT   H112760   1.463   1.346   3.512
 3094  WAT   H212761   1.602   1.403   3.497
 3094  WAT  EPW12762   1.538   1.351   3.468
 3095  WAT    O12763   1.592   0.178   2.332
 3095  WAT   H112764   1.650   0.226   2.273
 3095  WAT   H212765   1.535   0.245   2.370
 3095  WAT  EPW12766   1.592   0.192   2.329
 3096  WAT    O12767   1.361   0.828   2.455
 3096  WAT   H112768   1.447   0.794   2.428
 3096  WAT   H212769   1.364   0.825   2.551
 3096  WAT  EPW12770   1.373   0.823   2.464
 3097  WAT    O12771   0.654   0.519   3.245
 3097  WAT   H112772   0.579   0.486   3.197
 3097  WAT   H212773   0.634   0.499   3.337
 3097  WAT  EPW12774   0.642   0.512   3.251
 3098  WAT    O12775   1.009   0.452   3.452
 3098  WAT   H112776   0.931   0.448   3.507
 3098  WAT   H212777   1.073   0.396   3.498
 3098  WAT  EPW12778   1.007   0.444   3.465
 3099  WAT    O12779   1.176   0.895   1.976
 3099  WAT   H112780   1.216   0.929   2.057
 3099  WAT   H212781   1.225   0.937   1.906
 3099  WAT  EPW12782   1.187   0.905   1.978
 3100  WAT    O12783   1.149   0.304   3.173
 3100  WAT   H112784   1.218   0.323   3.236
 3100  WAT   H212785   1.085   0.374   3.184
 3100  WAT  EPW12786   1.150   0.315   3.182
 3101  WAT    O12787   1.195   1.531   2.920
 3101  WAT   H112788   1.148   1.614   2.919
 3101  WAT   H212789   1.142   1.473   2.866
 3101  WAT  EPW12790   1.182   1.534   2.913
 3102  WAT    O12791   0.623   1.161   0.461
 3102  WAT   H112792   0.606   1.177   0.554
 3102  WAT   H212793   0.546   1.112   0.430
 3102  WAT  EPW12794   0.611   1.157   0.469
 3103  WAT    O12795   0.831   0.954   0.406
 3103  WAT   H112796   0.788   0.893   0.345
 3103  WAT   H212797   0.764   1.020   0.424
 3103  WAT  EPW12798   0.817   0.955   0.400
 3104  WAT    O12799   1.518   0.446   0.515
 3104  WAT   H112800   1.440   0.457   0.570
 3104  WAT   H212801   1.552   0.535   0.504
 3104  WAT  EPW12802   1.512   0.459   0.521
 3105  WAT    O12803   0.651   0.778   1.258
 3105  WAT   H112804   0.638   0.691   1.297
 3105  WAT   H212805   0.695   0.760   1.175
 3105  WAT  EPW12806   0.655   0.764   1.253
 3106  WAT    O12807   1.010   1.213   0.494
 3106  WAT   H112808   1.027   1.298   0.454
 3106  WAT   H212809   0.934   1.180   0.447
 3106  WAT  EPW12810   1.002   1.220   0.483
 3107  WAT    O12811   0.989   1.546   0.619
 3107  WAT   H112812   1.047   1.619   0.602
 3107  WAT   H212813   0.910   1.564   0.567
 3107  WAT  EPW12814   0.986   1.558   0.610
 3108  WAT    O12815   0.221   0.271   0.471
 3108  WAT   H112816   0.180   0.271   0.384
 3108  WAT   H212817   0.172   0.338   0.520
 3108  WAT  EPW12818   0.209   0.280   0.466
 3109  WAT    O12819   0.867   0.360   1.373
 3109  WAT   H112820   0.926   0.391   1.442
 3109  WAT   H212821   0.795   0.422   1.373
 3109  WAT  EPW12822   0.866   0.372   1.382
 3110  WAT    O12823   0.629   0.410   0.326
 3110  WAT   H112824   0.547   0.408   0.278
 3110  WAT   H212825   0.604   0.391   0.417
 3110  WAT  EPW12826   0.616   0.407   0.331
 3111  WAT    O12827   0.341   1.376   0.788
 3111  WAT   H112828   0.315   1.339   0.872
 3111  WAT   H212829   0.414   1.322   0.759
 3111  WAT  EPW12830   0.347   1.365   0.795
 3112  WAT    O12831   0.427   0.467   0.821
 3112  WAT   H112832   0.515   0.497   0.844
 3112  WAT   H212833   0.436   0.434   0.731
 3112  WAT  EPW12834   0.439   0.467   0.812
 3113  WAT    O12835   0.386   1.417   1.567
 3113  WAT   H112836   0.443   1.408   1.644
 3113  WAT   H212837   0.382   1.511   1.551
 3113  WAT  EPW12838   0.393   1.428   1.575
 3114  WAT    O12839   1.370   0.850   0.851
 3114  WAT   H112840   1.414   0.901   0.919
 3114  WAT   H212841   1.302   0.800   0.898
 3114  WAT  EPW12842   1.367   0.850   0.866
 3115  WAT    O12843   1.491   1.027   1.074
 3115  WAT   H112844   1.420   1.087   1.054
 3115  WAT   H212845   1.563   1.083   1.104
 3115  WAT  EPW12846   1.491   1.042   1.075
 3116  WAT    O12847   0.422   0.802   1.558
 3116  WAT   H112848   0.406   0.708   1.554
 3116  WAT   H212849   0.413   0.831   1.467
 3116  WAT  EPW12850   0.418   0.794   1.545
 3117  WAT    O12851   1.369   0.267   0.758
 3117  WAT   H112852   1.460   0.268   0.787
 3117  WAT   H212853   1.369   0.208   0.682
 3117  WAT  EPW12854   1.380   0.259   0.752
 3118  WAT    O12855   1.153   0.700   0.943
 3118  WAT   H112856   1.066   0.675   0.914
 3118  WAT   H212857   1.188   0.622   0.986
 3118  WAT  EPW12858   1.147   0.687   0.945
 3119  WAT    O12859   0.588   0.350   0.589
 3119  WAT   H112860   0.596   0.272   0.644
 3119  WAT   H212861   0.632   0.419   0.639
 3119  WAT  EPW12862   0.594   0.349   0.603
 3120  WAT    O12863   0.900   1.153   1.436
 3120  WAT   H112864   0.959   1.136   1.511
 3120  WAT   H212865   0.841   1.221   1.467
 3120  WAT  EPW12866   0.900   1.159   1.450
 3121  WAT    O12867   0.531   1.199   0.710
 3121  WAT   H112868   0.483   1.118   0.728
 3121  WAT   H212869   0.604   1.198   0.772
 3121  WAT  EPW12870   0.534   1.189   0.721
 3122  WAT    O12871   1.872   0.491   0.549
 3122  WAT   H112872   1.873   0.459   0.639
 3122  WAT   H212873   1.867   0.586   0.556
 3122  WAT  EPW12874   1.871   0.499   0.561
 3123  WAT    O12875   0.485   0.449   1.149
 3123  WAT   H112876   0.400   0.417   1.181
 3123  WAT   H212877   0.532   0.370   1.123
 3123  WAT  EPW12878   0.480   0.435   1.150
 3124  WAT    O12879   0.178   0.968   1.582
 3124  WAT   H112880   0.259   0.919   1.568
 3124  WAT   H212881   0.151   0.995   1.495
 3124  WAT  EPW12882   0.184   0.965   1.569
 3125  WAT    O12883   0.404   0.872   1.285
 3125  WAT   H112884   0.492   0.834   1.280
 3125  WAT   H212885   0.350   0.814   1.232
 3125  WAT  EPW12886   0.408   0.860   1.278
 3126  WAT    O12887   1.303   1.243   1.121
 3126  WAT   H112888   1.268   1.233   1.209
 3126  WAT   H212889   1.317   1.337   1.112
 3126  WAT  EPW12890   1.300   1.254   1.131
 3127  WAT    O12891   1.516   1.420   1.309
 3127  WAT   H112892   1.536   1.380   1.394
 3127  WAT   H212893   1.449   1.485   1.328
 3127  WAT  EPW12894   1.510   1.423   1.322
 3128  WAT    O12895   1.048   0.697   1.250
 3128  WAT   H112896   0.992   0.658   1.183
 3128  WAT   H212897   0.991   0.758   1.296
 3128  WAT  EPW12898   1.034   0.700   1.247
 3129  WAT    O12899   1.440   0.624   1.570
 3129  WAT   H112900   1.357   0.658   1.535
 3129  WAT   H212901   1.425   0.618   1.664
 3129  WAT  EPW12902   1.427   0.627   1.577
 3130  WAT    O12903   0.831   0.296   0.203
 3130  WAT   H112904   0.749   0.324   0.243
 3130  WAT   H212905   0.899   0.335   0.259
 3130  WAT  EPW12906   0.829   0.305   0.216
 3131  WAT    O12907   1.033   0.806   0.558
 3131  WAT   H112908   1.087   0.856   0.619
 3131  WAT   H212909   0.963   0.867   0.533
 3131  WAT  EPW12910   1.031   0.820   0.563
 3132  WAT    O12911   1.303   0.531   0.178
 3132  WAT   H112912   1.299   0.593   0.251
 3132  WAT   H212913   1.267   0.450   0.213
 3132  WAT  EPW12914   1.298   0.528   0.191
 3133  WAT    O12915   0.897   1.515   1.137
 3133  WAT   H112916   0.842   1.508   1.059
 3133  WAT   H212917   0.933   1.427   1.149
 3133  WAT  EPW12918   0.894   1.503   1.129
 3134  WAT    O12919   0.340   0.515   1.532
 3134  WAT   H112920   0.329   0.486   1.442
 3134  WAT   H212921   0.251   0.525   1.566
 3134  WAT  EPW12922   0.327   0.512   1.525
 3135  WAT    O12923   0.245   0.347   1.017
 3135  WAT   H112924   0.186   0.273   1.002
 3135  WAT   H212925   0.306   0.345   0.943
 3135  WAT  EPW12926   0.245   0.338   1.006
 3136  WAT    O12927   0.383   0.967   0.820
 3136  WAT   H112928   0.379   0.871   0.816
 3136  WAT   H212929   0.338   0.989   0.901
 3136  WAT  EPW12930   0.377   0.957   0.830
 3137  WAT    O12931   1.180   0.632   1.488
 3137  WAT   H112932   1.111   0.568   1.505
 3137  WAT   H212933   1.159   0.667   1.402
 3137  WAT  EPW12934   1.168   0.628   1.479
 3138  WAT    O12935   0.767   1.228   0.861
 3138  WAT   H112936   0.761   1.176   0.941
 3138  WAT   H212937   0.822   1.303   0.885
 3138  WAT  EPW12938   0.774   1.231   0.875
 3139  WAT    O12939   1.317   1.117   0.523
 3139  WAT   H112940   1.226   1.118   0.495
 3139  WAT   H212941   1.330   1.030   0.562
 3139  WAT  EPW12942   1.307   1.106   0.524
 3140  WAT    O12943   0.280   0.749   0.231
 3140  WAT   H112944   0.362   0.798   0.228
 3140  WAT   H212945   0.285   0.699   0.313
 3140  WAT  EPW12946   0.291   0.749   0.241
 3141  WAT    O12947   0.494   1.117   1.189
 3141  WAT   H112948   0.415   1.158   1.152
 3141  WAT   H212949   0.465   1.030   1.216
 3141  WAT  EPW12950   0.480   1.111   1.187
 3142  WAT    O12951   0.396   0.713   1.036
 3142  WAT   H112952   0.429   0.632   1.077
 3142  WAT   H212953   0.309   0.689   1.004
 3142  WAT  EPW12954   0.389   0.699   1.037
 3143  WAT    O12955   1.007   0.521   0.559
 3143  WAT   H112956   1.057   0.500   0.480
 3143  WAT   H212957   1.026   0.613   0.576
 3143  WAT  EPW12958   1.016   0.530   0.551
 3144  WAT    O12959   1.476   1.598   0.766
 3144  WAT   H112960   1.461   1.504   0.774
 3144  WAT   H212961   1.542   1.618   0.833
 3144  WAT  EPW12962   1.483   1.588   0.776
 3145  WAT    O12963   1.609   1.226   0.645
 3145  WAT   H112964   1.525   1.267   0.663
 3145  WAT   H212965   1.596   1.134   0.667
 3145  WAT  EPW12966   1.597   1.219   0.650
 3146  WAT    O12967   0.739   0.580   0.622
 3146  WAT   H112968   0.699   0.656   0.580
 3146  WAT   H212969   0.826   0.574   0.581
 3146  WAT  EPW12970   0.745   0.589   0.611
 3147  WAT    O12971   1.193   0.704   0.370
 3147  WAT   H112972   1.261   0.746   0.424
 3147  WAT   H212973   1.112   0.749   0.394
 3147  WAT  EPW12974   1.191   0.715   0.380
 3148  WAT    O12975   1.555   0.647   0.868
 3148  WAT   H112976   1.516   0.600   0.942
 3148  WAT   H212977   1.502   0.726   0.860
 3148  WAT  EPW12978   1.544   0.651   0.877
 3149  WAT    O12979   0.893   0.302   0.755
 3149  WAT   H112980   0.955   0.347   0.698
 3149  WAT   H212981   0.879   0.217   0.713
 3149  WAT  EPW12982   0.899   0.297   0.742
 3150  WAT    O12983   0.746   1.090   1.105
 3150  WAT   H112984   0.786   1.172   1.135
 3150  WAT   H212985   0.655   1.095   1.133
 3150  WAT  EPW12986   0.740   1.101   1.112
 3151  WAT    O12987   1.269   0.418   1.020
 3151  WAT   H112988   1.242   0.353   1.085
 3151  WAT   H212989   1.291   0.367   0.942
 3151  WAT  EPW12990   1.268   0.403   1.018
 3152  WAT    O12991   0.343   0.597   0.442
 3152  WAT   H112992   0.362   0.522   0.386
 3152  WAT   H212993   0.429   0.637   0.459
 3152  WAT  EPW12994   0.357   0.593   0.437
 3153  WAT    O12995   0.293   0.697   0.698
 3153  WAT   H112996   0.319   0.655   0.615
 3153  WAT   H212997   0.302   0.628   0.763
 3153  WAT  EPW12998   0.298   0.683   0.695
 3154  WAT    O12999   1.025   1.143   0.743
 3154  WAT   H113000   1.034   1.167   0.651
 3154  WAT   H213001   0.939   1.178   0.769
 3154  WAT  EPW13002   1.015   1.150   0.735
 3155  WAT    O13003   0.764   1.584   0.477
 3155  WAT   H113004   0.745   1.501   0.433
 3155  WAT   H213005   0.732   1.651   0.417
 3155  WAT  EPW13006   0.757   1.582   0.464
 3156  WAT    O13007   1.133   1.385   0.797
 3156  WAT   H113008   1.079   1.445   0.746
 3156  WAT   H213009   1.094   1.299   0.783
 3156  WAT  EPW13010   1.121   1.382   0.789
 3157  WAT    O13011   1.511   0.526   1.160
 3157  WAT   H113012   1.421   0.494   1.151
 3157  WAT   H213013   1.501   0.616   1.192
 3157  WAT  EPW13014   1.498   0.533   1.163
 3158  WAT    O13015   0.543   1.622   0.695
 3158  WAT   H113016   0.539   1.553   0.761
 3158  WAT   H213017   0.590   1.583   0.622
 3158  WAT  EPW13018   0.548   1.608   0.694
 3159  WAT    O13019   0.694   0.433   0.875
 3159  WAT   H113020   0.649   0.358   0.913
 3159  WAT   H213021   0.766   0.395   0.825
 3159  WAT  EPW13022   0.697   0.418   0.874
 3160  WAT    O13023   0.847   0.845   1.046
 3160  WAT   H113024   0.820   0.928   1.086
 3160  WAT   H213025   0.942   0.844   1.057
 3160  WAT  EPW13026   0.856   0.856   1.053
 3161  WAT    O13027   0.783   1.568   0.871
 3161  WAT   H113028   0.862   1.621   0.866
 3161  WAT   H213029   0.723   1.607   0.808
 3161  WAT  EPW13030   0.785   1.580   0.862
 3162  WAT    O13031   1.082   1.431   0.356
 3162  WAT   H113032   1.045   1.489   0.423
 3162  WAT   H213033   1.171   1.463   0.343
 3162  WAT  EPW13034   1.088   1.442   0.363
 3163  WAT    O13035   0.892   0.674   0.855
 3163  WAT   H113036   0.865   0.739   0.921
 3163  WAT   H213037   0.812   0.656   0.805
 3163  WAT  EPW13038   0.879   0.680   0.857
 3164  WAT    O13039   0.890   0.508   1.111
 3164  WAT   H113040   0.874   0.539   1.022
 3164  WAT   H213041   0.804   0.481   1.143
 3164  WAT  EPW13042   0.877   0.508   1.104
 3165  WAT    O13043   0.883   0.874   1.365
 3165  WAT   H113044   0.801   0.858   1.318
 3165  WAT   H213045   0.888   0.969   1.374
 3165  WAT  EPW13046   0.873   0.884   1.360
 3166  WAT    O13047   1.318   0.344   1.488
 3166  WAT   H113048   1.389   0.280   1.497
 3166  WAT   H213049   1.362   0.427   1.473
 3166  WAT  EPW13050   1.333   0.346   1.487
 3167  WAT    O13051   1.465   1.471   1.045
 3167  WAT   H113052   1.494   1.462   1.136
 3167  WAT   H213053   1.387   1.526   1.050
 3167  WAT  EPW13054   1.459   1.477   1.057
 3168  WAT    O13055   0.231   0.938   0.551
 3168  WAT   H113056   0.222   1.016   0.605
 3168  WAT   H213057   0.238   0.865   0.613
 3168  WAT  EPW13058   0.230   0.938   0.566
 3169  WAT    O13059   0.241   0.452   1.269
 3169  WAT   H113060   0.232   0.440   1.174
 3169  WAT   H213061   0.168   0.509   1.293
 3169  WAT  EPW13062   0.230   0.458   1.260
 3170  WAT    O13063   1.458   1.349   0.388
 3170  WAT   H113064   1.465   1.286   0.460
 3170  WAT   H213065   1.464   1.296   0.309
 3170  WAT  EPW13066   1.459   1.334   0.387
 3171  WAT    O13067   0.259   1.194   1.043
 3171  WAT   H113068   0.202   1.263   1.078
 3171  WAT   H213069   0.214   1.113   1.064
 3171  WAT  EPW13070   0.246   1.193   1.050
 3172  WAT    O13071   1.235   0.273   0.262
 3172  WAT   H113072   1.213   0.248   0.352
 3172  WAT   H213073   1.316   0.227   0.244
 3172  WAT  EPW13074   1.242   0.264   0.271
 3173  WAT    O13075   0.357   1.082   0.362
 3173  WAT   H113076   0.294   1.036   0.418
 3173  WAT   H213077   0.309   1.155   0.325
 3173  WAT  EPW13078   0.343   1.085   0.365
 3174  WAT    O13079   0.945   1.249   1.183
 3174  WAT   H113080   0.925   1.218   1.271
 3174  WAT   H213081   0.997   1.178   1.144
 3174  WAT  EPW13082   0.949   1.236   1.189
 3175  WAT    O13083   1.210   1.009   1.448
 3175  WAT   H113084   1.146   0.956   1.495
 3175  WAT   H213085   1.206   0.977   1.358
 3175  WAT  EPW13086   1.201   0.998   1.442
 3176  WAT    O13087   0.586   1.246   1.461
 3176  WAT   H113088   0.548   1.209   1.382
 3176  WAT   H213089   0.522   1.309   1.493
 3176  WAT  EPW13090   0.573   1.249   1.455
 3177  WAT    O13091   1.476   0.793   1.229
 3177  WAT   H113092   1.387   0.814   1.257
 3177  WAT   H213093   1.504   0.868   1.177
 3177  WAT  EPW13094   1.468   0.805   1.226
 3178  WAT    O13095   1.383   0.995   0.273
 3178  WAT   H113096   1.385   1.007   0.368
 3178  WAT   H213097   1.400   1.082   0.237
 3178  WAT  EPW13098   1.386   1.008   0.280
 3179  WAT    O13099   1.321   1.589   0.303
 3179  WAT   H113100   1.294   1.586   0.211
 3179  WAT   H213101   1.383   1.517   0.313
 3179  WAT  EPW13102   1.325   1.579   0.293
 3180  WAT    O13103   1.012   1.743   0.884
 3180  WAT   H113104   1.089   1.727   0.831
 3180  WAT   H213105   1.009   1.838   0.895
 3180  WAT  EPW13106   1.021   1.753   0.879
 3181  WAT    O13107   0.669   1.384   0.307
 3181  WAT   H113108   0.645   1.303   0.352
 3181  WAT   H213109   0.588   1.412   0.264
 3181  WAT  EPW13110   0.655   1.377   0.307
 3182  WAT    O13111   1.188   1.326   1.438
 3182  WAT   H113112   1.215   1.236   1.454
 3182  WAT   H213113   1.093   1.325   1.448
 3182  WAT  EPW13114   1.179   1.314   1.441
 3183  WAT    O13115   1.219   0.897   1.208
 3183  WAT   H113116   1.158   0.823   1.213
 3183  WAT   H213117   1.176   0.959   1.149
 3183  WAT  EPW13118   1.206   0.895   1.201
 3184  WAT    O13119   0.432   0.266   1.563
 3184  WAT   H113120   0.356   0.226   1.605
 3184  WAT   H213121   0.407   0.357   1.548
 3184  WAT  EPW13122   0.419   0.272   1.567
 3185  WAT    O13123   1.015   0.475   0.304
 3185  WAT   H113124   1.077   0.519   0.246
 3185  WAT   H213125   0.934   0.525   0.296
 3185  WAT  EPW13126   1.013   0.487   0.296
 3186  WAT    O13127   0.244   1.288   0.227
 3186  WAT   H113128   0.174   1.328   0.176
 3186  WAT   H213129   0.288   1.228   0.167
 3186  WAT  EPW13130   0.241   1.286   0.213
 3187  WAT    O13131   1.105   1.083   1.010
 3187  WAT   H113132   1.087   1.075   0.916
 3187  WAT   H213133   1.183   1.137   1.015
 3187  WAT  EPW13134   1.112   1.089   0.998
 3188  WAT    O13135   0.586   0.721   0.442
 3188  WAT   H113136   0.638   0.661   0.388
 3188  WAT   H213137   0.559   0.790   0.381
 3188  WAT  EPW13138   0.589   0.722   0.427
 3189  WAT    O13139   1.289   1.578   1.371
 3189  WAT   H113140   1.330   1.595   1.455
 3189  WAT   H213141   1.262   1.486   1.375
 3189  WAT  EPW13142   1.291   1.568   1.382
 3190  WAT    O13143   1.540   1.342   1.570
 3190  WAT   H113144   1.463   1.346   1.626
 3190  WAT   H213145   1.602   1.403   1.611
 3190  WAT  EPW13146   1.538   1.351   1.582
 3191  WAT    O13147   1.592   0.178   0.446
 3191  WAT   H113148   1.650   0.226   0.387
 3191  WAT   H213149   1.535   0.245   0.484
 3191  WAT  EPW13150   1.592   0.192   0.443
 3192  WAT    O13151   1.030   0.855   1.577
 3192  WAT   H113152   0.949   0.859   1.526
 3192  WAT   H213153   1.066   0.769   1.557
 3192  WAT  EPW13154   1.024   0.845   1.568
 3193  WAT    O13155   1.361   0.828   0.569
 3193  WAT   H113156   1.447   0.794   0.542
 3193  WAT   H213157   1.364   0.825   0.665
 3193  WAT  EPW13158   1.373   0.823   0.578
 3194  WAT    O13159   0.654   0.519   1.359
 3194  WAT   H113160   0.579   0.486   1.311
 3194  WAT   H213161   0.634   0.499   1.451
 3194  WAT  EPW13162   0.642   0.512   1.365
 3195  WAT    O13163   1.009   0.452   1.566
 3195  WAT   H113164   0.931   0.448   1.621
 3195  WAT   H213165   1.073   0.396   1.612
 3195  WAT  EPW13166   1.007   0.444   1.579
 3196  WAT    O13167   1.149   0.304   1.287
 3196  WAT   H113168   1.218   0.323   1.350
 3196  WAT   H213169   1.085   0.374   1.298
 3196  WAT  EPW13170   1.150   0.315   1.296
 3197  WAT    O13171   1.195   1.531   1.034
 3197  WAT   H113172   1.148   1.614   1.033
 3197  WAT   H213173   1.142   1.473   0.980
 3197  WAT  EPW13174   1.182   1.534   1.027
    5.14499     5.11199     5.21619
