exampleRNA-OH_solv_GMX.gro created by acpype (v: 2023.10.27) on Tue Apr  7 09:36:02 2026
19090
    1A5    HO5'    1   3.650   3.648   1.194
    1A5     O5'    2   3.650   3.737   1.158
    1A5     C5'    3   3.655   3.731   1.016
    1A5     H5'    4   3.577   3.683   0.985
    1A5    H5''    5   3.735   3.684   0.990
    1A5     C4'    6   3.654   3.869   0.955
    1A5     H4'    7   3.647   3.860   0.858
    1A5     O4'    8   3.540   3.943   1.003
    1A5     C1'    9   3.571   4.081   1.010
    1A5     H1'   10   3.514   4.129   0.948
    1A5      N9   11   3.546   4.130   1.147
    1A5      C8   12   3.526   4.055   1.260
    1A5      H8   13   3.529   3.962   1.261
    1A5      N7   14   3.502   4.126   1.368
    1A5      C5   15   3.506   4.257   1.322
    1A5      C6   16   3.488   4.380   1.388
    1A5      N6   17   3.462   4.390   1.518
    1A5     H61   18   3.450   4.468   1.553
    1A5     H62   19   3.459   4.320   1.567
    1A5      N1   20   3.498   4.493   1.315
    1A5      C2   21   3.523   4.482   1.183
    1A5      H2   22   3.529   4.563   1.137
    1A5      N3   23   3.542   4.372   1.110
    1A5      C4   24   3.532   4.261   1.186
    1A5     C3'   25   3.773   3.958   0.988
    1A5     H3'   26   3.797   3.947   1.081
    1A5     C2'   27   3.717   4.098   0.966
    1A5     H2'   28   3.763   4.163   1.021
    1A5     O2'   29   3.719   4.134   0.829
    1A5    HO2'   30   3.797   4.127   0.799
    1A5     O3'   31   3.887   3.930   0.908
    2G        P   32   4.033   3.968   0.963
    2G      OP1   33   4.133   3.923   0.862
    2G      OP2   34   4.044   3.923   1.104
    2G      O5'   35   4.035   4.127   0.961
    2G      C5'   36   4.054   4.198   0.839
    2G      H5'   37   3.988   4.167   0.776
    2G     H5''   38   4.142   4.176   0.806
    2G      C4'   39   4.040   4.346   0.859
    2G      H4'   40   4.040   4.389   0.772
    2G      O4'   41   3.915   4.375   0.925
    2G      C1'   42   3.928   4.489   1.006
    2G      H1'   43   3.868   4.558   0.973
    2G       N9   44   3.890   4.455   1.144
    2G       C8   45   3.872   4.331   1.199
    2G       H8   46   3.885   4.252   1.152
    2G       N7   47   3.836   4.336   1.324
    2G       C5   48   3.828   4.471   1.353
    2G       C6   49   3.794   4.539   1.472
    2G       O6   50   3.762   4.489   1.581
    2G       N1   51   3.799   4.677   1.456
    2G       H1   52   3.779   4.725   1.525
    2G       C2   53   3.833   4.743   1.341
    2G       N2   54   3.833   4.876   1.346
    2G      H21   55   3.812   4.915   1.419
    2G      H22   56   3.854   4.922   1.277
    2G       N3   57   3.866   4.680   1.229
    2G       C4   58   3.861   4.546   1.242
    2G      C3'   59   4.144   4.413   0.947
    2G      H3'   60   4.163   4.355   1.023
    2G      C2'   61   4.072   4.538   0.996
    2G      H2'   62   4.106   4.567   1.081
    2G      O2'   63   4.078   4.642   0.899
    2G     HO2'   64   4.158   4.658   0.879
    2G      O3'   65   4.265   4.440   0.879
    3C        P   66   4.402   4.456   0.962
    3C      OP1   67   4.512   4.479   0.865
    3C      OP2   68   4.409   4.345   1.060
    3C      O5'   69   4.381   4.592   1.043
    3C      C5'   70   4.398   4.717   0.979
    3C      H5'   71   4.340   4.721   0.902
    3C     H5''   72   4.490   4.723   0.948
    3C      C4'   73   4.367   4.832   1.072
    3C      H4'   74   4.365   4.913   1.020
    3C      O4'   75   4.237   4.812   1.134
    3C      C1'   76   4.235   4.873   1.262
    3C      H1'   77   4.171   4.945   1.260
    3C       N1   78   4.194   4.773   1.364
    3C       C6   79   4.195   4.640   1.333
    3C       H6   80   4.223   4.613   1.249
    3C       C5   81   4.157   4.547   1.422
    3C       H5   82   4.159   4.456   1.401
    3C       C4   83   4.115   4.591   1.551
    3C       N4   84   4.077   4.498   1.640
    3C      H41   85   4.081   4.415   1.618
    3C      H42   86   4.050   4.522   1.718
    3C       N3   87   4.113   4.720   1.582
    3C       C2   88   4.151   4.815   1.492
    3C       O2   89   4.148   4.935   1.523
    3C      C3'   90   4.461   4.851   1.190
    3C      H3'   91   4.482   4.764   1.228
    3C      C2'   92   4.375   4.931   1.288
    3C      H2'   93   4.403   4.916   1.379
    3C      O2'   94   4.374   5.069   1.254
    3C     HO2'   95   4.453   5.097   1.249
    3C      O3'   96   4.582   4.916   1.155
    4G        P   97   4.713   4.893   1.245
    4G      OP1   98   4.824   4.971   1.187
    4G      OP2   99   4.728   4.747   1.268
    4G      O5'  100   4.676   4.961   1.384
    4G      C5'  101   4.685   5.102   1.400
    4G      H5'  102   4.631   5.144   1.332
    4G     H5''  103   4.777   5.128   1.387
    4G      C4'  104   4.637   5.146   1.536
    4G      H4'  105   4.632   5.243   1.537
    4G      O4'  106   4.505   5.092   1.560
    4G      C1'  107   4.488   5.067   1.698
    4G      H1'  108   4.416   5.123   1.731
    4G       N9  109   4.450   4.926   1.717
    4G       C8  110   4.455   4.824   1.626
    4G       H8  111   4.485   4.834   1.539
    4G       N7  112   4.411   4.711   1.674
    4G       C5  113   4.376   4.741   1.805
    4G       C6  114   4.323   4.660   1.908
    4G       O6  115   4.296   4.539   1.902
    4G       N1  116   4.302   4.732   2.025
    4G       H1  117   4.270   4.689   2.092
    4G       C2  118   4.328   4.865   2.042
    4G       N2  119   4.302   4.916   2.163
    4G      H21  120   4.269   4.865   2.223
    4G      H22  121   4.317   4.999   2.179
    4G       N3  122   4.378   4.942   1.947
    4G       C4  123   4.399   4.874   1.833
    4G      C3'  124   4.719   5.099   1.655
    4G      H3'  125   4.746   5.007   1.641
    4G      C2'  126   4.618   5.104   1.769
    4G      H2'  127   4.639   5.040   1.838
    4G      O2'  128   4.605   5.236   1.821
    4G     HO2'  129   4.680   5.264   1.845
    4G      O3'  130   4.834   5.177   1.678
    5C        P  131   4.958   5.114   1.759
    5C      OP1  132   5.065   5.217   1.766
    5C      OP2  133   4.987   4.980   1.702
    5C      O5'  134   4.902   5.094   1.906
    5C      C5'  135   4.894   5.203   1.996
    5C      H5'  136   4.837   5.271   1.958
    5C     H5''  137   4.983   5.240   2.007
    5C      C4'  138   4.839   5.161   2.131
    5C      H4'  139   4.824   5.242   2.183
    5C      O4'  140   4.714   5.091   2.114
    5C      C1'  141   4.696   4.998   2.219
    5C      H1'  142   4.620   5.027   2.272
    5C       N1  143   4.667   4.864   2.163
    5C       C6  144   4.686   4.840   2.030
    5C       H6  145   4.719   4.908   1.976
    5C       C5  146   4.660   4.721   1.975
    5C       H5  147   4.673   4.705   1.885
    5C       C4  148   4.610   4.618   2.060
    5C       N4  149   4.584   4.499   2.006
    5C      H41  150   4.604   4.485   1.924
    5C      H42  151   4.548   4.436   2.054
    5C       N3  152   4.590   4.640   2.190
    5C       C2  153   4.617   4.761   2.246
    5C       O2  154   4.598   4.781   2.367
    5C      C3'  155   4.924   5.064   2.211
    5C      H3'  156   4.959   4.996   2.152
    5C      C2'  157   4.822   5.002   2.306
    5C      H2'  158   4.849   4.914   2.334
    5C      O2'  159   4.797   5.087   2.417
    5C     HO2'  160   4.869   5.105   2.456
    5C      O3'  161   5.032   5.126   2.278
    6U        P  162   5.163   5.040   2.311
    6U      OP1  163   5.260   5.128   2.382
    6U      OP2  164   5.203   4.968   2.187
    6U      O5'  165   5.112   4.932   2.416
    6U      C5'  166   5.095   4.967   2.553
    6U      H5'  167   5.034   5.041   2.558
    6U     H5''  168   5.181   4.995   2.587
    6U      C4'  169   5.042   4.852   2.634
    6U      H4'  170   5.021   4.884   2.723
    6U      O4'  171   4.920   4.801   2.575
    6U      C1'  172   4.906   4.664   2.607
    6U      H1'  173   4.829   4.654   2.665
    6U       N1  174   4.881   4.587   2.483
    6U       C6  175   4.906   4.636   2.357
    6U       H6  176   4.941   4.722   2.349
    6U       C5  177   4.882   4.565   2.246
    6U       H5  178   4.900   4.601   2.162
    6U       C4  179   4.828   4.432   2.259
    6U       O4  180   4.801   4.357   2.165
    6U       N3  181   4.805   4.389   2.388
    6U       H3  182   4.772   4.309   2.398
    6U       C2  183   4.829   4.460   2.502
    6U       O2  184   4.807   4.416   2.614
    6U      C3'  185   5.131   4.729   2.646
    6U      H3'  186   5.171   4.709   2.560
    6U      C2'  187   5.031   4.619   2.682
    6U      H2'  188   5.063   4.532   2.653
    6U      O2'  189   5.004   4.619   2.821
    6U     HO2'  190   4.942   4.565   2.837
    6U      O3'  191   5.234   4.744   2.741
    7U        P  192   5.370   4.661   2.724
    7U      OP1  193   5.449   4.676   2.849
    7U      OP2  194   5.429   4.698   2.593
    7U      O5'  195   5.322   4.510   2.716
    7U      C5'  196   5.298   4.435   2.834
    7U      H5'  197   5.231   4.481   2.886
    7U     H5''  198   5.380   4.432   2.885
    7U      C4'  199   5.249   4.295   2.805
    7U      H4'  200   5.223   4.254   2.888
    7U      O4'  201   5.133   4.301   2.719
    7U      C1'  202   5.128   4.186   2.637
    7U      H1'  203   5.047   4.137   2.657
    7U       N1  204   5.127   4.228   2.495
    7U       C6  205   5.182   4.347   2.454
    7U       H6  206   5.221   4.403   2.518
    7U       C5  207   5.183   4.386   2.326
    7U       H5  208   5.221   4.467   2.301
    7U       C4  209   5.124   4.300   2.227
    7U       O4  210   5.117   4.323   2.107
    7U       N3  211   5.070   4.182   2.275
    7U       H3  212   5.034   4.128   2.217
    7U       C2  213   5.068   4.140   2.406
    7U       O2  214   5.019   4.034   2.441
    7U      C3'  215   5.344   4.203   2.731
    7U      H3'  216   5.388   4.251   2.660
    7U      C2'  217   5.250   4.100   2.670
    7U      H2'  218   5.288   4.059   2.591
    7U      O2'  219   5.212   4.002   2.766
    7U     HO2'  220   5.138   3.969   2.745
    7U      O3'  221   5.443   4.145   2.814
    8U        P  222   5.585   4.103   2.752
    8U      OP1  223   5.692   4.178   2.822
    8U      OP2  224   5.572   4.113   2.605
    8U      O5'  225   5.598   3.947   2.786
    8U      C5'  226   5.526   3.850   2.711
    8U      H5'  227   5.563   3.844   2.622
    8U     H5''  228   5.434   3.878   2.706
    8U      C4'  229   5.532   3.714   2.776
    8U      H4'  230   5.620   3.676   2.762
    8U      O4'  231   5.510   3.729   2.919
    8U      C1'  232   5.393   3.659   2.957
    8U      H1'  233   5.418   3.573   2.993
    8U       N1  234   5.325   3.738   3.060
    8U       C6  235   5.326   3.876   3.054
    8U       H6  236   5.369   3.917   2.982
    8U       C5  237   5.266   3.953   3.146
    8U       H5  238   5.268   4.046   3.138
    8U       C4  239   5.200   3.890   3.257
    8U       O4  240   5.142   3.948   3.348
    8U       N3  241   5.204   3.752   3.258
    8U       H3  242   5.165   3.711   3.324
    8U       C2  243   5.265   3.671   3.165
    8U       O2  244   5.264   3.549   3.173
    8U      C3'  245   5.425   3.616   2.728
    8U      H3'  246   5.397   3.636   2.637
    8U      C2'  247   5.313   3.639   2.828
    8U      H2'  248   5.266   3.721   2.806
    8U      O2'  249   5.221   3.533   2.839
    8U     HO2'  250   5.178   3.526   2.767
    8U      O3'  251   5.473   3.482   2.740
    9C        P  252   5.552   3.413   2.619
    9C      OP1  253   5.559   3.267   2.647
    9C      OP2  254   5.678   3.489   2.594
    9C      O5'  255   5.456   3.436   2.494
    9C      C5'  256   5.328   3.376   2.489
    9C      H5'  257   5.281   3.394   2.573
    9C     H5''  258   5.339   3.280   2.480
    9C      C4'  259   5.245   3.428   2.374
    9C      H4'  260   5.156   3.391   2.382
    9C      O4'  261   5.237   3.573   2.383
    9C      C1'  262   5.274   3.629   2.259
    9C      H1'  263   5.195   3.636   2.202
    9C       N1  264   5.332   3.763   2.279
    9C       C6  265   5.453   3.785   2.339
    9C       H6  266   5.503   3.712   2.370
    9C       C5  267   5.502   3.909   2.353
    9C       H5  268   5.584   3.925   2.393
    9C       C4  269   5.423   4.017   2.303
    9C       N4  270   5.466   4.143   2.314
    9C      H41  271   5.419   4.208   2.284
    9C      H42  272   5.542   4.158   2.352
    9C       N3  273   5.305   3.997   2.245
    9C       C2  274   5.257   3.871   2.230
    9C       O2  275   5.147   3.851   2.176
    9C      C3'  276   5.300   3.397   2.235
    9C      H3'  277   5.362   3.324   2.235
    9C      C2'  278   5.368   3.528   2.196
    9C      H2'  279   5.455   3.533   2.238
    9C      O2'  280   5.382   3.548   2.056
    9C     HO2'  281   5.307   3.543   2.019
    9C      O3'  282   5.191   3.373   2.146
   10G        P  283   5.141   3.222   2.122
   10G      OP1  284   5.261   3.134   2.124
   10G      OP2  285   5.049   3.221   2.004
   10G      O5'  286   5.052   3.190   2.250
   10G      C5'  287   4.923   3.246   2.266
   10G      H5'  288   4.867   3.217   2.192
   10G     H5''  289   4.931   3.343   2.263
   10G      C4'  290   4.863   3.204   2.398
   10G      H4'  291   4.859   3.107   2.400
   10G      O4'  292   4.945   3.252   2.507
   10G      C1'  293   4.866   3.276   2.620
   10G      H1'  294   4.892   3.214   2.690
   10G       N9  295   4.889   3.413   2.670
   10G       C8  296   4.890   3.451   2.802
   10G       H8  297   4.876   3.391   2.872
   10G       N7  298   4.913   3.578   2.819
   10G       C5  299   4.928   3.627   2.690
   10G       C6  300   4.954   3.760   2.646
   10G       O6  301   4.970   3.862   2.715
   10G       N1  302   4.962   3.766   2.508
   10G       H1  303   4.977   3.843   2.473
   10G       C2  304   4.945   3.659   2.423
   10G       N2  305   4.957   3.687   2.293
   10G      H21  306   4.939   3.627   2.235
   10G      H22  307   4.983   3.765   2.269
   10G       N3  308   4.921   3.535   2.463
   10G       C4  309   4.913   3.527   2.597
   10G      C3'  310   4.724   3.260   2.430
   10G      H3'  311   4.720   3.353   2.402
   10G      C2'  312   4.720   3.251   2.582
   10G      H2'  313   4.662   3.318   2.620
   10G      O2'  314   4.684   3.120   2.625
   10G     HO2'  315   4.614   3.096   2.585
   10G      O3'  316   4.620   3.188   2.366
   11A        P  317   4.503   3.265   2.287
   11A      OP1  318   4.386   3.174   2.281
   11A      OP2  319   4.560   3.322   2.162
   11A      O5'  320   4.464   3.386   2.384
   11A      C5'  321   4.397   3.361   2.507
   11A      H5'  322   4.435   3.282   2.546
   11A     H5''  323   4.304   3.346   2.489
   11A      C4'  324   4.415   3.477   2.603
   11A      H4'  325   4.409   3.443   2.693
   11A      O4'  326   4.547   3.534   2.585
   11A      C1'  327   4.543   3.673   2.611
   11A      H1'  328   4.603   3.694   2.684
   11A       N9  329   4.587   3.746   2.490
   11A       C8  330   4.593   3.700   2.361
   11A       H8  331   4.569   3.613   2.336
   11A       N7  332   4.636   3.790   2.276
   11A       C5  333   4.660   3.902   2.356
   11A       C6  334   4.707   4.031   2.326
   11A       N6  335   4.740   4.070   2.203
   11A      H61  336   4.769   4.150   2.191
   11A      H62  337   4.733   4.015   2.137
   11A       N1  338   4.719   4.119   2.428
   11A       C2  339   4.686   4.080   2.552
   11A       H2  340   4.696   4.144   2.619
   11A       N3  341   4.640   3.961   2.592
   11A       C4  342   4.629   3.876   2.488
   11A      C3'  343   4.322   3.595   2.586
   11A      H3'  344   4.311   3.613   2.491
   11A      C2'  345   4.400   3.709   2.650
   11A      H2'  346   4.373   3.795   2.614
   11A      O2'  347   4.390   3.704   2.792
   11A     HO2'  348   4.310   3.714   2.815
   11A      O3'  349   4.194   3.575   2.643
   12G        P  350   4.070   3.665   2.593
   12G      OP1  351   3.949   3.621   2.666
   12G      OP2  352   4.072   3.667   2.444
   12G      O5'  353   4.105   3.812   2.644
   12G      C5'  354   4.083   3.848   2.780
   12G      H5'  355   4.129   3.784   2.836
   12G     H5''  356   3.988   3.843   2.798
   12G      C4'  357   4.135   3.986   2.810
   12G      H4'  358   4.143   3.997   2.906
   12G      O4'  359   4.267   4.002   2.752
   12G      C1'  360   4.288   4.136   2.714
   12G      H1'  361   4.361   4.173   2.767
   12G       N9  362   4.324   4.141   2.572
   12G       C8  363   4.316   4.042   2.478
   12G       H8  364   4.283   3.956   2.496
   12G       N7  365   4.358   4.080   2.360
   12G       C5  366   4.397   4.212   2.379
   12G       C6  367   4.451   4.307   2.289
   12G       O6  368   4.476   4.291   2.169
   12G       N1  369   4.475   4.429   2.351
   12G       H1  370   4.509   4.492   2.303
   12G       C2  371   4.452   4.458   2.483
   12G       N2  372   4.481   4.581   2.524
   12G      H21  373   4.513   4.637   2.468
   12G      H22  374   4.468   4.605   2.606
   12G       N3  375   4.401   4.370   2.568
   12G       C4  376   4.376   4.251   2.510
   12G      C3'  377   4.056   4.102   2.753
   12G      H3'  378   4.026   4.080   2.663
   12G      C2'  379   4.160   4.214   2.745
   12G      H2'  380   4.138   4.276   2.674
   12G      O2'  381   4.175   4.279   2.870
   12G     HO2'  382   4.102   4.312   2.894
   12G      O3'  383   3.943   4.136   2.831
   13C        P  384   3.818   4.212   2.764
   13C      OP1  385   3.713   4.229   2.868
   13C      OP2  386   3.787   4.144   2.636
   13C      O5'  387   3.875   4.357   2.730
   13C      C5'  388   3.887   4.455   2.832
   13C      H5'  389   3.941   4.419   2.904
   13C     H5''  390   3.798   4.474   2.867
   13C      C4'  391   3.950   4.582   2.780
   13C      H4'  392   3.973   4.637   2.856
   13C      O4'  393   4.071   4.550   2.706
   13C      C1'  394   4.093   4.648   2.606
   13C      H1'  395   4.173   4.697   2.629
   13C       N1  396   4.112   4.583   2.474
   13C       C6  397   4.075   4.452   2.457
   13C       H6  398   4.036   4.406   2.528
   13C       C5  399   4.092   4.390   2.339
   13C       H5  400   4.066   4.301   2.327
   13C       C4  401   4.152   4.462   2.233
   13C       N4  402   4.169   4.400   2.116
   13C      H41  403   4.146   4.318   2.108
   13C      H42  404   4.205   4.442   2.049
   13C       N3  405   4.190   4.589   2.249
   13C       C2  406   4.172   4.653   2.368
   13C       O2  407   4.208   4.771   2.382
   13C      C3'  408   3.868   4.663   2.682
   13C      H3'  409   3.824   4.603   2.620
   13C      C2'  410   3.974   4.745   2.608
   13C      H2'  411   3.945   4.767   2.519
   13C      O2'  412   4.010   4.860   2.683
   13C     HO2'  413   3.941   4.906   2.699
   13C      O3'  414   3.769   4.743   2.745
   14G        P  415   3.638   4.787   2.663
   14G      OP1  416   3.553   4.870   2.752
   14G      OP2  417   3.581   4.667   2.597
   14G      O5'  418   3.694   4.885   2.551
   14G      C5'  419   3.723   5.020   2.581
   14G      H5'  420   3.784   5.022   2.656
   14G     H5''  421   3.641   5.064   2.607
   14G      C4'  422   3.785   5.091   2.464
   14G      H4'  423   3.819   5.177   2.494
   14G      O4'  424   3.896   5.013   2.413
   14G      C1'  425   3.910   5.033   2.275
   14G      H1'  426   3.995   5.077   2.259
   14G       N9  427   3.910   4.903   2.206
   14G       C8  428   3.874   4.780   2.255
   14G       H8  429   3.843   4.767   2.342
   14G       N7  430   3.888   4.685   2.168
   14G       C5  431   3.937   4.749   2.055
   14G       C6  432   3.972   4.698   1.927
   14G       O6  433   3.966   4.581   1.888
   14G       N1  434   4.018   4.799   1.842
   14G       H1  435   4.041   4.776   1.763
   14G       C2  436   4.028   4.931   1.875
   14G       N2  437   4.073   5.013   1.779
   14G      H21  438   4.096   4.979   1.704
   14G      H22  439   4.079   5.097   1.793
   14G       N3  440   3.995   4.980   1.994
   14G       C4  441   3.951   4.884   2.077
   14G      C3'  442   3.696   5.112   2.342
   14G      H3'  443   3.642   5.032   2.328
   14G      C2'  444   3.797   5.125   2.228
   14G      H2'  445   3.760   5.094   2.145
   14G      O2'  446   3.847   5.257   2.218
   14G     HO2'  447   3.784   5.310   2.208
   14G      O3'  448   3.611   5.224   2.355
   15C        P  449   3.476   5.232   2.267
   15C      OP1  450   3.407   5.359   2.302
   15C      OP2  451   3.404   5.103   2.280
   15C      O5'  452   3.528   5.246   2.118
   15C      C5'  453   3.572   5.372   2.068
   15C      H5'  454   3.641   5.406   2.126
   15C     H5''  455   3.498   5.433   2.070
   15C      C4'  456   3.626   5.360   1.928
   15C      H4'  457   3.672   5.443   1.906
   15C      O4'  458   3.719   5.250   1.918
   15C      C1'  459   3.719   5.199   1.787
   15C      H1'  460   3.805   5.221   1.747
   15C       N1  461   3.705   5.051   1.789
   15C       C6  462   3.664   4.988   1.904
   15C       H6  463   3.643   5.040   1.979
   15C       C5  464   3.652   4.855   1.910
   15C       H5  465   3.623   4.813   1.988
   15C       C4  466   3.684   4.779   1.795
   15C       N4  467   3.673   4.646   1.800
   15C      H41  468   3.644   4.610   1.872
   15C      H42  469   3.693   4.598   1.732
   15C       N3  470   3.725   4.839   1.683
   15C       C2  471   3.738   4.974   1.676
   15C       O2  472   3.777   5.029   1.572
   15C      C3'  473   3.523   5.330   1.819
   15C      H3'  474   3.461   5.264   1.852
   15C      C2'  475   3.609   5.270   1.708
   15C      H2'  476   3.558   5.208   1.654
   15C      O2'  477   3.669   5.371   1.628
   15C     HO2'  478   3.610   5.425   1.603
   15C      O3'  479   3.451   5.445   1.779
   16U3       P  480   3.307   5.428   1.711
   16U3     OP1  481   3.258   5.562   1.670
   16U3     OP2  482   3.223   5.342   1.798
   16U3     O5'  483   3.338   5.348   1.577
   16U3     C5'  484   3.385   5.417   1.462
   16U3     H5'  485   3.467   5.463   1.484
   16U3    H5''  486   3.318   5.482   1.437
   16U3     C4'  487   3.410   5.323   1.347
   16U3     H4'  488   3.453   5.373   1.276
   16U3     O4'  489   3.499   5.216   1.388
   16U3     C1'  490   3.474   5.101   1.310
   16U3     H1'  491   3.551   5.085   1.254
   16U3      N1  492   3.454   4.984   1.398
   16U3      C6  493   3.417   4.999   1.530
   16U3      H6  494   3.405   5.085   1.564
   16U3      C5  495   3.399   4.894   1.611
   16U3      H5  496   3.374   4.907   1.699
   16U3      C4  497   3.418   4.762   1.559
   16U3      O4  498   3.403   4.658   1.624
   16U3      N3  499   3.454   4.754   1.426
   16U3      H3  500   3.467   4.675   1.392
   16U3      C2  501   3.474   4.860   1.341
   16U3      O2  502   3.507   4.846   1.225
   16U3     C3'  503   3.290   5.250   1.292
   16U3     H3'  504   3.234   5.218   1.365
   16U3     C2'  505   3.353   5.130   1.221
   16U3     H2'  506   3.293   5.055   1.219
   16U3     O2'  507   3.398   5.164   1.092
   16U3    HO2'  508   3.333   5.192   1.046
   16U3     O3'  509   3.211   5.330   1.206
   16U3    HO3'  510   3.136   5.279   1.174
   17SOL     OW  511   1.736   0.839   0.257
   17SOL    HW1  512   1.777   0.781   0.322
   17SOL    HW2  513   1.643   0.831   0.274
   17SOL     MW  514   1.730   0.831   0.267
   18SOL     OW  515   1.602   0.771   1.252
   18SOL    HW1  516   1.557   0.838   1.303
   18SOL    HW2  517   1.690   0.807   1.238
   18SOL     MW  518   1.608   0.784   1.256
   19SOL     OW  519   0.530   1.022   0.486
   19SOL    HW1  520   0.620   0.997   0.470
   19SOL    HW2  521   0.526   1.115   0.463
   19SOL     MW  522   0.542   1.031   0.481
   20SOL     OW  523   1.646   1.725   0.628
   20SOL    HW1  524   1.658   1.671   0.706
   20SOL    HW2  525   1.683   1.673   0.557
   20SOL     MW  526   1.652   1.710   0.629
   21SOL     OW  527   1.025   1.610   1.629
   21SOL    HW1  528   1.066   1.646   1.550
   21SOL    HW2  529   1.060   1.521   1.636
   21SOL     MW  530   1.036   1.603   1.620
   22SOL     OW  531   1.582   1.165   1.233
   22SOL    HW1  532   1.503   1.130   1.191
   22SOL    HW2  533   1.609   1.237   1.177
   22SOL     MW  534   1.575   1.170   1.220
   23SOL     OW  535   0.814   0.478   0.499
   23SOL    HW1  536   0.789   0.566   0.527
   23SOL    HW2  537   0.811   0.481   0.403
   23SOL     MW  538   0.810   0.490   0.491
   24SOL     OW  539   0.256   0.506   0.427
   24SOL    HW1  540   0.288   0.594   0.409
   24SOL    HW2  541   0.244   0.504   0.522
   24SOL     MW  542   0.259   0.518   0.439
   25SOL     OW  543   0.334   0.919   1.328
   25SOL    HW1  544   0.397   0.866   1.279
   25SOL    HW2  545   0.315   0.993   1.271
   25SOL     MW  546   0.340   0.921   1.315
   26SOL     OW  547   0.655   0.261   0.514
   26SOL    HW1  548   0.713   0.337   0.516
   26SOL    HW2  549   0.590   0.282   0.447
   26SOL     MW  550   0.654   0.273   0.505
   27SOL     OW  551   0.742   1.188   0.689
   27SOL    HW1  552   0.822   1.191   0.741
   27SOL    HW2  553   0.770   1.155   0.603
   27SOL     MW  554   0.756   1.184   0.684
   28SOL     OW  555   0.767   1.529   1.592
   28SOL    HW1  556   0.851   1.555   1.631
   28SOL    HW2  557   0.791   1.473   1.518
   28SOL     MW  558   0.781   1.525   1.587
   29SOL     OW  559   0.519   0.692   0.680
   29SOL    HW1  560   0.504   0.612   0.731
   29SOL    HW2  561   0.601   0.727   0.714
   29SOL     MW  562   0.527   0.684   0.692
   30SOL     OW  563   0.856   1.378   1.365
   30SOL    HW1  564   0.820   1.444   1.305
   30SOL    HW2  565   0.784   1.316   1.378
   30SOL     MW  566   0.842   1.378   1.359
   31SOL     OW  567   0.661   0.518   1.057
   31SOL    HW1  568   0.567   0.514   1.075
   31SOL    HW2  569   0.691   0.427   1.066
   31SOL     MW  570   0.652   0.506   1.060
   32SOL     OW  571   0.407   0.932   0.961
   32SOL    HW1  572   0.362   0.939   0.877
   32SOL    HW2  573   0.387   1.015   1.005
   32SOL     MW  574   0.399   0.944   0.955
   33SOL     OW  575   0.104   1.778   0.836
   33SOL    HW1  576   0.193   1.770   0.871
   33SOL    HW2  577   0.068   1.690   0.841
   33SOL     MW  578   0.111   1.765   0.841
   34SOL     OW  579   1.369   1.170   0.205
   34SOL    HW1  580   1.287   1.206   0.171
   34SOL    HW2  581   1.437   1.213   0.154
   34SOL     MW  582   1.367   1.180   0.193
   35SOL     OW  583   0.368   1.305   0.871
   35SOL    HW1  584   0.344   1.358   0.947
   35SOL    HW2  585   0.424   1.363   0.819
   35SOL     MW  586   0.372   1.320   0.874
   36SOL     OW  587   0.930   0.949   0.681
   36SOL    HW1  588   0.844   0.936   0.721
   36SOL    HW2  589   0.983   0.876   0.713
   36SOL     MW  590   0.926   0.938   0.690
   37SOL     OW  591   0.338   1.601   1.466
   37SOL    HW1  592   0.246   1.577   1.451
   37SOL    HW2  593   0.382   1.518   1.483
   37SOL     MW  594   0.332   1.586   1.465
   38SOL     OW  595   0.921   1.311   0.398
   38SOL    HW1  596   0.898   1.373   0.466
   38SOL    HW2  597   0.878   1.229   0.424
   38SOL     MW  598   0.913   1.307   0.409
   39SOL     OW  599   1.794   0.312   0.854
   39SOL    HW1  600   1.731   0.292   0.923
   39SOL    HW2  601   1.784   0.241   0.791
   39SOL     MW  602   1.784   0.299   0.855
   40SOL     OW  603   0.418   0.284   0.366
   40SOL    HW1  604   0.392   0.246   0.282
   40SOL    HW2  605   0.355   0.354   0.382
   40SOL     MW  606   0.407   0.287   0.357
   41SOL     OW  607   0.253   1.245   0.403
   41SOL    HW1  608   0.201   1.313   0.359
   41SOL    HW2  609   0.250   1.171   0.343
   41SOL     MW  610   0.245   1.244   0.390
   42SOL     OW  611   0.915   1.708   0.181
   42SOL    HW1  612   0.870   1.724   0.264
   42SOL    HW2  613   0.846   1.673   0.123
   42SOL     MW  614   0.901   1.705   0.183
   43SOL     OW  615   1.850   0.481   0.156
   43SOL    HW1  616   1.759   0.483   0.184
   43SOL    HW2  617   1.895   0.543   0.214
   43SOL     MW  618   1.843   0.489   0.166
   44SOL     OW  619   1.595   1.084   0.506
   44SOL    HW1  620   1.505   1.084   0.541
   44SOL    HW2  621   1.588   1.130   0.423
   44SOL     MW  622   1.582   1.090   0.500
   45SOL     OW  623   1.395   0.719   1.578
   45SOL    HW1  624   1.464   0.657   1.555
   45SOL    HW2  625   1.320   0.693   1.525
   45SOL     MW  626   1.395   0.706   1.569
   46SOL     OW  627   0.136   1.599   1.130
   46SOL    HW1  628   0.119   1.545   1.207
   46SOL    HW2  629   0.124   1.689   1.160
   46SOL     MW  630   0.133   1.603   1.144
   47SOL     OW  631   1.131   1.106   1.570
   47SOL    HW1  632   1.116   1.199   1.555
   47SOL    HW2  633   1.226   1.096   1.570
   47SOL     MW  634   1.140   1.116   1.567
   48SOL     OW  635   0.927   0.530   1.771
   48SOL    HW1  636   1.017   0.531   1.738
   48SOL    HW2  637   0.886   0.455   1.729
   48SOL     MW  638   0.933   0.520   1.762
   49SOL     OW  639   1.502   1.062   0.898
   49SOL    HW1  640   1.505   0.996   0.829
   49SOL    HW2  641   1.587   1.105   0.894
   49SOL     MW  642   1.514   1.058   0.889
   50SOL     OW  643   1.122   0.665   0.467
   50SOL    HW1  644   1.148   0.689   0.378
   50SOL    HW2  645   1.104   0.572   0.463
   50SOL     MW  646   1.124   0.657   0.454
   51SOL     OW  647   1.787   1.285   0.318
   51SOL    HW1  648   1.743   1.326   0.393
   51SOL    HW2  649   1.844   1.353   0.283
   51SOL     MW  650   1.789   1.299   0.323
   52SOL     OW  651   0.707   0.334   1.721
   52SOL    HW1  652   0.717   0.260   1.661
   52SOL    HW2  653   0.743   0.303   1.804
   52SOL     MW  654   0.713   0.320   1.723
   53SOL     OW  655   0.443   1.701   0.636
   53SOL    HW1  656   0.475   1.789   0.614
   53SOL    HW2  657   0.396   1.673   0.558
   53SOL     MW  658   0.442   1.709   0.623
   54SOL     OW  659   1.827   0.063   0.685
   54SOL    HW1  660   1.881   0.014   0.747
   54SOL    HW2  661   1.770  -0.003   0.646
   54SOL     MW  662   1.827   0.047   0.687
   55SOL     OW  663   0.159   1.761   0.213
   55SOL    HW1  664   0.188   1.851   0.205
   55SOL    HW2  665   0.109   1.744   0.134
   55SOL     MW  666   0.157   1.769   0.202
   56SOL     OW  667   0.946   0.016   1.098
   56SOL    HW1  668   0.905   0.094   1.060
   56SOL    HW2  669   1.040   0.034   1.093
   56SOL     MW  670   0.952   0.028   1.093
   57SOL     OW  671   1.563   1.569   0.184
   57SOL    HW1  672   1.611   1.638   0.230
   57SOL    HW2  673   1.484   1.613   0.153
   57SOL     MW  674   1.558   1.583   0.187
   58SOL     OW  675   0.961   0.694   0.128
   58SOL    HW1  676   0.963   0.641   0.049
   58SOL    HW2  677   1.049   0.731   0.134
   58SOL     MW  678   0.973   0.693   0.117
   59SOL     OW  679   1.575   0.620   0.464
   59SOL    HW1  680   1.614   0.620   0.551
   59SOL    HW2  681   1.516   0.696   0.464
   59SOL     MW  682   1.572   0.631   0.475
   60SOL     OW  683   0.892   0.987   1.593
   60SOL    HW1  684   0.869   0.967   1.683
   60SOL    HW2  685   0.977   1.031   1.598
   60SOL     MW  686   0.899   0.990   1.605
   61SOL     OW  687   0.972   0.124   1.353
   61SOL    HW1  688   0.978   0.086   1.266
   61SOL    HW2  689   0.961   0.218   1.338
   61SOL     MW  690   0.973   0.132   1.341
   62SOL     OW  691   1.061   0.613   1.187
   62SOL    HW1  692   1.136   0.642   1.134
   62SOL    HW2  693   0.993   0.678   1.171
   62SOL     MW  694   1.062   0.625   1.177
   63SOL     OW  695   1.611   0.581   1.464
   63SOL    HW1  696   1.592   0.490   1.443
   63SOL    HW2  697   1.589   0.630   1.385
   63SOL     MW  698   1.606   0.574   1.451
   64SOL     OW  699   1.753   1.675   1.368
   64SOL    HW1  700   1.681   1.637   1.419
   64SOL    HW2  701   1.770   1.760   1.409
   64SOL     MW  702   1.747   1.680   1.380
   65SOL     OW  703   1.058   0.319   1.570
   65SOL    HW1  704   1.024   0.358   1.489
   65SOL    HW2  705   1.036   0.227   1.563
   65SOL     MW  706   1.051   0.312   1.560
   66SOL     OW  707   1.467   1.133   1.646
   66SOL    HW1  708   1.549   1.174   1.676
   66SOL    HW2  709   1.430   1.095   1.726
   66SOL     MW  710   1.473   1.134   1.661
   67SOL     OW  711   1.762   0.506   0.630
   67SOL    HW1  712   1.851   0.475   0.647
   67SOL    HW2  713   1.705   0.446   0.678
   67SOL     MW  714   1.765   0.494   0.639
   68SOL     OW  715   0.188   0.220   0.659
   68SOL    HW1  716   0.179   0.160   0.585
   68SOL    HW2  717   0.121   0.191   0.722
   68SOL     MW  718   0.178   0.207   0.657
   69SOL     OW  719   1.131   1.313   0.220
   69SOL    HW1  720   1.081   1.315   0.302
   69SOL    HW2  721   1.065   1.331   0.152
   69SOL     MW  722   1.117   1.315   0.222
   70SOL     OW  723   0.135   0.393   1.022
   70SOL    HW1  724   0.107   0.484   1.031
   70SOL    HW2  725   0.072   0.354   0.961
   70SOL     MW  726   0.122   0.399   1.016
   71SOL     OW  727   0.594   1.731   0.328
   71SOL    HW1  728   0.515   1.689   0.361
   71SOL    HW2  729   0.660   1.714   0.395
   71SOL     MW  730   0.593   1.723   0.341
   72SOL     OW  731   1.722   1.251   1.725
   72SOL    HW1  732   1.772   1.177   1.757
   72SOL    HW2  733   1.668   1.278   1.800
   72SOL     MW  734   1.722   1.245   1.738
   73SOL     OW  735   0.730   1.146   0.035
   73SOL    HW1  736   0.652   1.092   0.022
   73SOL    HW2  737   0.701   1.219   0.088
   73SOL     MW  738   0.716   1.148   0.040
   74SOL     OW  739   1.856   0.886   1.227
   74SOL    HW1  740   1.872   0.924   1.140
   74SOL    HW2  741   1.890   0.952   1.288
   74SOL     MW  742   1.863   0.899   1.223
   75SOL     OW  743   1.648   1.595   0.896
   75SOL    HW1  744   1.677   1.662   0.957
   75SOL    HW2  745   1.629   1.519   0.951
   75SOL     MW  746   1.650   1.595   0.911
   76SOL     OW  747   1.311   1.662   0.103
   76SOL    HW1  748   1.237   1.625   0.153
   76SOL    HW2  749   1.319   1.752   0.136
   76SOL     MW  750   1.302   1.669   0.115
   77SOL     OW  751   0.119   0.668   1.192
   77SOL    HW1  752   0.181   0.698   1.258
   77SOL    HW2  753   0.053   0.737   1.186
   77SOL     MW  754   0.118   0.681   1.199
   78SOL     OW  755   1.535   1.336   0.045
   78SOL    HW1  756   1.482   1.385  -0.019
   78SOL    HW2  757   1.566   1.402   0.106
   78SOL     MW  758   1.533   1.350   0.043
   79SOL     OW  759   0.760   0.225   0.100
   79SOL    HW1  760   0.708   0.145   0.088
   79SOL    HW2  761   0.847   0.202   0.068
   79SOL     MW  762   0.763   0.211   0.094
   80SOL     OW  763   0.214   1.777   1.644
   80SOL    HW1  764   0.188   1.845   1.582
   80SOL    HW2  765   0.262   1.714   1.592
   80SOL     MW  766   0.216   1.777   1.630
   81SOL     OW  767   0.266   1.096   1.151
   81SOL    HW1  768   0.319   1.171   1.176
   81SOL    HW2  769   0.185   1.134   1.117
   81SOL     MW  770   0.262   1.111   1.151
   82SOL     OW  771   0.806   1.000   1.139
   82SOL    HW1  772   0.834   0.909   1.151
   82SOL    HW2  773   0.735   0.994   1.075
   82SOL     MW  774   0.799   0.988   1.134
   83SOL     OW  775   0.121   0.865   0.557
   83SOL    HW1  776   0.212   0.880   0.584
   83SOL    HW2  777   0.124   0.786   0.503
   83SOL     MW  778   0.133   0.857   0.555
   84SOL     OW  779   0.357   0.573   1.811
   84SOL    HW1  780   0.304   0.653   1.818
   84SOL    HW2  781   0.427   0.585   1.876
   84SOL     MW  782   0.359   0.586   1.819
   85SOL     OW  783   0.743   0.123   1.518
   85SOL    HW1  784   0.720   0.031   1.520
   85SOL    HW2  785   0.829   0.125   1.475
   85SOL     MW  786   0.750   0.113   1.514
   86SOL     OW  787   0.427   0.647   1.557
   86SOL    HW1  788   0.507   0.697   1.543
   86SOL    HW2  789   0.418   0.641   1.652
   86SOL     MW  790   0.436   0.653   1.567
   87SOL     OW  791   0.748   1.797   0.931
   87SOL    HW1  792   0.837   1.812   0.961
   87SOL    HW2  793   0.743   1.844   0.847
   87SOL     MW  794   0.758   1.805   0.924
   88SOL     OW  795   1.404   0.172   1.828
   88SOL    HW1  796   1.460   0.099   1.854
   88SOL    HW2  797   1.374   0.210   1.910
   88SOL     MW  798   1.408   0.167   1.841
   89SOL     OW  799   0.129   1.477   0.596
   89SOL    HW1  800   0.101   1.516   0.678
   89SOL    HW2  801   0.149   1.386   0.618
   89SOL     MW  802   0.127   1.469   0.609
   90SOL     OW  803   0.962   1.520   0.631
   90SOL    HW1  804   1.045   1.474   0.615
   90SOL    HW2  805   0.952   1.519   0.727
   90SOL     MW  806   0.972   1.513   0.641
   91SOL     OW  807   1.794   0.665   0.945
   91SOL    HW1  808   1.883   0.695   0.927
   91SOL    HW2  809   1.774   0.605   0.874
   91SOL     MW  810   1.803   0.662   0.934
   92SOL     OW  811   1.645   0.844   1.825
   92SOL    HW1  812   1.700   0.768   1.806
   92SOL    HW2  813   1.647   0.852   1.920
   92SOL     MW  814   1.653   0.835   1.833
   93SOL     OW  815   0.695   1.577   0.036
   93SOL    HW1  816   0.635   1.646   0.006
   93SOL    HW2  817   0.640   1.519   0.089
   93SOL     MW  818   0.679   1.579   0.038
   94SOL     OW  819   1.133   0.222   0.259
   94SOL    HW1  820   1.066   0.198   0.196
   94SOL    HW2  821   1.198   0.271   0.208
   94SOL     MW  822   1.133   0.224   0.244
   95SOL     OW  823   0.940   0.406   1.344
   95SOL    HW1  824   0.859   0.447   1.372
   95SOL    HW2  825   0.987   0.474   1.296
   95SOL     MW  826   0.935   0.421   1.342
   96SOL     OW  827   1.200   0.744   0.967
   96SOL    HW1  828   1.213   0.838   0.977
   96SOL    HW2  829   1.161   0.734   0.881
   96SOL     MW  830   1.196   0.755   0.957
   97SOL     OW  831   0.652   0.939   0.771
   97SOL    HW1  832   0.563   0.930   0.804
   97SOL    HW2  833   0.656   1.029   0.739
   97SOL     MW  834   0.641   0.950   0.771
   98SOL     OW  835   1.451   0.522   0.766
   98SOL    HW1  836   1.396   0.443   0.765
   98SOL    HW2  837   1.433   0.563   0.850
   98SOL     MW  838   1.441   0.517   0.775
   99SOL     OW  839   0.422   0.209   1.583
   99SOL    HW1  840   0.343   0.227   1.635
   99SOL    HW2  841   0.417   0.271   1.510
   99SOL     MW  842   0.412   0.219   1.580
  100SOL     OW  843   1.070   0.726   0.723
  100SOL    HW1  844   1.007   0.658   0.747
  100SOL    HW2  845   1.090   0.707   0.631
  100SOL     MW  846   1.064   0.713   0.715
  101SOL     OW  847   0.326   1.621   0.425
  101SOL    HW1  848   0.287   1.668   0.351
  101SOL    HW2  849   0.260   1.556   0.450
  101SOL     MW  850   0.313   1.619   0.419
  102SOL     OW  851   0.818   1.030   0.449
  102SOL    HW1  852   0.820   1.004   0.356
  102SOL    HW2  853   0.876   0.967   0.492
  102SOL     MW  854   0.826   1.019   0.443
  103SOL     OW  855   1.371   1.590   1.221
  103SOL    HW1  856   1.296   1.636   1.259
  103SOL    HW2  857   1.353   1.497   1.238
  103SOL     MW  858   1.360   1.584   1.229
  104SOL     OW  859   1.375   1.798   0.651
  104SOL    HW1  860   1.318   1.751   0.590
  104SOL    HW2  861   1.461   1.759   0.638
  104SOL     MW  862   1.378   1.789   0.641
  105SOL     OW  863   1.328   0.274   0.782
  105SOL    HW1  864   1.356   0.206   0.843
  105SOL    HW2  865   1.242   0.245   0.752
  105SOL     MW  866   1.321   0.261   0.786
  106SOL     OW  867   0.133   1.208   0.716
  106SOL    HW1  868   0.197   1.240   0.779
  106SOL    HW2  869   0.182   1.144   0.664
  106SOL     MW  870   0.148   1.204   0.717
  107SOL     OW  871   0.633   1.284   1.698
  107SOL    HW1  872   0.681   1.367   1.685
  107SOL    HW2  873   0.690   1.232   1.754
  107SOL     MW  874   0.647   1.288   1.704
  108SOL     OW  875   0.209   1.526   1.838
  108SOL    HW1  876   0.265   1.450   1.853
  108SOL    HW2  877   0.158   1.504   1.760
  108SOL     MW  878   0.209   1.513   1.829
  109SOL     OW  879   1.308   0.378   0.117
  109SOL    HW1  880   1.281   0.444   0.053
  109SOL    HW2  881   1.378   0.421   0.167
  109SOL     MW  882   1.313   0.391   0.114
  110SOL     OW  883   0.976   0.083   0.054
  110SOL    HW1  884   1.032   0.075  -0.024
  110SOL    HW2  885   0.953  -0.007   0.076
  110SOL     MW  886   0.981   0.070   0.047
  111SOL     OW  887   1.481   0.934   0.259
  111SOL    HW1  888   1.448   1.023   0.249
  111SOL    HW2  889   1.446   0.905   0.344
  111SOL     MW  890   1.471   0.943   0.270
  112SOL     OW  891   1.094   1.363   1.447
  112SOL    HW1  892   1.005   1.369   1.415
  112SOL    HW2  893   1.138   1.442   1.415
  112SOL     MW  894   1.089   1.373   1.439
  113SOL     OW  895   0.387   0.031   1.789
  113SOL    HW1  896   0.315  -0.004   1.737
  113SOL    HW2  897   0.445   0.072   1.724
  113SOL     MW  898   0.385   0.032   1.774
  114SOL     OW  899   0.411   1.521   1.088
  114SOL    HW1  900   0.456   1.583   1.145
  114SOL    HW2  901   0.318   1.540   1.101
  114SOL     MW  902   0.404   1.531   1.095
  115SOL     OW  903   1.851   1.050   1.442
  115SOL    HW1  904   1.766   1.063   1.401
  115SOL    HW2  905   1.831   1.014   1.529
  115SOL     MW  906   1.838   1.046   1.447
  116SOL     OW  907   0.833   1.589   1.196
  116SOL    HW1  908   0.857   1.578   1.105
  116SOL    HW2  909   0.756   1.646   1.194
  116SOL     MW  910   0.825   1.594   1.185
  117SOL     OW  911   0.475   0.972   0.051
  117SOL    HW1  912   0.398   0.985   0.107
  117SOL    HW2  913   0.439   0.936  -0.030
  117SOL     MW  914   0.461   0.968   0.048
  118SOL     OW  915   1.128   0.945   0.294
  118SOL    HW1  916   1.038   0.966   0.269
  118SOL    HW2  917   1.155   1.018   0.350
  118SOL     MW  918   1.120   0.957   0.297
  119SOL     OW  919   0.628   1.294   0.986
  119SOL    HW1  920   0.621   1.273   1.080
  119SOL    HW2  921   0.546   1.262   0.949
  119SOL     MW  922   0.616   1.288   0.993
  120SOL     OW  923   1.492   0.304   1.388
  120SOL    HW1  924   1.439   0.306   1.468
  120SOL    HW2  925   1.477   0.217   1.351
  120SOL     MW  926   1.484   0.294   1.393
  121SOL     OW  927   1.828   0.228   1.261
  121SOL    HW1  928   1.809   0.295   1.196
  121SOL    HW2  929   1.885   0.166   1.216
  121SOL     MW  930   1.832   0.229   1.247
  122SOL     OW  931   0.074   1.386   1.649
  122SOL    HW1  932   0.118   1.319   1.595
  122SOL    HW2  933  -0.011   1.348   1.669
  122SOL     MW  934   0.069   1.372   1.645
  123SOL     OW  935   0.757   0.061   0.701
  123SOL    HW1  936   0.686   0.122   0.683
  123SOL    HW2  937   0.808   0.058   0.620
  123SOL     MW  938   0.753   0.067   0.688
  124SOL     OW  939   0.515   1.301   0.450
  124SOL    HW1  940   0.508   1.333   0.540
  124SOL    HW2  941   0.425   1.285   0.422
  124SOL     MW  942   0.503   1.303   0.457
  125SOL     OW  943   1.110   1.694   1.359
  125SOL    HW1  944   1.030   1.679   1.309
  125SOL    HW2  945   1.117   1.789   1.366
  125SOL     MW  946   1.101   1.705   1.353
  126SOL     OW  947   1.224   1.659   0.849
  126SOL    HW1  948   1.271   1.732   0.808
  126SOL    HW2  949   1.145   1.698   0.885
  126SOL     MW  950   1.219   1.674   0.848
  127SOL     OW  951   1.632   1.754   1.124
  127SOL    HW1  952   1.675   1.724   1.204
  127SOL    HW2  953   1.551   1.702   1.121
  127SOL     MW  954   1.627   1.743   1.134
  128SOL     OW  955   0.717   0.718   1.831
  128SOL    HW1  956   0.787   0.660   1.803
  128SOL    HW2  957   0.660   0.663   1.886
  128SOL     MW  958   0.719   0.705   1.835
  129SOL     OW  959   1.504   0.930   1.464
  129SOL    HW1  960   1.509   0.983   1.544
  129SOL    HW2  961   1.466   0.847   1.492
  129SOL     MW  962   1.500   0.925   1.479
  130SOL     OW  963   1.144   0.065   1.710
  130SOL    HW1  964   1.139  -0.028   1.691
  130SOL    HW2  965   1.227   0.076   1.756
  130SOL     MW  966   1.152   0.054   1.714
  131SOL     OW  967   0.518   0.585   0.164
  131SOL    HW1  968   0.484   0.641   0.234
  131SOL    HW2  969   0.589   0.535   0.204
  131SOL     MW  970   0.524   0.586   0.178
  132SOL     OW  971   1.614   1.336   0.986
  132SOL    HW1  972   1.649   1.318   0.899
  132SOL    HW2  973   1.519   1.337   0.973
  132SOL     MW  974   1.606   1.333   0.973
  133SOL     OW  975   1.043   0.984   1.355
  133SOL    HW1  976   1.086   1.019   1.433
  133SOL    HW2  977   1.026   1.061   1.301
  133SOL     MW  978   1.046   0.999   1.358
  134SOL     OW  979   1.574   0.471   0.228
  134SOL    HW1  980   1.566   0.542   0.165
  134SOL    HW2  981   1.592   0.515   0.311
  134SOL     MW  982   1.575   0.485   0.230
  135SOL     OW  983   0.434   0.126   0.657
  135SOL    HW1  984   0.484   0.169   0.588
  135SOL    HW2  985   0.349   0.170   0.657
  135SOL     MW  986   0.431   0.139   0.648
  136SOL     OW  987   0.193   1.188   1.517
  136SOL    HW1  988   0.221   1.141   1.595
  136SOL    HW2  989   0.114   1.143   1.488
  136SOL     MW  990   0.186   1.177   1.523
  137SOL     OW  991   0.701   0.515   1.484
  137SOL    HW1  992   0.673   0.603   1.508
  137SOL    HW2  993   0.670   0.459   1.555
  137SOL     MW  994   0.693   0.518   1.496
  138SOL     OW  995   1.243   0.733   0.203
  138SOL    HW1  996   1.290   0.751   0.122
  138SOL    HW2  997   1.209   0.817   0.231
  138SOL     MW  998   1.245   0.747   0.196
  139SOL     OW  999   0.356   0.911   0.697
  139SOL    HW1 1000   0.414   0.967   0.645
  139SOL    HW2 1001   0.400   0.826   0.699
  139SOL     MW 1002   0.369   0.908   0.690
  140SOL     OW 1003   1.496   0.263   0.534
  140SOL    HW1 1004   1.418   0.213   0.559
  140SOL    HW2 1005   1.467   0.354   0.534
  140SOL     MW 1006   1.482   0.267   0.537
  141SOL     OW 1007   1.082   0.225   0.693
  141SOL    HW1 1008   1.102   0.300   0.637
  141SOL    HW2 1009   1.062   0.264   0.778
  141SOL     MW 1010   1.083   0.241   0.697
  142SOL     OW 1011   0.978   1.475   0.025
  142SOL    HW1 1012   1.005   1.553  -0.023
  142SOL    HW2 1013   0.885   1.490   0.044
  142SOL     MW 1014   0.969   1.488   0.021
  143SOL     OW 1015   1.842   0.998   1.712
  143SOL    HW1 1016   1.755   0.978   1.748
  143SOL    HW2 1017   1.896   0.924   1.737
  143SOL     MW 1018   1.837   0.987   1.720
  144SOL     OW 1019   0.063   1.511   0.869
  144SOL    HW1 1020   0.095   1.515   0.960
  144SOL    HW2 1021  -0.032   1.519   0.877
  144SOL     MW 1022   0.055   1.514   0.882
  145SOL     OW 1023   0.018   0.637   0.416
  145SOL    HW1 1024  -0.042   0.609   0.486
  145SOL    HW2 1025   0.092   0.577   0.422
  145SOL     MW 1026   0.020   0.626   0.425
  146SOL     OW 1027   1.586   1.849   1.850
  146SOL    HW1 1028   1.631   1.773   1.815
  146SOL    HW2 1029   1.624   1.862   1.937
  146SOL     MW 1030   1.596   1.842   1.856
  147SOL     OW 1031   1.186   1.368   0.576
  147SOL    HW1 1032   1.209   1.319   0.654
  147SOL    HW2 1033   1.267   1.410   0.548
  147SOL     MW 1034   1.199   1.368   0.583
  148SOL     OW 1035   0.444   0.376   1.305
  148SOL    HW1 1036   0.477   0.457   1.345
  148SOL    HW2 1037   0.417   0.402   1.217
  148SOL     MW 1038   0.443   0.390   1.299
  149SOL     OW 1039   0.398   0.343   1.041
  149SOL    HW1 1040   0.428   0.257   1.012
  149SOL    HW2 1041   0.303   0.336   1.044
  149SOL     MW 1042   0.390   0.332   1.039
  150SOL     OW 1043   1.227   0.552   1.732
  150SOL    HW1 1044   1.279   0.487   1.685
  150SOL    HW2 1045   1.185   0.603   1.662
  150SOL     MW 1046   1.228   0.549   1.715
  151SOL     OW 1047   1.326   0.347   1.593
  151SOL    HW1 1048   1.233   0.331   1.580
  151SOL    HW2 1049   1.352   0.285   1.661
  151SOL     MW 1050   1.316   0.337   1.600
  152SOL     OW 1051   0.541   0.121   0.932
  152SOL    HW1 1052   0.551   0.030   0.958
  152SOL    HW2 1053   0.497   0.117   0.847
  152SOL     MW 1054   0.537   0.109   0.924
  153SOL     OW 1055   0.635   1.736   1.478
  153SOL    HW1 1056   0.552   1.721   1.523
  153SOL    HW2 1057   0.694   1.669   1.513
  153SOL     MW 1058   0.633   1.726   1.488
  154SOL     OW 1059   1.692   0.443   1.103
  154SOL    HW1 1060   1.625   0.476   1.163
  154SOL    HW2 1061   1.735   0.521   1.069
  154SOL     MW 1062   1.690   0.458   1.107
  155SOL     OW 1063   1.870   1.163   1.073
  155SOL    HW1 1064   1.863   1.103   0.998
  155SOL    HW2 1065   1.796   1.223   1.062
  155SOL     MW 1066   1.860   1.163   1.062
  156SOL     OW 1067   1.252   1.025   0.991
  156SOL    HW1 1068   1.266   0.997   1.082
  156SOL    HW2 1069   1.338   1.056   0.963
  156SOL     MW 1070   1.265   1.026   1.000
  157SOL     OW 1071   1.335   0.520   1.270
  157SOL    HW1 1072   1.356   0.521   1.177
  157SOL    HW2 1073   1.380   0.442   1.303
  157SOL     MW 1074   1.342   0.510   1.262
  158SOL     OW 1075   1.828   0.651   1.812
  158SOL    HW1 1076   1.865   0.596   1.881
  158SOL    HW2 1077   1.853   0.608   1.730
  158SOL     MW 1078   1.835   0.639   1.811
  159SOL     OW 1079   1.375   0.949   1.863
  159SOL    HW1 1080   1.441   0.897   1.817
  159SOL    HW2 1081   1.395   0.936   1.956
  159SOL     MW 1082   1.386   0.940   1.870
  160SOL     OW 1083   1.326   0.035   0.212
  160SOL    HW1 1084   1.400   0.079   0.255
  160SOL    HW2 1085   1.250   0.089   0.234
  160SOL     MW 1086   1.326   0.047   0.220
  161SOL     OW 1087   1.386   0.810   0.490
  161SOL    HW1 1088   1.301   0.780   0.460
  161SOL    HW2 1089   1.378   0.817   0.585
  161SOL     MW 1090   1.374   0.808   0.499
  162SOL     OW 1091   0.462   1.273   1.221
  162SOL    HW1 1092   0.474   1.300   1.312
  162SOL    HW2 1093   0.443   1.354   1.174
  162SOL     MW 1094   0.461   1.288   1.226
  163SOL     OW 1095   0.746   0.253   1.044
  163SOL    HW1 1096   0.719   0.255   1.135
  163SOL    HW2 1097   0.676   0.205   0.999
  163SOL     MW 1098   0.734   0.249   1.051
  164SOL     OW 1099   0.600   1.745   1.206
  164SOL    HW1 1100   0.652   1.822   1.183
  164SOL    HW2 1101   0.609   1.737   1.301
  164SOL     MW 1102   0.609   1.752   1.217
  165SOL     OW 1103   1.502   1.330   1.438
  165SOL    HW1 1104   1.487   1.259   1.501
  165SOL    HW2 1105   1.548   1.288   1.366
  165SOL     MW 1106   1.508   1.314   1.438
  166SOL     OW 1107   0.576   1.061   1.555
  166SOL    HW1 1108   0.613   1.066   1.467
  166SOL    HW2 1109   0.615   1.134   1.602
  166SOL     MW 1110   0.586   1.071   1.550
  167SOL     OW 1111   0.756   1.104   1.367
  167SOL    HW1 1112   0.815   1.050   1.420
  167SOL    HW2 1113   0.771   1.076   1.277
  167SOL     MW 1114   0.766   1.093   1.363
  168SOL     OW 1115   0.759   0.476   0.216
  168SOL    HW1 1116   0.832   0.525   0.179
  168SOL    HW2 1117   0.775   0.385   0.190
  168SOL     MW 1118   0.771   0.471   0.209
  169SOL     OW 1119   1.567   1.593   1.539
  169SOL    HW1 1120   1.609   1.578   1.624
  169SOL    HW2 1121   1.558   1.506   1.501
  169SOL     MW 1122   1.571   1.581   1.546
  170SOL     OW 1123   1.227   0.072   1.130
  170SOL    HW1 1124   1.282   0.081   1.052
  170SOL    HW2 1125   1.282   0.106   1.201
  170SOL     MW 1126   1.241   0.077   1.129
  171SOL     OW 1127   0.234   0.985   0.314
  171SOL    HW1 1128   0.171   1.001   0.243
  171SOL    HW2 1129   0.181   0.948   0.385
  171SOL     MW 1130   0.219   0.982   0.314
  172SOL     OW 1131   0.590   1.339   0.173
  172SOL    HW1 1132   0.605   1.315   0.265
  172SOL    HW2 1133   0.498   1.317   0.157
  172SOL     MW 1134   0.580   1.332   0.183
  173SOL     OW 1135   1.129   1.570   0.325
  173SOL    HW1 1136   1.137   1.488   0.276
  173SOL    HW2 1137   1.048   1.609   0.292
  173SOL     MW 1138   1.119   1.565   0.315
  174SOL     OW 1139   0.388   1.728   0.894
  174SOL    HW1 1140   0.392   1.639   0.929
  174SOL    HW2 1141   0.414   1.719   0.803
  174SOL     MW 1142   0.391   1.716   0.886
  175SOL     OW 1143   1.005   1.206   1.137
  175SOL    HW1 1144   0.937   1.140   1.153
  175SOL    HW2 1145   1.023   1.200   1.044
  175SOL     MW 1146   0.998   1.197   1.128
  176SOL     OW 1147   0.094   1.481   1.388
  176SOL    HW1 1148   0.084   1.439   1.474
  176SOL    HW2 1149   0.015   1.534   1.378
  176SOL     MW 1150   0.083   1.482   1.399
  177SOL     OW 1151   0.998   0.345   0.958
  177SOL    HW1 1152   0.928   0.297   1.003
  177SOL    HW2 1153   1.030   0.408   1.022
  177SOL     MW 1154   0.993   0.347   0.972
  178SOL     OW 1155   0.649   0.781   1.578
  178SOL    HW1 1156   0.642   0.876   1.566
  178SOL    HW2 1157   0.658   0.770   1.673
  178SOL     MW 1158   0.650   0.793   1.588
  179SOL     OW 1159   0.370   1.296   1.836
  179SOL    HW1 1160   0.442   1.298   1.773
  179SOL    HW2 1161   0.340   1.205   1.835
  179SOL     MW 1162   0.375   1.285   1.828
  180SOL     OW 1163   1.454   0.059   1.303
  180SOL    HW1 1164   1.525   0.005   1.267
  180SOL    HW2 1165   1.453   0.038   1.396
  180SOL     MW 1166   1.463   0.050   1.311
  181SOL     OW 1167   1.654   1.589   1.787
  181SOL    HW1 1168   1.627   1.586   1.878
  181SOL    HW2 1169   1.750   1.593   1.790
  181SOL     MW 1170   1.664   1.589   1.799
  182SOL     OW 1171   0.465   0.451   0.771
  182SOL    HW1 1172   0.536   0.399   0.734
  182SOL    HW2 1173   0.451   0.416   0.858
  182SOL     MW 1174   0.473   0.440   0.778
  183SOL     OW 1175   0.020   1.786   1.843
  183SOL    HW1 1176   0.070   1.764   1.765
  183SOL    HW2 1177   0.028   1.881   1.851
  183SOL     MW 1178   0.028   1.795   1.834
  184SOL     OW 1179   0.781   1.544   0.847
  184SOL    HW1 1180   0.709   1.481   0.860
  184SOL    HW2 1181   0.742   1.629   0.865
  184SOL     MW 1182   0.765   1.547   0.850
  185SOL     OW 1183   1.101   0.392   0.495
  185SOL    HW1 1184   1.123   0.329   0.427
  185SOL    HW2 1185   1.006   0.384   0.506
  185SOL     MW 1186   1.091   0.383   0.487
  186SOL     OW 1187   0.186   0.082   0.427
  186SOL    HW1 1188   0.257   0.103   0.366
  186SOL    HW2 1189   0.140   0.010   0.385
  186SOL     MW 1190   0.190   0.076   0.413
  187SOL     OW 1191   0.017   0.549   1.570
  187SOL    HW1 1192   0.081   0.615   1.545
  187SOL    HW2 1193  -0.064   0.576   1.527
  187SOL     MW 1194   0.015   0.561   1.562
  188SOL     OW 1195   1.755   1.456   0.527
  188SOL    HW1 1196   1.725   1.389   0.588
  188SOL    HW2 1197   1.849   1.462   0.541
  188SOL     MW 1198   1.763   1.448   0.537
  189SOL     OW 1199   1.311   1.133   0.457
  189SOL    HW1 1200   1.283   1.219   0.490
  189SOL    HW2 1201   1.339   1.149   0.367
  189SOL     MW 1202   1.311   1.147   0.449
  190SOL     OW 1203   0.973   0.053   0.510
  190SOL    HW1 1204   1.010   0.112   0.575
  190SOL    HW2 1205   0.950   0.109   0.436
  190SOL     MW 1206   0.974   0.068   0.509
  191SOL     OW 1207   1.826   0.935   0.932
  191SOL    HW1 1208   1.817   0.967   0.843
  191SOL    HW2 1209   1.779   0.851   0.932
  191SOL     MW 1210   1.819   0.928   0.922
  192SOL     OW 1211   0.202   0.775   1.511
  192SOL    HW1 1212   0.223   0.844   1.449
  192SOL    HW2 1213   0.282   0.722   1.516
  192SOL     MW 1214   0.215   0.776   1.505
  193SOL     OW 1215   1.738   0.866   0.633
  193SOL    HW1 1216   1.832   0.855   0.621
  193SOL    HW2 1217   1.714   0.938   0.574
  193SOL     MW 1218   1.748   0.874   0.624
  194SOL     OW 1219   0.187   0.790   1.778
  194SOL    HW1 1220   0.113   0.734   1.804
  194SOL    HW2 1221   0.182   0.793   1.683
  194SOL     MW 1222   0.176   0.783   1.768
  195SOL     OW 1223   0.353   0.077   1.228
  195SOL    HW1 1224   0.396   0.161   1.248
  195SOL    HW2 1225   0.426   0.015   1.221
  195SOL     MW 1226   0.368   0.080   1.229
  196SOL     OW 1227   0.394   0.744   0.406
  196SOL    HW1 1228   0.394   0.839   0.391
  196SOL    HW2 1229   0.471   0.728   0.460
  196SOL     MW 1230   0.404   0.755   0.411
  197SOL     OW 1231   1.170   0.603   1.470
  197SOL    HW1 1232   1.206   0.576   1.386
  197SOL    HW2 1233   1.083   0.637   1.449
  197SOL     MW 1234   1.164   0.604   1.457
  198SOL     OW 1235   0.153   0.475   0.695
  198SOL    HW1 1236   0.215   0.482   0.768
  198SOL    HW2 1237   0.153   0.382   0.672
  198SOL     MW 1238   0.161   0.464   0.702
  199SOL     OW 1239   1.700   1.815   0.227
  199SOL    HW1 1240   1.767   1.848   0.167
  199SOL    HW2 1241   1.657   1.894   0.261
  199SOL     MW 1242   1.702   1.830   0.223
  200SOL     OW 1243   0.835   0.736   1.179
  200SOL    HW1 1244   0.793   0.654   1.155
  200SOL    HW2 1245   0.836   0.735   1.275
  200SOL     MW 1246   0.828   0.725   1.188
  201SOL     OW 1247   1.506   1.869   1.578
  201SOL    HW1 1248   1.509   1.775   1.561
  201SOL    HW2 1249   1.529   1.877   1.670
  201SOL     MW 1250   1.509   1.857   1.588
  202SOL     OW 1251   0.639   0.206   1.284
  202SOL    HW1 1252   0.570   0.269   1.305
  202SOL    HW2 1253   0.666   0.170   1.369
  202SOL     MW 1254   0.633   0.209   1.297
  203SOL     OW 1255   0.022   1.047   0.153
  203SOL    HW1 1256  -0.009   1.112   0.216
  203SOL    HW2 1257  -0.029   0.969   0.172
  203SOL     MW 1258   0.012   1.044   0.163
  204SOL     OW 1259   1.434   0.059   0.901
  204SOL    HW1 1260   1.522   0.068   0.938
  204SOL    HW2 1261   1.444   0.000   0.827
  204SOL     MW 1262   1.448   0.053   0.895
  205SOL     OW 1263   1.466   0.798   0.745
  205SOL    HW1 1264   1.546   0.813   0.694
  205SOL    HW2 1265   1.459   0.703   0.751
  205SOL     MW 1266   1.475   0.787   0.740
  206SOL     OW 1267   0.606   1.847   0.095
  206SOL    HW1 1268   0.511   1.847   0.087
  206SOL    HW2 1269   0.622   1.793   0.173
  206SOL     MW 1270   0.596   1.841   0.104
  207SOL     OW 1271   0.916   0.724   1.442
  207SOL    HW1 1272   0.985   0.791   1.439
  207SOL    HW2 1273   0.849   0.762   1.498
  207SOL     MW 1274   0.917   0.737   1.449
  208SOL     OW 1275   0.334   1.024   1.690
  208SOL    HW1 1276   0.288   0.940   1.692
  208SOL    HW2 1277   0.391   1.018   1.614
  208SOL     MW 1278   0.336   1.012   1.682
  209SOL     OW 1279   1.451   0.667   0.011
  209SOL    HW1 1280   1.379   0.643  -0.047
  209SOL    HW2 1281   1.517   0.704  -0.047
  209SOL     MW 1282   1.450   0.669  -0.004
  210SOL     OW 1283   0.585   1.399   0.691
  210SOL    HW1 1284   0.650   1.332   0.712
  210SOL    HW2 1285   0.637   1.476   0.668
  210SOL     MW 1286   0.600   1.401   0.690
  211SOL     OW 1287   0.846   0.564   0.821
  211SOL    HW1 1288   0.786   0.582   0.893
  211SOL    HW2 1289   0.880   0.476   0.840
  211SOL     MW 1290   0.842   0.554   0.834
  212SOL     OW 1291   1.787   0.063   1.490
  212SOL    HW1 1292   1.708   0.109   1.518
  212SOL    HW2 1293   1.822   0.117   1.419
  212SOL     MW 1294   1.781   0.076   1.484
  213SOL     OW 1295   1.071   1.147   0.840
  213SOL    HW1 1296   1.163   1.128   0.858
  213SOL    HW2 1297   1.044   1.077   0.780
  213SOL     MW 1298   1.079   1.135   0.834
  214SOL     OW 1299   0.864   0.967   0.195
  214SOL    HW1 1300   0.850   0.879   0.160
  214SOL    HW2 1301   0.815   1.024   0.136
  214SOL     MW 1302   0.856   0.962   0.183
  215SOL     OW 1303   1.345   1.385   0.936
  215SOL    HW1 1304   1.318   1.469   0.901
  215SOL    HW2 1305   1.305   1.380   1.023
  215SOL     MW 1306   1.338   1.394   0.942
  216SOL     OW 1307   1.264   1.333   1.204
  216SOL    HW1 1308   1.275   1.300   1.293
  216SOL    HW2 1309   1.183   1.292   1.173
  216SOL     MW 1310   1.254   1.325   1.210
  217SOL     OW 1311   0.277   0.691   0.974
  217SOL    HW1 1312   0.227   0.690   1.055
  217SOL    HW2 1313   0.297   0.783   0.958
  217SOL     MW 1314   0.273   0.703   0.982
  218SOL     OW 1315   1.344   1.455   1.736
  218SOL    HW1 1316   1.344   1.549   1.752
  218SOL    HW2 1317   1.389   1.445   1.652
  218SOL     MW 1318   1.350   1.465   1.727
  219SOL     OW 1319   1.583   0.173   0.297
  219SOL    HW1 1320   1.576   0.177   0.392
  219SOL    HW2 1321   1.595   0.264   0.270
  219SOL     MW 1322   1.584   0.186   0.305
  220SOL     OW 1323   0.872   0.736   0.411
  220SOL    HW1 1324   0.852   0.722   0.318
  220SOL    HW2 1325   0.965   0.715   0.418
  220SOL     MW 1326   0.882   0.731   0.400
  221SOL     OW 1327   0.199   0.359   1.715
  221SOL    HW1 1328   0.156   0.418   1.652
  221SOL    HW2 1329   0.267   0.414   1.755
  221SOL     MW 1330   0.203   0.374   1.712
  222SOL     OW 1331   1.311   0.979   1.260
  222SOL    HW1 1332   1.374   0.976   1.333
  222SOL    HW2 1333   1.227   0.997   1.302
  222SOL     MW 1334   1.307   0.981   1.275
  223SOL     OW 1335   0.855   1.694   0.449
  223SOL    HW1 1336   0.913   1.765   0.476
  223SOL    HW2 1337   0.878   1.622   0.507
  223SOL     MW 1338   0.866   1.694   0.460
  224SOL     OW 1339   1.650   0.156   1.039
  224SOL    HW1 1340   1.695   0.074   1.058
  224SOL    HW2 1341   1.670   0.212   1.115
  224SOL     MW 1342   1.660   0.152   1.051
  225SOL     OW 1343   0.098  -0.001   1.138
  225SOL    HW1 1344   0.089   0.000   1.043
  225SOL    HW2 1345   0.192   0.011   1.153
  225SOL     MW 1346   0.110   0.002   1.129
  226SOL     OW 1347   1.735   1.192   0.758
  226SOL    HW1 1348   1.714   1.138   0.681
  226SOL    HW2 1349   1.831   1.190   0.762
  226SOL     MW 1350   1.744   1.185   0.747
  227SOL     OW 1351   0.427   1.337   1.501
  227SOL    HW1 1352   0.348   1.287   1.524
  227SOL    HW2 1353   0.497   1.296   1.551
  227SOL     MW 1354   0.425   1.325   1.511
  228SOL     OW 1355   0.311   0.126   0.184
  228SOL    HW1 1356   0.240   0.181   0.152
  228SOL    HW2 1357   0.353   0.092   0.105
  228SOL     MW 1358   0.307   0.128   0.170
  229SOL     OW 1359   1.435   0.623   1.020
  229SOL    HW1 1360   1.358   0.669   0.986
  229SOL    HW2 1361   1.492   0.692   1.054
  229SOL     MW 1362   1.432   0.638   1.020
  230SOL     OW 1363   0.067   0.225   0.033
  230SOL    HW1 1364   0.034   0.304   0.077
  230SOL    HW2 1365   0.122   0.258  -0.038
  230SOL     MW 1366   0.070   0.239   0.030
  231SOL     OW 1367   0.101   1.482   0.222
  231SOL    HW1 1368   0.118   1.566   0.264
  231SOL    HW2 1369   0.136   1.491   0.134
  231SOL     MW 1370   0.106   1.495   0.216
  232SOL     OW 1371   1.373   1.571   0.439
  232SOL    HW1 1372   1.436   1.561   0.368
  232SOL    HW2 1373   1.290   1.591   0.394
  232SOL     MW 1374   1.370   1.572   0.424
  233SOL     OW 1375   1.736   0.839   2.125
  233SOL    HW1 1376   1.777   0.781   2.190
  233SOL    HW2 1377   1.643   0.831   2.142
  233SOL     MW 1378   1.730   0.831   2.135
  234SOL     OW 1379   1.602   0.771   3.120
  234SOL    HW1 1380   1.557   0.838   3.171
  234SOL    HW2 1381   1.690   0.807   3.106
  234SOL     MW 1382   1.608   0.784   3.124
  235SOL     OW 1383   0.530   1.022   2.354
  235SOL    HW1 1384   0.620   0.997   2.338
  235SOL    HW2 1385   0.526   1.115   2.331
  235SOL     MW 1386   0.542   1.031   2.349
  236SOL     OW 1387   1.646   1.725   2.496
  236SOL    HW1 1388   1.658   1.671   2.574
  236SOL    HW2 1389   1.683   1.673   2.425
  236SOL     MW 1390   1.652   1.710   2.497
  237SOL     OW 1391   1.025   1.610   3.497
  237SOL    HW1 1392   1.066   1.646   3.418
  237SOL    HW2 1393   1.060   1.521   3.504
  237SOL     MW 1394   1.036   1.603   3.488
  238SOL     OW 1395   1.582   1.165   3.101
  238SOL    HW1 1396   1.503   1.130   3.059
  238SOL    HW2 1397   1.609   1.237   3.045
  238SOL     MW 1398   1.575   1.170   3.088
  239SOL     OW 1399   0.814   0.478   2.367
  239SOL    HW1 1400   0.789   0.566   2.395
  239SOL    HW2 1401   0.811   0.481   2.271
  239SOL     MW 1402   0.810   0.490   2.359
  240SOL     OW 1403   0.256   0.506   2.295
  240SOL    HW1 1404   0.288   0.594   2.277
  240SOL    HW2 1405   0.244   0.504   2.390
  240SOL     MW 1406   0.259   0.518   2.307
  241SOL     OW 1407   0.334   0.919   3.196
  241SOL    HW1 1408   0.397   0.866   3.147
  241SOL    HW2 1409   0.315   0.993   3.139
  241SOL     MW 1410   0.340   0.921   3.183
  242SOL     OW 1411   0.655   0.261   2.382
  242SOL    HW1 1412   0.713   0.337   2.384
  242SOL    HW2 1413   0.590   0.282   2.315
  242SOL     MW 1414   0.654   0.273   2.373
  243SOL     OW 1415   0.742   1.188   2.557
  243SOL    HW1 1416   0.822   1.191   2.609
  243SOL    HW2 1417   0.770   1.155   2.471
  243SOL     MW 1418   0.756   1.184   2.552
  244SOL     OW 1419   0.767   1.529   3.460
  244SOL    HW1 1420   0.851   1.555   3.499
  244SOL    HW2 1421   0.791   1.473   3.386
  244SOL     MW 1422   0.781   1.525   3.455
  245SOL     OW 1423   0.519   0.692   2.548
  245SOL    HW1 1424   0.504   0.612   2.599
  245SOL    HW2 1425   0.601   0.727   2.582
  245SOL     MW 1426   0.527   0.684   2.560
  246SOL     OW 1427   0.856   1.378   3.233
  246SOL    HW1 1428   0.820   1.444   3.173
  246SOL    HW2 1429   0.784   1.316   3.246
  246SOL     MW 1430   0.842   1.378   3.227
  247SOL     OW 1431   0.661   0.518   2.925
  247SOL    HW1 1432   0.567   0.514   2.943
  247SOL    HW2 1433   0.691   0.427   2.934
  247SOL     MW 1434   0.652   0.506   2.928
  248SOL     OW 1435   0.407   0.932   2.829
  248SOL    HW1 1436   0.362   0.939   2.745
  248SOL    HW2 1437   0.387   1.015   2.873
  248SOL     MW 1438   0.399   0.944   2.823
  249SOL     OW 1439   0.104   1.778   2.704
  249SOL    HW1 1440   0.193   1.770   2.739
  249SOL    HW2 1441   0.068   1.690   2.709
  249SOL     MW 1442   0.111   1.765   2.709
  250SOL     OW 1443   1.369   1.170   2.073
  250SOL    HW1 1444   1.287   1.206   2.039
  250SOL    HW2 1445   1.437   1.213   2.022
  250SOL     MW 1446   1.367   1.180   2.061
  251SOL     OW 1447   0.368   1.305   2.739
  251SOL    HW1 1448   0.344   1.358   2.815
  251SOL    HW2 1449   0.424   1.363   2.687
  251SOL     MW 1450   0.372   1.320   2.742
  252SOL     OW 1451   0.930   0.949   2.549
  252SOL    HW1 1452   0.844   0.936   2.589
  252SOL    HW2 1453   0.983   0.876   2.581
  252SOL     MW 1454   0.926   0.938   2.558
  253SOL     OW 1455   0.338   1.601   3.334
  253SOL    HW1 1456   0.246   1.577   3.319
  253SOL    HW2 1457   0.382   1.518   3.351
  253SOL     MW 1458   0.332   1.586   3.333
  254SOL     OW 1459   0.921   1.311   2.266
  254SOL    HW1 1460   0.898   1.373   2.334
  254SOL    HW2 1461   0.878   1.229   2.292
  254SOL     MW 1462   0.913   1.307   2.277
  255SOL     OW 1463   1.794   0.312   2.722
  255SOL    HW1 1464   1.731   0.292   2.791
  255SOL    HW2 1465   1.784   0.241   2.659
  255SOL     MW 1466   1.784   0.299   2.723
  256SOL     OW 1467   0.418   0.284   2.234
  256SOL    HW1 1468   0.392   0.246   2.150
  256SOL    HW2 1469   0.355   0.354   2.250
  256SOL     MW 1470   0.407   0.287   2.225
  257SOL     OW 1471   0.253   1.245   2.271
  257SOL    HW1 1472   0.201   1.313   2.227
  257SOL    HW2 1473   0.250   1.171   2.211
  257SOL     MW 1474   0.245   1.244   2.258
  258SOL     OW 1475   0.915   1.708   2.049
  258SOL    HW1 1476   0.870   1.724   2.132
  258SOL    HW2 1477   0.846   1.673   1.991
  258SOL     MW 1478   0.901   1.705   2.051
  259SOL     OW 1479   1.850   0.481   2.024
  259SOL    HW1 1480   1.759   0.483   2.052
  259SOL    HW2 1481   1.895   0.543   2.082
  259SOL     MW 1482   1.843   0.489   2.034
  260SOL     OW 1483   1.595   1.084   2.374
  260SOL    HW1 1484   1.505   1.084   2.409
  260SOL    HW2 1485   1.588   1.130   2.291
  260SOL     MW 1486   1.582   1.090   2.368
  261SOL     OW 1487   1.395   0.719   3.446
  261SOL    HW1 1488   1.464   0.657   3.423
  261SOL    HW2 1489   1.320   0.693   3.393
  261SOL     MW 1490   1.395   0.706   3.437
  262SOL     OW 1491   0.136   1.599   2.998
  262SOL    HW1 1492   0.119   1.545   3.075
  262SOL    HW2 1493   0.124   1.689   3.028
  262SOL     MW 1494   0.133   1.603   3.012
  263SOL     OW 1495   1.131   1.106   3.438
  263SOL    HW1 1496   1.116   1.199   3.423
  263SOL    HW2 1497   1.226   1.096   3.438
  263SOL     MW 1498   1.140   1.116   3.435
  264SOL     OW 1499   0.927   0.530   3.639
  264SOL    HW1 1500   1.017   0.531   3.606
  264SOL    HW2 1501   0.886   0.455   3.597
  264SOL     MW 1502   0.933   0.520   3.630
  265SOL     OW 1503   1.502   1.062   2.766
  265SOL    HW1 1504   1.505   0.996   2.697
  265SOL    HW2 1505   1.587   1.105   2.762
  265SOL     MW 1506   1.514   1.058   2.757
  266SOL     OW 1507   1.122   0.665   2.335
  266SOL    HW1 1508   1.148   0.689   2.246
  266SOL    HW2 1509   1.104   0.572   2.331
  266SOL     MW 1510   1.124   0.657   2.322
  267SOL     OW 1511   1.787   1.285   2.186
  267SOL    HW1 1512   1.743   1.326   2.261
  267SOL    HW2 1513   1.844   1.353   2.151
  267SOL     MW 1514   1.789   1.299   2.191
  268SOL     OW 1515   0.707   0.334   3.589
  268SOL    HW1 1516   0.717   0.260   3.529
  268SOL    HW2 1517   0.743   0.303   3.672
  268SOL     MW 1518   0.713   0.320   3.591
  269SOL     OW 1519   0.443   1.701   2.504
  269SOL    HW1 1520   0.475   1.789   2.482
  269SOL    HW2 1521   0.396   1.673   2.426
  269SOL     MW 1522   0.442   1.709   2.491
  270SOL     OW 1523   1.827   0.063   2.553
  270SOL    HW1 1524   1.881   0.014   2.615
  270SOL    HW2 1525   1.770  -0.003   2.514
  270SOL     MW 1526   1.827   0.047   2.555
  271SOL     OW 1527   0.159   1.761   2.081
  271SOL    HW1 1528   0.188   1.851   2.073
  271SOL    HW2 1529   0.109   1.744   2.002
  271SOL     MW 1530   0.157   1.769   2.070
  272SOL     OW 1531   0.946   0.016   2.966
  272SOL    HW1 1532   0.905   0.094   2.928
  272SOL    HW2 1533   1.040   0.034   2.961
  272SOL     MW 1534   0.952   0.028   2.961
  273SOL     OW 1535   1.563   1.569   2.052
  273SOL    HW1 1536   1.611   1.638   2.098
  273SOL    HW2 1537   1.484   1.613   2.021
  273SOL     MW 1538   1.558   1.583   2.055
  274SOL     OW 1539   0.961   0.694   1.996
  274SOL    HW1 1540   0.963   0.641   1.917
  274SOL    HW2 1541   1.049   0.731   2.002
  274SOL     MW 1542   0.973   0.693   1.985
  275SOL     OW 1543   1.575   0.620   2.332
  275SOL    HW1 1544   1.614   0.620   2.419
  275SOL    HW2 1545   1.516   0.696   2.332
  275SOL     MW 1546   1.572   0.631   2.343
  276SOL     OW 1547   0.892   0.987   3.461
  276SOL    HW1 1548   0.869   0.967   3.551
  276SOL    HW2 1549   0.977   1.031   3.466
  276SOL     MW 1550   0.899   0.990   3.473
  277SOL     OW 1551   0.972   0.124   3.221
  277SOL    HW1 1552   0.978   0.086   3.134
  277SOL    HW2 1553   0.961   0.218   3.206
  277SOL     MW 1554   0.973   0.132   3.209
  278SOL     OW 1555   1.061   0.613   3.055
  278SOL    HW1 1556   1.136   0.642   3.002
  278SOL    HW2 1557   0.993   0.678   3.039
  278SOL     MW 1558   1.062   0.625   3.045
  279SOL     OW 1559   1.611   0.581   3.332
  279SOL    HW1 1560   1.592   0.490   3.311
  279SOL    HW2 1561   1.589   0.630   3.253
  279SOL     MW 1562   1.606   0.574   3.319
  280SOL     OW 1563   1.753   1.675   3.236
  280SOL    HW1 1564   1.681   1.637   3.287
  280SOL    HW2 1565   1.770   1.760   3.277
  280SOL     MW 1566   1.747   1.680   3.248
  281SOL     OW 1567   1.058   0.319   3.438
  281SOL    HW1 1568   1.024   0.358   3.357
  281SOL    HW2 1569   1.036   0.227   3.431
  281SOL     MW 1570   1.051   0.312   3.428
  282SOL     OW 1571   1.467   1.133   3.514
  282SOL    HW1 1572   1.549   1.174   3.544
  282SOL    HW2 1573   1.430   1.095   3.594
  282SOL     MW 1574   1.473   1.134   3.529
  283SOL     OW 1575   1.762   0.506   2.498
  283SOL    HW1 1576   1.851   0.475   2.515
  283SOL    HW2 1577   1.705   0.446   2.546
  283SOL     MW 1578   1.765   0.494   2.507
  284SOL     OW 1579   0.188   0.220   2.527
  284SOL    HW1 1580   0.179   0.160   2.453
  284SOL    HW2 1581   0.121   0.191   2.590
  284SOL     MW 1582   0.178   0.207   2.525
  285SOL     OW 1583   1.131   1.313   2.088
  285SOL    HW1 1584   1.081   1.315   2.170
  285SOL    HW2 1585   1.065   1.331   2.020
  285SOL     MW 1586   1.117   1.315   2.090
  286SOL     OW 1587   0.135   0.393   2.890
  286SOL    HW1 1588   0.107   0.484   2.899
  286SOL    HW2 1589   0.072   0.354   2.829
  286SOL     MW 1590   0.122   0.399   2.884
  287SOL     OW 1591   0.594   1.731   2.196
  287SOL    HW1 1592   0.515   1.689   2.229
  287SOL    HW2 1593   0.660   1.714   2.263
  287SOL     MW 1594   0.593   1.723   2.209
  288SOL     OW 1595   1.722   1.251   3.593
  288SOL    HW1 1596   1.772   1.177   3.625
  288SOL    HW2 1597   1.668   1.278   3.668
  288SOL     MW 1598   1.722   1.245   3.606
  289SOL     OW 1599   0.730   1.146   1.903
  289SOL    HW1 1600   0.652   1.092   1.890
  289SOL    HW2 1601   0.701   1.219   1.956
  289SOL     MW 1602   0.716   1.148   1.908
  290SOL     OW 1603   1.856   0.886   3.095
  290SOL    HW1 1604   1.872   0.924   3.008
  290SOL    HW2 1605   1.890   0.952   3.156
  290SOL     MW 1606   1.863   0.899   3.091
  291SOL     OW 1607   1.648   1.595   2.764
  291SOL    HW1 1608   1.677   1.662   2.825
  291SOL    HW2 1609   1.629   1.519   2.819
  291SOL     MW 1610   1.650   1.595   2.779
  292SOL     OW 1611   1.311   1.662   1.971
  292SOL    HW1 1612   1.237   1.625   2.021
  292SOL    HW2 1613   1.319   1.752   2.004
  292SOL     MW 1614   1.302   1.669   1.983
  293SOL     OW 1615   0.119   0.668   3.060
  293SOL    HW1 1616   0.181   0.698   3.126
  293SOL    HW2 1617   0.053   0.737   3.054
  293SOL     MW 1618   0.118   0.681   3.067
  294SOL     OW 1619   1.535   1.336   1.913
  294SOL    HW1 1620   1.482   1.385   1.849
  294SOL    HW2 1621   1.566   1.402   1.974
  294SOL     MW 1622   1.533   1.350   1.911
  295SOL     OW 1623   0.760   0.225   1.968
  295SOL    HW1 1624   0.708   0.145   1.956
  295SOL    HW2 1625   0.847   0.202   1.936
  295SOL     MW 1626   0.763   0.211   1.962
  296SOL     OW 1627   0.214   1.777   3.512
  296SOL    HW1 1628   0.188   1.845   3.450
  296SOL    HW2 1629   0.262   1.714   3.460
  296SOL     MW 1630   0.216   1.777   3.498
  297SOL     OW 1631   0.266   1.096   3.019
  297SOL    HW1 1632   0.319   1.171   3.044
  297SOL    HW2 1633   0.185   1.134   2.985
  297SOL     MW 1634   0.262   1.111   3.019
  298SOL     OW 1635   0.806   1.000   3.007
  298SOL    HW1 1636   0.834   0.909   3.019
  298SOL    HW2 1637   0.735   0.994   2.943
  298SOL     MW 1638   0.799   0.988   3.002
  299SOL     OW 1639   0.121   0.865   2.425
  299SOL    HW1 1640   0.212   0.880   2.452
  299SOL    HW2 1641   0.124   0.786   2.371
  299SOL     MW 1642   0.133   0.857   2.423
  300SOL     OW 1643   0.357   0.573   3.679
  300SOL    HW1 1644   0.304   0.653   3.686
  300SOL    HW2 1645   0.427   0.585   3.744
  300SOL     MW 1646   0.359   0.586   3.687
  301SOL     OW 1647   0.743   0.123   3.386
  301SOL    HW1 1648   0.720   0.031   3.388
  301SOL    HW2 1649   0.829   0.125   3.343
  301SOL     MW 1650   0.750   0.113   3.382
  302SOL     OW 1651   0.427   0.647   3.425
  302SOL    HW1 1652   0.507   0.697   3.411
  302SOL    HW2 1653   0.418   0.641   3.520
  302SOL     MW 1654   0.436   0.653   3.435
  303SOL     OW 1655   0.748   1.797   2.799
  303SOL    HW1 1656   0.837   1.812   2.829
  303SOL    HW2 1657   0.743   1.844   2.715
  303SOL     MW 1658   0.758   1.805   2.792
  304SOL     OW 1659   1.404   0.172   3.696
  304SOL    HW1 1660   1.460   0.099   3.722
  304SOL    HW2 1661   1.374   0.210   3.778
  304SOL     MW 1662   1.408   0.167   3.709
  305SOL     OW 1663   0.129   1.477   2.464
  305SOL    HW1 1664   0.101   1.516   2.546
  305SOL    HW2 1665   0.149   1.386   2.486
  305SOL     MW 1666   0.127   1.469   2.477
  306SOL     OW 1667   0.962   1.520   2.499
  306SOL    HW1 1668   1.045   1.474   2.483
  306SOL    HW2 1669   0.952   1.519   2.595
  306SOL     MW 1670   0.972   1.513   2.509
  307SOL     OW 1671   1.794   0.665   2.813
  307SOL    HW1 1672   1.883   0.695   2.795
  307SOL    HW2 1673   1.774   0.605   2.742
  307SOL     MW 1674   1.803   0.662   2.802
  308SOL     OW 1675   1.645   0.844   3.693
  308SOL    HW1 1676   1.700   0.768   3.674
  308SOL    HW2 1677   1.647   0.852   3.788
  308SOL     MW 1678   1.653   0.835   3.701
  309SOL     OW 1679   0.695   1.577   1.904
  309SOL    HW1 1680   0.635   1.646   1.874
  309SOL    HW2 1681   0.640   1.519   1.957
  309SOL     MW 1682   0.679   1.579   1.906
  310SOL     OW 1683   1.133   0.222   2.127
  310SOL    HW1 1684   1.066   0.198   2.064
  310SOL    HW2 1685   1.198   0.271   2.076
  310SOL     MW 1686   1.133   0.224   2.112
  311SOL     OW 1687   0.940   0.406   3.212
  311SOL    HW1 1688   0.859   0.447   3.240
  311SOL    HW2 1689   0.987   0.474   3.164
  311SOL     MW 1690   0.935   0.421   3.210
  312SOL     OW 1691   1.200   0.744   2.835
  312SOL    HW1 1692   1.213   0.838   2.845
  312SOL    HW2 1693   1.161   0.734   2.749
  312SOL     MW 1694   1.196   0.755   2.825
  313SOL     OW 1695   0.652   0.939   2.639
  313SOL    HW1 1696   0.563   0.930   2.672
  313SOL    HW2 1697   0.656   1.029   2.607
  313SOL     MW 1698   0.641   0.950   2.639
  314SOL     OW 1699   1.451   0.522   2.634
  314SOL    HW1 1700   1.396   0.443   2.633
  314SOL    HW2 1701   1.433   0.563   2.718
  314SOL     MW 1702   1.441   0.517   2.643
  315SOL     OW 1703   0.422   0.209   3.451
  315SOL    HW1 1704   0.343   0.227   3.503
  315SOL    HW2 1705   0.417   0.271   3.378
  315SOL     MW 1706   0.412   0.219   3.448
  316SOL     OW 1707   1.070   0.726   2.591
  316SOL    HW1 1708   1.007   0.658   2.615
  316SOL    HW2 1709   1.090   0.707   2.499
  316SOL     MW 1710   1.064   0.713   2.583
  317SOL     OW 1711   0.326   1.621   2.293
  317SOL    HW1 1712   0.287   1.668   2.219
  317SOL    HW2 1713   0.260   1.556   2.318
  317SOL     MW 1714   0.313   1.619   2.287
  318SOL     OW 1715   0.818   1.030   2.317
  318SOL    HW1 1716   0.820   1.004   2.224
  318SOL    HW2 1717   0.876   0.967   2.360
  318SOL     MW 1718   0.826   1.019   2.311
  319SOL     OW 1719   1.371   1.590   3.089
  319SOL    HW1 1720   1.296   1.636   3.127
  319SOL    HW2 1721   1.353   1.497   3.106
  319SOL     MW 1722   1.360   1.584   3.097
  320SOL     OW 1723   1.375   1.798   2.519
  320SOL    HW1 1724   1.318   1.751   2.458
  320SOL    HW2 1725   1.461   1.759   2.506
  320SOL     MW 1726   1.378   1.789   2.509
  321SOL     OW 1727   1.328   0.274   2.650
  321SOL    HW1 1728   1.356   0.206   2.711
  321SOL    HW2 1729   1.242   0.245   2.620
  321SOL     MW 1730   1.321   0.261   2.654
  322SOL     OW 1731   0.133   1.208   2.584
  322SOL    HW1 1732   0.197   1.240   2.647
  322SOL    HW2 1733   0.182   1.144   2.532
  322SOL     MW 1734   0.148   1.204   2.585
  323SOL     OW 1735   0.633   1.284   3.566
  323SOL    HW1 1736   0.681   1.367   3.553
  323SOL    HW2 1737   0.690   1.232   3.622
  323SOL     MW 1738   0.647   1.288   3.572
  324SOL     OW 1739   0.209   1.526   3.706
  324SOL    HW1 1740   0.265   1.450   3.721
  324SOL    HW2 1741   0.158   1.504   3.628
  324SOL     MW 1742   0.209   1.513   3.697
  325SOL     OW 1743   1.308   0.378   1.985
  325SOL    HW1 1744   1.281   0.444   1.921
  325SOL    HW2 1745   1.378   0.421   2.035
  325SOL     MW 1746   1.313   0.391   1.982
  326SOL     OW 1747   0.976   0.083   1.922
  326SOL    HW1 1748   1.032   0.075   1.844
  326SOL    HW2 1749   0.953  -0.007   1.944
  326SOL     MW 1750   0.981   0.070   1.915
  327SOL     OW 1751   1.481   0.934   2.127
  327SOL    HW1 1752   1.448   1.023   2.117
  327SOL    HW2 1753   1.446   0.905   2.212
  327SOL     MW 1754   1.471   0.943   2.138
  328SOL     OW 1755   1.094   1.363   3.315
  328SOL    HW1 1756   1.005   1.369   3.283
  328SOL    HW2 1757   1.138   1.442   3.283
  328SOL     MW 1758   1.089   1.373   3.307
  329SOL     OW 1759   0.387   0.031   3.657
  329SOL    HW1 1760   0.315  -0.004   3.605
  329SOL    HW2 1761   0.445   0.072   3.592
  329SOL     MW 1762   0.385   0.032   3.642
  330SOL     OW 1763   0.411   1.521   2.956
  330SOL    HW1 1764   0.456   1.583   3.013
  330SOL    HW2 1765   0.318   1.540   2.969
  330SOL     MW 1766   0.404   1.531   2.963
  331SOL     OW 1767   1.851   1.050   3.310
  331SOL    HW1 1768   1.766   1.063   3.269
  331SOL    HW2 1769   1.831   1.014   3.397
  331SOL     MW 1770   1.838   1.046   3.315
  332SOL     OW 1771   0.833   1.589   3.064
  332SOL    HW1 1772   0.857   1.578   2.973
  332SOL    HW2 1773   0.756   1.646   3.062
  332SOL     MW 1774   0.825   1.594   3.053
  333SOL     OW 1775   0.475   0.972   1.919
  333SOL    HW1 1776   0.398   0.985   1.975
  333SOL    HW2 1777   0.439   0.936   1.838
  333SOL     MW 1778   0.461   0.968   1.916
  334SOL     OW 1779   1.128   0.945   2.162
  334SOL    HW1 1780   1.038   0.966   2.137
  334SOL    HW2 1781   1.155   1.018   2.218
  334SOL     MW 1782   1.120   0.957   2.165
  335SOL     OW 1783   0.628   1.294   2.854
  335SOL    HW1 1784   0.621   1.273   2.948
  335SOL    HW2 1785   0.546   1.262   2.817
  335SOL     MW 1786   0.616   1.288   2.861
  336SOL     OW 1787   1.492   0.304   3.256
  336SOL    HW1 1788   1.439   0.306   3.336
  336SOL    HW2 1789   1.477   0.217   3.219
  336SOL     MW 1790   1.484   0.294   3.261
  337SOL     OW 1791   1.828   0.228   3.129
  337SOL    HW1 1792   1.809   0.295   3.064
  337SOL    HW2 1793   1.885   0.166   3.084
  337SOL     MW 1794   1.832   0.229   3.115
  338SOL     OW 1795   0.074   1.386   3.517
  338SOL    HW1 1796   0.118   1.319   3.463
  338SOL    HW2 1797  -0.011   1.348   3.537
  338SOL     MW 1798   0.069   1.372   3.513
  339SOL     OW 1799   0.757   0.061   2.569
  339SOL    HW1 1800   0.686   0.122   2.551
  339SOL    HW2 1801   0.808   0.058   2.488
  339SOL     MW 1802   0.753   0.067   2.556
  340SOL     OW 1803   0.515   1.301   2.318
  340SOL    HW1 1804   0.508   1.333   2.408
  340SOL    HW2 1805   0.425   1.285   2.290
  340SOL     MW 1806   0.503   1.303   2.325
  341SOL     OW 1807   1.110   1.694   3.227
  341SOL    HW1 1808   1.030   1.679   3.177
  341SOL    HW2 1809   1.117   1.789   3.234
  341SOL     MW 1810   1.101   1.705   3.221
  342SOL     OW 1811   1.224   1.659   2.717
  342SOL    HW1 1812   1.271   1.732   2.676
  342SOL    HW2 1813   1.145   1.698   2.753
  342SOL     MW 1814   1.219   1.674   2.716
  343SOL     OW 1815   1.632   1.754   2.992
  343SOL    HW1 1816   1.675   1.724   3.072
  343SOL    HW2 1817   1.551   1.702   2.989
  343SOL     MW 1818   1.627   1.743   3.002
  344SOL     OW 1819   0.717   0.718   3.699
  344SOL    HW1 1820   0.787   0.660   3.671
  344SOL    HW2 1821   0.660   0.663   3.754
  344SOL     MW 1822   0.719   0.705   3.703
  345SOL     OW 1823   1.504   0.930   3.332
  345SOL    HW1 1824   1.509   0.983   3.412
  345SOL    HW2 1825   1.466   0.847   3.360
  345SOL     MW 1826   1.500   0.925   3.347
  346SOL     OW 1827   1.144   0.065   3.578
  346SOL    HW1 1828   1.139  -0.028   3.559
  346SOL    HW2 1829   1.227   0.076   3.624
  346SOL     MW 1830   1.152   0.054   3.582
  347SOL     OW 1831   0.518   0.585   2.032
  347SOL    HW1 1832   0.484   0.641   2.102
  347SOL    HW2 1833   0.589   0.535   2.072
  347SOL     MW 1834   0.524   0.586   2.046
  348SOL     OW 1835   1.614   1.336   2.854
  348SOL    HW1 1836   1.649   1.318   2.767
  348SOL    HW2 1837   1.519   1.337   2.841
  348SOL     MW 1838   1.606   1.333   2.841
  349SOL     OW 1839   1.043   0.984   3.223
  349SOL    HW1 1840   1.086   1.019   3.301
  349SOL    HW2 1841   1.026   1.061   3.169
  349SOL     MW 1842   1.046   0.999   3.226
  350SOL     OW 1843   1.574   0.471   2.096
  350SOL    HW1 1844   1.566   0.542   2.033
  350SOL    HW2 1845   1.592   0.515   2.179
  350SOL     MW 1846   1.575   0.485   2.098
  351SOL     OW 1847   0.434   0.126   2.525
  351SOL    HW1 1848   0.484   0.169   2.456
  351SOL    HW2 1849   0.349   0.170   2.525
  351SOL     MW 1850   0.431   0.139   2.516
  352SOL     OW 1851   0.193   1.188   3.385
  352SOL    HW1 1852   0.221   1.141   3.463
  352SOL    HW2 1853   0.114   1.143   3.356
  352SOL     MW 1854   0.186   1.177   3.391
  353SOL     OW 1855   0.701   0.515   3.352
  353SOL    HW1 1856   0.673   0.603   3.376
  353SOL    HW2 1857   0.670   0.459   3.423
  353SOL     MW 1858   0.693   0.518   3.364
  354SOL     OW 1859   1.243   0.733   2.071
  354SOL    HW1 1860   1.290   0.751   1.990
  354SOL    HW2 1861   1.209   0.817   2.099
  354SOL     MW 1862   1.245   0.747   2.064
  355SOL     OW 1863   0.356   0.911   2.565
  355SOL    HW1 1864   0.414   0.967   2.513
  355SOL    HW2 1865   0.400   0.826   2.567
  355SOL     MW 1866   0.369   0.908   2.558
  356SOL     OW 1867   1.496   0.263   2.402
  356SOL    HW1 1868   1.418   0.213   2.427
  356SOL    HW2 1869   1.467   0.354   2.402
  356SOL     MW 1870   1.482   0.267   2.405
  357SOL     OW 1871   1.082   0.225   2.561
  357SOL    HW1 1872   1.102   0.300   2.505
  357SOL    HW2 1873   1.062   0.264   2.646
  357SOL     MW 1874   1.083   0.241   2.565
  358SOL     OW 1875   0.978   1.475   1.893
  358SOL    HW1 1876   1.005   1.553   1.845
  358SOL    HW2 1877   0.885   1.490   1.912
  358SOL     MW 1878   0.969   1.488   1.889
  359SOL     OW 1879   1.842   0.998   3.580
  359SOL    HW1 1880   1.755   0.978   3.616
  359SOL    HW2 1881   1.896   0.924   3.605
  359SOL     MW 1882   1.837   0.987   3.588
  360SOL     OW 1883   0.063   1.511   2.737
  360SOL    HW1 1884   0.095   1.515   2.828
  360SOL    HW2 1885  -0.032   1.519   2.745
  360SOL     MW 1886   0.055   1.514   2.750
  361SOL     OW 1887   0.018   0.637   2.284
  361SOL    HW1 1888  -0.042   0.609   2.354
  361SOL    HW2 1889   0.092   0.577   2.290
  361SOL     MW 1890   0.020   0.626   2.293
  362SOL     OW 1891   1.586   1.849   3.718
  362SOL    HW1 1892   1.631   1.773   3.683
  362SOL    HW2 1893   1.624   1.862   3.805
  362SOL     MW 1894   1.596   1.842   3.724
  363SOL     OW 1895   1.186   1.368   2.444
  363SOL    HW1 1896   1.209   1.319   2.522
  363SOL    HW2 1897   1.267   1.410   2.416
  363SOL     MW 1898   1.199   1.368   2.451
  364SOL     OW 1899   0.444   0.376   3.173
  364SOL    HW1 1900   0.477   0.457   3.213
  364SOL    HW2 1901   0.417   0.402   3.085
  364SOL     MW 1902   0.443   0.390   3.167
  365SOL     OW 1903   0.398   0.343   2.909
  365SOL    HW1 1904   0.428   0.257   2.880
  365SOL    HW2 1905   0.303   0.336   2.912
  365SOL     MW 1906   0.390   0.332   2.907
  366SOL     OW 1907   1.227   0.552   3.600
  366SOL    HW1 1908   1.279   0.487   3.553
  366SOL    HW2 1909   1.185   0.603   3.530
  366SOL     MW 1910   1.228   0.549   3.583
  367SOL     OW 1911   1.326   0.347   3.461
  367SOL    HW1 1912   1.233   0.331   3.448
  367SOL    HW2 1913   1.352   0.285   3.529
  367SOL     MW 1914   1.316   0.337   3.468
  368SOL     OW 1915   0.541   0.121   2.800
  368SOL    HW1 1916   0.551   0.030   2.826
  368SOL    HW2 1917   0.497   0.117   2.715
  368SOL     MW 1918   0.537   0.109   2.792
  369SOL     OW 1919   0.635   1.736   3.346
  369SOL    HW1 1920   0.552   1.721   3.391
  369SOL    HW2 1921   0.694   1.669   3.381
  369SOL     MW 1922   0.633   1.726   3.356
  370SOL     OW 1923   1.692   0.443   2.971
  370SOL    HW1 1924   1.625   0.476   3.031
  370SOL    HW2 1925   1.735   0.521   2.937
  370SOL     MW 1926   1.690   0.458   2.975
  371SOL     OW 1927   1.870   1.163   2.941
  371SOL    HW1 1928   1.863   1.103   2.866
  371SOL    HW2 1929   1.796   1.223   2.930
  371SOL     MW 1930   1.860   1.163   2.930
  372SOL     OW 1931   1.252   1.025   2.859
  372SOL    HW1 1932   1.266   0.997   2.950
  372SOL    HW2 1933   1.338   1.056   2.831
  372SOL     MW 1934   1.265   1.026   2.868
  373SOL     OW 1935   1.335   0.520   3.138
  373SOL    HW1 1936   1.356   0.521   3.045
  373SOL    HW2 1937   1.380   0.442   3.171
  373SOL     MW 1938   1.342   0.510   3.130
  374SOL     OW 1939   1.828   0.651   3.680
  374SOL    HW1 1940   1.865   0.596   3.749
  374SOL    HW2 1941   1.853   0.608   3.598
  374SOL     MW 1942   1.835   0.639   3.679
  375SOL     OW 1943   1.375   0.949   3.731
  375SOL    HW1 1944   1.441   0.897   3.685
  375SOL    HW2 1945   1.395   0.936   3.824
  375SOL     MW 1946   1.386   0.940   3.738
  376SOL     OW 1947   1.326   0.035   2.080
  376SOL    HW1 1948   1.400   0.079   2.123
  376SOL    HW2 1949   1.250   0.089   2.102
  376SOL     MW 1950   1.326   0.047   2.088
  377SOL     OW 1951   1.386   0.810   2.358
  377SOL    HW1 1952   1.301   0.780   2.328
  377SOL    HW2 1953   1.378   0.817   2.453
  377SOL     MW 1954   1.374   0.808   2.367
  378SOL     OW 1955   0.462   1.273   3.089
  378SOL    HW1 1956   0.474   1.300   3.180
  378SOL    HW2 1957   0.443   1.354   3.042
  378SOL     MW 1958   0.461   1.288   3.094
  379SOL     OW 1959   0.746   0.253   2.912
  379SOL    HW1 1960   0.719   0.255   3.003
  379SOL    HW2 1961   0.676   0.205   2.867
  379SOL     MW 1962   0.734   0.249   2.919
  380SOL     OW 1963   0.600   1.745   3.074
  380SOL    HW1 1964   0.652   1.822   3.051
  380SOL    HW2 1965   0.609   1.737   3.169
  380SOL     MW 1966   0.609   1.752   3.085
  381SOL     OW 1967   1.502   1.330   3.306
  381SOL    HW1 1968   1.487   1.259   3.369
  381SOL    HW2 1969   1.548   1.288   3.234
  381SOL     MW 1970   1.508   1.314   3.306
  382SOL     OW 1971   0.576   1.061   3.423
  382SOL    HW1 1972   0.613   1.066   3.335
  382SOL    HW2 1973   0.615   1.134   3.470
  382SOL     MW 1974   0.586   1.071   3.418
  383SOL     OW 1975   0.756   1.104   3.235
  383SOL    HW1 1976   0.815   1.050   3.288
  383SOL    HW2 1977   0.771   1.076   3.145
  383SOL     MW 1978   0.766   1.093   3.231
  384SOL     OW 1979   0.759   0.476   2.084
  384SOL    HW1 1980   0.832   0.525   2.047
  384SOL    HW2 1981   0.775   0.385   2.058
  384SOL     MW 1982   0.771   0.471   2.077
  385SOL     OW 1983   1.567   1.593   3.407
  385SOL    HW1 1984   1.609   1.578   3.492
  385SOL    HW2 1985   1.558   1.506   3.369
  385SOL     MW 1986   1.571   1.581   3.414
  386SOL     OW 1987   1.227   0.072   2.998
  386SOL    HW1 1988   1.282   0.081   2.920
  386SOL    HW2 1989   1.282   0.106   3.069
  386SOL     MW 1990   1.241   0.077   2.997
  387SOL     OW 1991   0.234   0.985   2.182
  387SOL    HW1 1992   0.171   1.001   2.111
  387SOL    HW2 1993   0.181   0.948   2.253
  387SOL     MW 1994   0.219   0.982   2.182
  388SOL     OW 1995   0.590   1.339   2.041
  388SOL    HW1 1996   0.605   1.315   2.133
  388SOL    HW2 1997   0.498   1.317   2.025
  388SOL     MW 1998   0.580   1.332   2.051
  389SOL     OW 1999   1.129   1.570   2.193
  389SOL    HW1 2000   1.137   1.488   2.144
  389SOL    HW2 2001   1.048   1.609   2.160
  389SOL     MW 2002   1.119   1.565   2.183
  390SOL     OW 2003   0.388   1.728   2.762
  390SOL    HW1 2004   0.392   1.639   2.797
  390SOL    HW2 2005   0.414   1.719   2.671
  390SOL     MW 2006   0.391   1.716   2.754
  391SOL     OW 2007   1.005   1.206   3.005
  391SOL    HW1 2008   0.937   1.140   3.021
  391SOL    HW2 2009   1.023   1.200   2.912
  391SOL     MW 2010   0.998   1.197   2.996
  392SOL     OW 2011   0.094   1.481   3.256
  392SOL    HW1 2012   0.084   1.439   3.342
  392SOL    HW2 2013   0.015   1.534   3.246
  392SOL     MW 2014   0.083   1.482   3.267
  393SOL     OW 2015   0.998   0.345   2.826
  393SOL    HW1 2016   0.928   0.297   2.871
  393SOL    HW2 2017   1.030   0.408   2.890
  393SOL     MW 2018   0.993   0.347   2.840
  394SOL     OW 2019   0.649   0.781   3.446
  394SOL    HW1 2020   0.642   0.876   3.434
  394SOL    HW2 2021   0.658   0.770   3.541
  394SOL     MW 2022   0.650   0.793   3.456
  395SOL     OW 2023   0.370   1.296   3.704
  395SOL    HW1 2024   0.442   1.298   3.641
  395SOL    HW2 2025   0.340   1.205   3.703
  395SOL     MW 2026   0.375   1.285   3.696
  396SOL     OW 2027   1.454   0.059   3.171
  396SOL    HW1 2028   1.525   0.005   3.135
  396SOL    HW2 2029   1.453   0.038   3.264
  396SOL     MW 2030   1.463   0.050   3.179
  397SOL     OW 2031   1.654   1.589   3.655
  397SOL    HW1 2032   1.627   1.586   3.746
  397SOL    HW2 2033   1.750   1.593   3.658
  397SOL     MW 2034   1.664   1.589   3.667
  398SOL     OW 2035   0.465   0.451   2.639
  398SOL    HW1 2036   0.536   0.399   2.602
  398SOL    HW2 2037   0.451   0.416   2.726
  398SOL     MW 2038   0.473   0.440   2.646
  399SOL     OW 2039   0.020   1.786   3.711
  399SOL    HW1 2040   0.070   1.764   3.633
  399SOL    HW2 2041   0.028   1.881   3.719
  399SOL     MW 2042   0.028   1.795   3.702
  400SOL     OW 2043   0.781   1.544   2.715
  400SOL    HW1 2044   0.709   1.481   2.728
  400SOL    HW2 2045   0.742   1.629   2.733
  400SOL     MW 2046   0.765   1.547   2.718
  401SOL     OW 2047   1.101   0.392   2.363
  401SOL    HW1 2048   1.123   0.329   2.295
  401SOL    HW2 2049   1.006   0.384   2.374
  401SOL     MW 2050   1.091   0.383   2.355
  402SOL     OW 2051   0.186   0.082   2.295
  402SOL    HW1 2052   0.257   0.103   2.234
  402SOL    HW2 2053   0.140   0.010   2.253
  402SOL     MW 2054   0.190   0.076   2.281
  403SOL     OW 2055   0.017   0.549   3.438
  403SOL    HW1 2056   0.081   0.615   3.413
  403SOL    HW2 2057  -0.064   0.576   3.395
  403SOL     MW 2058   0.015   0.561   3.430
  404SOL     OW 2059   1.755   1.456   2.395
  404SOL    HW1 2060   1.725   1.389   2.456
  404SOL    HW2 2061   1.849   1.462   2.409
  404SOL     MW 2062   1.763   1.448   2.405
  405SOL     OW 2063   1.311   1.133   2.325
  405SOL    HW1 2064   1.283   1.219   2.358
  405SOL    HW2 2065   1.339   1.149   2.235
  405SOL     MW 2066   1.311   1.147   2.317
  406SOL     OW 2067   0.973   0.053   2.378
  406SOL    HW1 2068   1.010   0.112   2.443
  406SOL    HW2 2069   0.950   0.109   2.304
  406SOL     MW 2070   0.974   0.068   2.377
  407SOL     OW 2071   1.826   0.935   2.800
  407SOL    HW1 2072   1.817   0.967   2.711
  407SOL    HW2 2073   1.779   0.851   2.800
  407SOL     MW 2074   1.819   0.928   2.790
  408SOL     OW 2075   0.202   0.775   3.379
  408SOL    HW1 2076   0.223   0.844   3.317
  408SOL    HW2 2077   0.282   0.722   3.384
  408SOL     MW 2078   0.215   0.776   3.373
  409SOL     OW 2079   1.738   0.866   2.501
  409SOL    HW1 2080   1.832   0.855   2.489
  409SOL    HW2 2081   1.714   0.938   2.442
  409SOL     MW 2082   1.748   0.874   2.492
  410SOL     OW 2083   0.187   0.790   3.646
  410SOL    HW1 2084   0.113   0.734   3.672
  410SOL    HW2 2085   0.182   0.793   3.551
  410SOL     MW 2086   0.176   0.783   3.636
  411SOL     OW 2087   0.353   0.077   3.096
  411SOL    HW1 2088   0.396   0.161   3.116
  411SOL    HW2 2089   0.426   0.015   3.089
  411SOL     MW 2090   0.368   0.080   3.097
  412SOL     OW 2091   0.394   0.744   2.274
  412SOL    HW1 2092   0.394   0.839   2.259
  412SOL    HW2 2093   0.471   0.728   2.328
  412SOL     MW 2094   0.404   0.755   2.279
  413SOL     OW 2095   1.170   0.603   3.338
  413SOL    HW1 2096   1.206   0.576   3.254
  413SOL    HW2 2097   1.083   0.637   3.317
  413SOL     MW 2098   1.164   0.604   3.325
  414SOL     OW 2099   0.153   0.475   2.563
  414SOL    HW1 2100   0.215   0.482   2.636
  414SOL    HW2 2101   0.153   0.382   2.540
  414SOL     MW 2102   0.161   0.464   2.570
  415SOL     OW 2103   1.700   1.815   2.095
  415SOL    HW1 2104   1.767   1.848   2.035
  415SOL    HW2 2105   1.657   1.894   2.129
  415SOL     MW 2106   1.702   1.830   2.091
  416SOL     OW 2107   0.835   0.736   3.047
  416SOL    HW1 2108   0.793   0.654   3.023
  416SOL    HW2 2109   0.836   0.735   3.143
  416SOL     MW 2110   0.828   0.725   3.056
  417SOL     OW 2111   1.506   1.869   3.446
  417SOL    HW1 2112   1.509   1.775   3.429
  417SOL    HW2 2113   1.529   1.877   3.538
  417SOL     MW 2114   1.509   1.857   3.456
  418SOL     OW 2115   0.639   0.206   3.152
  418SOL    HW1 2116   0.570   0.269   3.173
  418SOL    HW2 2117   0.666   0.170   3.237
  418SOL     MW 2118   0.633   0.209   3.165
  419SOL     OW 2119   0.022   1.047   2.021
  419SOL    HW1 2120  -0.009   1.112   2.084
  419SOL    HW2 2121  -0.029   0.969   2.040
  419SOL     MW 2122   0.012   1.044   2.031
  420SOL     OW 2123   1.434   0.059   2.769
  420SOL    HW1 2124   1.522   0.068   2.806
  420SOL    HW2 2125   1.444   0.000   2.695
  420SOL     MW 2126   1.448   0.053   2.763
  421SOL     OW 2127   1.466   0.798   2.613
  421SOL    HW1 2128   1.546   0.813   2.562
  421SOL    HW2 2129   1.459   0.703   2.619
  421SOL     MW 2130   1.475   0.787   2.608
  422SOL     OW 2131   0.606   1.847   1.963
  422SOL    HW1 2132   0.511   1.847   1.955
  422SOL    HW2 2133   0.622   1.793   2.041
  422SOL     MW 2134   0.596   1.841   1.972
  423SOL     OW 2135   0.916   0.724   3.310
  423SOL    HW1 2136   0.985   0.791   3.307
  423SOL    HW2 2137   0.849   0.762   3.366
  423SOL     MW 2138   0.917   0.737   3.317
  424SOL     OW 2139   0.334   1.024   3.558
  424SOL    HW1 2140   0.288   0.940   3.560
  424SOL    HW2 2141   0.391   1.018   3.482
  424SOL     MW 2142   0.336   1.012   3.550
  425SOL     OW 2143   1.451   0.667   1.879
  425SOL    HW1 2144   1.379   0.643   1.821
  425SOL    HW2 2145   1.517   0.704   1.821
  425SOL     MW 2146   1.450   0.669   1.864
  426SOL     OW 2147   0.585   1.399   2.559
  426SOL    HW1 2148   0.650   1.332   2.580
  426SOL    HW2 2149   0.637   1.476   2.536
  426SOL     MW 2150   0.600   1.401   2.558
  427SOL     OW 2151   0.846   0.564   2.689
  427SOL    HW1 2152   0.786   0.582   2.761
  427SOL    HW2 2153   0.880   0.476   2.708
  427SOL     MW 2154   0.842   0.554   2.702
  428SOL     OW 2155   1.787   0.063   3.358
  428SOL    HW1 2156   1.708   0.109   3.386
  428SOL    HW2 2157   1.822   0.117   3.287
  428SOL     MW 2158   1.781   0.076   3.352
  429SOL     OW 2159   1.071   1.147   2.708
  429SOL    HW1 2160   1.163   1.128   2.726
  429SOL    HW2 2161   1.044   1.077   2.648
  429SOL     MW 2162   1.079   1.135   2.702
  430SOL     OW 2163   0.864   0.967   2.063
  430SOL    HW1 2164   0.850   0.879   2.028
  430SOL    HW2 2165   0.815   1.024   2.004
  430SOL     MW 2166   0.856   0.962   2.051
  431SOL     OW 2167   1.345   1.385   2.804
  431SOL    HW1 2168   1.318   1.469   2.769
  431SOL    HW2 2169   1.305   1.380   2.891
  431SOL     MW 2170   1.338   1.394   2.810
  432SOL     OW 2171   1.264   1.333   3.072
  432SOL    HW1 2172   1.275   1.300   3.161
  432SOL    HW2 2173   1.183   1.292   3.041
  432SOL     MW 2174   1.254   1.325   3.078
  433SOL     OW 2175   0.277   0.691   2.842
  433SOL    HW1 2176   0.227   0.690   2.923
  433SOL    HW2 2177   0.297   0.783   2.826
  433SOL     MW 2178   0.273   0.703   2.850
  434SOL     OW 2179   1.344   1.455   3.604
  434SOL    HW1 2180   1.344   1.549   3.620
  434SOL    HW2 2181   1.389   1.445   3.520
  434SOL     MW 2182   1.350   1.465   3.595
  435SOL     OW 2183   1.583   0.173   2.165
  435SOL    HW1 2184   1.576   0.177   2.260
  435SOL    HW2 2185   1.595   0.264   2.138
  435SOL     MW 2186   1.584   0.186   2.173
  436SOL     OW 2187   0.872   0.736   2.279
  436SOL    HW1 2188   0.852   0.722   2.186
  436SOL    HW2 2189   0.965   0.715   2.286
  436SOL     MW 2190   0.882   0.731   2.268
  437SOL     OW 2191   0.199   0.359   3.583
  437SOL    HW1 2192   0.156   0.418   3.520
  437SOL    HW2 2193   0.267   0.414   3.623
  437SOL     MW 2194   0.203   0.374   3.580
  438SOL     OW 2195   1.311   0.979   3.128
  438SOL    HW1 2196   1.374   0.976   3.201
  438SOL    HW2 2197   1.227   0.997   3.170
  438SOL     MW 2198   1.307   0.981   3.143
  439SOL     OW 2199   0.855   1.694   2.317
  439SOL    HW1 2200   0.913   1.765   2.344
  439SOL    HW2 2201   0.878   1.622   2.375
  439SOL     MW 2202   0.866   1.694   2.328
  440SOL     OW 2203   1.650   0.156   2.907
  440SOL    HW1 2204   1.695   0.074   2.926
  440SOL    HW2 2205   1.670   0.212   2.983
  440SOL     MW 2206   1.660   0.152   2.919
  441SOL     OW 2207   0.098  -0.001   3.006
  441SOL    HW1 2208   0.089   0.000   2.911
  441SOL    HW2 2209   0.192   0.011   3.021
  441SOL     MW 2210   0.110   0.002   2.997
  442SOL     OW 2211   1.735   1.192   2.626
  442SOL    HW1 2212   1.714   1.138   2.549
  442SOL    HW2 2213   1.831   1.190   2.630
  442SOL     MW 2214   1.744   1.185   2.615
  443SOL     OW 2215   0.427   1.337   3.369
  443SOL    HW1 2216   0.348   1.287   3.392
  443SOL    HW2 2217   0.497   1.296   3.419
  443SOL     MW 2218   0.425   1.325   3.379
  444SOL     OW 2219   0.311   0.126   2.052
  444SOL    HW1 2220   0.240   0.181   2.020
  444SOL    HW2 2221   0.353   0.092   1.973
  444SOL     MW 2222   0.307   0.128   2.038
  445SOL     OW 2223   1.435   0.623   2.888
  445SOL    HW1 2224   1.358   0.669   2.854
  445SOL    HW2 2225   1.492   0.692   2.922
  445SOL     MW 2226   1.432   0.638   2.888
  446SOL     OW 2227   0.067   0.225   1.901
  446SOL    HW1 2228   0.034   0.304   1.945
  446SOL    HW2 2229   0.122   0.258   1.830
  446SOL     MW 2230   0.070   0.239   1.898
  447SOL     OW 2231   0.101   1.482   2.090
  447SOL    HW1 2232   0.118   1.566   2.132
  447SOL    HW2 2233   0.136   1.491   2.002
  447SOL     MW 2234   0.106   1.495   2.084
  448SOL     OW 2235   1.373   1.571   2.307
  448SOL    HW1 2236   1.436   1.561   2.236
  448SOL    HW2 2237   1.290   1.591   2.262
  448SOL     MW 2238   1.370   1.572   2.292
  449SOL     OW 2239   1.736   0.839   3.993
  449SOL    HW1 2240   1.777   0.781   4.058
  449SOL    HW2 2241   1.643   0.831   4.010
  449SOL     MW 2242   1.730   0.831   4.003
  450SOL     OW 2243   0.530   1.022   4.222
  450SOL    HW1 2244   0.620   0.997   4.206
  450SOL    HW2 2245   0.526   1.115   4.199
  450SOL     MW 2246   0.542   1.031   4.217
  451SOL     OW 2247   1.646   1.725   4.364
  451SOL    HW1 2248   1.658   1.671   4.442
  451SOL    HW2 2249   1.683   1.673   4.293
  451SOL     MW 2250   1.652   1.710   4.365
  452SOL     OW 2251   0.814   0.478   4.235
  452SOL    HW1 2252   0.789   0.566   4.263
  452SOL    HW2 2253   0.811   0.481   4.139
  452SOL     MW 2254   0.810   0.490   4.227
  453SOL     OW 2255   0.256   0.506   4.163
  453SOL    HW1 2256   0.288   0.594   4.145
  453SOL    HW2 2257   0.244   0.504   4.258
  453SOL     MW 2258   0.259   0.518   4.175
  454SOL     OW 2259   0.655   0.261   4.250
  454SOL    HW1 2260   0.713   0.337   4.252
  454SOL    HW2 2261   0.590   0.282   4.183
  454SOL     MW 2262   0.654   0.273   4.241
  455SOL     OW 2263   0.742   1.188   4.425
  455SOL    HW1 2264   0.822   1.191   4.477
  455SOL    HW2 2265   0.770   1.155   4.339
  455SOL     MW 2266   0.756   1.184   4.420
  456SOL     OW 2267   1.369   1.170   3.941
  456SOL    HW1 2268   1.287   1.206   3.907
  456SOL    HW2 2269   1.437   1.213   3.890
  456SOL     MW 2270   1.367   1.180   3.929
  457SOL     OW 2271   0.921   1.311   4.134
  457SOL    HW1 2272   0.898   1.373   4.202
  457SOL    HW2 2273   0.878   1.229   4.160
  457SOL     MW 2274   0.913   1.307   4.145
  458SOL     OW 2275   0.418   0.284   4.102
  458SOL    HW1 2276   0.392   0.246   4.018
  458SOL    HW2 2277   0.355   0.354   4.118
  458SOL     MW 2278   0.407   0.287   4.093
  459SOL     OW 2279   0.253   1.245   4.139
  459SOL    HW1 2280   0.201   1.313   4.095
  459SOL    HW2 2281   0.250   1.171   4.079
  459SOL     MW 2282   0.245   1.244   4.126
  460SOL     OW 2283   0.915   1.708   3.917
  460SOL    HW1 2284   0.870   1.724   4.000
  460SOL    HW2 2285   0.846   1.673   3.859
  460SOL     MW 2286   0.901   1.705   3.919
  461SOL     OW 2287   1.850   0.481   3.892
  461SOL    HW1 2288   1.759   0.483   3.920
  461SOL    HW2 2289   1.895   0.543   3.950
  461SOL     MW 2290   1.843   0.489   3.902
  462SOL     OW 2291   1.595   1.084   4.242
  462SOL    HW1 2292   1.505   1.084   4.277
  462SOL    HW2 2293   1.588   1.130   4.159
  462SOL     MW 2294   1.582   1.090   4.236
  463SOL     OW 2295   1.122   0.665   4.203
  463SOL    HW1 2296   1.148   0.689   4.114
  463SOL    HW2 2297   1.104   0.572   4.199
  463SOL     MW 2298   1.124   0.657   4.190
  464SOL     OW 2299   1.787   1.285   4.054
  464SOL    HW1 2300   1.743   1.326   4.129
  464SOL    HW2 2301   1.844   1.353   4.019
  464SOL     MW 2302   1.789   1.299   4.059
  465SOL     OW 2303   0.443   1.701   4.372
  465SOL    HW1 2304   0.475   1.789   4.350
  465SOL    HW2 2305   0.396   1.673   4.294
  465SOL     MW 2306   0.442   1.709   4.359
  466SOL     OW 2307   1.827   0.063   4.421
  466SOL    HW1 2308   1.881   0.014   4.483
  466SOL    HW2 2309   1.770  -0.003   4.382
  466SOL     MW 2310   1.827   0.047   4.423
  467SOL     OW 2311   0.159   1.761   3.949
  467SOL    HW1 2312   0.188   1.851   3.941
  467SOL    HW2 2313   0.109   1.744   3.870
  467SOL     MW 2314   0.157   1.769   3.938
  468SOL     OW 2315   1.563   1.569   3.920
  468SOL    HW1 2316   1.611   1.638   3.966
  468SOL    HW2 2317   1.484   1.613   3.889
  468SOL     MW 2318   1.558   1.583   3.923
  469SOL     OW 2319   0.961   0.694   3.864
  469SOL    HW1 2320   0.963   0.641   3.785
  469SOL    HW2 2321   1.049   0.731   3.870
  469SOL     MW 2322   0.973   0.693   3.853
  470SOL     OW 2323   1.575   0.620   4.200
  470SOL    HW1 2324   1.614   0.620   4.287
  470SOL    HW2 2325   1.516   0.696   4.200
  470SOL     MW 2326   1.572   0.631   4.211
  471SOL     OW 2327   1.762   0.506   4.366
  471SOL    HW1 2328   1.851   0.475   4.383
  471SOL    HW2 2329   1.705   0.446   4.414
  471SOL     MW 2330   1.765   0.494   4.375
  472SOL     OW 2331   0.188   0.220   4.395
  472SOL    HW1 2332   0.179   0.160   4.321
  472SOL    HW2 2333   0.121   0.191   4.458
  472SOL     MW 2334   0.178   0.207   4.393
  473SOL     OW 2335   1.131   1.313   3.956
  473SOL    HW1 2336   1.081   1.315   4.038
  473SOL    HW2 2337   1.065   1.331   3.888
  473SOL     MW 2338   1.117   1.315   3.958
  474SOL     OW 2339   0.594   1.731   4.064
  474SOL    HW1 2340   0.515   1.689   4.097
  474SOL    HW2 2341   0.660   1.714   4.131
  474SOL     MW 2342   0.593   1.723   4.077
  475SOL     OW 2343   0.730   1.146   3.771
  475SOL    HW1 2344   0.652   1.092   3.758
  475SOL    HW2 2345   0.701   1.219   3.824
  475SOL     MW 2346   0.716   1.148   3.776
  476SOL     OW 2347   1.311   1.662   3.839
  476SOL    HW1 2348   1.237   1.625   3.889
  476SOL    HW2 2349   1.319   1.752   3.872
  476SOL     MW 2350   1.302   1.669   3.851
  477SOL     OW 2351   1.535   1.336   3.781
  477SOL    HW1 2352   1.482   1.385   3.717
  477SOL    HW2 2353   1.566   1.402   3.842
  477SOL     MW 2354   1.533   1.350   3.779
  478SOL     OW 2355   0.760   0.225   3.836
  478SOL    HW1 2356   0.708   0.145   3.824
  478SOL    HW2 2357   0.847   0.202   3.804
  478SOL     MW 2358   0.763   0.211   3.830
  479SOL     OW 2359   0.121   0.865   4.293
  479SOL    HW1 2360   0.212   0.880   4.320
  479SOL    HW2 2361   0.124   0.786   4.239
  479SOL     MW 2362   0.133   0.857   4.291
  480SOL     OW 2363   0.129   1.477   4.332
  480SOL    HW1 2364   0.101   1.516   4.414
  480SOL    HW2 2365   0.149   1.386   4.354
  480SOL     MW 2366   0.127   1.469   4.345
  481SOL     OW 2367   0.962   1.520   4.367
  481SOL    HW1 2368   1.045   1.474   4.351
  481SOL    HW2 2369   0.952   1.519   4.463
  481SOL     MW 2370   0.972   1.513   4.377
  482SOL     OW 2371   0.695   1.577   3.772
  482SOL    HW1 2372   0.635   1.646   3.742
  482SOL    HW2 2373   0.640   1.519   3.825
  482SOL     MW 2374   0.679   1.579   3.774
  483SOL     OW 2375   1.133   0.222   3.995
  483SOL    HW1 2376   1.066   0.198   3.932
  483SOL    HW2 2377   1.198   0.271   3.944
  483SOL     MW 2378   1.133   0.224   3.980
  484SOL     OW 2379   1.070   0.726   4.459
  484SOL    HW1 2380   1.007   0.658   4.483
  484SOL    HW2 2381   1.090   0.707   4.367
  484SOL     MW 2382   1.064   0.713   4.451
  485SOL     OW 2383   0.326   1.621   4.161
  485SOL    HW1 2384   0.287   1.668   4.087
  485SOL    HW2 2385   0.260   1.556   4.186
  485SOL     MW 2386   0.313   1.619   4.155
  486SOL     OW 2387   0.818   1.030   4.185
  486SOL    HW1 2388   0.820   1.004   4.092
  486SOL    HW2 2389   0.876   0.967   4.228
  486SOL     MW 2390   0.826   1.019   4.179
  487SOL     OW 2391   1.375   1.798   4.387
  487SOL    HW1 2392   1.318   1.751   4.326
  487SOL    HW2 2393   1.461   1.759   4.374
  487SOL     MW 2394   1.378   1.789   4.377
  488SOL     OW 2395   0.133   1.208   4.452
  488SOL    HW1 2396   0.197   1.240   4.515
  488SOL    HW2 2397   0.182   1.144   4.400
  488SOL     MW 2398   0.148   1.204   4.453
  489SOL     OW 2399   1.308   0.378   3.853
  489SOL    HW1 2400   1.281   0.444   3.789
  489SOL    HW2 2401   1.378   0.421   3.903
  489SOL     MW 2402   1.313   0.391   3.850
  490SOL     OW 2403   0.976   0.083   3.790
  490SOL    HW1 2404   1.032   0.075   3.712
  490SOL    HW2 2405   0.953  -0.007   3.812
  490SOL     MW 2406   0.981   0.070   3.783
  491SOL     OW 2407   1.481   0.934   3.995
  491SOL    HW1 2408   1.448   1.023   3.985
  491SOL    HW2 2409   1.446   0.905   4.080
  491SOL     MW 2410   1.471   0.943   4.006
  492SOL     OW 2411   0.475   0.972   3.787
  492SOL    HW1 2412   0.398   0.985   3.843
  492SOL    HW2 2413   0.439   0.936   3.706
  492SOL     MW 2414   0.461   0.968   3.784
  493SOL     OW 2415   1.128   0.945   4.030
  493SOL    HW1 2416   1.038   0.966   4.005
  493SOL    HW2 2417   1.155   1.018   4.086
  493SOL     MW 2418   1.120   0.957   4.033
  494SOL     OW 2419   0.757   0.061   4.437
  494SOL    HW1 2420   0.686   0.122   4.419
  494SOL    HW2 2421   0.808   0.058   4.356
  494SOL     MW 2422   0.753   0.067   4.424
  495SOL     OW 2423   0.515   1.301   4.186
  495SOL    HW1 2424   0.508   1.333   4.276
  495SOL    HW2 2425   0.425   1.285   4.158
  495SOL     MW 2426   0.503   1.303   4.193
  496SOL     OW 2427   0.518   0.585   3.900
  496SOL    HW1 2428   0.484   0.641   3.970
  496SOL    HW2 2429   0.589   0.535   3.940
  496SOL     MW 2430   0.524   0.586   3.914
  497SOL     OW 2431   1.574   0.471   3.964
  497SOL    HW1 2432   1.566   0.542   3.901
  497SOL    HW2 2433   1.592   0.515   4.047
  497SOL     MW 2434   1.575   0.485   3.966
  498SOL     OW 2435   0.434   0.126   4.393
  498SOL    HW1 2436   0.484   0.169   4.324
  498SOL    HW2 2437   0.349   0.170   4.393
  498SOL     MW 2438   0.431   0.139   4.384
  499SOL     OW 2439   1.243   0.733   3.939
  499SOL    HW1 2440   1.290   0.751   3.858
  499SOL    HW2 2441   1.209   0.817   3.967
  499SOL     MW 2442   1.245   0.747   3.932
  500SOL     OW 2443   0.356   0.911   4.433
  500SOL    HW1 2444   0.414   0.967   4.381
  500SOL    HW2 2445   0.400   0.826   4.435
  500SOL     MW 2446   0.369   0.908   4.426
  501SOL     OW 2447   1.496   0.263   4.270
  501SOL    HW1 2448   1.418   0.213   4.295
  501SOL    HW2 2449   1.467   0.354   4.270
  501SOL     MW 2450   1.482   0.267   4.273
  502SOL     OW 2451   1.082   0.225   4.429
  502SOL    HW1 2452   1.102   0.300   4.373
  502SOL    HW2 2453   1.062   0.264   4.514
  502SOL     MW 2454   1.083   0.241   4.433
  503SOL     OW 2455   0.978   1.475   3.761
  503SOL    HW1 2456   1.005   1.553   3.713
  503SOL    HW2 2457   0.885   1.490   3.780
  503SOL     MW 2458   0.969   1.488   3.757
  504SOL     OW 2459   0.018   0.637   4.152
  504SOL    HW1 2460  -0.042   0.609   4.222
  504SOL    HW2 2461   0.092   0.577   4.158
  504SOL     MW 2462   0.020   0.626   4.161
  505SOL     OW 2463   1.186   1.368   4.312
  505SOL    HW1 2464   1.209   1.319   4.390
  505SOL    HW2 2465   1.267   1.410   4.284
  505SOL     MW 2466   1.199   1.368   4.319
  506SOL     OW 2467   1.326   0.035   3.948
  506SOL    HW1 2468   1.400   0.079   3.991
  506SOL    HW2 2469   1.250   0.089   3.970
  506SOL     MW 2470   1.326   0.047   3.956
  507SOL     OW 2471   1.386   0.810   4.226
  507SOL    HW1 2472   1.301   0.780   4.196
  507SOL    HW2 2473   1.378   0.817   4.321
  507SOL     MW 2474   1.374   0.808   4.235
  508SOL     OW 2475   0.759   0.476   3.952
  508SOL    HW1 2476   0.832   0.525   3.915
  508SOL    HW2 2477   0.775   0.385   3.926
  508SOL     MW 2478   0.771   0.471   3.945
  509SOL     OW 2479   0.234   0.985   4.050
  509SOL    HW1 2480   0.171   1.001   3.979
  509SOL    HW2 2481   0.181   0.948   4.121
  509SOL     MW 2482   0.219   0.982   4.050
  510SOL     OW 2483   0.590   1.339   3.909
  510SOL    HW1 2484   0.605   1.315   4.001
  510SOL    HW2 2485   0.498   1.317   3.893
  510SOL     MW 2486   0.580   1.332   3.919
  511SOL     OW 2487   1.129   1.570   4.061
  511SOL    HW1 2488   1.137   1.488   4.012
  511SOL    HW2 2489   1.048   1.609   4.028
  511SOL     MW 2490   1.119   1.565   4.051
  512SOL     OW 2491   1.101   0.392   4.231
  512SOL    HW1 2492   1.123   0.329   4.163
  512SOL    HW2 2493   1.006   0.384   4.242
  512SOL     MW 2494   1.091   0.383   4.223
  513SOL     OW 2495   0.186   0.082   4.163
  513SOL    HW1 2496   0.257   0.103   4.102
  513SOL    HW2 2497   0.140   0.010   4.121
  513SOL     MW 2498   0.190   0.076   4.149
  514SOL     OW 2499   1.755   1.456   4.263
  514SOL    HW1 2500   1.725   1.389   4.324
  514SOL    HW2 2501   1.849   1.462   4.277
  514SOL     MW 2502   1.763   1.448   4.273
  515SOL     OW 2503   1.311   1.133   4.193
  515SOL    HW1 2504   1.283   1.219   4.226
  515SOL    HW2 2505   1.339   1.149   4.103
  515SOL     MW 2506   1.311   1.147   4.185
  516SOL     OW 2507   0.973   0.053   4.246
  516SOL    HW1 2508   1.010   0.112   4.311
  516SOL    HW2 2509   0.950   0.109   4.172
  516SOL     MW 2510   0.974   0.068   4.245
  517SOL     OW 2511   1.738   0.866   4.369
  517SOL    HW1 2512   1.832   0.855   4.357
  517SOL    HW2 2513   1.714   0.938   4.310
  517SOL     MW 2514   1.748   0.874   4.360
  518SOL     OW 2515   0.394   0.744   4.142
  518SOL    HW1 2516   0.394   0.839   4.127
  518SOL    HW2 2517   0.471   0.728   4.196
  518SOL     MW 2518   0.404   0.755   4.147
  519SOL     OW 2519   0.153   0.475   4.431
  519SOL    HW1 2520   0.215   0.482   4.504
  519SOL    HW2 2521   0.153   0.382   4.408
  519SOL     MW 2522   0.161   0.464   4.438
  520SOL     OW 2523   1.700   1.815   3.963
  520SOL    HW1 2524   1.767   1.848   3.903
  520SOL    HW2 2525   1.657   1.894   3.997
  520SOL     MW 2526   1.702   1.830   3.959
  521SOL     OW 2527   0.022   1.047   3.889
  521SOL    HW1 2528  -0.009   1.112   3.952
  521SOL    HW2 2529  -0.029   0.969   3.908
  521SOL     MW 2530   0.012   1.044   3.899
  522SOL     OW 2531   0.606   1.847   3.831
  522SOL    HW1 2532   0.511   1.847   3.823
  522SOL    HW2 2533   0.622   1.793   3.909
  522SOL     MW 2534   0.596   1.841   3.840
  523SOL     OW 2535   1.451   0.667   3.747
  523SOL    HW1 2536   1.379   0.643   3.689
  523SOL    HW2 2537   1.517   0.704   3.689
  523SOL     MW 2538   1.450   0.669   3.732
  524SOL     OW 2539   0.585   1.399   4.427
  524SOL    HW1 2540   0.650   1.332   4.448
  524SOL    HW2 2541   0.637   1.476   4.404
  524SOL     MW 2542   0.600   1.401   4.426
  525SOL     OW 2543   0.864   0.967   3.931
  525SOL    HW1 2544   0.850   0.879   3.896
  525SOL    HW2 2545   0.815   1.024   3.872
  525SOL     MW 2546   0.856   0.962   3.919
  526SOL     OW 2547   1.583   0.173   4.033
  526SOL    HW1 2548   1.576   0.177   4.128
  526SOL    HW2 2549   1.595   0.264   4.006
  526SOL     MW 2550   1.584   0.186   4.041
  527SOL     OW 2551   0.872   0.736   4.147
  527SOL    HW1 2552   0.852   0.722   4.054
  527SOL    HW2 2553   0.965   0.715   4.154
  527SOL     MW 2554   0.882   0.731   4.136
  528SOL     OW 2555   0.855   1.694   4.185
  528SOL    HW1 2556   0.913   1.765   4.212
  528SOL    HW2 2557   0.878   1.622   4.243
  528SOL     MW 2558   0.866   1.694   4.196
  529SOL     OW 2559   0.311   0.126   3.920
  529SOL    HW1 2560   0.240   0.181   3.888
  529SOL    HW2 2561   0.353   0.092   3.841
  529SOL     MW 2562   0.307   0.128   3.906
  530SOL     OW 2563   0.067   0.225   3.769
  530SOL    HW1 2564   0.034   0.304   3.813
  530SOL    HW2 2565   0.122   0.258   3.698
  530SOL     MW 2566   0.070   0.239   3.766
  531SOL     OW 2567   0.101   1.482   3.958
  531SOL    HW1 2568   0.118   1.566   4.000
  531SOL    HW2 2569   0.136   1.491   3.870
  531SOL     MW 2570   0.106   1.495   3.952
  532SOL     OW 2571   1.373   1.571   4.175
  532SOL    HW1 2572   1.436   1.561   4.104
  532SOL    HW2 2573   1.290   1.591   4.130
  532SOL     MW 2574   1.370   1.572   4.160
  533SOL     OW 2575   1.736   2.707   0.257
  533SOL    HW1 2576   1.777   2.649   0.322
  533SOL    HW2 2577   1.643   2.699   0.274
  533SOL     MW 2578   1.730   2.699   0.267
  534SOL     OW 2579   1.602   2.639   1.252
  534SOL    HW1 2580   1.557   2.706   1.303
  534SOL    HW2 2581   1.690   2.675   1.238
  534SOL     MW 2582   1.608   2.652   1.256
  535SOL     OW 2583   0.530   2.890   0.486
  535SOL    HW1 2584   0.620   2.865   0.470
  535SOL    HW2 2585   0.526   2.983   0.463
  535SOL     MW 2586   0.542   2.899   0.481
  536SOL     OW 2587   1.646   3.593   0.628
  536SOL    HW1 2588   1.658   3.539   0.706
  536SOL    HW2 2589   1.683   3.541   0.557
  536SOL     MW 2590   1.652   3.578   0.629
  537SOL     OW 2591   1.025   3.478   1.629
  537SOL    HW1 2592   1.066   3.514   1.550
  537SOL    HW2 2593   1.060   3.389   1.636
  537SOL     MW 2594   1.036   3.471   1.620
  538SOL     OW 2595   1.582   3.033   1.233
  538SOL    HW1 2596   1.503   2.998   1.191
  538SOL    HW2 2597   1.609   3.105   1.177
  538SOL     MW 2598   1.575   3.038   1.220
  539SOL     OW 2599   0.814   2.346   0.499
  539SOL    HW1 2600   0.789   2.434   0.527
  539SOL    HW2 2601   0.811   2.349   0.403
  539SOL     MW 2602   0.810   2.358   0.491
  540SOL     OW 2603   0.256   2.374   0.427
  540SOL    HW1 2604   0.288   2.462   0.409
  540SOL    HW2 2605   0.244   2.372   0.522
  540SOL     MW 2606   0.259   2.386   0.439
  541SOL     OW 2607   0.334   2.787   1.328
  541SOL    HW1 2608   0.397   2.734   1.279
  541SOL    HW2 2609   0.315   2.861   1.271
  541SOL     MW 2610   0.340   2.789   1.315
  542SOL     OW 2611   0.655   2.129   0.514
  542SOL    HW1 2612   0.713   2.205   0.516
  542SOL    HW2 2613   0.590   2.150   0.447
  542SOL     MW 2614   0.654   2.141   0.505
  543SOL     OW 2615   0.742   3.056   0.689
  543SOL    HW1 2616   0.822   3.059   0.741
  543SOL    HW2 2617   0.770   3.023   0.603
  543SOL     MW 2618   0.756   3.052   0.684
  544SOL     OW 2619   0.767   3.397   1.592
  544SOL    HW1 2620   0.851   3.423   1.631
  544SOL    HW2 2621   0.791   3.341   1.518
  544SOL     MW 2622   0.781   3.393   1.587
  545SOL     OW 2623   0.519   2.560   0.680
  545SOL    HW1 2624   0.504   2.480   0.731
  545SOL    HW2 2625   0.601   2.595   0.714
  545SOL     MW 2626   0.527   2.552   0.692
  546SOL     OW 2627   0.856   3.246   1.365
  546SOL    HW1 2628   0.820   3.312   1.305
  546SOL    HW2 2629   0.784   3.184   1.378
  546SOL     MW 2630   0.842   3.246   1.359
  547SOL     OW 2631   0.661   2.386   1.057
  547SOL    HW1 2632   0.567   2.382   1.075
  547SOL    HW2 2633   0.691   2.295   1.066
  547SOL     MW 2634   0.652   2.374   1.060
  548SOL     OW 2635   0.407   2.800   0.961
  548SOL    HW1 2636   0.362   2.807   0.877
  548SOL    HW2 2637   0.387   2.883   1.005
  548SOL     MW 2638   0.399   2.812   0.955
  549SOL     OW 2639   0.104   3.646   0.836
  549SOL    HW1 2640   0.193   3.638   0.871
  549SOL    HW2 2641   0.068   3.558   0.841
  549SOL     MW 2642   0.111   3.633   0.841
  550SOL     OW 2643   1.369   3.038   0.205
  550SOL    HW1 2644   1.287   3.074   0.171
  550SOL    HW2 2645   1.437   3.081   0.154
  550SOL     MW 2646   1.367   3.048   0.193
  551SOL     OW 2647   0.368   3.173   0.871
  551SOL    HW1 2648   0.344   3.226   0.947
  551SOL    HW2 2649   0.424   3.231   0.819
  551SOL     MW 2650   0.372   3.188   0.874
  552SOL     OW 2651   0.930   2.817   0.681
  552SOL    HW1 2652   0.844   2.804   0.721
  552SOL    HW2 2653   0.983   2.744   0.713
  552SOL     MW 2654   0.926   2.806   0.690
  553SOL     OW 2655   0.338   3.469   1.466
  553SOL    HW1 2656   0.246   3.445   1.451
  553SOL    HW2 2657   0.382   3.386   1.483
  553SOL     MW 2658   0.332   3.454   1.465
  554SOL     OW 2659   0.921   3.179   0.398
  554SOL    HW1 2660   0.898   3.241   0.466
  554SOL    HW2 2661   0.878   3.097   0.424
  554SOL     MW 2662   0.913   3.175   0.409
  555SOL     OW 2663   1.794   2.180   0.854
  555SOL    HW1 2664   1.731   2.160   0.923
  555SOL    HW2 2665   1.784   2.109   0.791
  555SOL     MW 2666   1.784   2.167   0.855
  556SOL     OW 2667   0.418   2.152   0.366
  556SOL    HW1 2668   0.392   2.114   0.282
  556SOL    HW2 2669   0.355   2.222   0.382
  556SOL     MW 2670   0.407   2.155   0.357
  557SOL     OW 2671   0.253   3.113   0.403
  557SOL    HW1 2672   0.201   3.181   0.359
  557SOL    HW2 2673   0.250   3.039   0.343
  557SOL     MW 2674   0.245   3.112   0.390
  558SOL     OW 2675   0.915   3.576   0.181
  558SOL    HW1 2676   0.870   3.592   0.264
  558SOL    HW2 2677   0.846   3.541   0.123
  558SOL     MW 2678   0.901   3.573   0.183
  559SOL     OW 2679   1.850   2.349   0.156
  559SOL    HW1 2680   1.759   2.351   0.184
  559SOL    HW2 2681   1.895   2.411   0.214
  559SOL     MW 2682   1.843   2.357   0.166
  560SOL     OW 2683   1.595   2.952   0.506
  560SOL    HW1 2684   1.505   2.952   0.541
  560SOL    HW2 2685   1.588   2.998   0.423
  560SOL     MW 2686   1.582   2.958   0.500
  561SOL     OW 2687   1.395   2.587   1.578
  561SOL    HW1 2688   1.464   2.525   1.555
  561SOL    HW2 2689   1.320   2.561   1.525
  561SOL     MW 2690   1.395   2.574   1.569
  562SOL     OW 2691   0.136   3.467   1.130
  562SOL    HW1 2692   0.119   3.413   1.207
  562SOL    HW2 2693   0.124   3.557   1.160
  562SOL     MW 2694   0.133   3.471   1.144
  563SOL     OW 2695   1.131   2.974   1.570
  563SOL    HW1 2696   1.116   3.067   1.555
  563SOL    HW2 2697   1.226   2.964   1.570
  563SOL     MW 2698   1.140   2.984   1.567
  564SOL     OW 2699   0.927   2.398   1.771
  564SOL    HW1 2700   1.017   2.399   1.738
  564SOL    HW2 2701   0.886   2.323   1.729
  564SOL     MW 2702   0.933   2.388   1.762
  565SOL     OW 2703   1.502   2.930   0.898
  565SOL    HW1 2704   1.505   2.864   0.829
  565SOL    HW2 2705   1.587   2.973   0.894
  565SOL     MW 2706   1.514   2.926   0.889
  566SOL     OW 2707   1.122   2.533   0.467
  566SOL    HW1 2708   1.148   2.557   0.378
  566SOL    HW2 2709   1.104   2.440   0.463
  566SOL     MW 2710   1.124   2.525   0.454
  567SOL     OW 2711   1.787   3.153   0.318
  567SOL    HW1 2712   1.743   3.194   0.393
  567SOL    HW2 2713   1.844   3.221   0.283
  567SOL     MW 2714   1.789   3.167   0.323
  568SOL     OW 2715   0.707   2.202   1.721
  568SOL    HW1 2716   0.717   2.128   1.661
  568SOL    HW2 2717   0.743   2.171   1.804
  568SOL     MW 2718   0.713   2.188   1.723
  569SOL     OW 2719   0.443   3.569   0.636
  569SOL    HW1 2720   0.475   3.657   0.614
  569SOL    HW2 2721   0.396   3.541   0.558
  569SOL     MW 2722   0.442   3.577   0.623
  570SOL     OW 2723   1.827   1.931   0.685
  570SOL    HW1 2724   1.881   1.882   0.747
  570SOL    HW2 2725   1.770   1.865   0.646
  570SOL     MW 2726   1.827   1.915   0.687
  571SOL     OW 2727   0.159   3.629   0.213
  571SOL    HW1 2728   0.188   3.719   0.205
  571SOL    HW2 2729   0.109   3.612   0.134
  571SOL     MW 2730   0.157   3.637   0.202
  572SOL     OW 2731   0.946   1.884   1.098
  572SOL    HW1 2732   0.905   1.962   1.060
  572SOL    HW2 2733   1.040   1.902   1.093
  572SOL     MW 2734   0.952   1.896   1.093
  573SOL     OW 2735   1.563   3.437   0.184
  573SOL    HW1 2736   1.611   3.506   0.230
  573SOL    HW2 2737   1.484   3.481   0.153
  573SOL     MW 2738   1.558   3.451   0.187
  574SOL     OW 2739   0.961   2.562   0.128
  574SOL    HW1 2740   0.963   2.509   0.049
  574SOL    HW2 2741   1.049   2.599   0.134
  574SOL     MW 2742   0.973   2.561   0.117
  575SOL     OW 2743   1.575   2.488   0.464
  575SOL    HW1 2744   1.614   2.488   0.551
  575SOL    HW2 2745   1.516   2.564   0.464
  575SOL     MW 2746   1.572   2.499   0.475
  576SOL     OW 2747   0.892   2.855   1.593
  576SOL    HW1 2748   0.869   2.835   1.683
  576SOL    HW2 2749   0.977   2.899   1.598
  576SOL     MW 2750   0.899   2.858   1.605
  577SOL     OW 2751   0.972   1.992   1.353
  577SOL    HW1 2752   0.978   1.954   1.266
  577SOL    HW2 2753   0.961   2.086   1.338
  577SOL     MW 2754   0.973   2.000   1.341
  578SOL     OW 2755   1.061   2.481   1.187
  578SOL    HW1 2756   1.136   2.510   1.134
  578SOL    HW2 2757   0.993   2.546   1.171
  578SOL     MW 2758   1.062   2.493   1.177
  579SOL     OW 2759   1.611   2.449   1.464
  579SOL    HW1 2760   1.592   2.358   1.443
  579SOL    HW2 2761   1.589   2.498   1.385
  579SOL     MW 2762   1.606   2.442   1.451
  580SOL     OW 2763   1.753   3.543   1.368
  580SOL    HW1 2764   1.681   3.505   1.419
  580SOL    HW2 2765   1.770   3.628   1.409
  580SOL     MW 2766   1.747   3.548   1.380
  581SOL     OW 2767   1.058   2.187   1.570
  581SOL    HW1 2768   1.024   2.226   1.489
  581SOL    HW2 2769   1.036   2.095   1.563
  581SOL     MW 2770   1.051   2.180   1.560
  582SOL     OW 2771   1.467   3.001   1.646
  582SOL    HW1 2772   1.549   3.042   1.676
  582SOL    HW2 2773   1.430   2.963   1.726
  582SOL     MW 2774   1.473   3.002   1.661
  583SOL     OW 2775   1.762   2.374   0.630
  583SOL    HW1 2776   1.851   2.343   0.647
  583SOL    HW2 2777   1.705   2.314   0.678
  583SOL     MW 2778   1.765   2.362   0.639
  584SOL     OW 2779   0.188   2.088   0.659
  584SOL    HW1 2780   0.179   2.028   0.585
  584SOL    HW2 2781   0.121   2.059   0.722
  584SOL     MW 2782   0.178   2.075   0.657
  585SOL     OW 2783   1.131   3.181   0.220
  585SOL    HW1 2784   1.081   3.183   0.302
  585SOL    HW2 2785   1.065   3.199   0.152
  585SOL     MW 2786   1.117   3.183   0.222
  586SOL     OW 2787   0.135   2.261   1.022
  586SOL    HW1 2788   0.107   2.352   1.031
  586SOL    HW2 2789   0.072   2.222   0.961
  586SOL     MW 2790   0.122   2.267   1.016
  587SOL     OW 2791   0.594   3.599   0.328
  587SOL    HW1 2792   0.515   3.557   0.361
  587SOL    HW2 2793   0.660   3.582   0.395
  587SOL     MW 2794   0.593   3.591   0.341
  588SOL     OW 2795   1.722   3.119   1.725
  588SOL    HW1 2796   1.772   3.045   1.757
  588SOL    HW2 2797   1.668   3.146   1.800
  588SOL     MW 2798   1.722   3.113   1.738
  589SOL     OW 2799   0.730   3.014   0.035
  589SOL    HW1 2800   0.652   2.960   0.022
  589SOL    HW2 2801   0.701   3.087   0.088
  589SOL     MW 2802   0.716   3.016   0.040
  590SOL     OW 2803   1.856   2.754   1.227
  590SOL    HW1 2804   1.872   2.792   1.140
  590SOL    HW2 2805   1.890   2.820   1.288
  590SOL     MW 2806   1.863   2.767   1.223
  591SOL     OW 2807   1.648   3.463   0.896
  591SOL    HW1 2808   1.677   3.530   0.957
  591SOL    HW2 2809   1.629   3.387   0.951
  591SOL     MW 2810   1.650   3.463   0.911
  592SOL     OW 2811   1.311   3.530   0.103
  592SOL    HW1 2812   1.237   3.493   0.153
  592SOL    HW2 2813   1.319   3.620   0.136
  592SOL     MW 2814   1.302   3.537   0.115
  593SOL     OW 2815   0.119   2.536   1.192
  593SOL    HW1 2816   0.181   2.566   1.258
  593SOL    HW2 2817   0.053   2.605   1.186
  593SOL     MW 2818   0.118   2.549   1.199
  594SOL     OW 2819   1.535   3.204   0.045
  594SOL    HW1 2820   1.482   3.253  -0.019
  594SOL    HW2 2821   1.566   3.270   0.106
  594SOL     MW 2822   1.533   3.218   0.043
  595SOL     OW 2823   0.760   2.093   0.100
  595SOL    HW1 2824   0.708   2.013   0.088
  595SOL    HW2 2825   0.847   2.070   0.068
  595SOL     MW 2826   0.763   2.079   0.094
  596SOL     OW 2827   0.214   3.645   1.644
  596SOL    HW1 2828   0.188   3.713   1.582
  596SOL    HW2 2829   0.262   3.582   1.592
  596SOL     MW 2830   0.216   3.645   1.630
  597SOL     OW 2831   0.266   2.964   1.151
  597SOL    HW1 2832   0.319   3.039   1.176
  597SOL    HW2 2833   0.185   3.002   1.117
  597SOL     MW 2834   0.262   2.979   1.151
  598SOL     OW 2835   0.806   2.868   1.139
  598SOL    HW1 2836   0.834   2.777   1.151
  598SOL    HW2 2837   0.735   2.862   1.075
  598SOL     MW 2838   0.799   2.856   1.134
  599SOL     OW 2839   0.121   2.733   0.557
  599SOL    HW1 2840   0.212   2.748   0.584
  599SOL    HW2 2841   0.124   2.654   0.503
  599SOL     MW 2842   0.133   2.725   0.555
  600SOL     OW 2843   0.357   2.441   1.811
  600SOL    HW1 2844   0.304   2.521   1.818
  600SOL    HW2 2845   0.427   2.453   1.876
  600SOL     MW 2846   0.359   2.454   1.819
  601SOL     OW 2847   0.743   1.991   1.518
  601SOL    HW1 2848   0.720   1.899   1.520
  601SOL    HW2 2849   0.829   1.993   1.475
  601SOL     MW 2850   0.750   1.981   1.514
  602SOL     OW 2851   0.427   2.515   1.557
  602SOL    HW1 2852   0.507   2.565   1.543
  602SOL    HW2 2853   0.418   2.509   1.652
  602SOL     MW 2854   0.436   2.521   1.567
  603SOL     OW 2855   0.748   3.665   0.931
  603SOL    HW1 2856   0.837   3.680   0.961
  603SOL    HW2 2857   0.743   3.712   0.847
  603SOL     MW 2858   0.758   3.673   0.924
  604SOL     OW 2859   1.404   2.040   1.828
  604SOL    HW1 2860   1.460   1.967   1.854
  604SOL    HW2 2861   1.374   2.078   1.910
  604SOL     MW 2862   1.408   2.035   1.841
  605SOL     OW 2863   0.129   3.345   0.596
  605SOL    HW1 2864   0.101   3.384   0.678
  605SOL    HW2 2865   0.149   3.254   0.618
  605SOL     MW 2866   0.127   3.337   0.609
  606SOL     OW 2867   0.962   3.388   0.631
  606SOL    HW1 2868   1.045   3.342   0.615
  606SOL    HW2 2869   0.952   3.387   0.727
  606SOL     MW 2870   0.972   3.381   0.641
  607SOL     OW 2871   1.794   2.533   0.945
  607SOL    HW1 2872   1.883   2.563   0.927
  607SOL    HW2 2873   1.774   2.473   0.874
  607SOL     MW 2874   1.803   2.530   0.934
  608SOL     OW 2875   1.645   2.712   1.825
  608SOL    HW1 2876   1.700   2.636   1.806
  608SOL    HW2 2877   1.647   2.720   1.920
  608SOL     MW 2878   1.653   2.703   1.833
  609SOL     OW 2879   0.695   3.445   0.036
  609SOL    HW1 2880   0.635   3.514   0.006
  609SOL    HW2 2881   0.640   3.387   0.089
  609SOL     MW 2882   0.679   3.447   0.038
  610SOL     OW 2883   1.133   2.090   0.259
  610SOL    HW1 2884   1.066   2.066   0.196
  610SOL    HW2 2885   1.198   2.139   0.208
  610SOL     MW 2886   1.133   2.092   0.244
  611SOL     OW 2887   0.940   2.274   1.344
  611SOL    HW1 2888   0.859   2.315   1.372
  611SOL    HW2 2889   0.987   2.342   1.296
  611SOL     MW 2890   0.935   2.289   1.342
  612SOL     OW 2891   1.200   2.612   0.967
  612SOL    HW1 2892   1.213   2.706   0.977
  612SOL    HW2 2893   1.161   2.602   0.881
  612SOL     MW 2894   1.196   2.623   0.957
  613SOL     OW 2895   0.652   2.807   0.771
  613SOL    HW1 2896   0.563   2.798   0.804
  613SOL    HW2 2897   0.656   2.897   0.739
  613SOL     MW 2898   0.641   2.818   0.771
  614SOL     OW 2899   1.451   2.390   0.766
  614SOL    HW1 2900   1.396   2.311   0.765
  614SOL    HW2 2901   1.433   2.431   0.850
  614SOL     MW 2902   1.441   2.385   0.775
  615SOL     OW 2903   0.422   2.077   1.583
  615SOL    HW1 2904   0.343   2.095   1.635
  615SOL    HW2 2905   0.417   2.139   1.510
  615SOL     MW 2906   0.412   2.087   1.580
  616SOL     OW 2907   1.070   2.594   0.723
  616SOL    HW1 2908   1.007   2.526   0.747
  616SOL    HW2 2909   1.090   2.575   0.631
  616SOL     MW 2910   1.064   2.581   0.715
  617SOL     OW 2911   0.326   3.489   0.425
  617SOL    HW1 2912   0.287   3.536   0.351
  617SOL    HW2 2913   0.260   3.424   0.450
  617SOL     MW 2914   0.313   3.487   0.419
  618SOL     OW 2915   0.818   2.898   0.449
  618SOL    HW1 2916   0.820   2.872   0.356
  618SOL    HW2 2917   0.876   2.835   0.492
  618SOL     MW 2918   0.826   2.887   0.443
  619SOL     OW 2919   1.371   3.458   1.221
  619SOL    HW1 2920   1.296   3.504   1.259
  619SOL    HW2 2921   1.353   3.365   1.238
  619SOL     MW 2922   1.360   3.452   1.229
  620SOL     OW 2923   1.375   3.666   0.651
  620SOL    HW1 2924   1.318   3.619   0.590
  620SOL    HW2 2925   1.461   3.627   0.638
  620SOL     MW 2926   1.378   3.657   0.641
  621SOL     OW 2927   1.328   2.142   0.782
  621SOL    HW1 2928   1.356   2.074   0.843
  621SOL    HW2 2929   1.242   2.113   0.752
  621SOL     MW 2930   1.321   2.129   0.786
  622SOL     OW 2931   0.133   3.076   0.716
  622SOL    HW1 2932   0.197   3.108   0.779
  622SOL    HW2 2933   0.182   3.012   0.664
  622SOL     MW 2934   0.148   3.072   0.717
  623SOL     OW 2935   0.633   3.152   1.698
  623SOL    HW1 2936   0.681   3.235   1.685
  623SOL    HW2 2937   0.690   3.100   1.754
  623SOL     MW 2938   0.647   3.156   1.704
  624SOL     OW 2939   0.209   3.394   1.838
  624SOL    HW1 2940   0.265   3.318   1.853
  624SOL    HW2 2941   0.158   3.372   1.760
  624SOL     MW 2942   0.209   3.381   1.829
  625SOL     OW 2943   1.308   2.246   0.117
  625SOL    HW1 2944   1.281   2.312   0.053
  625SOL    HW2 2945   1.378   2.289   0.167
  625SOL     MW 2946   1.313   2.259   0.114
  626SOL     OW 2947   0.976   1.951   0.054
  626SOL    HW1 2948   1.032   1.943  -0.024
  626SOL    HW2 2949   0.953   1.861   0.076
  626SOL     MW 2950   0.981   1.938   0.047
  627SOL     OW 2951   1.481   2.802   0.259
  627SOL    HW1 2952   1.448   2.891   0.249
  627SOL    HW2 2953   1.446   2.773   0.344
  627SOL     MW 2954   1.471   2.811   0.270
  628SOL     OW 2955   1.094   3.231   1.447
  628SOL    HW1 2956   1.005   3.237   1.415
  628SOL    HW2 2957   1.138   3.310   1.415
  628SOL     MW 2958   1.089   3.241   1.439
  629SOL     OW 2959   0.387   1.899   1.789
  629SOL    HW1 2960   0.315   1.864   1.737
  629SOL    HW2 2961   0.445   1.940   1.724
  629SOL     MW 2962   0.385   1.900   1.774
  630SOL     OW 2963   0.411   3.389   1.088
  630SOL    HW1 2964   0.456   3.451   1.145
  630SOL    HW2 2965   0.318   3.408   1.101
  630SOL     MW 2966   0.404   3.399   1.095
  631SOL     OW 2967   1.851   2.918   1.442
  631SOL    HW1 2968   1.766   2.931   1.401
  631SOL    HW2 2969   1.831   2.882   1.529
  631SOL     MW 2970   1.838   2.914   1.447
  632SOL     OW 2971   0.833   3.457   1.196
  632SOL    HW1 2972   0.857   3.446   1.105
  632SOL    HW2 2973   0.756   3.514   1.194
  632SOL     MW 2974   0.825   3.462   1.185
  633SOL     OW 2975   0.475   2.840   0.051
  633SOL    HW1 2976   0.398   2.853   0.107
  633SOL    HW2 2977   0.439   2.804  -0.030
  633SOL     MW 2978   0.461   2.836   0.048
  634SOL     OW 2979   1.128   2.813   0.294
  634SOL    HW1 2980   1.038   2.834   0.269
  634SOL    HW2 2981   1.155   2.886   0.350
  634SOL     MW 2982   1.120   2.825   0.297
  635SOL     OW 2983   0.628   3.162   0.986
  635SOL    HW1 2984   0.621   3.141   1.080
  635SOL    HW2 2985   0.546   3.130   0.949
  635SOL     MW 2986   0.616   3.156   0.993
  636SOL     OW 2987   1.492   2.172   1.388
  636SOL    HW1 2988   1.439   2.174   1.468
  636SOL    HW2 2989   1.477   2.085   1.351
  636SOL     MW 2990   1.484   2.162   1.393
  637SOL     OW 2991   1.828   2.096   1.261
  637SOL    HW1 2992   1.809   2.163   1.196
  637SOL    HW2 2993   1.885   2.034   1.216
  637SOL     MW 2994   1.832   2.097   1.247
  638SOL     OW 2995   0.074   3.254   1.649
  638SOL    HW1 2996   0.118   3.187   1.595
  638SOL    HW2 2997  -0.011   3.216   1.669
  638SOL     MW 2998   0.069   3.240   1.645
  639SOL     OW 2999   0.757   1.929   0.701
  639SOL    HW1 3000   0.686   1.990   0.683
  639SOL    HW2 3001   0.808   1.926   0.620
  639SOL     MW 3002   0.753   1.935   0.688
  640SOL     OW 3003   0.515   3.169   0.450
  640SOL    HW1 3004   0.508   3.201   0.540
  640SOL    HW2 3005   0.425   3.153   0.422
  640SOL     MW 3006   0.503   3.171   0.457
  641SOL     OW 3007   1.110   3.562   1.359
  641SOL    HW1 3008   1.030   3.547   1.309
  641SOL    HW2 3009   1.117   3.657   1.366
  641SOL     MW 3010   1.101   3.573   1.353
  642SOL     OW 3011   1.224   3.527   0.849
  642SOL    HW1 3012   1.271   3.600   0.808
  642SOL    HW2 3013   1.145   3.566   0.885
  642SOL     MW 3014   1.219   3.542   0.848
  643SOL     OW 3015   1.632   3.622   1.124
  643SOL    HW1 3016   1.675   3.592   1.204
  643SOL    HW2 3017   1.551   3.570   1.121
  643SOL     MW 3018   1.627   3.611   1.134
  644SOL     OW 3019   0.717   2.586   1.831
  644SOL    HW1 3020   0.787   2.528   1.803
  644SOL    HW2 3021   0.660   2.531   1.886
  644SOL     MW 3022   0.719   2.573   1.835
  645SOL     OW 3023   1.504   2.798   1.464
  645SOL    HW1 3024   1.509   2.851   1.544
  645SOL    HW2 3025   1.466   2.715   1.492
  645SOL     MW 3026   1.500   2.793   1.479
  646SOL     OW 3027   1.144   1.933   1.710
  646SOL    HW1 3028   1.139   1.840   1.691
  646SOL    HW2 3029   1.227   1.944   1.756
  646SOL     MW 3030   1.152   1.922   1.714
  647SOL     OW 3031   0.518   2.453   0.164
  647SOL    HW1 3032   0.484   2.509   0.234
  647SOL    HW2 3033   0.589   2.403   0.204
  647SOL     MW 3034   0.524   2.454   0.178
  648SOL     OW 3035   1.614   3.204   0.986
  648SOL    HW1 3036   1.649   3.186   0.899
  648SOL    HW2 3037   1.519   3.205   0.973
  648SOL     MW 3038   1.606   3.201   0.973
  649SOL     OW 3039   1.043   2.852   1.355
  649SOL    HW1 3040   1.086   2.887   1.433
  649SOL    HW2 3041   1.026   2.929   1.301
  649SOL     MW 3042   1.046   2.867   1.358
  650SOL     OW 3043   1.574   2.339   0.228
  650SOL    HW1 3044   1.566   2.410   0.165
  650SOL    HW2 3045   1.592   2.383   0.311
  650SOL     MW 3046   1.575   2.353   0.230
  651SOL     OW 3047   0.434   1.994   0.657
  651SOL    HW1 3048   0.484   2.037   0.588
  651SOL    HW2 3049   0.349   2.038   0.657
  651SOL     MW 3050   0.431   2.007   0.648
  652SOL     OW 3051   0.193   3.056   1.517
  652SOL    HW1 3052   0.221   3.009   1.595
  652SOL    HW2 3053   0.114   3.011   1.488
  652SOL     MW 3054   0.186   3.045   1.523
  653SOL     OW 3055   0.701   2.383   1.484
  653SOL    HW1 3056   0.673   2.471   1.508
  653SOL    HW2 3057   0.670   2.327   1.555
  653SOL     MW 3058   0.693   2.386   1.496
  654SOL     OW 3059   1.243   2.601   0.203
  654SOL    HW1 3060   1.290   2.619   0.122
  654SOL    HW2 3061   1.209   2.685   0.231
  654SOL     MW 3062   1.245   2.615   0.196
  655SOL     OW 3063   0.356   2.779   0.697
  655SOL    HW1 3064   0.414   2.835   0.645
  655SOL    HW2 3065   0.400   2.694   0.699
  655SOL     MW 3066   0.369   2.776   0.690
  656SOL     OW 3067   1.496   2.131   0.534
  656SOL    HW1 3068   1.418   2.081   0.559
  656SOL    HW2 3069   1.467   2.222   0.534
  656SOL     MW 3070   1.482   2.135   0.537
  657SOL     OW 3071   1.082   2.093   0.693
  657SOL    HW1 3072   1.102   2.168   0.637
  657SOL    HW2 3073   1.062   2.132   0.778
  657SOL     MW 3074   1.083   2.109   0.697
  658SOL     OW 3075   0.978   3.343   0.025
  658SOL    HW1 3076   1.005   3.421  -0.023
  658SOL    HW2 3077   0.885   3.358   0.044
  658SOL     MW 3078   0.969   3.356   0.021
  659SOL     OW 3079   1.842   2.866   1.712
  659SOL    HW1 3080   1.755   2.846   1.748
  659SOL    HW2 3081   1.896   2.792   1.737
  659SOL     MW 3082   1.837   2.855   1.720
  660SOL     OW 3083   0.063   3.379   0.869
  660SOL    HW1 3084   0.095   3.383   0.960
  660SOL    HW2 3085  -0.032   3.387   0.877
  660SOL     MW 3086   0.055   3.382   0.882
  661SOL     OW 3087   0.018   2.505   0.416
  661SOL    HW1 3088  -0.042   2.477   0.486
  661SOL    HW2 3089   0.092   2.445   0.422
  661SOL     MW 3090   0.020   2.494   0.425
  662SOL     OW 3091   1.586   3.717   1.850
  662SOL    HW1 3092   1.631   3.641   1.815
  662SOL    HW2 3093   1.624   3.730   1.937
  662SOL     MW 3094   1.596   3.710   1.856
  663SOL     OW 3095   1.186   3.236   0.576
  663SOL    HW1 3096   1.209   3.187   0.654
  663SOL    HW2 3097   1.267   3.278   0.548
  663SOL     MW 3098   1.199   3.236   0.583
  664SOL     OW 3099   0.444   2.244   1.305
  664SOL    HW1 3100   0.477   2.325   1.345
  664SOL    HW2 3101   0.417   2.270   1.217
  664SOL     MW 3102   0.443   2.258   1.299
  665SOL     OW 3103   0.398   2.211   1.041
  665SOL    HW1 3104   0.428   2.125   1.012
  665SOL    HW2 3105   0.303   2.204   1.044
  665SOL     MW 3106   0.390   2.200   1.039
  666SOL     OW 3107   1.227   2.420   1.732
  666SOL    HW1 3108   1.279   2.355   1.685
  666SOL    HW2 3109   1.185   2.471   1.662
  666SOL     MW 3110   1.228   2.417   1.715
  667SOL     OW 3111   1.326   2.215   1.593
  667SOL    HW1 3112   1.233   2.199   1.580
  667SOL    HW2 3113   1.352   2.153   1.661
  667SOL     MW 3114   1.316   2.205   1.600
  668SOL     OW 3115   0.541   1.989   0.932
  668SOL    HW1 3116   0.551   1.898   0.958
  668SOL    HW2 3117   0.497   1.985   0.847
  668SOL     MW 3118   0.537   1.977   0.924
  669SOL     OW 3119   0.635   3.604   1.478
  669SOL    HW1 3120   0.552   3.589   1.523
  669SOL    HW2 3121   0.694   3.537   1.513
  669SOL     MW 3122   0.633   3.594   1.488
  670SOL     OW 3123   1.692   2.311   1.103
  670SOL    HW1 3124   1.625   2.344   1.163
  670SOL    HW2 3125   1.735   2.389   1.069
  670SOL     MW 3126   1.690   2.326   1.107
  671SOL     OW 3127   1.870   3.031   1.073
  671SOL    HW1 3128   1.863   2.971   0.998
  671SOL    HW2 3129   1.796   3.091   1.062
  671SOL     MW 3130   1.860   3.031   1.062
  672SOL     OW 3131   1.252   2.893   0.991
  672SOL    HW1 3132   1.266   2.865   1.082
  672SOL    HW2 3133   1.338   2.924   0.963
  672SOL     MW 3134   1.265   2.894   1.000
  673SOL     OW 3135   1.335   2.388   1.270
  673SOL    HW1 3136   1.356   2.389   1.177
  673SOL    HW2 3137   1.380   2.310   1.303
  673SOL     MW 3138   1.342   2.378   1.262
  674SOL     OW 3139   1.828   2.519   1.812
  674SOL    HW1 3140   1.865   2.464   1.881
  674SOL    HW2 3141   1.853   2.476   1.730
  674SOL     MW 3142   1.835   2.507   1.811
  675SOL     OW 3143   1.375   2.817   1.863
  675SOL    HW1 3144   1.441   2.765   1.817
  675SOL    HW2 3145   1.395   2.804   1.956
  675SOL     MW 3146   1.386   2.808   1.870
  676SOL     OW 3147   1.326   1.903   0.212
  676SOL    HW1 3148   1.400   1.947   0.255
  676SOL    HW2 3149   1.250   1.957   0.234
  676SOL     MW 3150   1.326   1.915   0.220
  677SOL     OW 3151   1.386   2.678   0.490
  677SOL    HW1 3152   1.301   2.648   0.460
  677SOL    HW2 3153   1.378   2.685   0.585
  677SOL     MW 3154   1.374   2.676   0.499
  678SOL     OW 3155   0.462   3.141   1.221
  678SOL    HW1 3156   0.474   3.168   1.312
  678SOL    HW2 3157   0.443   3.222   1.174
  678SOL     MW 3158   0.461   3.156   1.226
  679SOL     OW 3159   0.746   2.121   1.044
  679SOL    HW1 3160   0.719   2.123   1.135
  679SOL    HW2 3161   0.676   2.073   0.999
  679SOL     MW 3162   0.734   2.117   1.051
  680SOL     OW 3163   0.600   3.613   1.206
  680SOL    HW1 3164   0.652   3.690   1.183
  680SOL    HW2 3165   0.609   3.605   1.301
  680SOL     MW 3166   0.609   3.620   1.217
  681SOL     OW 3167   1.502   3.198   1.438
  681SOL    HW1 3168   1.487   3.127   1.501
  681SOL    HW2 3169   1.548   3.156   1.366
  681SOL     MW 3170   1.508   3.182   1.438
  682SOL     OW 3171   0.576   2.929   1.555
  682SOL    HW1 3172   0.613   2.934   1.467
  682SOL    HW2 3173   0.615   3.002   1.602
  682SOL     MW 3174   0.586   2.939   1.550
  683SOL     OW 3175   0.756   2.972   1.367
  683SOL    HW1 3176   0.815   2.918   1.420
  683SOL    HW2 3177   0.771   2.944   1.277
  683SOL     MW 3178   0.766   2.961   1.363
  684SOL     OW 3179   0.759   2.344   0.216
  684SOL    HW1 3180   0.832   2.393   0.179
  684SOL    HW2 3181   0.775   2.253   0.190
  684SOL     MW 3182   0.771   2.339   0.209
  685SOL     OW 3183   1.567   3.461   1.539
  685SOL    HW1 3184   1.609   3.446   1.624
  685SOL    HW2 3185   1.558   3.374   1.501
  685SOL     MW 3186   1.571   3.449   1.546
  686SOL     OW 3187   1.227   1.940   1.130
  686SOL    HW1 3188   1.282   1.949   1.052
  686SOL    HW2 3189   1.282   1.974   1.201
  686SOL     MW 3190   1.241   1.945   1.129
  687SOL     OW 3191   0.234   2.853   0.314
  687SOL    HW1 3192   0.171   2.869   0.243
  687SOL    HW2 3193   0.181   2.816   0.385
  687SOL     MW 3194   0.219   2.850   0.314
  688SOL     OW 3195   0.590   3.207   0.173
  688SOL    HW1 3196   0.605   3.183   0.265
  688SOL    HW2 3197   0.498   3.185   0.157
  688SOL     MW 3198   0.580   3.200   0.183
  689SOL     OW 3199   1.129   3.438   0.325
  689SOL    HW1 3200   1.137   3.356   0.276
  689SOL    HW2 3201   1.048   3.477   0.292
  689SOL     MW 3202   1.119   3.433   0.315
  690SOL     OW 3203   0.388   3.596   0.894
  690SOL    HW1 3204   0.392   3.507   0.929
  690SOL    HW2 3205   0.414   3.587   0.803
  690SOL     MW 3206   0.391   3.584   0.886
  691SOL     OW 3207   1.005   3.074   1.137
  691SOL    HW1 3208   0.937   3.008   1.153
  691SOL    HW2 3209   1.023   3.068   1.044
  691SOL     MW 3210   0.998   3.065   1.128
  692SOL     OW 3211   0.094   3.349   1.388
  692SOL    HW1 3212   0.084   3.307   1.474
  692SOL    HW2 3213   0.015   3.402   1.378
  692SOL     MW 3214   0.083   3.350   1.399
  693SOL     OW 3215   0.998   2.213   0.958
  693SOL    HW1 3216   0.928   2.165   1.003
  693SOL    HW2 3217   1.030   2.276   1.022
  693SOL     MW 3218   0.993   2.215   0.972
  694SOL     OW 3219   0.649   2.649   1.578
  694SOL    HW1 3220   0.642   2.744   1.566
  694SOL    HW2 3221   0.658   2.638   1.673
  694SOL     MW 3222   0.650   2.661   1.588
  695SOL     OW 3223   0.370   3.164   1.836
  695SOL    HW1 3224   0.442   3.166   1.773
  695SOL    HW2 3225   0.340   3.073   1.835
  695SOL     MW 3226   0.375   3.153   1.828
  696SOL     OW 3227   1.454   1.927   1.303
  696SOL    HW1 3228   1.525   1.873   1.267
  696SOL    HW2 3229   1.453   1.906   1.396
  696SOL     MW 3230   1.463   1.918   1.311
  697SOL     OW 3231   1.654   3.457   1.787
  697SOL    HW1 3232   1.627   3.454   1.878
  697SOL    HW2 3233   1.750   3.461   1.790
  697SOL     MW 3234   1.664   3.457   1.799
  698SOL     OW 3235   0.465   2.319   0.771
  698SOL    HW1 3236   0.536   2.267   0.734
  698SOL    HW2 3237   0.451   2.284   0.858
  698SOL     MW 3238   0.473   2.308   0.778
  699SOL     OW 3239   0.020   3.654   1.843
  699SOL    HW1 3240   0.070   3.632   1.765
  699SOL    HW2 3241   0.028   3.749   1.851
  699SOL     MW 3242   0.028   3.663   1.834
  700SOL     OW 3243   0.781   3.412   0.847
  700SOL    HW1 3244   0.709   3.349   0.860
  700SOL    HW2 3245   0.742   3.497   0.865
  700SOL     MW 3246   0.765   3.415   0.850
  701SOL     OW 3247   1.101   2.260   0.495
  701SOL    HW1 3248   1.123   2.197   0.427
  701SOL    HW2 3249   1.006   2.252   0.506
  701SOL     MW 3250   1.091   2.251   0.487
  702SOL     OW 3251   0.186   1.950   0.427
  702SOL    HW1 3252   0.257   1.971   0.366
  702SOL    HW2 3253   0.140   1.878   0.385
  702SOL     MW 3254   0.190   1.944   0.413
  703SOL     OW 3255   0.017   2.417   1.570
  703SOL    HW1 3256   0.081   2.483   1.545
  703SOL    HW2 3257  -0.064   2.444   1.527
  703SOL     MW 3258   0.015   2.429   1.562
  704SOL     OW 3259   1.755   3.324   0.527
  704SOL    HW1 3260   1.725   3.257   0.588
  704SOL    HW2 3261   1.849   3.330   0.541
  704SOL     MW 3262   1.763   3.316   0.537
  705SOL     OW 3263   1.311   3.001   0.457
  705SOL    HW1 3264   1.283   3.087   0.490
  705SOL    HW2 3265   1.339   3.017   0.367
  705SOL     MW 3266   1.311   3.015   0.449
  706SOL     OW 3267   0.973   1.921   0.510
  706SOL    HW1 3268   1.010   1.980   0.575
  706SOL    HW2 3269   0.950   1.977   0.436
  706SOL     MW 3270   0.974   1.936   0.509
  707SOL     OW 3271   1.826   2.803   0.932
  707SOL    HW1 3272   1.817   2.835   0.843
  707SOL    HW2 3273   1.779   2.719   0.932
  707SOL     MW 3274   1.819   2.796   0.922
  708SOL     OW 3275   0.202   2.643   1.511
  708SOL    HW1 3276   0.223   2.712   1.449
  708SOL    HW2 3277   0.282   2.590   1.516
  708SOL     MW 3278   0.215   2.644   1.505
  709SOL     OW 3279   1.738   2.734   0.633
  709SOL    HW1 3280   1.832   2.723   0.621
  709SOL    HW2 3281   1.714   2.806   0.574
  709SOL     MW 3282   1.748   2.742   0.624
  710SOL     OW 3283   0.187   2.658   1.778
  710SOL    HW1 3284   0.113   2.602   1.804
  710SOL    HW2 3285   0.182   2.661   1.683
  710SOL     MW 3286   0.176   2.651   1.768
  711SOL     OW 3287   0.353   1.945   1.228
  711SOL    HW1 3288   0.396   2.029   1.248
  711SOL    HW2 3289   0.426   1.883   1.221
  711SOL     MW 3290   0.368   1.948   1.229
  712SOL     OW 3291   0.394   2.612   0.406
  712SOL    HW1 3292   0.394   2.707   0.391
  712SOL    HW2 3293   0.471   2.596   0.460
  712SOL     MW 3294   0.404   2.623   0.411
  713SOL     OW 3295   1.170   2.471   1.470
  713SOL    HW1 3296   1.206   2.444   1.386
  713SOL    HW2 3297   1.083   2.505   1.449
  713SOL     MW 3298   1.164   2.472   1.457
  714SOL     OW 3299   0.153   2.343   0.695
  714SOL    HW1 3300   0.215   2.350   0.768
  714SOL    HW2 3301   0.153   2.250   0.672
  714SOL     MW 3302   0.161   2.332   0.702
  715SOL     OW 3303   1.700   3.683   0.227
  715SOL    HW1 3304   1.767   3.716   0.167
  715SOL    HW2 3305   1.657   3.762   0.261
  715SOL     MW 3306   1.702   3.698   0.223
  716SOL     OW 3307   0.835   2.604   1.179
  716SOL    HW1 3308   0.793   2.522   1.155
  716SOL    HW2 3309   0.836   2.603   1.275
  716SOL     MW 3310   0.828   2.593   1.188
  717SOL     OW 3311   1.506   3.737   1.578
  717SOL    HW1 3312   1.509   3.643   1.561
  717SOL    HW2 3313   1.529   3.745   1.670
  717SOL     MW 3314   1.509   3.725   1.588
  718SOL     OW 3315   0.639   2.074   1.284
  718SOL    HW1 3316   0.570   2.137   1.305
  718SOL    HW2 3317   0.666   2.038   1.369
  718SOL     MW 3318   0.633   2.077   1.297
  719SOL     OW 3319   0.022   2.915   0.153
  719SOL    HW1 3320  -0.009   2.980   0.216
  719SOL    HW2 3321  -0.029   2.837   0.172
  719SOL     MW 3322   0.012   2.912   0.163
  720SOL     OW 3323   1.434   1.927   0.901
  720SOL    HW1 3324   1.522   1.936   0.938
  720SOL    HW2 3325   1.444   1.868   0.827
  720SOL     MW 3326   1.448   1.921   0.895
  721SOL     OW 3327   1.466   2.666   0.745
  721SOL    HW1 3328   1.546   2.681   0.694
  721SOL    HW2 3329   1.459   2.571   0.751
  721SOL     MW 3330   1.475   2.655   0.740
  722SOL     OW 3331   0.606   3.715   0.095
  722SOL    HW1 3332   0.511   3.715   0.087
  722SOL    HW2 3333   0.622   3.661   0.173
  722SOL     MW 3334   0.596   3.709   0.104
  723SOL     OW 3335   0.916   2.592   1.442
  723SOL    HW1 3336   0.985   2.659   1.439
  723SOL    HW2 3337   0.849   2.630   1.498
  723SOL     MW 3338   0.917   2.605   1.449
  724SOL     OW 3339   0.334   2.892   1.690
  724SOL    HW1 3340   0.288   2.808   1.692
  724SOL    HW2 3341   0.391   2.886   1.614
  724SOL     MW 3342   0.336   2.880   1.682
  725SOL     OW 3343   1.451   2.535   0.011
  725SOL    HW1 3344   1.379   2.511  -0.047
  725SOL    HW2 3345   1.517   2.572  -0.047
  725SOL     MW 3346   1.450   2.537  -0.004
  726SOL     OW 3347   0.585   3.267   0.691
  726SOL    HW1 3348   0.650   3.200   0.712
  726SOL    HW2 3349   0.637   3.344   0.668
  726SOL     MW 3350   0.600   3.269   0.690
  727SOL     OW 3351   0.846   2.432   0.821
  727SOL    HW1 3352   0.786   2.450   0.893
  727SOL    HW2 3353   0.880   2.344   0.840
  727SOL     MW 3354   0.842   2.422   0.834
  728SOL     OW 3355   1.787   1.931   1.490
  728SOL    HW1 3356   1.708   1.977   1.518
  728SOL    HW2 3357   1.822   1.985   1.419
  728SOL     MW 3358   1.781   1.944   1.484
  729SOL     OW 3359   1.071   3.015   0.840
  729SOL    HW1 3360   1.163   2.996   0.858
  729SOL    HW2 3361   1.044   2.945   0.780
  729SOL     MW 3362   1.079   3.003   0.834
  730SOL     OW 3363   0.864   2.835   0.195
  730SOL    HW1 3364   0.850   2.747   0.160
  730SOL    HW2 3365   0.815   2.892   0.136
  730SOL     MW 3366   0.856   2.830   0.183
  731SOL     OW 3367   1.345   3.253   0.936
  731SOL    HW1 3368   1.318   3.337   0.901
  731SOL    HW2 3369   1.305   3.248   1.023
  731SOL     MW 3370   1.338   3.262   0.942
  732SOL     OW 3371   1.264   3.201   1.204
  732SOL    HW1 3372   1.275   3.168   1.293
  732SOL    HW2 3373   1.183   3.160   1.173
  732SOL     MW 3374   1.254   3.193   1.210
  733SOL     OW 3375   0.277   2.559   0.974
  733SOL    HW1 3376   0.227   2.558   1.055
  733SOL    HW2 3377   0.297   2.651   0.958
  733SOL     MW 3378   0.273   2.571   0.982
  734SOL     OW 3379   1.344   3.323   1.736
  734SOL    HW1 3380   1.344   3.417   1.752
  734SOL    HW2 3381   1.389   3.313   1.652
  734SOL     MW 3382   1.350   3.333   1.727
  735SOL     OW 3383   1.583   2.041   0.297
  735SOL    HW1 3384   1.576   2.045   0.392
  735SOL    HW2 3385   1.595   2.132   0.270
  735SOL     MW 3386   1.584   2.054   0.305
  736SOL     OW 3387   0.872   2.604   0.411
  736SOL    HW1 3388   0.852   2.590   0.318
  736SOL    HW2 3389   0.965   2.583   0.418
  736SOL     MW 3390   0.882   2.599   0.400
  737SOL     OW 3391   0.199   2.227   1.715
  737SOL    HW1 3392   0.156   2.286   1.652
  737SOL    HW2 3393   0.267   2.282   1.755
  737SOL     MW 3394   0.203   2.242   1.712
  738SOL     OW 3395   1.311   2.847   1.260
  738SOL    HW1 3396   1.374   2.844   1.333
  738SOL    HW2 3397   1.227   2.865   1.302
  738SOL     MW 3398   1.307   2.849   1.275
  739SOL     OW 3399   0.855   3.562   0.449
  739SOL    HW1 3400   0.913   3.633   0.476
  739SOL    HW2 3401   0.878   3.490   0.507
  739SOL     MW 3402   0.866   3.562   0.460
  740SOL     OW 3403   1.650   2.024   1.039
  740SOL    HW1 3404   1.695   1.942   1.058
  740SOL    HW2 3405   1.670   2.080   1.115
  740SOL     MW 3406   1.660   2.020   1.051
  741SOL     OW 3407   0.098   1.867   1.138
  741SOL    HW1 3408   0.089   1.868   1.043
  741SOL    HW2 3409   0.192   1.879   1.153
  741SOL     MW 3410   0.110   1.870   1.129
  742SOL     OW 3411   1.735   3.060   0.758
  742SOL    HW1 3412   1.714   3.006   0.681
  742SOL    HW2 3413   1.831   3.058   0.762
  742SOL     MW 3414   1.744   3.053   0.747
  743SOL     OW 3415   0.427   3.205   1.501
  743SOL    HW1 3416   0.348   3.155   1.524
  743SOL    HW2 3417   0.497   3.164   1.551
  743SOL     MW 3418   0.425   3.193   1.511
  744SOL     OW 3419   0.311   1.994   0.184
  744SOL    HW1 3420   0.240   2.049   0.152
  744SOL    HW2 3421   0.353   1.960   0.105
  744SOL     MW 3422   0.307   1.996   0.170
  745SOL     OW 3423   1.435   2.491   1.020
  745SOL    HW1 3424   1.358   2.537   0.986
  745SOL    HW2 3425   1.492   2.560   1.054
  745SOL     MW 3426   1.432   2.506   1.020
  746SOL     OW 3427   0.067   2.093   0.033
  746SOL    HW1 3428   0.034   2.172   0.077
  746SOL    HW2 3429   0.122   2.126  -0.038
  746SOL     MW 3430   0.070   2.107   0.030
  747SOL     OW 3431   0.101   3.350   0.222
  747SOL    HW1 3432   0.118   3.434   0.264
  747SOL    HW2 3433   0.136   3.359   0.134
  747SOL     MW 3434   0.106   3.363   0.216
  748SOL     OW 3435   1.373   3.439   0.439
  748SOL    HW1 3436   1.436   3.429   0.368
  748SOL    HW2 3437   1.290   3.459   0.394
  748SOL     MW 3438   1.370   3.440   0.424
  749SOL     OW 3439   1.736   2.707   2.125
  749SOL    HW1 3440   1.777   2.649   2.190
  749SOL    HW2 3441   1.643   2.699   2.142
  749SOL     MW 3442   1.730   2.699   2.135
  750SOL     OW 3443   1.602   2.639   3.120
  750SOL    HW1 3444   1.557   2.706   3.171
  750SOL    HW2 3445   1.690   2.675   3.106
  750SOL     MW 3446   1.608   2.652   3.124
  751SOL     OW 3447   0.530   2.890   2.354
  751SOL    HW1 3448   0.620   2.865   2.338
  751SOL    HW2 3449   0.526   2.983   2.331
  751SOL     MW 3450   0.542   2.899   2.349
  752SOL     OW 3451   1.646   3.593   2.496
  752SOL    HW1 3452   1.658   3.539   2.574
  752SOL    HW2 3453   1.683   3.541   2.425
  752SOL     MW 3454   1.652   3.578   2.497
  753SOL     OW 3455   1.025   3.478   3.497
  753SOL    HW1 3456   1.066   3.514   3.418
  753SOL    HW2 3457   1.060   3.389   3.504
  753SOL     MW 3458   1.036   3.471   3.488
  754SOL     OW 3459   1.582   3.033   3.101
  754SOL    HW1 3460   1.503   2.998   3.059
  754SOL    HW2 3461   1.609   3.105   3.045
  754SOL     MW 3462   1.575   3.038   3.088
  755SOL     OW 3463   0.814   2.346   2.367
  755SOL    HW1 3464   0.789   2.434   2.395
  755SOL    HW2 3465   0.811   2.349   2.271
  755SOL     MW 3466   0.810   2.358   2.359
  756SOL     OW 3467   0.256   2.374   2.295
  756SOL    HW1 3468   0.288   2.462   2.277
  756SOL    HW2 3469   0.244   2.372   2.390
  756SOL     MW 3470   0.259   2.386   2.307
  757SOL     OW 3471   0.334   2.787   3.196
  757SOL    HW1 3472   0.397   2.734   3.147
  757SOL    HW2 3473   0.315   2.861   3.139
  757SOL     MW 3474   0.340   2.789   3.183
  758SOL     OW 3475   0.655   2.129   2.382
  758SOL    HW1 3476   0.713   2.205   2.384
  758SOL    HW2 3477   0.590   2.150   2.315
  758SOL     MW 3478   0.654   2.141   2.373
  759SOL     OW 3479   0.742   3.056   2.557
  759SOL    HW1 3480   0.822   3.059   2.609
  759SOL    HW2 3481   0.770   3.023   2.471
  759SOL     MW 3482   0.756   3.052   2.552
  760SOL     OW 3483   0.767   3.397   3.460
  760SOL    HW1 3484   0.851   3.423   3.499
  760SOL    HW2 3485   0.791   3.341   3.386
  760SOL     MW 3486   0.781   3.393   3.455
  761SOL     OW 3487   0.519   2.560   2.548
  761SOL    HW1 3488   0.504   2.480   2.599
  761SOL    HW2 3489   0.601   2.595   2.582
  761SOL     MW 3490   0.527   2.552   2.560
  762SOL     OW 3491   0.856   3.246   3.233
  762SOL    HW1 3492   0.820   3.312   3.173
  762SOL    HW2 3493   0.784   3.184   3.246
  762SOL     MW 3494   0.842   3.246   3.227
  763SOL     OW 3495   0.661   2.386   2.925
  763SOL    HW1 3496   0.567   2.382   2.943
  763SOL    HW2 3497   0.691   2.295   2.934
  763SOL     MW 3498   0.652   2.374   2.928
  764SOL     OW 3499   0.407   2.800   2.829
  764SOL    HW1 3500   0.362   2.807   2.745
  764SOL    HW2 3501   0.387   2.883   2.873
  764SOL     MW 3502   0.399   2.812   2.823
  765SOL     OW 3503   0.104   3.646   2.704
  765SOL    HW1 3504   0.193   3.638   2.739
  765SOL    HW2 3505   0.068   3.558   2.709
  765SOL     MW 3506   0.111   3.633   2.709
  766SOL     OW 3507   1.369   3.038   2.073
  766SOL    HW1 3508   1.287   3.074   2.039
  766SOL    HW2 3509   1.437   3.081   2.022
  766SOL     MW 3510   1.367   3.048   2.061
  767SOL     OW 3511   0.368   3.173   2.739
  767SOL    HW1 3512   0.344   3.226   2.815
  767SOL    HW2 3513   0.424   3.231   2.687
  767SOL     MW 3514   0.372   3.188   2.742
  768SOL     OW 3515   0.930   2.817   2.549
  768SOL    HW1 3516   0.844   2.804   2.589
  768SOL    HW2 3517   0.983   2.744   2.581
  768SOL     MW 3518   0.926   2.806   2.558
  769SOL     OW 3519   0.338   3.469   3.334
  769SOL    HW1 3520   0.246   3.445   3.319
  769SOL    HW2 3521   0.382   3.386   3.351
  769SOL     MW 3522   0.332   3.454   3.333
  770SOL     OW 3523   0.921   3.179   2.266
  770SOL    HW1 3524   0.898   3.241   2.334
  770SOL    HW2 3525   0.878   3.097   2.292
  770SOL     MW 3526   0.913   3.175   2.277
  771SOL     OW 3527   1.794   2.180   2.722
  771SOL    HW1 3528   1.731   2.160   2.791
  771SOL    HW2 3529   1.784   2.109   2.659
  771SOL     MW 3530   1.784   2.167   2.723
  772SOL     OW 3531   0.418   2.152   2.234
  772SOL    HW1 3532   0.392   2.114   2.150
  772SOL    HW2 3533   0.355   2.222   2.250
  772SOL     MW 3534   0.407   2.155   2.225
  773SOL     OW 3535   0.253   3.113   2.271
  773SOL    HW1 3536   0.201   3.181   2.227
  773SOL    HW2 3537   0.250   3.039   2.211
  773SOL     MW 3538   0.245   3.112   2.258
  774SOL     OW 3539   0.915   3.576   2.049
  774SOL    HW1 3540   0.870   3.592   2.132
  774SOL    HW2 3541   0.846   3.541   1.991
  774SOL     MW 3542   0.901   3.573   2.051
  775SOL     OW 3543   1.850   2.349   2.024
  775SOL    HW1 3544   1.759   2.351   2.052
  775SOL    HW2 3545   1.895   2.411   2.082
  775SOL     MW 3546   1.843   2.357   2.034
  776SOL     OW 3547   1.595   2.952   2.374
  776SOL    HW1 3548   1.505   2.952   2.409
  776SOL    HW2 3549   1.588   2.998   2.291
  776SOL     MW 3550   1.582   2.958   2.368
  777SOL     OW 3551   1.395   2.587   3.446
  777SOL    HW1 3552   1.464   2.525   3.423
  777SOL    HW2 3553   1.320   2.561   3.393
  777SOL     MW 3554   1.395   2.574   3.437
  778SOL     OW 3555   0.136   3.467   2.998
  778SOL    HW1 3556   0.119   3.413   3.075
  778SOL    HW2 3557   0.124   3.557   3.028
  778SOL     MW 3558   0.133   3.471   3.012
  779SOL     OW 3559   1.131   2.974   3.438
  779SOL    HW1 3560   1.116   3.067   3.423
  779SOL    HW2 3561   1.226   2.964   3.438
  779SOL     MW 3562   1.140   2.984   3.435
  780SOL     OW 3563   0.927   2.398   3.639
  780SOL    HW1 3564   1.017   2.399   3.606
  780SOL    HW2 3565   0.886   2.323   3.597
  780SOL     MW 3566   0.933   2.388   3.630
  781SOL     OW 3567   1.502   2.930   2.766
  781SOL    HW1 3568   1.505   2.864   2.697
  781SOL    HW2 3569   1.587   2.973   2.762
  781SOL     MW 3570   1.514   2.926   2.757
  782SOL     OW 3571   1.122   2.533   2.335
  782SOL    HW1 3572   1.148   2.557   2.246
  782SOL    HW2 3573   1.104   2.440   2.331
  782SOL     MW 3574   1.124   2.525   2.322
  783SOL     OW 3575   1.787   3.153   2.186
  783SOL    HW1 3576   1.743   3.194   2.261
  783SOL    HW2 3577   1.844   3.221   2.151
  783SOL     MW 3578   1.789   3.167   2.191
  784SOL     OW 3579   0.707   2.202   3.589
  784SOL    HW1 3580   0.717   2.128   3.529
  784SOL    HW2 3581   0.743   2.171   3.672
  784SOL     MW 3582   0.713   2.188   3.591
  785SOL     OW 3583   0.443   3.569   2.504
  785SOL    HW1 3584   0.475   3.657   2.482
  785SOL    HW2 3585   0.396   3.541   2.426
  785SOL     MW 3586   0.442   3.577   2.491
  786SOL     OW 3587   1.827   1.931   2.553
  786SOL    HW1 3588   1.881   1.882   2.615
  786SOL    HW2 3589   1.770   1.865   2.514
  786SOL     MW 3590   1.827   1.915   2.555
  787SOL     OW 3591   0.159   3.629   2.081
  787SOL    HW1 3592   0.188   3.719   2.073
  787SOL    HW2 3593   0.109   3.612   2.002
  787SOL     MW 3594   0.157   3.637   2.070
  788SOL     OW 3595   0.946   1.884   2.966
  788SOL    HW1 3596   0.905   1.962   2.928
  788SOL    HW2 3597   1.040   1.902   2.961
  788SOL     MW 3598   0.952   1.896   2.961
  789SOL     OW 3599   1.563   3.437   2.052
  789SOL    HW1 3600   1.611   3.506   2.098
  789SOL    HW2 3601   1.484   3.481   2.021
  789SOL     MW 3602   1.558   3.451   2.055
  790SOL     OW 3603   0.961   2.562   1.996
  790SOL    HW1 3604   0.963   2.509   1.917
  790SOL    HW2 3605   1.049   2.599   2.002
  790SOL     MW 3606   0.973   2.561   1.985
  791SOL     OW 3607   1.575   2.488   2.332
  791SOL    HW1 3608   1.614   2.488   2.419
  791SOL    HW2 3609   1.516   2.564   2.332
  791SOL     MW 3610   1.572   2.499   2.343
  792SOL     OW 3611   0.892   2.855   3.461
  792SOL    HW1 3612   0.869   2.835   3.551
  792SOL    HW2 3613   0.977   2.899   3.466
  792SOL     MW 3614   0.899   2.858   3.473
  793SOL     OW 3615   0.972   1.992   3.221
  793SOL    HW1 3616   0.978   1.954   3.134
  793SOL    HW2 3617   0.961   2.086   3.206
  793SOL     MW 3618   0.973   2.000   3.209
  794SOL     OW 3619   1.061   2.481   3.055
  794SOL    HW1 3620   1.136   2.510   3.002
  794SOL    HW2 3621   0.993   2.546   3.039
  794SOL     MW 3622   1.062   2.493   3.045
  795SOL     OW 3623   1.611   2.449   3.332
  795SOL    HW1 3624   1.592   2.358   3.311
  795SOL    HW2 3625   1.589   2.498   3.253
  795SOL     MW 3626   1.606   2.442   3.319
  796SOL     OW 3627   1.753   3.543   3.236
  796SOL    HW1 3628   1.681   3.505   3.287
  796SOL    HW2 3629   1.770   3.628   3.277
  796SOL     MW 3630   1.747   3.548   3.248
  797SOL     OW 3631   1.058   2.187   3.438
  797SOL    HW1 3632   1.024   2.226   3.357
  797SOL    HW2 3633   1.036   2.095   3.431
  797SOL     MW 3634   1.051   2.180   3.428
  798SOL     OW 3635   1.467   3.001   3.514
  798SOL    HW1 3636   1.549   3.042   3.544
  798SOL    HW2 3637   1.430   2.963   3.594
  798SOL     MW 3638   1.473   3.002   3.529
  799SOL     OW 3639   1.762   2.374   2.498
  799SOL    HW1 3640   1.851   2.343   2.515
  799SOL    HW2 3641   1.705   2.314   2.546
  799SOL     MW 3642   1.765   2.362   2.507
  800SOL     OW 3643   0.188   2.088   2.527
  800SOL    HW1 3644   0.179   2.028   2.453
  800SOL    HW2 3645   0.121   2.059   2.590
  800SOL     MW 3646   0.178   2.075   2.525
  801SOL     OW 3647   1.131   3.181   2.088
  801SOL    HW1 3648   1.081   3.183   2.170
  801SOL    HW2 3649   1.065   3.199   2.020
  801SOL     MW 3650   1.117   3.183   2.090
  802SOL     OW 3651   0.135   2.261   2.890
  802SOL    HW1 3652   0.107   2.352   2.899
  802SOL    HW2 3653   0.072   2.222   2.829
  802SOL     MW 3654   0.122   2.267   2.884
  803SOL     OW 3655   0.594   3.599   2.196
  803SOL    HW1 3656   0.515   3.557   2.229
  803SOL    HW2 3657   0.660   3.582   2.263
  803SOL     MW 3658   0.593   3.591   2.209
  804SOL     OW 3659   1.722   3.119   3.593
  804SOL    HW1 3660   1.772   3.045   3.625
  804SOL    HW2 3661   1.668   3.146   3.668
  804SOL     MW 3662   1.722   3.113   3.606
  805SOL     OW 3663   0.730   3.014   1.903
  805SOL    HW1 3664   0.652   2.960   1.890
  805SOL    HW2 3665   0.701   3.087   1.956
  805SOL     MW 3666   0.716   3.016   1.908
  806SOL     OW 3667   1.856   2.754   3.095
  806SOL    HW1 3668   1.872   2.792   3.008
  806SOL    HW2 3669   1.890   2.820   3.156
  806SOL     MW 3670   1.863   2.767   3.091
  807SOL     OW 3671   1.648   3.463   2.764
  807SOL    HW1 3672   1.677   3.530   2.825
  807SOL    HW2 3673   1.629   3.387   2.819
  807SOL     MW 3674   1.650   3.463   2.779
  808SOL     OW 3675   1.311   3.530   1.971
  808SOL    HW1 3676   1.237   3.493   2.021
  808SOL    HW2 3677   1.319   3.620   2.004
  808SOL     MW 3678   1.302   3.537   1.983
  809SOL     OW 3679   0.119   2.536   3.060
  809SOL    HW1 3680   0.181   2.566   3.126
  809SOL    HW2 3681   0.053   2.605   3.054
  809SOL     MW 3682   0.118   2.549   3.067
  810SOL     OW 3683   1.535   3.204   1.913
  810SOL    HW1 3684   1.482   3.253   1.849
  810SOL    HW2 3685   1.566   3.270   1.974
  810SOL     MW 3686   1.533   3.218   1.911
  811SOL     OW 3687   0.760   2.093   1.968
  811SOL    HW1 3688   0.708   2.013   1.956
  811SOL    HW2 3689   0.847   2.070   1.936
  811SOL     MW 3690   0.763   2.079   1.962
  812SOL     OW 3691   0.214   3.645   3.512
  812SOL    HW1 3692   0.188   3.713   3.450
  812SOL    HW2 3693   0.262   3.582   3.460
  812SOL     MW 3694   0.216   3.645   3.498
  813SOL     OW 3695   0.266   2.964   3.019
  813SOL    HW1 3696   0.319   3.039   3.044
  813SOL    HW2 3697   0.185   3.002   2.985
  813SOL     MW 3698   0.262   2.979   3.019
  814SOL     OW 3699   0.806   2.868   3.007
  814SOL    HW1 3700   0.834   2.777   3.019
  814SOL    HW2 3701   0.735   2.862   2.943
  814SOL     MW 3702   0.799   2.856   3.002
  815SOL     OW 3703   0.121   2.733   2.425
  815SOL    HW1 3704   0.212   2.748   2.452
  815SOL    HW2 3705   0.124   2.654   2.371
  815SOL     MW 3706   0.133   2.725   2.423
  816SOL     OW 3707   0.357   2.441   3.679
  816SOL    HW1 3708   0.304   2.521   3.686
  816SOL    HW2 3709   0.427   2.453   3.744
  816SOL     MW 3710   0.359   2.454   3.687
  817SOL     OW 3711   0.743   1.991   3.386
  817SOL    HW1 3712   0.720   1.899   3.388
  817SOL    HW2 3713   0.829   1.993   3.343
  817SOL     MW 3714   0.750   1.981   3.382
  818SOL     OW 3715   0.427   2.515   3.425
  818SOL    HW1 3716   0.507   2.565   3.411
  818SOL    HW2 3717   0.418   2.509   3.520
  818SOL     MW 3718   0.436   2.521   3.435
  819SOL     OW 3719   0.748   3.665   2.799
  819SOL    HW1 3720   0.837   3.680   2.829
  819SOL    HW2 3721   0.743   3.712   2.715
  819SOL     MW 3722   0.758   3.673   2.792
  820SOL     OW 3723   1.404   2.040   3.696
  820SOL    HW1 3724   1.460   1.967   3.722
  820SOL    HW2 3725   1.374   2.078   3.778
  820SOL     MW 3726   1.408   2.035   3.709
  821SOL     OW 3727   0.129   3.345   2.464
  821SOL    HW1 3728   0.101   3.384   2.546
  821SOL    HW2 3729   0.149   3.254   2.486
  821SOL     MW 3730   0.127   3.337   2.477
  822SOL     OW 3731   0.962   3.388   2.499
  822SOL    HW1 3732   1.045   3.342   2.483
  822SOL    HW2 3733   0.952   3.387   2.595
  822SOL     MW 3734   0.972   3.381   2.509
  823SOL     OW 3735   1.794   2.533   2.813
  823SOL    HW1 3736   1.883   2.563   2.795
  823SOL    HW2 3737   1.774   2.473   2.742
  823SOL     MW 3738   1.803   2.530   2.802
  824SOL     OW 3739   1.645   2.712   3.693
  824SOL    HW1 3740   1.700   2.636   3.674
  824SOL    HW2 3741   1.647   2.720   3.788
  824SOL     MW 3742   1.653   2.703   3.701
  825SOL     OW 3743   0.695   3.445   1.904
  825SOL    HW1 3744   0.635   3.514   1.874
  825SOL    HW2 3745   0.640   3.387   1.957
  825SOL     MW 3746   0.679   3.447   1.906
  826SOL     OW 3747   1.133   2.090   2.127
  826SOL    HW1 3748   1.066   2.066   2.064
  826SOL    HW2 3749   1.198   2.139   2.076
  826SOL     MW 3750   1.133   2.092   2.112
  827SOL     OW 3751   0.940   2.274   3.212
  827SOL    HW1 3752   0.859   2.315   3.240
  827SOL    HW2 3753   0.987   2.342   3.164
  827SOL     MW 3754   0.935   2.289   3.210
  828SOL     OW 3755   1.200   2.612   2.835
  828SOL    HW1 3756   1.213   2.706   2.845
  828SOL    HW2 3757   1.161   2.602   2.749
  828SOL     MW 3758   1.196   2.623   2.825
  829SOL     OW 3759   0.652   2.807   2.639
  829SOL    HW1 3760   0.563   2.798   2.672
  829SOL    HW2 3761   0.656   2.897   2.607
  829SOL     MW 3762   0.641   2.818   2.639
  830SOL     OW 3763   1.451   2.390   2.634
  830SOL    HW1 3764   1.396   2.311   2.633
  830SOL    HW2 3765   1.433   2.431   2.718
  830SOL     MW 3766   1.441   2.385   2.643
  831SOL     OW 3767   0.422   2.077   3.451
  831SOL    HW1 3768   0.343   2.095   3.503
  831SOL    HW2 3769   0.417   2.139   3.378
  831SOL     MW 3770   0.412   2.087   3.448
  832SOL     OW 3771   1.070   2.594   2.591
  832SOL    HW1 3772   1.007   2.526   2.615
  832SOL    HW2 3773   1.090   2.575   2.499
  832SOL     MW 3774   1.064   2.581   2.583
  833SOL     OW 3775   0.326   3.489   2.293
  833SOL    HW1 3776   0.287   3.536   2.219
  833SOL    HW2 3777   0.260   3.424   2.318
  833SOL     MW 3778   0.313   3.487   2.287
  834SOL     OW 3779   0.818   2.898   2.317
  834SOL    HW1 3780   0.820   2.872   2.224
  834SOL    HW2 3781   0.876   2.835   2.360
  834SOL     MW 3782   0.826   2.887   2.311
  835SOL     OW 3783   1.371   3.458   3.089
  835SOL    HW1 3784   1.296   3.504   3.127
  835SOL    HW2 3785   1.353   3.365   3.106
  835SOL     MW 3786   1.360   3.452   3.097
  836SOL     OW 3787   1.375   3.666   2.519
  836SOL    HW1 3788   1.318   3.619   2.458
  836SOL    HW2 3789   1.461   3.627   2.506
  836SOL     MW 3790   1.378   3.657   2.509
  837SOL     OW 3791   1.328   2.142   2.650
  837SOL    HW1 3792   1.356   2.074   2.711
  837SOL    HW2 3793   1.242   2.113   2.620
  837SOL     MW 3794   1.321   2.129   2.654
  838SOL     OW 3795   0.133   3.076   2.584
  838SOL    HW1 3796   0.197   3.108   2.647
  838SOL    HW2 3797   0.182   3.012   2.532
  838SOL     MW 3798   0.148   3.072   2.585
  839SOL     OW 3799   0.633   3.152   3.566
  839SOL    HW1 3800   0.681   3.235   3.553
  839SOL    HW2 3801   0.690   3.100   3.622
  839SOL     MW 3802   0.647   3.156   3.572
  840SOL     OW 3803   0.209   3.394   3.706
  840SOL    HW1 3804   0.265   3.318   3.721
  840SOL    HW2 3805   0.158   3.372   3.628
  840SOL     MW 3806   0.209   3.381   3.697
  841SOL     OW 3807   1.308   2.246   1.985
  841SOL    HW1 3808   1.281   2.312   1.921
  841SOL    HW2 3809   1.378   2.289   2.035
  841SOL     MW 3810   1.313   2.259   1.982
  842SOL     OW 3811   0.976   1.951   1.922
  842SOL    HW1 3812   1.032   1.943   1.844
  842SOL    HW2 3813   0.953   1.861   1.944
  842SOL     MW 3814   0.981   1.938   1.915
  843SOL     OW 3815   1.481   2.802   2.127
  843SOL    HW1 3816   1.448   2.891   2.117
  843SOL    HW2 3817   1.446   2.773   2.212
  843SOL     MW 3818   1.471   2.811   2.138
  844SOL     OW 3819   1.094   3.231   3.315
  844SOL    HW1 3820   1.005   3.237   3.283
  844SOL    HW2 3821   1.138   3.310   3.283
  844SOL     MW 3822   1.089   3.241   3.307
  845SOL     OW 3823   0.387   1.899   3.657
  845SOL    HW1 3824   0.315   1.864   3.605
  845SOL    HW2 3825   0.445   1.940   3.592
  845SOL     MW 3826   0.385   1.900   3.642
  846SOL     OW 3827   0.411   3.389   2.956
  846SOL    HW1 3828   0.456   3.451   3.013
  846SOL    HW2 3829   0.318   3.408   2.969
  846SOL     MW 3830   0.404   3.399   2.963
  847SOL     OW 3831   1.851   2.918   3.310
  847SOL    HW1 3832   1.766   2.931   3.269
  847SOL    HW2 3833   1.831   2.882   3.397
  847SOL     MW 3834   1.838   2.914   3.315
  848SOL     OW 3835   0.833   3.457   3.064
  848SOL    HW1 3836   0.857   3.446   2.973
  848SOL    HW2 3837   0.756   3.514   3.062
  848SOL     MW 3838   0.825   3.462   3.053
  849SOL     OW 3839   0.475   2.840   1.919
  849SOL    HW1 3840   0.398   2.853   1.975
  849SOL    HW2 3841   0.439   2.804   1.838
  849SOL     MW 3842   0.461   2.836   1.916
  850SOL     OW 3843   1.128   2.813   2.162
  850SOL    HW1 3844   1.038   2.834   2.137
  850SOL    HW2 3845   1.155   2.886   2.218
  850SOL     MW 3846   1.120   2.825   2.165
  851SOL     OW 3847   0.628   3.162   2.854
  851SOL    HW1 3848   0.621   3.141   2.948
  851SOL    HW2 3849   0.546   3.130   2.817
  851SOL     MW 3850   0.616   3.156   2.861
  852SOL     OW 3851   1.492   2.172   3.256
  852SOL    HW1 3852   1.439   2.174   3.336
  852SOL    HW2 3853   1.477   2.085   3.219
  852SOL     MW 3854   1.484   2.162   3.261
  853SOL     OW 3855   1.828   2.096   3.129
  853SOL    HW1 3856   1.809   2.163   3.064
  853SOL    HW2 3857   1.885   2.034   3.084
  853SOL     MW 3858   1.832   2.097   3.115
  854SOL     OW 3859   0.074   3.254   3.517
  854SOL    HW1 3860   0.118   3.187   3.463
  854SOL    HW2 3861  -0.011   3.216   3.537
  854SOL     MW 3862   0.069   3.240   3.513
  855SOL     OW 3863   0.757   1.929   2.569
  855SOL    HW1 3864   0.686   1.990   2.551
  855SOL    HW2 3865   0.808   1.926   2.488
  855SOL     MW 3866   0.753   1.935   2.556
  856SOL     OW 3867   0.515   3.169   2.318
  856SOL    HW1 3868   0.508   3.201   2.408
  856SOL    HW2 3869   0.425   3.153   2.290
  856SOL     MW 3870   0.503   3.171   2.325
  857SOL     OW 3871   1.110   3.562   3.227
  857SOL    HW1 3872   1.030   3.547   3.177
  857SOL    HW2 3873   1.117   3.657   3.234
  857SOL     MW 3874   1.101   3.573   3.221
  858SOL     OW 3875   1.224   3.527   2.717
  858SOL    HW1 3876   1.271   3.600   2.676
  858SOL    HW2 3877   1.145   3.566   2.753
  858SOL     MW 3878   1.219   3.542   2.716
  859SOL     OW 3879   1.632   3.622   2.992
  859SOL    HW1 3880   1.675   3.592   3.072
  859SOL    HW2 3881   1.551   3.570   2.989
  859SOL     MW 3882   1.627   3.611   3.002
  860SOL     OW 3883   0.717   2.586   3.699
  860SOL    HW1 3884   0.787   2.528   3.671
  860SOL    HW2 3885   0.660   2.531   3.754
  860SOL     MW 3886   0.719   2.573   3.703
  861SOL     OW 3887   1.504   2.798   3.332
  861SOL    HW1 3888   1.509   2.851   3.412
  861SOL    HW2 3889   1.466   2.715   3.360
  861SOL     MW 3890   1.500   2.793   3.347
  862SOL     OW 3891   1.144   1.933   3.578
  862SOL    HW1 3892   1.139   1.840   3.559
  862SOL    HW2 3893   1.227   1.944   3.624
  862SOL     MW 3894   1.152   1.922   3.582
  863SOL     OW 3895   0.518   2.453   2.032
  863SOL    HW1 3896   0.484   2.509   2.102
  863SOL    HW2 3897   0.589   2.403   2.072
  863SOL     MW 3898   0.524   2.454   2.046
  864SOL     OW 3899   1.614   3.204   2.854
  864SOL    HW1 3900   1.649   3.186   2.767
  864SOL    HW2 3901   1.519   3.205   2.841
  864SOL     MW 3902   1.606   3.201   2.841
  865SOL     OW 3903   1.043   2.852   3.223
  865SOL    HW1 3904   1.086   2.887   3.301
  865SOL    HW2 3905   1.026   2.929   3.169
  865SOL     MW 3906   1.046   2.867   3.226
  866SOL     OW 3907   1.574   2.339   2.096
  866SOL    HW1 3908   1.566   2.410   2.033
  866SOL    HW2 3909   1.592   2.383   2.179
  866SOL     MW 3910   1.575   2.353   2.098
  867SOL     OW 3911   0.434   1.994   2.525
  867SOL    HW1 3912   0.484   2.037   2.456
  867SOL    HW2 3913   0.349   2.038   2.525
  867SOL     MW 3914   0.431   2.007   2.516
  868SOL     OW 3915   0.193   3.056   3.385
  868SOL    HW1 3916   0.221   3.009   3.463
  868SOL    HW2 3917   0.114   3.011   3.356
  868SOL     MW 3918   0.186   3.045   3.391
  869SOL     OW 3919   0.701   2.383   3.352
  869SOL    HW1 3920   0.673   2.471   3.376
  869SOL    HW2 3921   0.670   2.327   3.423
  869SOL     MW 3922   0.693   2.386   3.364
  870SOL     OW 3923   1.243   2.601   2.071
  870SOL    HW1 3924   1.290   2.619   1.990
  870SOL    HW2 3925   1.209   2.685   2.099
  870SOL     MW 3926   1.245   2.615   2.064
  871SOL     OW 3927   0.356   2.779   2.565
  871SOL    HW1 3928   0.414   2.835   2.513
  871SOL    HW2 3929   0.400   2.694   2.567
  871SOL     MW 3930   0.369   2.776   2.558
  872SOL     OW 3931   1.496   2.131   2.402
  872SOL    HW1 3932   1.418   2.081   2.427
  872SOL    HW2 3933   1.467   2.222   2.402
  872SOL     MW 3934   1.482   2.135   2.405
  873SOL     OW 3935   1.082   2.093   2.561
  873SOL    HW1 3936   1.102   2.168   2.505
  873SOL    HW2 3937   1.062   2.132   2.646
  873SOL     MW 3938   1.083   2.109   2.565
  874SOL     OW 3939   0.978   3.343   1.893
  874SOL    HW1 3940   1.005   3.421   1.845
  874SOL    HW2 3941   0.885   3.358   1.912
  874SOL     MW 3942   0.969   3.356   1.889
  875SOL     OW 3943   1.842   2.866   3.580
  875SOL    HW1 3944   1.755   2.846   3.616
  875SOL    HW2 3945   1.896   2.792   3.605
  875SOL     MW 3946   1.837   2.855   3.588
  876SOL     OW 3947   0.063   3.379   2.737
  876SOL    HW1 3948   0.095   3.383   2.828
  876SOL    HW2 3949  -0.032   3.387   2.745
  876SOL     MW 3950   0.055   3.382   2.750
  877SOL     OW 3951   0.018   2.505   2.284
  877SOL    HW1 3952  -0.042   2.477   2.354
  877SOL    HW2 3953   0.092   2.445   2.290
  877SOL     MW 3954   0.020   2.494   2.293
  878SOL     OW 3955   1.586   3.717   3.718
  878SOL    HW1 3956   1.631   3.641   3.683
  878SOL    HW2 3957   1.624   3.730   3.805
  878SOL     MW 3958   1.596   3.710   3.724
  879SOL     OW 3959   1.186   3.236   2.444
  879SOL    HW1 3960   1.209   3.187   2.522
  879SOL    HW2 3961   1.267   3.278   2.416
  879SOL     MW 3962   1.199   3.236   2.451
  880SOL     OW 3963   0.444   2.244   3.173
  880SOL    HW1 3964   0.477   2.325   3.213
  880SOL    HW2 3965   0.417   2.270   3.085
  880SOL     MW 3966   0.443   2.258   3.167
  881SOL     OW 3967   0.398   2.211   2.909
  881SOL    HW1 3968   0.428   2.125   2.880
  881SOL    HW2 3969   0.303   2.204   2.912
  881SOL     MW 3970   0.390   2.200   2.907
  882SOL     OW 3971   1.227   2.420   3.600
  882SOL    HW1 3972   1.279   2.355   3.553
  882SOL    HW2 3973   1.185   2.471   3.530
  882SOL     MW 3974   1.228   2.417   3.583
  883SOL     OW 3975   1.326   2.215   3.461
  883SOL    HW1 3976   1.233   2.199   3.448
  883SOL    HW2 3977   1.352   2.153   3.529
  883SOL     MW 3978   1.316   2.205   3.468
  884SOL     OW 3979   0.541   1.989   2.800
  884SOL    HW1 3980   0.551   1.898   2.826
  884SOL    HW2 3981   0.497   1.985   2.715
  884SOL     MW 3982   0.537   1.977   2.792
  885SOL     OW 3983   0.635   3.604   3.346
  885SOL    HW1 3984   0.552   3.589   3.391
  885SOL    HW2 3985   0.694   3.537   3.381
  885SOL     MW 3986   0.633   3.594   3.356
  886SOL     OW 3987   1.692   2.311   2.971
  886SOL    HW1 3988   1.625   2.344   3.031
  886SOL    HW2 3989   1.735   2.389   2.937
  886SOL     MW 3990   1.690   2.326   2.975
  887SOL     OW 3991   1.870   3.031   2.941
  887SOL    HW1 3992   1.863   2.971   2.866
  887SOL    HW2 3993   1.796   3.091   2.930
  887SOL     MW 3994   1.860   3.031   2.930
  888SOL     OW 3995   1.252   2.893   2.859
  888SOL    HW1 3996   1.266   2.865   2.950
  888SOL    HW2 3997   1.338   2.924   2.831
  888SOL     MW 3998   1.265   2.894   2.868
  889SOL     OW 3999   1.335   2.388   3.138
  889SOL    HW1 4000   1.356   2.389   3.045
  889SOL    HW2 4001   1.380   2.310   3.171
  889SOL     MW 4002   1.342   2.378   3.130
  890SOL     OW 4003   1.828   2.519   3.680
  890SOL    HW1 4004   1.865   2.464   3.749
  890SOL    HW2 4005   1.853   2.476   3.598
  890SOL     MW 4006   1.835   2.507   3.679
  891SOL     OW 4007   1.375   2.817   3.731
  891SOL    HW1 4008   1.441   2.765   3.685
  891SOL    HW2 4009   1.395   2.804   3.824
  891SOL     MW 4010   1.386   2.808   3.738
  892SOL     OW 4011   1.326   1.903   2.080
  892SOL    HW1 4012   1.400   1.947   2.123
  892SOL    HW2 4013   1.250   1.957   2.102
  892SOL     MW 4014   1.326   1.915   2.088
  893SOL     OW 4015   1.386   2.678   2.358
  893SOL    HW1 4016   1.301   2.648   2.328
  893SOL    HW2 4017   1.378   2.685   2.453
  893SOL     MW 4018   1.374   2.676   2.367
  894SOL     OW 4019   0.462   3.141   3.089
  894SOL    HW1 4020   0.474   3.168   3.180
  894SOL    HW2 4021   0.443   3.222   3.042
  894SOL     MW 4022   0.461   3.156   3.094
  895SOL     OW 4023   0.746   2.121   2.912
  895SOL    HW1 4024   0.719   2.123   3.003
  895SOL    HW2 4025   0.676   2.073   2.867
  895SOL     MW 4026   0.734   2.117   2.919
  896SOL     OW 4027   0.600   3.613   3.074
  896SOL    HW1 4028   0.652   3.690   3.051
  896SOL    HW2 4029   0.609   3.605   3.169
  896SOL     MW 4030   0.609   3.620   3.085
  897SOL     OW 4031   1.502   3.198   3.306
  897SOL    HW1 4032   1.487   3.127   3.369
  897SOL    HW2 4033   1.548   3.156   3.234
  897SOL     MW 4034   1.508   3.182   3.306
  898SOL     OW 4035   0.576   2.929   3.423
  898SOL    HW1 4036   0.613   2.934   3.335
  898SOL    HW2 4037   0.615   3.002   3.470
  898SOL     MW 4038   0.586   2.939   3.418
  899SOL     OW 4039   0.756   2.972   3.235
  899SOL    HW1 4040   0.815   2.918   3.288
  899SOL    HW2 4041   0.771   2.944   3.145
  899SOL     MW 4042   0.766   2.961   3.231
  900SOL     OW 4043   0.759   2.344   2.084
  900SOL    HW1 4044   0.832   2.393   2.047
  900SOL    HW2 4045   0.775   2.253   2.058
  900SOL     MW 4046   0.771   2.339   2.077
  901SOL     OW 4047   1.567   3.461   3.407
  901SOL    HW1 4048   1.609   3.446   3.492
  901SOL    HW2 4049   1.558   3.374   3.369
  901SOL     MW 4050   1.571   3.449   3.414
  902SOL     OW 4051   1.227   1.940   2.998
  902SOL    HW1 4052   1.282   1.949   2.920
  902SOL    HW2 4053   1.282   1.974   3.069
  902SOL     MW 4054   1.241   1.945   2.997
  903SOL     OW 4055   0.234   2.853   2.182
  903SOL    HW1 4056   0.171   2.869   2.111
  903SOL    HW2 4057   0.181   2.816   2.253
  903SOL     MW 4058   0.219   2.850   2.182
  904SOL     OW 4059   0.590   3.207   2.041
  904SOL    HW1 4060   0.605   3.183   2.133
  904SOL    HW2 4061   0.498   3.185   2.025
  904SOL     MW 4062   0.580   3.200   2.051
  905SOL     OW 4063   1.129   3.438   2.193
  905SOL    HW1 4064   1.137   3.356   2.144
  905SOL    HW2 4065   1.048   3.477   2.160
  905SOL     MW 4066   1.119   3.433   2.183
  906SOL     OW 4067   0.388   3.596   2.762
  906SOL    HW1 4068   0.392   3.507   2.797
  906SOL    HW2 4069   0.414   3.587   2.671
  906SOL     MW 4070   0.391   3.584   2.754
  907SOL     OW 4071   1.005   3.074   3.005
  907SOL    HW1 4072   0.937   3.008   3.021
  907SOL    HW2 4073   1.023   3.068   2.912
  907SOL     MW 4074   0.998   3.065   2.996
  908SOL     OW 4075   0.094   3.349   3.256
  908SOL    HW1 4076   0.084   3.307   3.342
  908SOL    HW2 4077   0.015   3.402   3.246
  908SOL     MW 4078   0.083   3.350   3.267
  909SOL     OW 4079   0.998   2.213   2.826
  909SOL    HW1 4080   0.928   2.165   2.871
  909SOL    HW2 4081   1.030   2.276   2.890
  909SOL     MW 4082   0.993   2.215   2.840
  910SOL     OW 4083   0.649   2.649   3.446
  910SOL    HW1 4084   0.642   2.744   3.434
  910SOL    HW2 4085   0.658   2.638   3.541
  910SOL     MW 4086   0.650   2.661   3.456
  911SOL     OW 4087   0.370   3.164   3.704
  911SOL    HW1 4088   0.442   3.166   3.641
  911SOL    HW2 4089   0.340   3.073   3.703
  911SOL     MW 4090   0.375   3.153   3.696
  912SOL     OW 4091   1.454   1.927   3.171
  912SOL    HW1 4092   1.525   1.873   3.135
  912SOL    HW2 4093   1.453   1.906   3.264
  912SOL     MW 4094   1.463   1.918   3.179
  913SOL     OW 4095   1.654   3.457   3.655
  913SOL    HW1 4096   1.627   3.454   3.746
  913SOL    HW2 4097   1.750   3.461   3.658
  913SOL     MW 4098   1.664   3.457   3.667
  914SOL     OW 4099   0.465   2.319   2.639
  914SOL    HW1 4100   0.536   2.267   2.602
  914SOL    HW2 4101   0.451   2.284   2.726
  914SOL     MW 4102   0.473   2.308   2.646
  915SOL     OW 4103   0.020   3.654   3.711
  915SOL    HW1 4104   0.070   3.632   3.633
  915SOL    HW2 4105   0.028   3.749   3.719
  915SOL     MW 4106   0.028   3.663   3.702
  916SOL     OW 4107   0.781   3.412   2.715
  916SOL    HW1 4108   0.709   3.349   2.728
  916SOL    HW2 4109   0.742   3.497   2.733
  916SOL     MW 4110   0.765   3.415   2.718
  917SOL     OW 4111   1.101   2.260   2.363
  917SOL    HW1 4112   1.123   2.197   2.295
  917SOL    HW2 4113   1.006   2.252   2.374
  917SOL     MW 4114   1.091   2.251   2.355
  918SOL     OW 4115   0.186   1.950   2.295
  918SOL    HW1 4116   0.257   1.971   2.234
  918SOL    HW2 4117   0.140   1.878   2.253
  918SOL     MW 4118   0.190   1.944   2.281
  919SOL     OW 4119   0.017   2.417   3.438
  919SOL    HW1 4120   0.081   2.483   3.413
  919SOL    HW2 4121  -0.064   2.444   3.395
  919SOL     MW 4122   0.015   2.429   3.430
  920SOL     OW 4123   1.755   3.324   2.395
  920SOL    HW1 4124   1.725   3.257   2.456
  920SOL    HW2 4125   1.849   3.330   2.409
  920SOL     MW 4126   1.763   3.316   2.405
  921SOL     OW 4127   1.311   3.001   2.325
  921SOL    HW1 4128   1.283   3.087   2.358
  921SOL    HW2 4129   1.339   3.017   2.235
  921SOL     MW 4130   1.311   3.015   2.317
  922SOL     OW 4131   0.973   1.921   2.378
  922SOL    HW1 4132   1.010   1.980   2.443
  922SOL    HW2 4133   0.950   1.977   2.304
  922SOL     MW 4134   0.974   1.936   2.377
  923SOL     OW 4135   1.826   2.803   2.800
  923SOL    HW1 4136   1.817   2.835   2.711
  923SOL    HW2 4137   1.779   2.719   2.800
  923SOL     MW 4138   1.819   2.796   2.790
  924SOL     OW 4139   0.202   2.643   3.379
  924SOL    HW1 4140   0.223   2.712   3.317
  924SOL    HW2 4141   0.282   2.590   3.384
  924SOL     MW 4142   0.215   2.644   3.373
  925SOL     OW 4143   1.738   2.734   2.501
  925SOL    HW1 4144   1.832   2.723   2.489
  925SOL    HW2 4145   1.714   2.806   2.442
  925SOL     MW 4146   1.748   2.742   2.492
  926SOL     OW 4147   0.187   2.658   3.646
  926SOL    HW1 4148   0.113   2.602   3.672
  926SOL    HW2 4149   0.182   2.661   3.551
  926SOL     MW 4150   0.176   2.651   3.636
  927SOL     OW 4151   0.353   1.945   3.096
  927SOL    HW1 4152   0.396   2.029   3.116
  927SOL    HW2 4153   0.426   1.883   3.089
  927SOL     MW 4154   0.368   1.948   3.097
  928SOL     OW 4155   0.394   2.612   2.274
  928SOL    HW1 4156   0.394   2.707   2.259
  928SOL    HW2 4157   0.471   2.596   2.328
  928SOL     MW 4158   0.404   2.623   2.279
  929SOL     OW 4159   1.170   2.471   3.338
  929SOL    HW1 4160   1.206   2.444   3.254
  929SOL    HW2 4161   1.083   2.505   3.317
  929SOL     MW 4162   1.164   2.472   3.325
  930SOL     OW 4163   0.153   2.343   2.563
  930SOL    HW1 4164   0.215   2.350   2.636
  930SOL    HW2 4165   0.153   2.250   2.540
  930SOL     MW 4166   0.161   2.332   2.570
  931SOL     OW 4167   1.700   3.683   2.095
  931SOL    HW1 4168   1.767   3.716   2.035
  931SOL    HW2 4169   1.657   3.762   2.129
  931SOL     MW 4170   1.702   3.698   2.091
  932SOL     OW 4171   0.835   2.604   3.047
  932SOL    HW1 4172   0.793   2.522   3.023
  932SOL    HW2 4173   0.836   2.603   3.143
  932SOL     MW 4174   0.828   2.593   3.056
  933SOL     OW 4175   1.506   3.737   3.446
  933SOL    HW1 4176   1.509   3.643   3.429
  933SOL    HW2 4177   1.529   3.745   3.538
  933SOL     MW 4178   1.509   3.725   3.456
  934SOL     OW 4179   0.639   2.074   3.152
  934SOL    HW1 4180   0.570   2.137   3.173
  934SOL    HW2 4181   0.666   2.038   3.237
  934SOL     MW 4182   0.633   2.077   3.165
  935SOL     OW 4183   0.022   2.915   2.021
  935SOL    HW1 4184  -0.009   2.980   2.084
  935SOL    HW2 4185  -0.029   2.837   2.040
  935SOL     MW 4186   0.012   2.912   2.031
  936SOL     OW 4187   1.434   1.927   2.769
  936SOL    HW1 4188   1.522   1.936   2.806
  936SOL    HW2 4189   1.444   1.868   2.695
  936SOL     MW 4190   1.448   1.921   2.763
  937SOL     OW 4191   1.466   2.666   2.613
  937SOL    HW1 4192   1.546   2.681   2.562
  937SOL    HW2 4193   1.459   2.571   2.619
  937SOL     MW 4194   1.475   2.655   2.608
  938SOL     OW 4195   0.606   3.715   1.963
  938SOL    HW1 4196   0.511   3.715   1.955
  938SOL    HW2 4197   0.622   3.661   2.041
  938SOL     MW 4198   0.596   3.709   1.972
  939SOL     OW 4199   0.916   2.592   3.310
  939SOL    HW1 4200   0.985   2.659   3.307
  939SOL    HW2 4201   0.849   2.630   3.366
  939SOL     MW 4202   0.917   2.605   3.317
  940SOL     OW 4203   0.334   2.892   3.558
  940SOL    HW1 4204   0.288   2.808   3.560
  940SOL    HW2 4205   0.391   2.886   3.482
  940SOL     MW 4206   0.336   2.880   3.550
  941SOL     OW 4207   1.451   2.535   1.879
  941SOL    HW1 4208   1.379   2.511   1.821
  941SOL    HW2 4209   1.517   2.572   1.821
  941SOL     MW 4210   1.450   2.537   1.864
  942SOL     OW 4211   0.585   3.267   2.559
  942SOL    HW1 4212   0.650   3.200   2.580
  942SOL    HW2 4213   0.637   3.344   2.536
  942SOL     MW 4214   0.600   3.269   2.558
  943SOL     OW 4215   0.846   2.432   2.689
  943SOL    HW1 4216   0.786   2.450   2.761
  943SOL    HW2 4217   0.880   2.344   2.708
  943SOL     MW 4218   0.842   2.422   2.702
  944SOL     OW 4219   1.787   1.931   3.358
  944SOL    HW1 4220   1.708   1.977   3.386
  944SOL    HW2 4221   1.822   1.985   3.287
  944SOL     MW 4222   1.781   1.944   3.352
  945SOL     OW 4223   1.071   3.015   2.708
  945SOL    HW1 4224   1.163   2.996   2.726
  945SOL    HW2 4225   1.044   2.945   2.648
  945SOL     MW 4226   1.079   3.003   2.702
  946SOL     OW 4227   0.864   2.835   2.063
  946SOL    HW1 4228   0.850   2.747   2.028
  946SOL    HW2 4229   0.815   2.892   2.004
  946SOL     MW 4230   0.856   2.830   2.051
  947SOL     OW 4231   1.345   3.253   2.804
  947SOL    HW1 4232   1.318   3.337   2.769
  947SOL    HW2 4233   1.305   3.248   2.891
  947SOL     MW 4234   1.338   3.262   2.810
  948SOL     OW 4235   1.264   3.201   3.072
  948SOL    HW1 4236   1.275   3.168   3.161
  948SOL    HW2 4237   1.183   3.160   3.041
  948SOL     MW 4238   1.254   3.193   3.078
  949SOL     OW 4239   0.277   2.559   2.842
  949SOL    HW1 4240   0.227   2.558   2.923
  949SOL    HW2 4241   0.297   2.651   2.826
  949SOL     MW 4242   0.273   2.571   2.850
  950SOL     OW 4243   1.344   3.323   3.604
  950SOL    HW1 4244   1.344   3.417   3.620
  950SOL    HW2 4245   1.389   3.313   3.520
  950SOL     MW 4246   1.350   3.333   3.595
  951SOL     OW 4247   1.583   2.041   2.165
  951SOL    HW1 4248   1.576   2.045   2.260
  951SOL    HW2 4249   1.595   2.132   2.138
  951SOL     MW 4250   1.584   2.054   2.173
  952SOL     OW 4251   0.872   2.604   2.279
  952SOL    HW1 4252   0.852   2.590   2.186
  952SOL    HW2 4253   0.965   2.583   2.286
  952SOL     MW 4254   0.882   2.599   2.268
  953SOL     OW 4255   0.199   2.227   3.583
  953SOL    HW1 4256   0.156   2.286   3.520
  953SOL    HW2 4257   0.267   2.282   3.623
  953SOL     MW 4258   0.203   2.242   3.580
  954SOL     OW 4259   1.311   2.847   3.128
  954SOL    HW1 4260   1.374   2.844   3.201
  954SOL    HW2 4261   1.227   2.865   3.170
  954SOL     MW 4262   1.307   2.849   3.143
  955SOL     OW 4263   0.855   3.562   2.317
  955SOL    HW1 4264   0.913   3.633   2.344
  955SOL    HW2 4265   0.878   3.490   2.375
  955SOL     MW 4266   0.866   3.562   2.328
  956SOL     OW 4267   1.650   2.024   2.907
  956SOL    HW1 4268   1.695   1.942   2.926
  956SOL    HW2 4269   1.670   2.080   2.983
  956SOL     MW 4270   1.660   2.020   2.919
  957SOL     OW 4271   0.098   1.867   3.006
  957SOL    HW1 4272   0.089   1.868   2.911
  957SOL    HW2 4273   0.192   1.879   3.021
  957SOL     MW 4274   0.110   1.870   2.997
  958SOL     OW 4275   1.735   3.060   2.626
  958SOL    HW1 4276   1.714   3.006   2.549
  958SOL    HW2 4277   1.831   3.058   2.630
  958SOL     MW 4278   1.744   3.053   2.615
  959SOL     OW 4279   0.427   3.205   3.369
  959SOL    HW1 4280   0.348   3.155   3.392
  959SOL    HW2 4281   0.497   3.164   3.419
  959SOL     MW 4282   0.425   3.193   3.379
  960SOL     OW 4283   0.311   1.994   2.052
  960SOL    HW1 4284   0.240   2.049   2.020
  960SOL    HW2 4285   0.353   1.960   1.973
  960SOL     MW 4286   0.307   1.996   2.038
  961SOL     OW 4287   1.435   2.491   2.888
  961SOL    HW1 4288   1.358   2.537   2.854
  961SOL    HW2 4289   1.492   2.560   2.922
  961SOL     MW 4290   1.432   2.506   2.888
  962SOL     OW 4291   0.067   2.093   1.901
  962SOL    HW1 4292   0.034   2.172   1.945
  962SOL    HW2 4293   0.122   2.126   1.830
  962SOL     MW 4294   0.070   2.107   1.898
  963SOL     OW 4295   0.101   3.350   2.090
  963SOL    HW1 4296   0.118   3.434   2.132
  963SOL    HW2 4297   0.136   3.359   2.002
  963SOL     MW 4298   0.106   3.363   2.084
  964SOL     OW 4299   1.373   3.439   2.307
  964SOL    HW1 4300   1.436   3.429   2.236
  964SOL    HW2 4301   1.290   3.459   2.262
  964SOL     MW 4302   1.370   3.440   2.292
  965SOL     OW 4303   1.736   2.707   3.993
  965SOL    HW1 4304   1.777   2.649   4.058
  965SOL    HW2 4305   1.643   2.699   4.010
  965SOL     MW 4306   1.730   2.699   4.003
  966SOL     OW 4307   0.530   2.890   4.222
  966SOL    HW1 4308   0.620   2.865   4.206
  966SOL    HW2 4309   0.526   2.983   4.199
  966SOL     MW 4310   0.542   2.899   4.217
  967SOL     OW 4311   1.646   3.593   4.364
  967SOL    HW1 4312   1.658   3.539   4.442
  967SOL    HW2 4313   1.683   3.541   4.293
  967SOL     MW 4314   1.652   3.578   4.365
  968SOL     OW 4315   0.814   2.346   4.235
  968SOL    HW1 4316   0.789   2.434   4.263
  968SOL    HW2 4317   0.811   2.349   4.139
  968SOL     MW 4318   0.810   2.358   4.227
  969SOL     OW 4319   0.256   2.374   4.163
  969SOL    HW1 4320   0.288   2.462   4.145
  969SOL    HW2 4321   0.244   2.372   4.258
  969SOL     MW 4322   0.259   2.386   4.175
  970SOL     OW 4323   0.655   2.129   4.250
  970SOL    HW1 4324   0.713   2.205   4.252
  970SOL    HW2 4325   0.590   2.150   4.183
  970SOL     MW 4326   0.654   2.141   4.241
  971SOL     OW 4327   0.742   3.056   4.425
  971SOL    HW1 4328   0.822   3.059   4.477
  971SOL    HW2 4329   0.770   3.023   4.339
  971SOL     MW 4330   0.756   3.052   4.420
  972SOL     OW 4331   1.369   3.038   3.941
  972SOL    HW1 4332   1.287   3.074   3.907
  972SOL    HW2 4333   1.437   3.081   3.890
  972SOL     MW 4334   1.367   3.048   3.929
  973SOL     OW 4335   0.921   3.179   4.134
  973SOL    HW1 4336   0.898   3.241   4.202
  973SOL    HW2 4337   0.878   3.097   4.160
  973SOL     MW 4338   0.913   3.175   4.145
  974SOL     OW 4339   0.418   2.152   4.102
  974SOL    HW1 4340   0.392   2.114   4.018
  974SOL    HW2 4341   0.355   2.222   4.118
  974SOL     MW 4342   0.407   2.155   4.093
  975SOL     OW 4343   0.253   3.113   4.139
  975SOL    HW1 4344   0.201   3.181   4.095
  975SOL    HW2 4345   0.250   3.039   4.079
  975SOL     MW 4346   0.245   3.112   4.126
  976SOL     OW 4347   0.915   3.576   3.917
  976SOL    HW1 4348   0.870   3.592   4.000
  976SOL    HW2 4349   0.846   3.541   3.859
  976SOL     MW 4350   0.901   3.573   3.919
  977SOL     OW 4351   1.850   2.349   3.892
  977SOL    HW1 4352   1.759   2.351   3.920
  977SOL    HW2 4353   1.895   2.411   3.950
  977SOL     MW 4354   1.843   2.357   3.902
  978SOL     OW 4355   1.595   2.952   4.242
  978SOL    HW1 4356   1.505   2.952   4.277
  978SOL    HW2 4357   1.588   2.998   4.159
  978SOL     MW 4358   1.582   2.958   4.236
  979SOL     OW 4359   1.122   2.533   4.203
  979SOL    HW1 4360   1.148   2.557   4.114
  979SOL    HW2 4361   1.104   2.440   4.199
  979SOL     MW 4362   1.124   2.525   4.190
  980SOL     OW 4363   1.787   3.153   4.054
  980SOL    HW1 4364   1.743   3.194   4.129
  980SOL    HW2 4365   1.844   3.221   4.019
  980SOL     MW 4366   1.789   3.167   4.059
  981SOL     OW 4367   0.443   3.569   4.372
  981SOL    HW1 4368   0.475   3.657   4.350
  981SOL    HW2 4369   0.396   3.541   4.294
  981SOL     MW 4370   0.442   3.577   4.359
  982SOL     OW 4371   1.827   1.931   4.421
  982SOL    HW1 4372   1.881   1.882   4.483
  982SOL    HW2 4373   1.770   1.865   4.382
  982SOL     MW 4374   1.827   1.915   4.423
  983SOL     OW 4375   0.159   3.629   3.949
  983SOL    HW1 4376   0.188   3.719   3.941
  983SOL    HW2 4377   0.109   3.612   3.870
  983SOL     MW 4378   0.157   3.637   3.938
  984SOL     OW 4379   1.563   3.437   3.920
  984SOL    HW1 4380   1.611   3.506   3.966
  984SOL    HW2 4381   1.484   3.481   3.889
  984SOL     MW 4382   1.558   3.451   3.923
  985SOL     OW 4383   0.961   2.562   3.864
  985SOL    HW1 4384   0.963   2.509   3.785
  985SOL    HW2 4385   1.049   2.599   3.870
  985SOL     MW 4386   0.973   2.561   3.853
  986SOL     OW 4387   1.575   2.488   4.200
  986SOL    HW1 4388   1.614   2.488   4.287
  986SOL    HW2 4389   1.516   2.564   4.200
  986SOL     MW 4390   1.572   2.499   4.211
  987SOL     OW 4391   1.762   2.374   4.366
  987SOL    HW1 4392   1.851   2.343   4.383
  987SOL    HW2 4393   1.705   2.314   4.414
  987SOL     MW 4394   1.765   2.362   4.375
  988SOL     OW 4395   0.188   2.088   4.395
  988SOL    HW1 4396   0.179   2.028   4.321
  988SOL    HW2 4397   0.121   2.059   4.458
  988SOL     MW 4398   0.178   2.075   4.393
  989SOL     OW 4399   1.131   3.181   3.956
  989SOL    HW1 4400   1.081   3.183   4.038
  989SOL    HW2 4401   1.065   3.199   3.888
  989SOL     MW 4402   1.117   3.183   3.958
  990SOL     OW 4403   0.594   3.599   4.064
  990SOL    HW1 4404   0.515   3.557   4.097
  990SOL    HW2 4405   0.660   3.582   4.131
  990SOL     MW 4406   0.593   3.591   4.077
  991SOL     OW 4407   0.730   3.014   3.771
  991SOL    HW1 4408   0.652   2.960   3.758
  991SOL    HW2 4409   0.701   3.087   3.824
  991SOL     MW 4410   0.716   3.016   3.776
  992SOL     OW 4411   1.311   3.530   3.839
  992SOL    HW1 4412   1.237   3.493   3.889
  992SOL    HW2 4413   1.319   3.620   3.872
  992SOL     MW 4414   1.302   3.537   3.851
  993SOL     OW 4415   1.535   3.204   3.781
  993SOL    HW1 4416   1.482   3.253   3.717
  993SOL    HW2 4417   1.566   3.270   3.842
  993SOL     MW 4418   1.533   3.218   3.779
  994SOL     OW 4419   0.760   2.093   3.836
  994SOL    HW1 4420   0.708   2.013   3.824
  994SOL    HW2 4421   0.847   2.070   3.804
  994SOL     MW 4422   0.763   2.079   3.830
  995SOL     OW 4423   0.121   2.733   4.293
  995SOL    HW1 4424   0.212   2.748   4.320
  995SOL    HW2 4425   0.124   2.654   4.239
  995SOL     MW 4426   0.133   2.725   4.291
  996SOL     OW 4427   0.129   3.345   4.332
  996SOL    HW1 4428   0.101   3.384   4.414
  996SOL    HW2 4429   0.149   3.254   4.354
  996SOL     MW 4430   0.127   3.337   4.345
  997SOL     OW 4431   0.962   3.388   4.367
  997SOL    HW1 4432   1.045   3.342   4.351
  997SOL    HW2 4433   0.952   3.387   4.463
  997SOL     MW 4434   0.972   3.381   4.377
  998SOL     OW 4435   0.695   3.445   3.772
  998SOL    HW1 4436   0.635   3.514   3.742
  998SOL    HW2 4437   0.640   3.387   3.825
  998SOL     MW 4438   0.679   3.447   3.774
  999SOL     OW 4439   1.133   2.090   3.995
  999SOL    HW1 4440   1.066   2.066   3.932
  999SOL    HW2 4441   1.198   2.139   3.944
  999SOL     MW 4442   1.133   2.092   3.980
 1000SOL     OW 4443   1.070   2.594   4.459
 1000SOL    HW1 4444   1.007   2.526   4.483
 1000SOL    HW2 4445   1.090   2.575   4.367
 1000SOL     MW 4446   1.064   2.581   4.451
 1001SOL     OW 4447   0.326   3.489   4.161
 1001SOL    HW1 4448   0.287   3.536   4.087
 1001SOL    HW2 4449   0.260   3.424   4.186
 1001SOL     MW 4450   0.313   3.487   4.155
 1002SOL     OW 4451   0.818   2.898   4.185
 1002SOL    HW1 4452   0.820   2.872   4.092
 1002SOL    HW2 4453   0.876   2.835   4.228
 1002SOL     MW 4454   0.826   2.887   4.179
 1003SOL     OW 4455   1.375   3.666   4.387
 1003SOL    HW1 4456   1.318   3.619   4.326
 1003SOL    HW2 4457   1.461   3.627   4.374
 1003SOL     MW 4458   1.378   3.657   4.377
 1004SOL     OW 4459   0.133   3.076   4.452
 1004SOL    HW1 4460   0.197   3.108   4.515
 1004SOL    HW2 4461   0.182   3.012   4.400
 1004SOL     MW 4462   0.148   3.072   4.453
 1005SOL     OW 4463   1.308   2.246   3.853
 1005SOL    HW1 4464   1.281   2.312   3.789
 1005SOL    HW2 4465   1.378   2.289   3.903
 1005SOL     MW 4466   1.313   2.259   3.850
 1006SOL     OW 4467   0.976   1.951   3.790
 1006SOL    HW1 4468   1.032   1.943   3.712
 1006SOL    HW2 4469   0.953   1.861   3.812
 1006SOL     MW 4470   0.981   1.938   3.783
 1007SOL     OW 4471   1.481   2.802   3.995
 1007SOL    HW1 4472   1.448   2.891   3.985
 1007SOL    HW2 4473   1.446   2.773   4.080
 1007SOL     MW 4474   1.471   2.811   4.006
 1008SOL     OW 4475   0.475   2.840   3.787
 1008SOL    HW1 4476   0.398   2.853   3.843
 1008SOL    HW2 4477   0.439   2.804   3.706
 1008SOL     MW 4478   0.461   2.836   3.784
 1009SOL     OW 4479   1.128   2.813   4.030
 1009SOL    HW1 4480   1.038   2.834   4.005
 1009SOL    HW2 4481   1.155   2.886   4.086
 1009SOL     MW 4482   1.120   2.825   4.033
 1010SOL     OW 4483   0.757   1.929   4.437
 1010SOL    HW1 4484   0.686   1.990   4.419
 1010SOL    HW2 4485   0.808   1.926   4.356
 1010SOL     MW 4486   0.753   1.935   4.424
 1011SOL     OW 4487   0.515   3.169   4.186
 1011SOL    HW1 4488   0.508   3.201   4.276
 1011SOL    HW2 4489   0.425   3.153   4.158
 1011SOL     MW 4490   0.503   3.171   4.193
 1012SOL     OW 4491   0.518   2.453   3.900
 1012SOL    HW1 4492   0.484   2.509   3.970
 1012SOL    HW2 4493   0.589   2.403   3.940
 1012SOL     MW 4494   0.524   2.454   3.914
 1013SOL     OW 4495   1.574   2.339   3.964
 1013SOL    HW1 4496   1.566   2.410   3.901
 1013SOL    HW2 4497   1.592   2.383   4.047
 1013SOL     MW 4498   1.575   2.353   3.966
 1014SOL     OW 4499   0.434   1.994   4.393
 1014SOL    HW1 4500   0.484   2.037   4.324
 1014SOL    HW2 4501   0.349   2.038   4.393
 1014SOL     MW 4502   0.431   2.007   4.384
 1015SOL     OW 4503   1.243   2.601   3.939
 1015SOL    HW1 4504   1.290   2.619   3.858
 1015SOL    HW2 4505   1.209   2.685   3.967
 1015SOL     MW 4506   1.245   2.615   3.932
 1016SOL     OW 4507   0.356   2.779   4.433
 1016SOL    HW1 4508   0.414   2.835   4.381
 1016SOL    HW2 4509   0.400   2.694   4.435
 1016SOL     MW 4510   0.369   2.776   4.426
 1017SOL     OW 4511   1.496   2.131   4.270
 1017SOL    HW1 4512   1.418   2.081   4.295
 1017SOL    HW2 4513   1.467   2.222   4.270
 1017SOL     MW 4514   1.482   2.135   4.273
 1018SOL     OW 4515   1.082   2.093   4.429
 1018SOL    HW1 4516   1.102   2.168   4.373
 1018SOL    HW2 4517   1.062   2.132   4.514
 1018SOL     MW 4518   1.083   2.109   4.433
 1019SOL     OW 4519   0.978   3.343   3.761
 1019SOL    HW1 4520   1.005   3.421   3.713
 1019SOL    HW2 4521   0.885   3.358   3.780
 1019SOL     MW 4522   0.969   3.356   3.757
 1020SOL     OW 4523   0.018   2.505   4.152
 1020SOL    HW1 4524  -0.042   2.477   4.222
 1020SOL    HW2 4525   0.092   2.445   4.158
 1020SOL     MW 4526   0.020   2.494   4.161
 1021SOL     OW 4527   1.186   3.236   4.312
 1021SOL    HW1 4528   1.209   3.187   4.390
 1021SOL    HW2 4529   1.267   3.278   4.284
 1021SOL     MW 4530   1.199   3.236   4.319
 1022SOL     OW 4531   1.326   1.903   3.948
 1022SOL    HW1 4532   1.400   1.947   3.991
 1022SOL    HW2 4533   1.250   1.957   3.970
 1022SOL     MW 4534   1.326   1.915   3.956
 1023SOL     OW 4535   1.386   2.678   4.226
 1023SOL    HW1 4536   1.301   2.648   4.196
 1023SOL    HW2 4537   1.378   2.685   4.321
 1023SOL     MW 4538   1.374   2.676   4.235
 1024SOL     OW 4539   0.759   2.344   3.952
 1024SOL    HW1 4540   0.832   2.393   3.915
 1024SOL    HW2 4541   0.775   2.253   3.926
 1024SOL     MW 4542   0.771   2.339   3.945
 1025SOL     OW 4543   0.234   2.853   4.050
 1025SOL    HW1 4544   0.171   2.869   3.979
 1025SOL    HW2 4545   0.181   2.816   4.121
 1025SOL     MW 4546   0.219   2.850   4.050
 1026SOL     OW 4547   0.590   3.207   3.909
 1026SOL    HW1 4548   0.605   3.183   4.001
 1026SOL    HW2 4549   0.498   3.185   3.893
 1026SOL     MW 4550   0.580   3.200   3.919
 1027SOL     OW 4551   1.129   3.438   4.061
 1027SOL    HW1 4552   1.137   3.356   4.012
 1027SOL    HW2 4553   1.048   3.477   4.028
 1027SOL     MW 4554   1.119   3.433   4.051
 1028SOL     OW 4555   1.101   2.260   4.231
 1028SOL    HW1 4556   1.123   2.197   4.163
 1028SOL    HW2 4557   1.006   2.252   4.242
 1028SOL     MW 4558   1.091   2.251   4.223
 1029SOL     OW 4559   0.186   1.950   4.163
 1029SOL    HW1 4560   0.257   1.971   4.102
 1029SOL    HW2 4561   0.140   1.878   4.121
 1029SOL     MW 4562   0.190   1.944   4.149
 1030SOL     OW 4563   1.755   3.324   4.263
 1030SOL    HW1 4564   1.725   3.257   4.324
 1030SOL    HW2 4565   1.849   3.330   4.277
 1030SOL     MW 4566   1.763   3.316   4.273
 1031SOL     OW 4567   1.311   3.001   4.193
 1031SOL    HW1 4568   1.283   3.087   4.226
 1031SOL    HW2 4569   1.339   3.017   4.103
 1031SOL     MW 4570   1.311   3.015   4.185
 1032SOL     OW 4571   0.973   1.921   4.246
 1032SOL    HW1 4572   1.010   1.980   4.311
 1032SOL    HW2 4573   0.950   1.977   4.172
 1032SOL     MW 4574   0.974   1.936   4.245
 1033SOL     OW 4575   1.738   2.734   4.369
 1033SOL    HW1 4576   1.832   2.723   4.357
 1033SOL    HW2 4577   1.714   2.806   4.310
 1033SOL     MW 4578   1.748   2.742   4.360
 1034SOL     OW 4579   0.394   2.612   4.142
 1034SOL    HW1 4580   0.394   2.707   4.127
 1034SOL    HW2 4581   0.471   2.596   4.196
 1034SOL     MW 4582   0.404   2.623   4.147
 1035SOL     OW 4583   0.153   2.343   4.431
 1035SOL    HW1 4584   0.215   2.350   4.504
 1035SOL    HW2 4585   0.153   2.250   4.408
 1035SOL     MW 4586   0.161   2.332   4.438
 1036SOL     OW 4587   1.700   3.683   3.963
 1036SOL    HW1 4588   1.767   3.716   3.903
 1036SOL    HW2 4589   1.657   3.762   3.997
 1036SOL     MW 4590   1.702   3.698   3.959
 1037SOL     OW 4591   0.022   2.915   3.889
 1037SOL    HW1 4592  -0.009   2.980   3.952
 1037SOL    HW2 4593  -0.029   2.837   3.908
 1037SOL     MW 4594   0.012   2.912   3.899
 1038SOL     OW 4595   0.606   3.715   3.831
 1038SOL    HW1 4596   0.511   3.715   3.823
 1038SOL    HW2 4597   0.622   3.661   3.909
 1038SOL     MW 4598   0.596   3.709   3.840
 1039SOL     OW 4599   1.451   2.535   3.747
 1039SOL    HW1 4600   1.379   2.511   3.689
 1039SOL    HW2 4601   1.517   2.572   3.689
 1039SOL     MW 4602   1.450   2.537   3.732
 1040SOL     OW 4603   0.585   3.267   4.427
 1040SOL    HW1 4604   0.650   3.200   4.448
 1040SOL    HW2 4605   0.637   3.344   4.404
 1040SOL     MW 4606   0.600   3.269   4.426
 1041SOL     OW 4607   0.864   2.835   3.931
 1041SOL    HW1 4608   0.850   2.747   3.896
 1041SOL    HW2 4609   0.815   2.892   3.872
 1041SOL     MW 4610   0.856   2.830   3.919
 1042SOL     OW 4611   1.583   2.041   4.033
 1042SOL    HW1 4612   1.576   2.045   4.128
 1042SOL    HW2 4613   1.595   2.132   4.006
 1042SOL     MW 4614   1.584   2.054   4.041
 1043SOL     OW 4615   0.872   2.604   4.147
 1043SOL    HW1 4616   0.852   2.590   4.054
 1043SOL    HW2 4617   0.965   2.583   4.154
 1043SOL     MW 4618   0.882   2.599   4.136
 1044SOL     OW 4619   0.855   3.562   4.185
 1044SOL    HW1 4620   0.913   3.633   4.212
 1044SOL    HW2 4621   0.878   3.490   4.243
 1044SOL     MW 4622   0.866   3.562   4.196
 1045SOL     OW 4623   0.311   1.994   3.920
 1045SOL    HW1 4624   0.240   2.049   3.888
 1045SOL    HW2 4625   0.353   1.960   3.841
 1045SOL     MW 4626   0.307   1.996   3.906
 1046SOL     OW 4627   0.067   2.093   3.769
 1046SOL    HW1 4628   0.034   2.172   3.813
 1046SOL    HW2 4629   0.122   2.126   3.698
 1046SOL     MW 4630   0.070   2.107   3.766
 1047SOL     OW 4631   0.101   3.350   3.958
 1047SOL    HW1 4632   0.118   3.434   4.000
 1047SOL    HW2 4633   0.136   3.359   3.870
 1047SOL     MW 4634   0.106   3.363   3.952
 1048SOL     OW 4635   1.373   3.439   4.175
 1048SOL    HW1 4636   1.436   3.429   4.104
 1048SOL    HW2 4637   1.290   3.459   4.130
 1048SOL     MW 4638   1.370   3.440   4.160
 1049SOL     OW 4639   1.736   4.575   0.257
 1049SOL    HW1 4640   1.777   4.517   0.322
 1049SOL    HW2 4641   1.643   4.567   0.274
 1049SOL     MW 4642   1.730   4.567   0.267
 1050SOL     OW 4643   1.602   4.507   1.252
 1050SOL    HW1 4644   1.557   4.574   1.303
 1050SOL    HW2 4645   1.690   4.543   1.238
 1050SOL     MW 4646   1.608   4.520   1.256
 1051SOL     OW 4647   0.530   4.758   0.486
 1051SOL    HW1 4648   0.620   4.733   0.470
 1051SOL    HW2 4649   0.526   4.851   0.463
 1051SOL     MW 4650   0.542   4.767   0.481
 1052SOL     OW 4651   1.646   5.461   0.628
 1052SOL    HW1 4652   1.658   5.407   0.706
 1052SOL    HW2 4653   1.683   5.409   0.557
 1052SOL     MW 4654   1.652   5.446   0.629
 1053SOL     OW 4655   1.025   5.346   1.629
 1053SOL    HW1 4656   1.066   5.382   1.550
 1053SOL    HW2 4657   1.060   5.257   1.636
 1053SOL     MW 4658   1.036   5.339   1.620
 1054SOL     OW 4659   1.582   4.901   1.233
 1054SOL    HW1 4660   1.503   4.866   1.191
 1054SOL    HW2 4661   1.609   4.973   1.177
 1054SOL     MW 4662   1.575   4.906   1.220
 1055SOL     OW 4663   0.814   4.214   0.499
 1055SOL    HW1 4664   0.789   4.302   0.527
 1055SOL    HW2 4665   0.811   4.217   0.403
 1055SOL     MW 4666   0.810   4.226   0.491
 1056SOL     OW 4667   0.256   4.242   0.427
 1056SOL    HW1 4668   0.288   4.330   0.409
 1056SOL    HW2 4669   0.244   4.240   0.522
 1056SOL     MW 4670   0.259   4.254   0.439
 1057SOL     OW 4671   0.334   4.655   1.328
 1057SOL    HW1 4672   0.397   4.602   1.279
 1057SOL    HW2 4673   0.315   4.729   1.271
 1057SOL     MW 4674   0.340   4.657   1.315
 1058SOL     OW 4675   0.655   3.997   0.514
 1058SOL    HW1 4676   0.713   4.073   0.516
 1058SOL    HW2 4677   0.590   4.018   0.447
 1058SOL     MW 4678   0.654   4.009   0.505
 1059SOL     OW 4679   0.742   4.924   0.689
 1059SOL    HW1 4680   0.822   4.927   0.741
 1059SOL    HW2 4681   0.770   4.891   0.603
 1059SOL     MW 4682   0.756   4.920   0.684
 1060SOL     OW 4683   0.767   5.265   1.592
 1060SOL    HW1 4684   0.851   5.291   1.631
 1060SOL    HW2 4685   0.791   5.209   1.518
 1060SOL     MW 4686   0.781   5.261   1.587
 1061SOL     OW 4687   0.519   4.428   0.680
 1061SOL    HW1 4688   0.504   4.348   0.731
 1061SOL    HW2 4689   0.601   4.463   0.714
 1061SOL     MW 4690   0.527   4.420   0.692
 1062SOL     OW 4691   0.856   5.114   1.365
 1062SOL    HW1 4692   0.820   5.180   1.305
 1062SOL    HW2 4693   0.784   5.052   1.378
 1062SOL     MW 4694   0.842   5.114   1.359
 1063SOL     OW 4695   0.661   4.254   1.057
 1063SOL    HW1 4696   0.567   4.250   1.075
 1063SOL    HW2 4697   0.691   4.163   1.066
 1063SOL     MW 4698   0.652   4.242   1.060
 1064SOL     OW 4699   0.407   4.668   0.961
 1064SOL    HW1 4700   0.362   4.675   0.877
 1064SOL    HW2 4701   0.387   4.751   1.005
 1064SOL     MW 4702   0.399   4.680   0.955
 1065SOL     OW 4703   0.104   5.514   0.836
 1065SOL    HW1 4704   0.193   5.506   0.871
 1065SOL    HW2 4705   0.068   5.426   0.841
 1065SOL     MW 4706   0.111   5.501   0.841
 1066SOL     OW 4707   1.369   4.906   0.205
 1066SOL    HW1 4708   1.287   4.942   0.171
 1066SOL    HW2 4709   1.437   4.949   0.154
 1066SOL     MW 4710   1.367   4.916   0.193
 1067SOL     OW 4711   0.368   5.041   0.871
 1067SOL    HW1 4712   0.344   5.094   0.947
 1067SOL    HW2 4713   0.424   5.099   0.819
 1067SOL     MW 4714   0.372   5.056   0.874
 1068SOL     OW 4715   0.930   4.685   0.681
 1068SOL    HW1 4716   0.844   4.672   0.721
 1068SOL    HW2 4717   0.983   4.612   0.713
 1068SOL     MW 4718   0.926   4.674   0.690
 1069SOL     OW 4719   0.338   5.337   1.466
 1069SOL    HW1 4720   0.246   5.313   1.451
 1069SOL    HW2 4721   0.382   5.254   1.483
 1069SOL     MW 4722   0.332   5.322   1.465
 1070SOL     OW 4723   0.921   5.047   0.398
 1070SOL    HW1 4724   0.898   5.109   0.466
 1070SOL    HW2 4725   0.878   4.965   0.424
 1070SOL     MW 4726   0.913   5.043   0.409
 1071SOL     OW 4727   1.794   4.048   0.854
 1071SOL    HW1 4728   1.731   4.028   0.923
 1071SOL    HW2 4729   1.784   3.977   0.791
 1071SOL     MW 4730   1.784   4.035   0.855
 1072SOL     OW 4731   0.418   4.020   0.366
 1072SOL    HW1 4732   0.392   3.982   0.282
 1072SOL    HW2 4733   0.355   4.090   0.382
 1072SOL     MW 4734   0.407   4.023   0.357
 1073SOL     OW 4735   0.253   4.981   0.403
 1073SOL    HW1 4736   0.201   5.049   0.359
 1073SOL    HW2 4737   0.250   4.907   0.343
 1073SOL     MW 4738   0.245   4.980   0.390
 1074SOL     OW 4739   0.915   5.444   0.181
 1074SOL    HW1 4740   0.870   5.460   0.264
 1074SOL    HW2 4741   0.846   5.409   0.123
 1074SOL     MW 4742   0.901   5.441   0.183
 1075SOL     OW 4743   1.850   4.217   0.156
 1075SOL    HW1 4744   1.759   4.219   0.184
 1075SOL    HW2 4745   1.895   4.279   0.214
 1075SOL     MW 4746   1.843   4.225   0.166
 1076SOL     OW 4747   1.595   4.820   0.506
 1076SOL    HW1 4748   1.505   4.820   0.541
 1076SOL    HW2 4749   1.588   4.866   0.423
 1076SOL     MW 4750   1.582   4.826   0.500
 1077SOL     OW 4751   1.395   4.455   1.578
 1077SOL    HW1 4752   1.464   4.393   1.555
 1077SOL    HW2 4753   1.320   4.429   1.525
 1077SOL     MW 4754   1.395   4.442   1.569
 1078SOL     OW 4755   0.136   5.335   1.130
 1078SOL    HW1 4756   0.119   5.281   1.207
 1078SOL    HW2 4757   0.124   5.425   1.160
 1078SOL     MW 4758   0.133   5.339   1.144
 1079SOL     OW 4759   1.131   4.842   1.570
 1079SOL    HW1 4760   1.116   4.935   1.555
 1079SOL    HW2 4761   1.226   4.832   1.570
 1079SOL     MW 4762   1.140   4.852   1.567
 1080SOL     OW 4763   0.927   4.266   1.771
 1080SOL    HW1 4764   1.017   4.267   1.738
 1080SOL    HW2 4765   0.886   4.191   1.729
 1080SOL     MW 4766   0.933   4.256   1.762
 1081SOL     OW 4767   1.502   4.798   0.898
 1081SOL    HW1 4768   1.505   4.732   0.829
 1081SOL    HW2 4769   1.587   4.841   0.894
 1081SOL     MW 4770   1.514   4.794   0.889
 1082SOL     OW 4771   1.122   4.401   0.467
 1082SOL    HW1 4772   1.148   4.425   0.378
 1082SOL    HW2 4773   1.104   4.308   0.463
 1082SOL     MW 4774   1.124   4.393   0.454
 1083SOL     OW 4775   1.787   5.021   0.318
 1083SOL    HW1 4776   1.743   5.062   0.393
 1083SOL    HW2 4777   1.844   5.089   0.283
 1083SOL     MW 4778   1.789   5.035   0.323
 1084SOL     OW 4779   0.707   4.070   1.721
 1084SOL    HW1 4780   0.717   3.996   1.661
 1084SOL    HW2 4781   0.743   4.039   1.804
 1084SOL     MW 4782   0.713   4.056   1.723
 1085SOL     OW 4783   0.443   5.437   0.636
 1085SOL    HW1 4784   0.475   5.525   0.614
 1085SOL    HW2 4785   0.396   5.409   0.558
 1085SOL     MW 4786   0.442   5.445   0.623
 1086SOL     OW 4787   1.827   3.799   0.685
 1086SOL    HW1 4788   1.881   3.750   0.747
 1086SOL    HW2 4789   1.770   3.733   0.646
 1086SOL     MW 4790   1.827   3.783   0.687
 1087SOL     OW 4791   0.159   5.497   0.213
 1087SOL    HW1 4792   0.188   5.587   0.205
 1087SOL    HW2 4793   0.109   5.480   0.134
 1087SOL     MW 4794   0.157   5.505   0.202
 1088SOL     OW 4795   0.946   3.752   1.098
 1088SOL    HW1 4796   0.905   3.830   1.060
 1088SOL    HW2 4797   1.040   3.770   1.093
 1088SOL     MW 4798   0.952   3.764   1.093
 1089SOL     OW 4799   1.563   5.305   0.184
 1089SOL    HW1 4800   1.611   5.374   0.230
 1089SOL    HW2 4801   1.484   5.349   0.153
 1089SOL     MW 4802   1.558   5.319   0.187
 1090SOL     OW 4803   0.961   4.430   0.128
 1090SOL    HW1 4804   0.963   4.377   0.049
 1090SOL    HW2 4805   1.049   4.467   0.134
 1090SOL     MW 4806   0.973   4.429   0.117
 1091SOL     OW 4807   1.575   4.356   0.464
 1091SOL    HW1 4808   1.614   4.356   0.551
 1091SOL    HW2 4809   1.516   4.432   0.464
 1091SOL     MW 4810   1.572   4.367   0.475
 1092SOL     OW 4811   0.892   4.723   1.593
 1092SOL    HW1 4812   0.869   4.703   1.683
 1092SOL    HW2 4813   0.977   4.767   1.598
 1092SOL     MW 4814   0.899   4.726   1.605
 1093SOL     OW 4815   0.972   3.860   1.353
 1093SOL    HW1 4816   0.978   3.822   1.266
 1093SOL    HW2 4817   0.961   3.954   1.338
 1093SOL     MW 4818   0.973   3.868   1.341
 1094SOL     OW 4819   1.061   4.349   1.187
 1094SOL    HW1 4820   1.136   4.378   1.134
 1094SOL    HW2 4821   0.993   4.414   1.171
 1094SOL     MW 4822   1.062   4.361   1.177
 1095SOL     OW 4823   1.611   4.317   1.464
 1095SOL    HW1 4824   1.592   4.226   1.443
 1095SOL    HW2 4825   1.589   4.366   1.385
 1095SOL     MW 4826   1.606   4.310   1.451
 1096SOL     OW 4827   1.753   5.411   1.368
 1096SOL    HW1 4828   1.681   5.373   1.419
 1096SOL    HW2 4829   1.770   5.496   1.409
 1096SOL     MW 4830   1.747   5.416   1.380
 1097SOL     OW 4831   1.058   4.055   1.570
 1097SOL    HW1 4832   1.024   4.094   1.489
 1097SOL    HW2 4833   1.036   3.963   1.563
 1097SOL     MW 4834   1.051   4.048   1.560
 1098SOL     OW 4835   1.467   4.869   1.646
 1098SOL    HW1 4836   1.549   4.910   1.676
 1098SOL    HW2 4837   1.430   4.831   1.726
 1098SOL     MW 4838   1.473   4.870   1.661
 1099SOL     OW 4839   1.762   4.242   0.630
 1099SOL    HW1 4840   1.851   4.211   0.647
 1099SOL    HW2 4841   1.705   4.182   0.678
 1099SOL     MW 4842   1.765   4.230   0.639
 1100SOL     OW 4843   0.188   3.956   0.659
 1100SOL    HW1 4844   0.179   3.896   0.585
 1100SOL    HW2 4845   0.121   3.927   0.722
 1100SOL     MW 4846   0.178   3.943   0.657
 1101SOL     OW 4847   1.131   5.049   0.220
 1101SOL    HW1 4848   1.081   5.051   0.302
 1101SOL    HW2 4849   1.065   5.067   0.152
 1101SOL     MW 4850   1.117   5.051   0.222
 1102SOL     OW 4851   0.135   4.129   1.022
 1102SOL    HW1 4852   0.107   4.220   1.031
 1102SOL    HW2 4853   0.072   4.090   0.961
 1102SOL     MW 4854   0.122   4.135   1.016
 1103SOL     OW 4855   0.594   5.467   0.328
 1103SOL    HW1 4856   0.515   5.425   0.361
 1103SOL    HW2 4857   0.660   5.450   0.395
 1103SOL     MW 4858   0.593   5.459   0.341
 1104SOL     OW 4859   1.722   4.987   1.725
 1104SOL    HW1 4860   1.772   4.913   1.757
 1104SOL    HW2 4861   1.668   5.014   1.800
 1104SOL     MW 4862   1.722   4.981   1.738
 1105SOL     OW 4863   0.730   4.882   0.035
 1105SOL    HW1 4864   0.652   4.828   0.022
 1105SOL    HW2 4865   0.701   4.955   0.088
 1105SOL     MW 4866   0.716   4.884   0.040
 1106SOL     OW 4867   1.856   4.622   1.227
 1106SOL    HW1 4868   1.872   4.660   1.140
 1106SOL    HW2 4869   1.890   4.688   1.288
 1106SOL     MW 4870   1.863   4.635   1.223
 1107SOL     OW 4871   1.648   5.331   0.896
 1107SOL    HW1 4872   1.677   5.398   0.957
 1107SOL    HW2 4873   1.629   5.255   0.951
 1107SOL     MW 4874   1.650   5.331   0.911
 1108SOL     OW 4875   1.311   5.398   0.103
 1108SOL    HW1 4876   1.237   5.361   0.153
 1108SOL    HW2 4877   1.319   5.488   0.136
 1108SOL     MW 4878   1.302   5.405   0.115
 1109SOL     OW 4879   0.119   4.404   1.192
 1109SOL    HW1 4880   0.181   4.434   1.258
 1109SOL    HW2 4881   0.053   4.473   1.186
 1109SOL     MW 4882   0.118   4.417   1.199
 1110SOL     OW 4883   1.535   5.072   0.045
 1110SOL    HW1 4884   1.482   5.121  -0.019
 1110SOL    HW2 4885   1.566   5.138   0.106
 1110SOL     MW 4886   1.533   5.086   0.043
 1111SOL     OW 4887   0.760   3.961   0.100
 1111SOL    HW1 4888   0.708   3.881   0.088
 1111SOL    HW2 4889   0.847   3.938   0.068
 1111SOL     MW 4890   0.763   3.947   0.094
 1112SOL     OW 4891   0.214   5.513   1.644
 1112SOL    HW1 4892   0.188   5.581   1.582
 1112SOL    HW2 4893   0.262   5.450   1.592
 1112SOL     MW 4894   0.216   5.513   1.630
 1113SOL     OW 4895   0.266   4.832   1.151
 1113SOL    HW1 4896   0.319   4.907   1.176
 1113SOL    HW2 4897   0.185   4.870   1.117
 1113SOL     MW 4898   0.262   4.847   1.151
 1114SOL     OW 4899   0.806   4.736   1.139
 1114SOL    HW1 4900   0.834   4.645   1.151
 1114SOL    HW2 4901   0.735   4.730   1.075
 1114SOL     MW 4902   0.799   4.724   1.134
 1115SOL     OW 4903   0.121   4.601   0.557
 1115SOL    HW1 4904   0.212   4.616   0.584
 1115SOL    HW2 4905   0.124   4.522   0.503
 1115SOL     MW 4906   0.133   4.593   0.555
 1116SOL     OW 4907   0.357   4.309   1.811
 1116SOL    HW1 4908   0.304   4.389   1.818
 1116SOL    HW2 4909   0.427   4.321   1.876
 1116SOL     MW 4910   0.359   4.322   1.819
 1117SOL     OW 4911   0.743   3.859   1.518
 1117SOL    HW1 4912   0.720   3.767   1.520
 1117SOL    HW2 4913   0.829   3.861   1.475
 1117SOL     MW 4914   0.750   3.849   1.514
 1118SOL     OW 4915   0.427   4.383   1.557
 1118SOL    HW1 4916   0.507   4.433   1.543
 1118SOL    HW2 4917   0.418   4.377   1.652
 1118SOL     MW 4918   0.436   4.389   1.567
 1119SOL     OW 4919   0.748   5.533   0.931
 1119SOL    HW1 4920   0.837   5.548   0.961
 1119SOL    HW2 4921   0.743   5.580   0.847
 1119SOL     MW 4922   0.758   5.541   0.924
 1120SOL     OW 4923   1.404   3.908   1.828
 1120SOL    HW1 4924   1.460   3.835   1.854
 1120SOL    HW2 4925   1.374   3.946   1.910
 1120SOL     MW 4926   1.408   3.903   1.841
 1121SOL     OW 4927   0.129   5.213   0.596
 1121SOL    HW1 4928   0.101   5.252   0.678
 1121SOL    HW2 4929   0.149   5.122   0.618
 1121SOL     MW 4930   0.127   5.205   0.609
 1122SOL     OW 4931   0.962   5.256   0.631
 1122SOL    HW1 4932   1.045   5.210   0.615
 1122SOL    HW2 4933   0.952   5.255   0.727
 1122SOL     MW 4934   0.972   5.249   0.641
 1123SOL     OW 4935   1.794   4.401   0.945
 1123SOL    HW1 4936   1.883   4.431   0.927
 1123SOL    HW2 4937   1.774   4.341   0.874
 1123SOL     MW 4938   1.803   4.398   0.934
 1124SOL     OW 4939   1.645   4.580   1.825
 1124SOL    HW1 4940   1.700   4.504   1.806
 1124SOL    HW2 4941   1.647   4.588   1.920
 1124SOL     MW 4942   1.653   4.571   1.833
 1125SOL     OW 4943   0.695   5.313   0.036
 1125SOL    HW1 4944   0.635   5.382   0.006
 1125SOL    HW2 4945   0.640   5.255   0.089
 1125SOL     MW 4946   0.679   5.315   0.038
 1126SOL     OW 4947   1.133   3.958   0.259
 1126SOL    HW1 4948   1.066   3.934   0.196
 1126SOL    HW2 4949   1.198   4.007   0.208
 1126SOL     MW 4950   1.133   3.960   0.244
 1127SOL     OW 4951   0.940   4.142   1.344
 1127SOL    HW1 4952   0.859   4.183   1.372
 1127SOL    HW2 4953   0.987   4.210   1.296
 1127SOL     MW 4954   0.935   4.157   1.342
 1128SOL     OW 4955   1.200   4.480   0.967
 1128SOL    HW1 4956   1.213   4.574   0.977
 1128SOL    HW2 4957   1.161   4.470   0.881
 1128SOL     MW 4958   1.196   4.491   0.957
 1129SOL     OW 4959   0.652   4.675   0.771
 1129SOL    HW1 4960   0.563   4.666   0.804
 1129SOL    HW2 4961   0.656   4.765   0.739
 1129SOL     MW 4962   0.641   4.686   0.771
 1130SOL     OW 4963   1.451   4.258   0.766
 1130SOL    HW1 4964   1.396   4.179   0.765
 1130SOL    HW2 4965   1.433   4.299   0.850
 1130SOL     MW 4966   1.441   4.253   0.775
 1131SOL     OW 4967   0.422   3.945   1.583
 1131SOL    HW1 4968   0.343   3.963   1.635
 1131SOL    HW2 4969   0.417   4.007   1.510
 1131SOL     MW 4970   0.412   3.955   1.580
 1132SOL     OW 4971   1.070   4.462   0.723
 1132SOL    HW1 4972   1.007   4.394   0.747
 1132SOL    HW2 4973   1.090   4.443   0.631
 1132SOL     MW 4974   1.064   4.449   0.715
 1133SOL     OW 4975   0.326   5.357   0.425
 1133SOL    HW1 4976   0.287   5.404   0.351
 1133SOL    HW2 4977   0.260   5.292   0.450
 1133SOL     MW 4978   0.313   5.355   0.419
 1134SOL     OW 4979   0.818   4.766   0.449
 1134SOL    HW1 4980   0.820   4.740   0.356
 1134SOL    HW2 4981   0.876   4.703   0.492
 1134SOL     MW 4982   0.826   4.755   0.443
 1135SOL     OW 4983   1.371   5.326   1.221
 1135SOL    HW1 4984   1.296   5.372   1.259
 1135SOL    HW2 4985   1.353   5.233   1.238
 1135SOL     MW 4986   1.360   5.320   1.229
 1136SOL     OW 4987   1.375   5.534   0.651
 1136SOL    HW1 4988   1.318   5.487   0.590
 1136SOL    HW2 4989   1.461   5.495   0.638
 1136SOL     MW 4990   1.378   5.525   0.641
 1137SOL     OW 4991   1.328   4.010   0.782
 1137SOL    HW1 4992   1.356   3.942   0.843
 1137SOL    HW2 4993   1.242   3.981   0.752
 1137SOL     MW 4994   1.321   3.997   0.786
 1138SOL     OW 4995   0.133   4.944   0.716
 1138SOL    HW1 4996   0.197   4.976   0.779
 1138SOL    HW2 4997   0.182   4.880   0.664
 1138SOL     MW 4998   0.148   4.940   0.717
 1139SOL     OW 4999   0.633   5.020   1.698
 1139SOL    HW1 5000   0.681   5.103   1.685
 1139SOL    HW2 5001   0.690   4.968   1.754
 1139SOL     MW 5002   0.647   5.024   1.704
 1140SOL     OW 5003   0.209   5.262   1.838
 1140SOL    HW1 5004   0.265   5.186   1.853
 1140SOL    HW2 5005   0.158   5.240   1.760
 1140SOL     MW 5006   0.209   5.249   1.829
 1141SOL     OW 5007   1.308   4.114   0.117
 1141SOL    HW1 5008   1.281   4.180   0.053
 1141SOL    HW2 5009   1.378   4.157   0.167
 1141SOL     MW 5010   1.313   4.127   0.114
 1142SOL     OW 5011   0.976   3.819   0.054
 1142SOL    HW1 5012   1.032   3.811  -0.024
 1142SOL    HW2 5013   0.953   3.729   0.076
 1142SOL     MW 5014   0.981   3.806   0.047
 1143SOL     OW 5015   1.481   4.670   0.259
 1143SOL    HW1 5016   1.448   4.759   0.249
 1143SOL    HW2 5017   1.446   4.641   0.344
 1143SOL     MW 5018   1.471   4.679   0.270
 1144SOL     OW 5019   1.094   5.099   1.447
 1144SOL    HW1 5020   1.005   5.105   1.415
 1144SOL    HW2 5021   1.138   5.178   1.415
 1144SOL     MW 5022   1.089   5.109   1.439
 1145SOL     OW 5023   0.387   3.767   1.789
 1145SOL    HW1 5024   0.315   3.732   1.737
 1145SOL    HW2 5025   0.445   3.808   1.724
 1145SOL     MW 5026   0.385   3.768   1.774
 1146SOL     OW 5027   0.411   5.257   1.088
 1146SOL    HW1 5028   0.456   5.319   1.145
 1146SOL    HW2 5029   0.318   5.276   1.101
 1146SOL     MW 5030   0.404   5.267   1.095
 1147SOL     OW 5031   1.851   4.786   1.442
 1147SOL    HW1 5032   1.766   4.799   1.401
 1147SOL    HW2 5033   1.831   4.750   1.529
 1147SOL     MW 5034   1.838   4.782   1.447
 1148SOL     OW 5035   0.833   5.325   1.196
 1148SOL    HW1 5036   0.857   5.314   1.105
 1148SOL    HW2 5037   0.756   5.382   1.194
 1148SOL     MW 5038   0.825   5.330   1.185
 1149SOL     OW 5039   0.475   4.708   0.051
 1149SOL    HW1 5040   0.398   4.721   0.107
 1149SOL    HW2 5041   0.439   4.672  -0.030
 1149SOL     MW 5042   0.461   4.704   0.048
 1150SOL     OW 5043   1.128   4.681   0.294
 1150SOL    HW1 5044   1.038   4.702   0.269
 1150SOL    HW2 5045   1.155   4.754   0.350
 1150SOL     MW 5046   1.120   4.693   0.297
 1151SOL     OW 5047   0.628   5.030   0.986
 1151SOL    HW1 5048   0.621   5.009   1.080
 1151SOL    HW2 5049   0.546   4.998   0.949
 1151SOL     MW 5050   0.616   5.024   0.993
 1152SOL     OW 5051   1.492   4.040   1.388
 1152SOL    HW1 5052   1.439   4.042   1.468
 1152SOL    HW2 5053   1.477   3.953   1.351
 1152SOL     MW 5054   1.484   4.030   1.393
 1153SOL     OW 5055   1.828   3.964   1.261
 1153SOL    HW1 5056   1.809   4.031   1.196
 1153SOL    HW2 5057   1.885   3.902   1.216
 1153SOL     MW 5058   1.832   3.965   1.247
 1154SOL     OW 5059   0.074   5.122   1.649
 1154SOL    HW1 5060   0.118   5.055   1.595
 1154SOL    HW2 5061  -0.011   5.084   1.669
 1154SOL     MW 5062   0.069   5.108   1.645
 1155SOL     OW 5063   0.757   3.797   0.701
 1155SOL    HW1 5064   0.686   3.858   0.683
 1155SOL    HW2 5065   0.808   3.794   0.620
 1155SOL     MW 5066   0.753   3.803   0.688
 1156SOL     OW 5067   0.515   5.037   0.450
 1156SOL    HW1 5068   0.508   5.069   0.540
 1156SOL    HW2 5069   0.425   5.021   0.422
 1156SOL     MW 5070   0.503   5.039   0.457
 1157SOL     OW 5071   1.110   5.430   1.359
 1157SOL    HW1 5072   1.030   5.415   1.309
 1157SOL    HW2 5073   1.117   5.525   1.366
 1157SOL     MW 5074   1.101   5.441   1.353
 1158SOL     OW 5075   1.224   5.395   0.849
 1158SOL    HW1 5076   1.271   5.468   0.808
 1158SOL    HW2 5077   1.145   5.434   0.885
 1158SOL     MW 5078   1.219   5.410   0.848
 1159SOL     OW 5079   1.632   5.490   1.124
 1159SOL    HW1 5080   1.675   5.460   1.204
 1159SOL    HW2 5081   1.551   5.438   1.121
 1159SOL     MW 5082   1.627   5.479   1.134
 1160SOL     OW 5083   0.717   4.454   1.831
 1160SOL    HW1 5084   0.787   4.396   1.803
 1160SOL    HW2 5085   0.660   4.399   1.886
 1160SOL     MW 5086   0.719   4.441   1.835
 1161SOL     OW 5087   1.504   4.666   1.464
 1161SOL    HW1 5088   1.509   4.719   1.544
 1161SOL    HW2 5089   1.466   4.583   1.492
 1161SOL     MW 5090   1.500   4.661   1.479
 1162SOL     OW 5091   1.144   3.801   1.710
 1162SOL    HW1 5092   1.139   3.708   1.691
 1162SOL    HW2 5093   1.227   3.812   1.756
 1162SOL     MW 5094   1.152   3.790   1.714
 1163SOL     OW 5095   0.518   4.321   0.164
 1163SOL    HW1 5096   0.484   4.377   0.234
 1163SOL    HW2 5097   0.589   4.271   0.204
 1163SOL     MW 5098   0.524   4.322   0.178
 1164SOL     OW 5099   1.614   5.072   0.986
 1164SOL    HW1 5100   1.649   5.054   0.899
 1164SOL    HW2 5101   1.519   5.073   0.973
 1164SOL     MW 5102   1.606   5.069   0.973
 1165SOL     OW 5103   1.043   4.720   1.355
 1165SOL    HW1 5104   1.086   4.755   1.433
 1165SOL    HW2 5105   1.026   4.797   1.301
 1165SOL     MW 5106   1.046   4.735   1.358
 1166SOL     OW 5107   1.574   4.207   0.228
 1166SOL    HW1 5108   1.566   4.278   0.165
 1166SOL    HW2 5109   1.592   4.251   0.311
 1166SOL     MW 5110   1.575   4.221   0.230
 1167SOL     OW 5111   0.434   3.862   0.657
 1167SOL    HW1 5112   0.484   3.905   0.588
 1167SOL    HW2 5113   0.349   3.906   0.657
 1167SOL     MW 5114   0.431   3.875   0.648
 1168SOL     OW 5115   0.193   4.924   1.517
 1168SOL    HW1 5116   0.221   4.877   1.595
 1168SOL    HW2 5117   0.114   4.879   1.488
 1168SOL     MW 5118   0.186   4.913   1.523
 1169SOL     OW 5119   0.701   4.251   1.484
 1169SOL    HW1 5120   0.673   4.339   1.508
 1169SOL    HW2 5121   0.670   4.195   1.555
 1169SOL     MW 5122   0.693   4.254   1.496
 1170SOL     OW 5123   1.243   4.469   0.203
 1170SOL    HW1 5124   1.290   4.487   0.122
 1170SOL    HW2 5125   1.209   4.553   0.231
 1170SOL     MW 5126   1.245   4.483   0.196
 1171SOL     OW 5127   0.356   4.647   0.697
 1171SOL    HW1 5128   0.414   4.703   0.645
 1171SOL    HW2 5129   0.400   4.562   0.699
 1171SOL     MW 5130   0.369   4.644   0.690
 1172SOL     OW 5131   1.496   3.999   0.534
 1172SOL    HW1 5132   1.418   3.949   0.559
 1172SOL    HW2 5133   1.467   4.090   0.534
 1172SOL     MW 5134   1.482   4.003   0.537
 1173SOL     OW 5135   1.082   3.961   0.693
 1173SOL    HW1 5136   1.102   4.036   0.637
 1173SOL    HW2 5137   1.062   4.000   0.778
 1173SOL     MW 5138   1.083   3.977   0.697
 1174SOL     OW 5139   0.978   5.211   0.025
 1174SOL    HW1 5140   1.005   5.289  -0.023
 1174SOL    HW2 5141   0.885   5.226   0.044
 1174SOL     MW 5142   0.969   5.224   0.021
 1175SOL     OW 5143   1.842   4.734   1.712
 1175SOL    HW1 5144   1.755   4.714   1.748
 1175SOL    HW2 5145   1.896   4.660   1.737
 1175SOL     MW 5146   1.837   4.723   1.720
 1176SOL     OW 5147   0.063   5.247   0.869
 1176SOL    HW1 5148   0.095   5.251   0.960
 1176SOL    HW2 5149  -0.032   5.255   0.877
 1176SOL     MW 5150   0.055   5.250   0.882
 1177SOL     OW 5151   0.018   4.373   0.416
 1177SOL    HW1 5152  -0.042   4.345   0.486
 1177SOL    HW2 5153   0.092   4.313   0.422
 1177SOL     MW 5154   0.020   4.362   0.425
 1178SOL     OW 5155   1.586   5.585   1.850
 1178SOL    HW1 5156   1.631   5.509   1.815
 1178SOL    HW2 5157   1.624   5.598   1.937
 1178SOL     MW 5158   1.596   5.578   1.856
 1179SOL     OW 5159   1.186   5.104   0.576
 1179SOL    HW1 5160   1.209   5.055   0.654
 1179SOL    HW2 5161   1.267   5.146   0.548
 1179SOL     MW 5162   1.199   5.104   0.583
 1180SOL     OW 5163   0.444   4.112   1.305
 1180SOL    HW1 5164   0.477   4.193   1.345
 1180SOL    HW2 5165   0.417   4.138   1.217
 1180SOL     MW 5166   0.443   4.126   1.299
 1181SOL     OW 5167   0.398   4.079   1.041
 1181SOL    HW1 5168   0.428   3.993   1.012
 1181SOL    HW2 5169   0.303   4.072   1.044
 1181SOL     MW 5170   0.390   4.068   1.039
 1182SOL     OW 5171   1.227   4.288   1.732
 1182SOL    HW1 5172   1.279   4.223   1.685
 1182SOL    HW2 5173   1.185   4.339   1.662
 1182SOL     MW 5174   1.228   4.285   1.715
 1183SOL     OW 5175   1.326   4.083   1.593
 1183SOL    HW1 5176   1.233   4.067   1.580
 1183SOL    HW2 5177   1.352   4.021   1.661
 1183SOL     MW 5178   1.316   4.073   1.600
 1184SOL     OW 5179   0.541   3.857   0.932
 1184SOL    HW1 5180   0.551   3.766   0.958
 1184SOL    HW2 5181   0.497   3.853   0.847
 1184SOL     MW 5182   0.537   3.845   0.924
 1185SOL     OW 5183   0.635   5.472   1.478
 1185SOL    HW1 5184   0.552   5.457   1.523
 1185SOL    HW2 5185   0.694   5.405   1.513
 1185SOL     MW 5186   0.633   5.462   1.488
 1186SOL     OW 5187   1.692   4.179   1.103
 1186SOL    HW1 5188   1.625   4.212   1.163
 1186SOL    HW2 5189   1.735   4.257   1.069
 1186SOL     MW 5190   1.690   4.194   1.107
 1187SOL     OW 5191   1.870   4.899   1.073
 1187SOL    HW1 5192   1.863   4.839   0.998
 1187SOL    HW2 5193   1.796   4.959   1.062
 1187SOL     MW 5194   1.860   4.899   1.062
 1188SOL     OW 5195   1.252   4.761   0.991
 1188SOL    HW1 5196   1.266   4.733   1.082
 1188SOL    HW2 5197   1.338   4.792   0.963
 1188SOL     MW 5198   1.265   4.762   1.000
 1189SOL     OW 5199   1.335   4.256   1.270
 1189SOL    HW1 5200   1.356   4.257   1.177
 1189SOL    HW2 5201   1.380   4.178   1.303
 1189SOL     MW 5202   1.342   4.246   1.262
 1190SOL     OW 5203   1.828   4.387   1.812
 1190SOL    HW1 5204   1.865   4.332   1.881
 1190SOL    HW2 5205   1.853   4.344   1.730
 1190SOL     MW 5206   1.835   4.375   1.811
 1191SOL     OW 5207   1.375   4.685   1.863
 1191SOL    HW1 5208   1.441   4.633   1.817
 1191SOL    HW2 5209   1.395   4.672   1.956
 1191SOL     MW 5210   1.386   4.676   1.870
 1192SOL     OW 5211   1.326   3.771   0.212
 1192SOL    HW1 5212   1.400   3.815   0.255
 1192SOL    HW2 5213   1.250   3.825   0.234
 1192SOL     MW 5214   1.326   3.783   0.220
 1193SOL     OW 5215   1.386   4.546   0.490
 1193SOL    HW1 5216   1.301   4.516   0.460
 1193SOL    HW2 5217   1.378   4.553   0.585
 1193SOL     MW 5218   1.374   4.544   0.499
 1194SOL     OW 5219   0.462   5.009   1.221
 1194SOL    HW1 5220   0.474   5.036   1.312
 1194SOL    HW2 5221   0.443   5.090   1.174
 1194SOL     MW 5222   0.461   5.024   1.226
 1195SOL     OW 5223   0.746   3.989   1.044
 1195SOL    HW1 5224   0.719   3.991   1.135
 1195SOL    HW2 5225   0.676   3.941   0.999
 1195SOL     MW 5226   0.734   3.985   1.051
 1196SOL     OW 5227   0.600   5.481   1.206
 1196SOL    HW1 5228   0.652   5.558   1.183
 1196SOL    HW2 5229   0.609   5.473   1.301
 1196SOL     MW 5230   0.609   5.488   1.217
 1197SOL     OW 5231   1.502   5.066   1.438
 1197SOL    HW1 5232   1.487   4.995   1.501
 1197SOL    HW2 5233   1.548   5.024   1.366
 1197SOL     MW 5234   1.508   5.050   1.438
 1198SOL     OW 5235   0.576   4.797   1.555
 1198SOL    HW1 5236   0.613   4.802   1.467
 1198SOL    HW2 5237   0.615   4.870   1.602
 1198SOL     MW 5238   0.586   4.807   1.550
 1199SOL     OW 5239   0.756   4.840   1.367
 1199SOL    HW1 5240   0.815   4.786   1.420
 1199SOL    HW2 5241   0.771   4.812   1.277
 1199SOL     MW 5242   0.766   4.829   1.363
 1200SOL     OW 5243   0.759   4.212   0.216
 1200SOL    HW1 5244   0.832   4.261   0.179
 1200SOL    HW2 5245   0.775   4.121   0.190
 1200SOL     MW 5246   0.771   4.207   0.209
 1201SOL     OW 5247   1.567   5.329   1.539
 1201SOL    HW1 5248   1.609   5.314   1.624
 1201SOL    HW2 5249   1.558   5.242   1.501
 1201SOL     MW 5250   1.571   5.317   1.546
 1202SOL     OW 5251   1.227   3.808   1.130
 1202SOL    HW1 5252   1.282   3.817   1.052
 1202SOL    HW2 5253   1.282   3.842   1.201
 1202SOL     MW 5254   1.241   3.813   1.129
 1203SOL     OW 5255   0.234   4.721   0.314
 1203SOL    HW1 5256   0.171   4.737   0.243
 1203SOL    HW2 5257   0.181   4.684   0.385
 1203SOL     MW 5258   0.219   4.718   0.314
 1204SOL     OW 5259   0.590   5.075   0.173
 1204SOL    HW1 5260   0.605   5.051   0.265
 1204SOL    HW2 5261   0.498   5.053   0.157
 1204SOL     MW 5262   0.580   5.068   0.183
 1205SOL     OW 5263   1.129   5.306   0.325
 1205SOL    HW1 5264   1.137   5.224   0.276
 1205SOL    HW2 5265   1.048   5.345   0.292
 1205SOL     MW 5266   1.119   5.301   0.315
 1206SOL     OW 5267   0.388   5.464   0.894
 1206SOL    HW1 5268   0.392   5.375   0.929
 1206SOL    HW2 5269   0.414   5.455   0.803
 1206SOL     MW 5270   0.391   5.452   0.886
 1207SOL     OW 5271   1.005   4.942   1.137
 1207SOL    HW1 5272   0.937   4.876   1.153
 1207SOL    HW2 5273   1.023   4.936   1.044
 1207SOL     MW 5274   0.998   4.933   1.128
 1208SOL     OW 5275   0.094   5.217   1.388
 1208SOL    HW1 5276   0.084   5.175   1.474
 1208SOL    HW2 5277   0.015   5.270   1.378
 1208SOL     MW 5278   0.083   5.218   1.399
 1209SOL     OW 5279   0.998   4.081   0.958
 1209SOL    HW1 5280   0.928   4.033   1.003
 1209SOL    HW2 5281   1.030   4.144   1.022
 1209SOL     MW 5282   0.993   4.083   0.972
 1210SOL     OW 5283   0.649   4.517   1.578
 1210SOL    HW1 5284   0.642   4.612   1.566
 1210SOL    HW2 5285   0.658   4.506   1.673
 1210SOL     MW 5286   0.650   4.529   1.588
 1211SOL     OW 5287   0.370   5.032   1.836
 1211SOL    HW1 5288   0.442   5.034   1.773
 1211SOL    HW2 5289   0.340   4.941   1.835
 1211SOL     MW 5290   0.375   5.021   1.828
 1212SOL     OW 5291   1.454   3.795   1.303
 1212SOL    HW1 5292   1.525   3.741   1.267
 1212SOL    HW2 5293   1.453   3.774   1.396
 1212SOL     MW 5294   1.463   3.786   1.311
 1213SOL     OW 5295   1.654   5.325   1.787
 1213SOL    HW1 5296   1.627   5.322   1.878
 1213SOL    HW2 5297   1.750   5.329   1.790
 1213SOL     MW 5298   1.664   5.325   1.799
 1214SOL     OW 5299   0.465   4.187   0.771
 1214SOL    HW1 5300   0.536   4.135   0.734
 1214SOL    HW2 5301   0.451   4.152   0.858
 1214SOL     MW 5302   0.473   4.176   0.778
 1215SOL     OW 5303   0.020   5.522   1.843
 1215SOL    HW1 5304   0.070   5.500   1.765
 1215SOL    HW2 5305   0.028   5.617   1.851
 1215SOL     MW 5306   0.028   5.531   1.834
 1216SOL     OW 5307   0.781   5.280   0.847
 1216SOL    HW1 5308   0.709   5.217   0.860
 1216SOL    HW2 5309   0.742   5.365   0.865
 1216SOL     MW 5310   0.765   5.283   0.850
 1217SOL     OW 5311   1.101   4.128   0.495
 1217SOL    HW1 5312   1.123   4.065   0.427
 1217SOL    HW2 5313   1.006   4.120   0.506
 1217SOL     MW 5314   1.091   4.119   0.487
 1218SOL     OW 5315   0.186   3.818   0.427
 1218SOL    HW1 5316   0.257   3.839   0.366
 1218SOL    HW2 5317   0.140   3.746   0.385
 1218SOL     MW 5318   0.190   3.812   0.413
 1219SOL     OW 5319   0.017   4.285   1.570
 1219SOL    HW1 5320   0.081   4.351   1.545
 1219SOL    HW2 5321  -0.064   4.312   1.527
 1219SOL     MW 5322   0.015   4.297   1.562
 1220SOL     OW 5323   1.755   5.192   0.527
 1220SOL    HW1 5324   1.725   5.125   0.588
 1220SOL    HW2 5325   1.849   5.198   0.541
 1220SOL     MW 5326   1.763   5.184   0.537
 1221SOL     OW 5327   1.311   4.869   0.457
 1221SOL    HW1 5328   1.283   4.955   0.490
 1221SOL    HW2 5329   1.339   4.885   0.367
 1221SOL     MW 5330   1.311   4.883   0.449
 1222SOL     OW 5331   0.973   3.789   0.510
 1222SOL    HW1 5332   1.010   3.848   0.575
 1222SOL    HW2 5333   0.950   3.845   0.436
 1222SOL     MW 5334   0.974   3.804   0.509
 1223SOL     OW 5335   1.826   4.671   0.932
 1223SOL    HW1 5336   1.817   4.703   0.843
 1223SOL    HW2 5337   1.779   4.587   0.932
 1223SOL     MW 5338   1.819   4.664   0.922
 1224SOL     OW 5339   0.202   4.511   1.511
 1224SOL    HW1 5340   0.223   4.580   1.449
 1224SOL    HW2 5341   0.282   4.458   1.516
 1224SOL     MW 5342   0.215   4.512   1.505
 1225SOL     OW 5343   1.738   4.602   0.633
 1225SOL    HW1 5344   1.832   4.591   0.621
 1225SOL    HW2 5345   1.714   4.674   0.574
 1225SOL     MW 5346   1.748   4.610   0.624
 1226SOL     OW 5347   0.187   4.526   1.778
 1226SOL    HW1 5348   0.113   4.470   1.804
 1226SOL    HW2 5349   0.182   4.529   1.683
 1226SOL     MW 5350   0.176   4.519   1.768
 1227SOL     OW 5351   0.353   3.813   1.228
 1227SOL    HW1 5352   0.396   3.897   1.248
 1227SOL    HW2 5353   0.426   3.751   1.221
 1227SOL     MW 5354   0.368   3.816   1.229
 1228SOL     OW 5355   0.394   4.480   0.406
 1228SOL    HW1 5356   0.394   4.575   0.391
 1228SOL    HW2 5357   0.471   4.464   0.460
 1228SOL     MW 5358   0.404   4.491   0.411
 1229SOL     OW 5359   1.170   4.339   1.470
 1229SOL    HW1 5360   1.206   4.312   1.386
 1229SOL    HW2 5361   1.083   4.373   1.449
 1229SOL     MW 5362   1.164   4.340   1.457
 1230SOL     OW 5363   0.153   4.211   0.695
 1230SOL    HW1 5364   0.215   4.218   0.768
 1230SOL    HW2 5365   0.153   4.118   0.672
 1230SOL     MW 5366   0.161   4.200   0.702
 1231SOL     OW 5367   1.700   5.551   0.227
 1231SOL    HW1 5368   1.767   5.584   0.167
 1231SOL    HW2 5369   1.657   5.630   0.261
 1231SOL     MW 5370   1.702   5.566   0.223
 1232SOL     OW 5371   0.835   4.472   1.179
 1232SOL    HW1 5372   0.793   4.390   1.155
 1232SOL    HW2 5373   0.836   4.471   1.275
 1232SOL     MW 5374   0.828   4.461   1.188
 1233SOL     OW 5375   1.506   5.605   1.578
 1233SOL    HW1 5376   1.509   5.511   1.561
 1233SOL    HW2 5377   1.529   5.613   1.670
 1233SOL     MW 5378   1.509   5.593   1.588
 1234SOL     OW 5379   0.639   3.942   1.284
 1234SOL    HW1 5380   0.570   4.005   1.305
 1234SOL    HW2 5381   0.666   3.906   1.369
 1234SOL     MW 5382   0.633   3.945   1.297
 1235SOL     OW 5383   0.022   4.783   0.153
 1235SOL    HW1 5384  -0.009   4.848   0.216
 1235SOL    HW2 5385  -0.029   4.705   0.172
 1235SOL     MW 5386   0.012   4.780   0.163
 1236SOL     OW 5387   1.434   3.795   0.901
 1236SOL    HW1 5388   1.522   3.804   0.938
 1236SOL    HW2 5389   1.444   3.736   0.827
 1236SOL     MW 5390   1.448   3.789   0.895
 1237SOL     OW 5391   1.466   4.534   0.745
 1237SOL    HW1 5392   1.546   4.549   0.694
 1237SOL    HW2 5393   1.459   4.439   0.751
 1237SOL     MW 5394   1.475   4.523   0.740
 1238SOL     OW 5395   0.606   5.583   0.095
 1238SOL    HW1 5396   0.511   5.583   0.087
 1238SOL    HW2 5397   0.622   5.529   0.173
 1238SOL     MW 5398   0.596   5.577   0.104
 1239SOL     OW 5399   0.916   4.460   1.442
 1239SOL    HW1 5400   0.985   4.527   1.439
 1239SOL    HW2 5401   0.849   4.498   1.498
 1239SOL     MW 5402   0.917   4.473   1.449
 1240SOL     OW 5403   0.334   4.760   1.690
 1240SOL    HW1 5404   0.288   4.676   1.692
 1240SOL    HW2 5405   0.391   4.754   1.614
 1240SOL     MW 5406   0.336   4.748   1.682
 1241SOL     OW 5407   1.451   4.403   0.011
 1241SOL    HW1 5408   1.379   4.379  -0.047
 1241SOL    HW2 5409   1.517   4.440  -0.047
 1241SOL     MW 5410   1.450   4.405  -0.004
 1242SOL     OW 5411   0.585   5.135   0.691
 1242SOL    HW1 5412   0.650   5.068   0.712
 1242SOL    HW2 5413   0.637   5.212   0.668
 1242SOL     MW 5414   0.600   5.137   0.690
 1243SOL     OW 5415   0.846   4.300   0.821
 1243SOL    HW1 5416   0.786   4.318   0.893
 1243SOL    HW2 5417   0.880   4.212   0.840
 1243SOL     MW 5418   0.842   4.290   0.834
 1244SOL     OW 5419   1.787   3.799   1.490
 1244SOL    HW1 5420   1.708   3.845   1.518
 1244SOL    HW2 5421   1.822   3.853   1.419
 1244SOL     MW 5422   1.781   3.812   1.484
 1245SOL     OW 5423   1.071   4.883   0.840
 1245SOL    HW1 5424   1.163   4.864   0.858
 1245SOL    HW2 5425   1.044   4.813   0.780
 1245SOL     MW 5426   1.079   4.871   0.834
 1246SOL     OW 5427   0.864   4.703   0.195
 1246SOL    HW1 5428   0.850   4.615   0.160
 1246SOL    HW2 5429   0.815   4.760   0.136
 1246SOL     MW 5430   0.856   4.698   0.183
 1247SOL     OW 5431   1.345   5.121   0.936
 1247SOL    HW1 5432   1.318   5.205   0.901
 1247SOL    HW2 5433   1.305   5.116   1.023
 1247SOL     MW 5434   1.338   5.130   0.942
 1248SOL     OW 5435   1.264   5.069   1.204
 1248SOL    HW1 5436   1.275   5.036   1.293
 1248SOL    HW2 5437   1.183   5.028   1.173
 1248SOL     MW 5438   1.254   5.061   1.210
 1249SOL     OW 5439   0.277   4.427   0.974
 1249SOL    HW1 5440   0.227   4.426   1.055
 1249SOL    HW2 5441   0.297   4.519   0.958
 1249SOL     MW 5442   0.273   4.439   0.982
 1250SOL     OW 5443   1.344   5.191   1.736
 1250SOL    HW1 5444   1.344   5.285   1.752
 1250SOL    HW2 5445   1.389   5.181   1.652
 1250SOL     MW 5446   1.350   5.201   1.727
 1251SOL     OW 5447   1.583   3.909   0.297
 1251SOL    HW1 5448   1.576   3.913   0.392
 1251SOL    HW2 5449   1.595   4.000   0.270
 1251SOL     MW 5450   1.584   3.922   0.305
 1252SOL     OW 5451   0.872   4.472   0.411
 1252SOL    HW1 5452   0.852   4.458   0.318
 1252SOL    HW2 5453   0.965   4.451   0.418
 1252SOL     MW 5454   0.882   4.467   0.400
 1253SOL     OW 5455   0.199   4.095   1.715
 1253SOL    HW1 5456   0.156   4.154   1.652
 1253SOL    HW2 5457   0.267   4.150   1.755
 1253SOL     MW 5458   0.203   4.110   1.712
 1254SOL     OW 5459   1.311   4.715   1.260
 1254SOL    HW1 5460   1.374   4.712   1.333
 1254SOL    HW2 5461   1.227   4.733   1.302
 1254SOL     MW 5462   1.307   4.717   1.275
 1255SOL     OW 5463   0.855   5.430   0.449
 1255SOL    HW1 5464   0.913   5.501   0.476
 1255SOL    HW2 5465   0.878   5.358   0.507
 1255SOL     MW 5466   0.866   5.430   0.460
 1256SOL     OW 5467   1.650   3.892   1.039
 1256SOL    HW1 5468   1.695   3.810   1.058
 1256SOL    HW2 5469   1.670   3.948   1.115
 1256SOL     MW 5470   1.660   3.888   1.051
 1257SOL     OW 5471   0.098   3.735   1.138
 1257SOL    HW1 5472   0.089   3.736   1.043
 1257SOL    HW2 5473   0.192   3.747   1.153
 1257SOL     MW 5474   0.110   3.738   1.129
 1258SOL     OW 5475   1.735   4.928   0.758
 1258SOL    HW1 5476   1.714   4.874   0.681
 1258SOL    HW2 5477   1.831   4.926   0.762
 1258SOL     MW 5478   1.744   4.921   0.747
 1259SOL     OW 5479   0.427   5.073   1.501
 1259SOL    HW1 5480   0.348   5.023   1.524
 1259SOL    HW2 5481   0.497   5.032   1.551
 1259SOL     MW 5482   0.425   5.061   1.511
 1260SOL     OW 5483   0.311   3.862   0.184
 1260SOL    HW1 5484   0.240   3.917   0.152
 1260SOL    HW2 5485   0.353   3.828   0.105
 1260SOL     MW 5486   0.307   3.864   0.170
 1261SOL     OW 5487   1.435   4.359   1.020
 1261SOL    HW1 5488   1.358   4.405   0.986
 1261SOL    HW2 5489   1.492   4.428   1.054
 1261SOL     MW 5490   1.432   4.374   1.020
 1262SOL     OW 5491   0.067   3.961   0.033
 1262SOL    HW1 5492   0.034   4.040   0.077
 1262SOL    HW2 5493   0.122   3.994  -0.038
 1262SOL     MW 5494   0.070   3.975   0.030
 1263SOL     OW 5495   0.101   5.218   0.222
 1263SOL    HW1 5496   0.118   5.302   0.264
 1263SOL    HW2 5497   0.136   5.227   0.134
 1263SOL     MW 5498   0.106   5.231   0.216
 1264SOL     OW 5499   1.373   5.307   0.439
 1264SOL    HW1 5500   1.436   5.297   0.368
 1264SOL    HW2 5501   1.290   5.327   0.394
 1264SOL     MW 5502   1.370   5.308   0.424
 1265SOL     OW 5503   1.736   4.575   2.125
 1265SOL    HW1 5504   1.777   4.517   2.190
 1265SOL    HW2 5505   1.643   4.567   2.142
 1265SOL     MW 5506   1.730   4.567   2.135
 1266SOL     OW 5507   1.602   4.507   3.120
 1266SOL    HW1 5508   1.557   4.574   3.171
 1266SOL    HW2 5509   1.690   4.543   3.106
 1266SOL     MW 5510   1.608   4.520   3.124
 1267SOL     OW 5511   0.530   4.758   2.354
 1267SOL    HW1 5512   0.620   4.733   2.338
 1267SOL    HW2 5513   0.526   4.851   2.331
 1267SOL     MW 5514   0.542   4.767   2.349
 1268SOL     OW 5515   1.646   5.461   2.496
 1268SOL    HW1 5516   1.658   5.407   2.574
 1268SOL    HW2 5517   1.683   5.409   2.425
 1268SOL     MW 5518   1.652   5.446   2.497
 1269SOL     OW 5519   1.025   5.346   3.497
 1269SOL    HW1 5520   1.066   5.382   3.418
 1269SOL    HW2 5521   1.060   5.257   3.504
 1269SOL     MW 5522   1.036   5.339   3.488
 1270SOL     OW 5523   1.582   4.901   3.101
 1270SOL    HW1 5524   1.503   4.866   3.059
 1270SOL    HW2 5525   1.609   4.973   3.045
 1270SOL     MW 5526   1.575   4.906   3.088
 1271SOL     OW 5527   0.814   4.214   2.367
 1271SOL    HW1 5528   0.789   4.302   2.395
 1271SOL    HW2 5529   0.811   4.217   2.271
 1271SOL     MW 5530   0.810   4.226   2.359
 1272SOL     OW 5531   0.256   4.242   2.295
 1272SOL    HW1 5532   0.288   4.330   2.277
 1272SOL    HW2 5533   0.244   4.240   2.390
 1272SOL     MW 5534   0.259   4.254   2.307
 1273SOL     OW 5535   0.334   4.655   3.196
 1273SOL    HW1 5536   0.397   4.602   3.147
 1273SOL    HW2 5537   0.315   4.729   3.139
 1273SOL     MW 5538   0.340   4.657   3.183
 1274SOL     OW 5539   0.655   3.997   2.382
 1274SOL    HW1 5540   0.713   4.073   2.384
 1274SOL    HW2 5541   0.590   4.018   2.315
 1274SOL     MW 5542   0.654   4.009   2.373
 1275SOL     OW 5543   0.742   4.924   2.557
 1275SOL    HW1 5544   0.822   4.927   2.609
 1275SOL    HW2 5545   0.770   4.891   2.471
 1275SOL     MW 5546   0.756   4.920   2.552
 1276SOL     OW 5547   0.767   5.265   3.460
 1276SOL    HW1 5548   0.851   5.291   3.499
 1276SOL    HW2 5549   0.791   5.209   3.386
 1276SOL     MW 5550   0.781   5.261   3.455
 1277SOL     OW 5551   0.519   4.428   2.548
 1277SOL    HW1 5552   0.504   4.348   2.599
 1277SOL    HW2 5553   0.601   4.463   2.582
 1277SOL     MW 5554   0.527   4.420   2.560
 1278SOL     OW 5555   0.856   5.114   3.233
 1278SOL    HW1 5556   0.820   5.180   3.173
 1278SOL    HW2 5557   0.784   5.052   3.246
 1278SOL     MW 5558   0.842   5.114   3.227
 1279SOL     OW 5559   0.661   4.254   2.925
 1279SOL    HW1 5560   0.567   4.250   2.943
 1279SOL    HW2 5561   0.691   4.163   2.934
 1279SOL     MW 5562   0.652   4.242   2.928
 1280SOL     OW 5563   0.407   4.668   2.829
 1280SOL    HW1 5564   0.362   4.675   2.745
 1280SOL    HW2 5565   0.387   4.751   2.873
 1280SOL     MW 5566   0.399   4.680   2.823
 1281SOL     OW 5567   0.104   5.514   2.704
 1281SOL    HW1 5568   0.193   5.506   2.739
 1281SOL    HW2 5569   0.068   5.426   2.709
 1281SOL     MW 5570   0.111   5.501   2.709
 1282SOL     OW 5571   1.369   4.906   2.073
 1282SOL    HW1 5572   1.287   4.942   2.039
 1282SOL    HW2 5573   1.437   4.949   2.022
 1282SOL     MW 5574   1.367   4.916   2.061
 1283SOL     OW 5575   0.368   5.041   2.739
 1283SOL    HW1 5576   0.344   5.094   2.815
 1283SOL    HW2 5577   0.424   5.099   2.687
 1283SOL     MW 5578   0.372   5.056   2.742
 1284SOL     OW 5579   0.930   4.685   2.549
 1284SOL    HW1 5580   0.844   4.672   2.589
 1284SOL    HW2 5581   0.983   4.612   2.581
 1284SOL     MW 5582   0.926   4.674   2.558
 1285SOL     OW 5583   0.338   5.337   3.334
 1285SOL    HW1 5584   0.246   5.313   3.319
 1285SOL    HW2 5585   0.382   5.254   3.351
 1285SOL     MW 5586   0.332   5.322   3.333
 1286SOL     OW 5587   0.921   5.047   2.266
 1286SOL    HW1 5588   0.898   5.109   2.334
 1286SOL    HW2 5589   0.878   4.965   2.292
 1286SOL     MW 5590   0.913   5.043   2.277
 1287SOL     OW 5591   1.794   4.048   2.722
 1287SOL    HW1 5592   1.731   4.028   2.791
 1287SOL    HW2 5593   1.784   3.977   2.659
 1287SOL     MW 5594   1.784   4.035   2.723
 1288SOL     OW 5595   0.418   4.020   2.234
 1288SOL    HW1 5596   0.392   3.982   2.150
 1288SOL    HW2 5597   0.355   4.090   2.250
 1288SOL     MW 5598   0.407   4.023   2.225
 1289SOL     OW 5599   0.253   4.981   2.271
 1289SOL    HW1 5600   0.201   5.049   2.227
 1289SOL    HW2 5601   0.250   4.907   2.211
 1289SOL     MW 5602   0.245   4.980   2.258
 1290SOL     OW 5603   0.915   5.444   2.049
 1290SOL    HW1 5604   0.870   5.460   2.132
 1290SOL    HW2 5605   0.846   5.409   1.991
 1290SOL     MW 5606   0.901   5.441   2.051
 1291SOL     OW 5607   1.850   4.217   2.024
 1291SOL    HW1 5608   1.759   4.219   2.052
 1291SOL    HW2 5609   1.895   4.279   2.082
 1291SOL     MW 5610   1.843   4.225   2.034
 1292SOL     OW 5611   1.595   4.820   2.374
 1292SOL    HW1 5612   1.505   4.820   2.409
 1292SOL    HW2 5613   1.588   4.866   2.291
 1292SOL     MW 5614   1.582   4.826   2.368
 1293SOL     OW 5615   1.395   4.455   3.446
 1293SOL    HW1 5616   1.464   4.393   3.423
 1293SOL    HW2 5617   1.320   4.429   3.393
 1293SOL     MW 5618   1.395   4.442   3.437
 1294SOL     OW 5619   0.136   5.335   2.998
 1294SOL    HW1 5620   0.119   5.281   3.075
 1294SOL    HW2 5621   0.124   5.425   3.028
 1294SOL     MW 5622   0.133   5.339   3.012
 1295SOL     OW 5623   1.131   4.842   3.438
 1295SOL    HW1 5624   1.116   4.935   3.423
 1295SOL    HW2 5625   1.226   4.832   3.438
 1295SOL     MW 5626   1.140   4.852   3.435
 1296SOL     OW 5627   0.927   4.266   3.639
 1296SOL    HW1 5628   1.017   4.267   3.606
 1296SOL    HW2 5629   0.886   4.191   3.597
 1296SOL     MW 5630   0.933   4.256   3.630
 1297SOL     OW 5631   1.502   4.798   2.766
 1297SOL    HW1 5632   1.505   4.732   2.697
 1297SOL    HW2 5633   1.587   4.841   2.762
 1297SOL     MW 5634   1.514   4.794   2.757
 1298SOL     OW 5635   1.122   4.401   2.335
 1298SOL    HW1 5636   1.148   4.425   2.246
 1298SOL    HW2 5637   1.104   4.308   2.331
 1298SOL     MW 5638   1.124   4.393   2.322
 1299SOL     OW 5639   1.787   5.021   2.186
 1299SOL    HW1 5640   1.743   5.062   2.261
 1299SOL    HW2 5641   1.844   5.089   2.151
 1299SOL     MW 5642   1.789   5.035   2.191
 1300SOL     OW 5643   0.707   4.070   3.589
 1300SOL    HW1 5644   0.717   3.996   3.529
 1300SOL    HW2 5645   0.743   4.039   3.672
 1300SOL     MW 5646   0.713   4.056   3.591
 1301SOL     OW 5647   0.443   5.437   2.504
 1301SOL    HW1 5648   0.475   5.525   2.482
 1301SOL    HW2 5649   0.396   5.409   2.426
 1301SOL     MW 5650   0.442   5.445   2.491
 1302SOL     OW 5651   1.827   3.799   2.553
 1302SOL    HW1 5652   1.881   3.750   2.615
 1302SOL    HW2 5653   1.770   3.733   2.514
 1302SOL     MW 5654   1.827   3.783   2.555
 1303SOL     OW 5655   0.159   5.497   2.081
 1303SOL    HW1 5656   0.188   5.587   2.073
 1303SOL    HW2 5657   0.109   5.480   2.002
 1303SOL     MW 5658   0.157   5.505   2.070
 1304SOL     OW 5659   0.946   3.752   2.966
 1304SOL    HW1 5660   0.905   3.830   2.928
 1304SOL    HW2 5661   1.040   3.770   2.961
 1304SOL     MW 5662   0.952   3.764   2.961
 1305SOL     OW 5663   1.563   5.305   2.052
 1305SOL    HW1 5664   1.611   5.374   2.098
 1305SOL    HW2 5665   1.484   5.349   2.021
 1305SOL     MW 5666   1.558   5.319   2.055
 1306SOL     OW 5667   0.961   4.430   1.996
 1306SOL    HW1 5668   0.963   4.377   1.917
 1306SOL    HW2 5669   1.049   4.467   2.002
 1306SOL     MW 5670   0.973   4.429   1.985
 1307SOL     OW 5671   1.575   4.356   2.332
 1307SOL    HW1 5672   1.614   4.356   2.419
 1307SOL    HW2 5673   1.516   4.432   2.332
 1307SOL     MW 5674   1.572   4.367   2.343
 1308SOL     OW 5675   0.892   4.723   3.461
 1308SOL    HW1 5676   0.869   4.703   3.551
 1308SOL    HW2 5677   0.977   4.767   3.466
 1308SOL     MW 5678   0.899   4.726   3.473
 1309SOL     OW 5679   0.972   3.860   3.221
 1309SOL    HW1 5680   0.978   3.822   3.134
 1309SOL    HW2 5681   0.961   3.954   3.206
 1309SOL     MW 5682   0.973   3.868   3.209
 1310SOL     OW 5683   1.061   4.349   3.055
 1310SOL    HW1 5684   1.136   4.378   3.002
 1310SOL    HW2 5685   0.993   4.414   3.039
 1310SOL     MW 5686   1.062   4.361   3.045
 1311SOL     OW 5687   1.611   4.317   3.332
 1311SOL    HW1 5688   1.592   4.226   3.311
 1311SOL    HW2 5689   1.589   4.366   3.253
 1311SOL     MW 5690   1.606   4.310   3.319
 1312SOL     OW 5691   1.753   5.411   3.236
 1312SOL    HW1 5692   1.681   5.373   3.287
 1312SOL    HW2 5693   1.770   5.496   3.277
 1312SOL     MW 5694   1.747   5.416   3.248
 1313SOL     OW 5695   1.058   4.055   3.438
 1313SOL    HW1 5696   1.024   4.094   3.357
 1313SOL    HW2 5697   1.036   3.963   3.431
 1313SOL     MW 5698   1.051   4.048   3.428
 1314SOL     OW 5699   1.467   4.869   3.514
 1314SOL    HW1 5700   1.549   4.910   3.544
 1314SOL    HW2 5701   1.430   4.831   3.594
 1314SOL     MW 5702   1.473   4.870   3.529
 1315SOL     OW 5703   1.762   4.242   2.498
 1315SOL    HW1 5704   1.851   4.211   2.515
 1315SOL    HW2 5705   1.705   4.182   2.546
 1315SOL     MW 5706   1.765   4.230   2.507
 1316SOL     OW 5707   0.188   3.956   2.527
 1316SOL    HW1 5708   0.179   3.896   2.453
 1316SOL    HW2 5709   0.121   3.927   2.590
 1316SOL     MW 5710   0.178   3.943   2.525
 1317SOL     OW 5711   1.131   5.049   2.088
 1317SOL    HW1 5712   1.081   5.051   2.170
 1317SOL    HW2 5713   1.065   5.067   2.020
 1317SOL     MW 5714   1.117   5.051   2.090
 1318SOL     OW 5715   0.135   4.129   2.890
 1318SOL    HW1 5716   0.107   4.220   2.899
 1318SOL    HW2 5717   0.072   4.090   2.829
 1318SOL     MW 5718   0.122   4.135   2.884
 1319SOL     OW 5719   0.594   5.467   2.196
 1319SOL    HW1 5720   0.515   5.425   2.229
 1319SOL    HW2 5721   0.660   5.450   2.263
 1319SOL     MW 5722   0.593   5.459   2.209
 1320SOL     OW 5723   1.722   4.987   3.593
 1320SOL    HW1 5724   1.772   4.913   3.625
 1320SOL    HW2 5725   1.668   5.014   3.668
 1320SOL     MW 5726   1.722   4.981   3.606
 1321SOL     OW 5727   0.730   4.882   1.903
 1321SOL    HW1 5728   0.652   4.828   1.890
 1321SOL    HW2 5729   0.701   4.955   1.956
 1321SOL     MW 5730   0.716   4.884   1.908
 1322SOL     OW 5731   1.856   4.622   3.095
 1322SOL    HW1 5732   1.872   4.660   3.008
 1322SOL    HW2 5733   1.890   4.688   3.156
 1322SOL     MW 5734   1.863   4.635   3.091
 1323SOL     OW 5735   1.648   5.331   2.764
 1323SOL    HW1 5736   1.677   5.398   2.825
 1323SOL    HW2 5737   1.629   5.255   2.819
 1323SOL     MW 5738   1.650   5.331   2.779
 1324SOL     OW 5739   1.311   5.398   1.971
 1324SOL    HW1 5740   1.237   5.361   2.021
 1324SOL    HW2 5741   1.319   5.488   2.004
 1324SOL     MW 5742   1.302   5.405   1.983
 1325SOL     OW 5743   0.119   4.404   3.060
 1325SOL    HW1 5744   0.181   4.434   3.126
 1325SOL    HW2 5745   0.053   4.473   3.054
 1325SOL     MW 5746   0.118   4.417   3.067
 1326SOL     OW 5747   1.535   5.072   1.913
 1326SOL    HW1 5748   1.482   5.121   1.849
 1326SOL    HW2 5749   1.566   5.138   1.974
 1326SOL     MW 5750   1.533   5.086   1.911
 1327SOL     OW 5751   0.760   3.961   1.968
 1327SOL    HW1 5752   0.708   3.881   1.956
 1327SOL    HW2 5753   0.847   3.938   1.936
 1327SOL     MW 5754   0.763   3.947   1.962
 1328SOL     OW 5755   0.214   5.513   3.512
 1328SOL    HW1 5756   0.188   5.581   3.450
 1328SOL    HW2 5757   0.262   5.450   3.460
 1328SOL     MW 5758   0.216   5.513   3.498
 1329SOL     OW 5759   0.266   4.832   3.019
 1329SOL    HW1 5760   0.319   4.907   3.044
 1329SOL    HW2 5761   0.185   4.870   2.985
 1329SOL     MW 5762   0.262   4.847   3.019
 1330SOL     OW 5763   0.806   4.736   3.007
 1330SOL    HW1 5764   0.834   4.645   3.019
 1330SOL    HW2 5765   0.735   4.730   2.943
 1330SOL     MW 5766   0.799   4.724   3.002
 1331SOL     OW 5767   0.121   4.601   2.425
 1331SOL    HW1 5768   0.212   4.616   2.452
 1331SOL    HW2 5769   0.124   4.522   2.371
 1331SOL     MW 5770   0.133   4.593   2.423
 1332SOL     OW 5771   0.357   4.309   3.679
 1332SOL    HW1 5772   0.304   4.389   3.686
 1332SOL    HW2 5773   0.427   4.321   3.744
 1332SOL     MW 5774   0.359   4.322   3.687
 1333SOL     OW 5775   0.743   3.859   3.386
 1333SOL    HW1 5776   0.720   3.767   3.388
 1333SOL    HW2 5777   0.829   3.861   3.343
 1333SOL     MW 5778   0.750   3.849   3.382
 1334SOL     OW 5779   0.427   4.383   3.425
 1334SOL    HW1 5780   0.507   4.433   3.411
 1334SOL    HW2 5781   0.418   4.377   3.520
 1334SOL     MW 5782   0.436   4.389   3.435
 1335SOL     OW 5783   0.748   5.533   2.799
 1335SOL    HW1 5784   0.837   5.548   2.829
 1335SOL    HW2 5785   0.743   5.580   2.715
 1335SOL     MW 5786   0.758   5.541   2.792
 1336SOL     OW 5787   1.404   3.908   3.696
 1336SOL    HW1 5788   1.460   3.835   3.722
 1336SOL    HW2 5789   1.374   3.946   3.778
 1336SOL     MW 5790   1.408   3.903   3.709
 1337SOL     OW 5791   0.129   5.213   2.464
 1337SOL    HW1 5792   0.101   5.252   2.546
 1337SOL    HW2 5793   0.149   5.122   2.486
 1337SOL     MW 5794   0.127   5.205   2.477
 1338SOL     OW 5795   0.962   5.256   2.499
 1338SOL    HW1 5796   1.045   5.210   2.483
 1338SOL    HW2 5797   0.952   5.255   2.595
 1338SOL     MW 5798   0.972   5.249   2.509
 1339SOL     OW 5799   1.794   4.401   2.813
 1339SOL    HW1 5800   1.883   4.431   2.795
 1339SOL    HW2 5801   1.774   4.341   2.742
 1339SOL     MW 5802   1.803   4.398   2.802
 1340SOL     OW 5803   1.645   4.580   3.693
 1340SOL    HW1 5804   1.700   4.504   3.674
 1340SOL    HW2 5805   1.647   4.588   3.788
 1340SOL     MW 5806   1.653   4.571   3.701
 1341SOL     OW 5807   0.695   5.313   1.904
 1341SOL    HW1 5808   0.635   5.382   1.874
 1341SOL    HW2 5809   0.640   5.255   1.957
 1341SOL     MW 5810   0.679   5.315   1.906
 1342SOL     OW 5811   1.133   3.958   2.127
 1342SOL    HW1 5812   1.066   3.934   2.064
 1342SOL    HW2 5813   1.198   4.007   2.076
 1342SOL     MW 5814   1.133   3.960   2.112
 1343SOL     OW 5815   0.940   4.142   3.212
 1343SOL    HW1 5816   0.859   4.183   3.240
 1343SOL    HW2 5817   0.987   4.210   3.164
 1343SOL     MW 5818   0.935   4.157   3.210
 1344SOL     OW 5819   1.200   4.480   2.835
 1344SOL    HW1 5820   1.213   4.574   2.845
 1344SOL    HW2 5821   1.161   4.470   2.749
 1344SOL     MW 5822   1.196   4.491   2.825
 1345SOL     OW 5823   0.652   4.675   2.639
 1345SOL    HW1 5824   0.563   4.666   2.672
 1345SOL    HW2 5825   0.656   4.765   2.607
 1345SOL     MW 5826   0.641   4.686   2.639
 1346SOL     OW 5827   1.451   4.258   2.634
 1346SOL    HW1 5828   1.396   4.179   2.633
 1346SOL    HW2 5829   1.433   4.299   2.718
 1346SOL     MW 5830   1.441   4.253   2.643
 1347SOL     OW 5831   0.422   3.945   3.451
 1347SOL    HW1 5832   0.343   3.963   3.503
 1347SOL    HW2 5833   0.417   4.007   3.378
 1347SOL     MW 5834   0.412   3.955   3.448
 1348SOL     OW 5835   1.070   4.462   2.591
 1348SOL    HW1 5836   1.007   4.394   2.615
 1348SOL    HW2 5837   1.090   4.443   2.499
 1348SOL     MW 5838   1.064   4.449   2.583
 1349SOL     OW 5839   0.326   5.357   2.293
 1349SOL    HW1 5840   0.287   5.404   2.219
 1349SOL    HW2 5841   0.260   5.292   2.318
 1349SOL     MW 5842   0.313   5.355   2.287
 1350SOL     OW 5843   0.818   4.766   2.317
 1350SOL    HW1 5844   0.820   4.740   2.224
 1350SOL    HW2 5845   0.876   4.703   2.360
 1350SOL     MW 5846   0.826   4.755   2.311
 1351SOL     OW 5847   1.371   5.326   3.089
 1351SOL    HW1 5848   1.296   5.372   3.127
 1351SOL    HW2 5849   1.353   5.233   3.106
 1351SOL     MW 5850   1.360   5.320   3.097
 1352SOL     OW 5851   1.375   5.534   2.519
 1352SOL    HW1 5852   1.318   5.487   2.458
 1352SOL    HW2 5853   1.461   5.495   2.506
 1352SOL     MW 5854   1.378   5.525   2.509
 1353SOL     OW 5855   1.328   4.010   2.650
 1353SOL    HW1 5856   1.356   3.942   2.711
 1353SOL    HW2 5857   1.242   3.981   2.620
 1353SOL     MW 5858   1.321   3.997   2.654
 1354SOL     OW 5859   0.133   4.944   2.584
 1354SOL    HW1 5860   0.197   4.976   2.647
 1354SOL    HW2 5861   0.182   4.880   2.532
 1354SOL     MW 5862   0.148   4.940   2.585
 1355SOL     OW 5863   0.633   5.020   3.566
 1355SOL    HW1 5864   0.681   5.103   3.553
 1355SOL    HW2 5865   0.690   4.968   3.622
 1355SOL     MW 5866   0.647   5.024   3.572
 1356SOL     OW 5867   0.209   5.262   3.706
 1356SOL    HW1 5868   0.265   5.186   3.721
 1356SOL    HW2 5869   0.158   5.240   3.628
 1356SOL     MW 5870   0.209   5.249   3.697
 1357SOL     OW 5871   1.308   4.114   1.985
 1357SOL    HW1 5872   1.281   4.180   1.921
 1357SOL    HW2 5873   1.378   4.157   2.035
 1357SOL     MW 5874   1.313   4.127   1.982
 1358SOL     OW 5875   0.976   3.819   1.922
 1358SOL    HW1 5876   1.032   3.811   1.844
 1358SOL    HW2 5877   0.953   3.729   1.944
 1358SOL     MW 5878   0.981   3.806   1.915
 1359SOL     OW 5879   1.481   4.670   2.127
 1359SOL    HW1 5880   1.448   4.759   2.117
 1359SOL    HW2 5881   1.446   4.641   2.212
 1359SOL     MW 5882   1.471   4.679   2.138
 1360SOL     OW 5883   1.094   5.099   3.315
 1360SOL    HW1 5884   1.005   5.105   3.283
 1360SOL    HW2 5885   1.138   5.178   3.283
 1360SOL     MW 5886   1.089   5.109   3.307
 1361SOL     OW 5887   0.387   3.767   3.657
 1361SOL    HW1 5888   0.315   3.732   3.605
 1361SOL    HW2 5889   0.445   3.808   3.592
 1361SOL     MW 5890   0.385   3.768   3.642
 1362SOL     OW 5891   0.411   5.257   2.956
 1362SOL    HW1 5892   0.456   5.319   3.013
 1362SOL    HW2 5893   0.318   5.276   2.969
 1362SOL     MW 5894   0.404   5.267   2.963
 1363SOL     OW 5895   1.851   4.786   3.310
 1363SOL    HW1 5896   1.766   4.799   3.269
 1363SOL    HW2 5897   1.831   4.750   3.397
 1363SOL     MW 5898   1.838   4.782   3.315
 1364SOL     OW 5899   0.833   5.325   3.064
 1364SOL    HW1 5900   0.857   5.314   2.973
 1364SOL    HW2 5901   0.756   5.382   3.062
 1364SOL     MW 5902   0.825   5.330   3.053
 1365SOL     OW 5903   0.475   4.708   1.919
 1365SOL    HW1 5904   0.398   4.721   1.975
 1365SOL    HW2 5905   0.439   4.672   1.838
 1365SOL     MW 5906   0.461   4.704   1.916
 1366SOL     OW 5907   1.128   4.681   2.162
 1366SOL    HW1 5908   1.038   4.702   2.137
 1366SOL    HW2 5909   1.155   4.754   2.218
 1366SOL     MW 5910   1.120   4.693   2.165
 1367SOL     OW 5911   0.628   5.030   2.854
 1367SOL    HW1 5912   0.621   5.009   2.948
 1367SOL    HW2 5913   0.546   4.998   2.817
 1367SOL     MW 5914   0.616   5.024   2.861
 1368SOL     OW 5915   1.492   4.040   3.256
 1368SOL    HW1 5916   1.439   4.042   3.336
 1368SOL    HW2 5917   1.477   3.953   3.219
 1368SOL     MW 5918   1.484   4.030   3.261
 1369SOL     OW 5919   1.828   3.964   3.129
 1369SOL    HW1 5920   1.809   4.031   3.064
 1369SOL    HW2 5921   1.885   3.902   3.084
 1369SOL     MW 5922   1.832   3.965   3.115
 1370SOL     OW 5923   0.074   5.122   3.517
 1370SOL    HW1 5924   0.118   5.055   3.463
 1370SOL    HW2 5925  -0.011   5.084   3.537
 1370SOL     MW 5926   0.069   5.108   3.513
 1371SOL     OW 5927   0.757   3.797   2.569
 1371SOL    HW1 5928   0.686   3.858   2.551
 1371SOL    HW2 5929   0.808   3.794   2.488
 1371SOL     MW 5930   0.753   3.803   2.556
 1372SOL     OW 5931   0.515   5.037   2.318
 1372SOL    HW1 5932   0.508   5.069   2.408
 1372SOL    HW2 5933   0.425   5.021   2.290
 1372SOL     MW 5934   0.503   5.039   2.325
 1373SOL     OW 5935   1.110   5.430   3.227
 1373SOL    HW1 5936   1.030   5.415   3.177
 1373SOL    HW2 5937   1.117   5.525   3.234
 1373SOL     MW 5938   1.101   5.441   3.221
 1374SOL     OW 5939   1.224   5.395   2.717
 1374SOL    HW1 5940   1.271   5.468   2.676
 1374SOL    HW2 5941   1.145   5.434   2.753
 1374SOL     MW 5942   1.219   5.410   2.716
 1375SOL     OW 5943   1.632   5.490   2.992
 1375SOL    HW1 5944   1.675   5.460   3.072
 1375SOL    HW2 5945   1.551   5.438   2.989
 1375SOL     MW 5946   1.627   5.479   3.002
 1376SOL     OW 5947   0.717   4.454   3.699
 1376SOL    HW1 5948   0.787   4.396   3.671
 1376SOL    HW2 5949   0.660   4.399   3.754
 1376SOL     MW 5950   0.719   4.441   3.703
 1377SOL     OW 5951   1.504   4.666   3.332
 1377SOL    HW1 5952   1.509   4.719   3.412
 1377SOL    HW2 5953   1.466   4.583   3.360
 1377SOL     MW 5954   1.500   4.661   3.347
 1378SOL     OW 5955   1.144   3.801   3.578
 1378SOL    HW1 5956   1.139   3.708   3.559
 1378SOL    HW2 5957   1.227   3.812   3.624
 1378SOL     MW 5958   1.152   3.790   3.582
 1379SOL     OW 5959   0.518   4.321   2.032
 1379SOL    HW1 5960   0.484   4.377   2.102
 1379SOL    HW2 5961   0.589   4.271   2.072
 1379SOL     MW 5962   0.524   4.322   2.046
 1380SOL     OW 5963   1.614   5.072   2.854
 1380SOL    HW1 5964   1.649   5.054   2.767
 1380SOL    HW2 5965   1.519   5.073   2.841
 1380SOL     MW 5966   1.606   5.069   2.841
 1381SOL     OW 5967   1.043   4.720   3.223
 1381SOL    HW1 5968   1.086   4.755   3.301
 1381SOL    HW2 5969   1.026   4.797   3.169
 1381SOL     MW 5970   1.046   4.735   3.226
 1382SOL     OW 5971   1.574   4.207   2.096
 1382SOL    HW1 5972   1.566   4.278   2.033
 1382SOL    HW2 5973   1.592   4.251   2.179
 1382SOL     MW 5974   1.575   4.221   2.098
 1383SOL     OW 5975   0.434   3.862   2.525
 1383SOL    HW1 5976   0.484   3.905   2.456
 1383SOL    HW2 5977   0.349   3.906   2.525
 1383SOL     MW 5978   0.431   3.875   2.516
 1384SOL     OW 5979   0.193   4.924   3.385
 1384SOL    HW1 5980   0.221   4.877   3.463
 1384SOL    HW2 5981   0.114   4.879   3.356
 1384SOL     MW 5982   0.186   4.913   3.391
 1385SOL     OW 5983   0.701   4.251   3.352
 1385SOL    HW1 5984   0.673   4.339   3.376
 1385SOL    HW2 5985   0.670   4.195   3.423
 1385SOL     MW 5986   0.693   4.254   3.364
 1386SOL     OW 5987   1.243   4.469   2.071
 1386SOL    HW1 5988   1.290   4.487   1.990
 1386SOL    HW2 5989   1.209   4.553   2.099
 1386SOL     MW 5990   1.245   4.483   2.064
 1387SOL     OW 5991   0.356   4.647   2.565
 1387SOL    HW1 5992   0.414   4.703   2.513
 1387SOL    HW2 5993   0.400   4.562   2.567
 1387SOL     MW 5994   0.369   4.644   2.558
 1388SOL     OW 5995   1.496   3.999   2.402
 1388SOL    HW1 5996   1.418   3.949   2.427
 1388SOL    HW2 5997   1.467   4.090   2.402
 1388SOL     MW 5998   1.482   4.003   2.405
 1389SOL     OW 5999   1.082   3.961   2.561
 1389SOL    HW1 6000   1.102   4.036   2.505
 1389SOL    HW2 6001   1.062   4.000   2.646
 1389SOL     MW 6002   1.083   3.977   2.565
 1390SOL     OW 6003   0.978   5.211   1.893
 1390SOL    HW1 6004   1.005   5.289   1.845
 1390SOL    HW2 6005   0.885   5.226   1.912
 1390SOL     MW 6006   0.969   5.224   1.889
 1391SOL     OW 6007   1.842   4.734   3.580
 1391SOL    HW1 6008   1.755   4.714   3.616
 1391SOL    HW2 6009   1.896   4.660   3.605
 1391SOL     MW 6010   1.837   4.723   3.588
 1392SOL     OW 6011   0.063   5.247   2.737
 1392SOL    HW1 6012   0.095   5.251   2.828
 1392SOL    HW2 6013  -0.032   5.255   2.745
 1392SOL     MW 6014   0.055   5.250   2.750
 1393SOL     OW 6015   0.018   4.373   2.284
 1393SOL    HW1 6016  -0.042   4.345   2.354
 1393SOL    HW2 6017   0.092   4.313   2.290
 1393SOL     MW 6018   0.020   4.362   2.293
 1394SOL     OW 6019   1.586   5.585   3.718
 1394SOL    HW1 6020   1.631   5.509   3.683
 1394SOL    HW2 6021   1.624   5.598   3.805
 1394SOL     MW 6022   1.596   5.578   3.724
 1395SOL     OW 6023   1.186   5.104   2.444
 1395SOL    HW1 6024   1.209   5.055   2.522
 1395SOL    HW2 6025   1.267   5.146   2.416
 1395SOL     MW 6026   1.199   5.104   2.451
 1396SOL     OW 6027   0.444   4.112   3.173
 1396SOL    HW1 6028   0.477   4.193   3.213
 1396SOL    HW2 6029   0.417   4.138   3.085
 1396SOL     MW 6030   0.443   4.126   3.167
 1397SOL     OW 6031   0.398   4.079   2.909
 1397SOL    HW1 6032   0.428   3.993   2.880
 1397SOL    HW2 6033   0.303   4.072   2.912
 1397SOL     MW 6034   0.390   4.068   2.907
 1398SOL     OW 6035   1.227   4.288   3.600
 1398SOL    HW1 6036   1.279   4.223   3.553
 1398SOL    HW2 6037   1.185   4.339   3.530
 1398SOL     MW 6038   1.228   4.285   3.583
 1399SOL     OW 6039   1.326   4.083   3.461
 1399SOL    HW1 6040   1.233   4.067   3.448
 1399SOL    HW2 6041   1.352   4.021   3.529
 1399SOL     MW 6042   1.316   4.073   3.468
 1400SOL     OW 6043   0.541   3.857   2.800
 1400SOL    HW1 6044   0.551   3.766   2.826
 1400SOL    HW2 6045   0.497   3.853   2.715
 1400SOL     MW 6046   0.537   3.845   2.792
 1401SOL     OW 6047   0.635   5.472   3.346
 1401SOL    HW1 6048   0.552   5.457   3.391
 1401SOL    HW2 6049   0.694   5.405   3.381
 1401SOL     MW 6050   0.633   5.462   3.356
 1402SOL     OW 6051   1.692   4.179   2.971
 1402SOL    HW1 6052   1.625   4.212   3.031
 1402SOL    HW2 6053   1.735   4.257   2.937
 1402SOL     MW 6054   1.690   4.194   2.975
 1403SOL     OW 6055   1.870   4.899   2.941
 1403SOL    HW1 6056   1.863   4.839   2.866
 1403SOL    HW2 6057   1.796   4.959   2.930
 1403SOL     MW 6058   1.860   4.899   2.930
 1404SOL     OW 6059   1.252   4.761   2.859
 1404SOL    HW1 6060   1.266   4.733   2.950
 1404SOL    HW2 6061   1.338   4.792   2.831
 1404SOL     MW 6062   1.265   4.762   2.868
 1405SOL     OW 6063   1.335   4.256   3.138
 1405SOL    HW1 6064   1.356   4.257   3.045
 1405SOL    HW2 6065   1.380   4.178   3.171
 1405SOL     MW 6066   1.342   4.246   3.130
 1406SOL     OW 6067   1.828   4.387   3.680
 1406SOL    HW1 6068   1.865   4.332   3.749
 1406SOL    HW2 6069   1.853   4.344   3.598
 1406SOL     MW 6070   1.835   4.375   3.679
 1407SOL     OW 6071   1.375   4.685   3.731
 1407SOL    HW1 6072   1.441   4.633   3.685
 1407SOL    HW2 6073   1.395   4.672   3.824
 1407SOL     MW 6074   1.386   4.676   3.738
 1408SOL     OW 6075   1.326   3.771   2.080
 1408SOL    HW1 6076   1.400   3.815   2.123
 1408SOL    HW2 6077   1.250   3.825   2.102
 1408SOL     MW 6078   1.326   3.783   2.088
 1409SOL     OW 6079   1.386   4.546   2.358
 1409SOL    HW1 6080   1.301   4.516   2.328
 1409SOL    HW2 6081   1.378   4.553   2.453
 1409SOL     MW 6082   1.374   4.544   2.367
 1410SOL     OW 6083   0.462   5.009   3.089
 1410SOL    HW1 6084   0.474   5.036   3.180
 1410SOL    HW2 6085   0.443   5.090   3.042
 1410SOL     MW 6086   0.461   5.024   3.094
 1411SOL     OW 6087   0.746   3.989   2.912
 1411SOL    HW1 6088   0.719   3.991   3.003
 1411SOL    HW2 6089   0.676   3.941   2.867
 1411SOL     MW 6090   0.734   3.985   2.919
 1412SOL     OW 6091   0.600   5.481   3.074
 1412SOL    HW1 6092   0.652   5.558   3.051
 1412SOL    HW2 6093   0.609   5.473   3.169
 1412SOL     MW 6094   0.609   5.488   3.085
 1413SOL     OW 6095   1.502   5.066   3.306
 1413SOL    HW1 6096   1.487   4.995   3.369
 1413SOL    HW2 6097   1.548   5.024   3.234
 1413SOL     MW 6098   1.508   5.050   3.306
 1414SOL     OW 6099   0.576   4.797   3.423
 1414SOL    HW1 6100   0.613   4.802   3.335
 1414SOL    HW2 6101   0.615   4.870   3.470
 1414SOL     MW 6102   0.586   4.807   3.418
 1415SOL     OW 6103   0.756   4.840   3.235
 1415SOL    HW1 6104   0.815   4.786   3.288
 1415SOL    HW2 6105   0.771   4.812   3.145
 1415SOL     MW 6106   0.766   4.829   3.231
 1416SOL     OW 6107   0.759   4.212   2.084
 1416SOL    HW1 6108   0.832   4.261   2.047
 1416SOL    HW2 6109   0.775   4.121   2.058
 1416SOL     MW 6110   0.771   4.207   2.077
 1417SOL     OW 6111   1.567   5.329   3.407
 1417SOL    HW1 6112   1.609   5.314   3.492
 1417SOL    HW2 6113   1.558   5.242   3.369
 1417SOL     MW 6114   1.571   5.317   3.414
 1418SOL     OW 6115   1.227   3.808   2.998
 1418SOL    HW1 6116   1.282   3.817   2.920
 1418SOL    HW2 6117   1.282   3.842   3.069
 1418SOL     MW 6118   1.241   3.813   2.997
 1419SOL     OW 6119   0.234   4.721   2.182
 1419SOL    HW1 6120   0.171   4.737   2.111
 1419SOL    HW2 6121   0.181   4.684   2.253
 1419SOL     MW 6122   0.219   4.718   2.182
 1420SOL     OW 6123   0.590   5.075   2.041
 1420SOL    HW1 6124   0.605   5.051   2.133
 1420SOL    HW2 6125   0.498   5.053   2.025
 1420SOL     MW 6126   0.580   5.068   2.051
 1421SOL     OW 6127   1.129   5.306   2.193
 1421SOL    HW1 6128   1.137   5.224   2.144
 1421SOL    HW2 6129   1.048   5.345   2.160
 1421SOL     MW 6130   1.119   5.301   2.183
 1422SOL     OW 6131   0.388   5.464   2.762
 1422SOL    HW1 6132   0.392   5.375   2.797
 1422SOL    HW2 6133   0.414   5.455   2.671
 1422SOL     MW 6134   0.391   5.452   2.754
 1423SOL     OW 6135   1.005   4.942   3.005
 1423SOL    HW1 6136   0.937   4.876   3.021
 1423SOL    HW2 6137   1.023   4.936   2.912
 1423SOL     MW 6138   0.998   4.933   2.996
 1424SOL     OW 6139   0.094   5.217   3.256
 1424SOL    HW1 6140   0.084   5.175   3.342
 1424SOL    HW2 6141   0.015   5.270   3.246
 1424SOL     MW 6142   0.083   5.218   3.267
 1425SOL     OW 6143   0.998   4.081   2.826
 1425SOL    HW1 6144   0.928   4.033   2.871
 1425SOL    HW2 6145   1.030   4.144   2.890
 1425SOL     MW 6146   0.993   4.083   2.840
 1426SOL     OW 6147   0.649   4.517   3.446
 1426SOL    HW1 6148   0.642   4.612   3.434
 1426SOL    HW2 6149   0.658   4.506   3.541
 1426SOL     MW 6150   0.650   4.529   3.456
 1427SOL     OW 6151   0.370   5.032   3.704
 1427SOL    HW1 6152   0.442   5.034   3.641
 1427SOL    HW2 6153   0.340   4.941   3.703
 1427SOL     MW 6154   0.375   5.021   3.696
 1428SOL     OW 6155   1.454   3.795   3.171
 1428SOL    HW1 6156   1.525   3.741   3.135
 1428SOL    HW2 6157   1.453   3.774   3.264
 1428SOL     MW 6158   1.463   3.786   3.179
 1429SOL     OW 6159   1.654   5.325   3.655
 1429SOL    HW1 6160   1.627   5.322   3.746
 1429SOL    HW2 6161   1.750   5.329   3.658
 1429SOL     MW 6162   1.664   5.325   3.667
 1430SOL     OW 6163   0.465   4.187   2.639
 1430SOL    HW1 6164   0.536   4.135   2.602
 1430SOL    HW2 6165   0.451   4.152   2.726
 1430SOL     MW 6166   0.473   4.176   2.646
 1431SOL     OW 6167   0.020   5.522   3.711
 1431SOL    HW1 6168   0.070   5.500   3.633
 1431SOL    HW2 6169   0.028   5.617   3.719
 1431SOL     MW 6170   0.028   5.531   3.702
 1432SOL     OW 6171   0.781   5.280   2.715
 1432SOL    HW1 6172   0.709   5.217   2.728
 1432SOL    HW2 6173   0.742   5.365   2.733
 1432SOL     MW 6174   0.765   5.283   2.718
 1433SOL     OW 6175   1.101   4.128   2.363
 1433SOL    HW1 6176   1.123   4.065   2.295
 1433SOL    HW2 6177   1.006   4.120   2.374
 1433SOL     MW 6178   1.091   4.119   2.355
 1434SOL     OW 6179   0.186   3.818   2.295
 1434SOL    HW1 6180   0.257   3.839   2.234
 1434SOL    HW2 6181   0.140   3.746   2.253
 1434SOL     MW 6182   0.190   3.812   2.281
 1435SOL     OW 6183   0.017   4.285   3.438
 1435SOL    HW1 6184   0.081   4.351   3.413
 1435SOL    HW2 6185  -0.064   4.312   3.395
 1435SOL     MW 6186   0.015   4.297   3.430
 1436SOL     OW 6187   1.755   5.192   2.395
 1436SOL    HW1 6188   1.725   5.125   2.456
 1436SOL    HW2 6189   1.849   5.198   2.409
 1436SOL     MW 6190   1.763   5.184   2.405
 1437SOL     OW 6191   1.311   4.869   2.325
 1437SOL    HW1 6192   1.283   4.955   2.358
 1437SOL    HW2 6193   1.339   4.885   2.235
 1437SOL     MW 6194   1.311   4.883   2.317
 1438SOL     OW 6195   0.973   3.789   2.378
 1438SOL    HW1 6196   1.010   3.848   2.443
 1438SOL    HW2 6197   0.950   3.845   2.304
 1438SOL     MW 6198   0.974   3.804   2.377
 1439SOL     OW 6199   1.826   4.671   2.800
 1439SOL    HW1 6200   1.817   4.703   2.711
 1439SOL    HW2 6201   1.779   4.587   2.800
 1439SOL     MW 6202   1.819   4.664   2.790
 1440SOL     OW 6203   0.202   4.511   3.379
 1440SOL    HW1 6204   0.223   4.580   3.317
 1440SOL    HW2 6205   0.282   4.458   3.384
 1440SOL     MW 6206   0.215   4.512   3.373
 1441SOL     OW 6207   1.738   4.602   2.501
 1441SOL    HW1 6208   1.832   4.591   2.489
 1441SOL    HW2 6209   1.714   4.674   2.442
 1441SOL     MW 6210   1.748   4.610   2.492
 1442SOL     OW 6211   0.187   4.526   3.646
 1442SOL    HW1 6212   0.113   4.470   3.672
 1442SOL    HW2 6213   0.182   4.529   3.551
 1442SOL     MW 6214   0.176   4.519   3.636
 1443SOL     OW 6215   0.353   3.813   3.096
 1443SOL    HW1 6216   0.396   3.897   3.116
 1443SOL    HW2 6217   0.426   3.751   3.089
 1443SOL     MW 6218   0.368   3.816   3.097
 1444SOL     OW 6219   0.394   4.480   2.274
 1444SOL    HW1 6220   0.394   4.575   2.259
 1444SOL    HW2 6221   0.471   4.464   2.328
 1444SOL     MW 6222   0.404   4.491   2.279
 1445SOL     OW 6223   1.170   4.339   3.338
 1445SOL    HW1 6224   1.206   4.312   3.254
 1445SOL    HW2 6225   1.083   4.373   3.317
 1445SOL     MW 6226   1.164   4.340   3.325
 1446SOL     OW 6227   0.153   4.211   2.563
 1446SOL    HW1 6228   0.215   4.218   2.636
 1446SOL    HW2 6229   0.153   4.118   2.540
 1446SOL     MW 6230   0.161   4.200   2.570
 1447SOL     OW 6231   1.700   5.551   2.095
 1447SOL    HW1 6232   1.767   5.584   2.035
 1447SOL    HW2 6233   1.657   5.630   2.129
 1447SOL     MW 6234   1.702   5.566   2.091
 1448SOL     OW 6235   0.835   4.472   3.047
 1448SOL    HW1 6236   0.793   4.390   3.023
 1448SOL    HW2 6237   0.836   4.471   3.143
 1448SOL     MW 6238   0.828   4.461   3.056
 1449SOL     OW 6239   1.506   5.605   3.446
 1449SOL    HW1 6240   1.509   5.511   3.429
 1449SOL    HW2 6241   1.529   5.613   3.538
 1449SOL     MW 6242   1.509   5.593   3.456
 1450SOL     OW 6243   0.639   3.942   3.152
 1450SOL    HW1 6244   0.570   4.005   3.173
 1450SOL    HW2 6245   0.666   3.906   3.237
 1450SOL     MW 6246   0.633   3.945   3.165
 1451SOL     OW 6247   0.022   4.783   2.021
 1451SOL    HW1 6248  -0.009   4.848   2.084
 1451SOL    HW2 6249  -0.029   4.705   2.040
 1451SOL     MW 6250   0.012   4.780   2.031
 1452SOL     OW 6251   1.434   3.795   2.769
 1452SOL    HW1 6252   1.522   3.804   2.806
 1452SOL    HW2 6253   1.444   3.736   2.695
 1452SOL     MW 6254   1.448   3.789   2.763
 1453SOL     OW 6255   1.466   4.534   2.613
 1453SOL    HW1 6256   1.546   4.549   2.562
 1453SOL    HW2 6257   1.459   4.439   2.619
 1453SOL     MW 6258   1.475   4.523   2.608
 1454SOL     OW 6259   0.606   5.583   1.963
 1454SOL    HW1 6260   0.511   5.583   1.955
 1454SOL    HW2 6261   0.622   5.529   2.041
 1454SOL     MW 6262   0.596   5.577   1.972
 1455SOL     OW 6263   0.916   4.460   3.310
 1455SOL    HW1 6264   0.985   4.527   3.307
 1455SOL    HW2 6265   0.849   4.498   3.366
 1455SOL     MW 6266   0.917   4.473   3.317
 1456SOL     OW 6267   0.334   4.760   3.558
 1456SOL    HW1 6268   0.288   4.676   3.560
 1456SOL    HW2 6269   0.391   4.754   3.482
 1456SOL     MW 6270   0.336   4.748   3.550
 1457SOL     OW 6271   1.451   4.403   1.879
 1457SOL    HW1 6272   1.379   4.379   1.821
 1457SOL    HW2 6273   1.517   4.440   1.821
 1457SOL     MW 6274   1.450   4.405   1.864
 1458SOL     OW 6275   0.585   5.135   2.559
 1458SOL    HW1 6276   0.650   5.068   2.580
 1458SOL    HW2 6277   0.637   5.212   2.536
 1458SOL     MW 6278   0.600   5.137   2.558
 1459SOL     OW 6279   0.846   4.300   2.689
 1459SOL    HW1 6280   0.786   4.318   2.761
 1459SOL    HW2 6281   0.880   4.212   2.708
 1459SOL     MW 6282   0.842   4.290   2.702
 1460SOL     OW 6283   1.787   3.799   3.358
 1460SOL    HW1 6284   1.708   3.845   3.386
 1460SOL    HW2 6285   1.822   3.853   3.287
 1460SOL     MW 6286   1.781   3.812   3.352
 1461SOL     OW 6287   1.071   4.883   2.708
 1461SOL    HW1 6288   1.163   4.864   2.726
 1461SOL    HW2 6289   1.044   4.813   2.648
 1461SOL     MW 6290   1.079   4.871   2.702
 1462SOL     OW 6291   0.864   4.703   2.063
 1462SOL    HW1 6292   0.850   4.615   2.028
 1462SOL    HW2 6293   0.815   4.760   2.004
 1462SOL     MW 6294   0.856   4.698   2.051
 1463SOL     OW 6295   1.345   5.121   2.804
 1463SOL    HW1 6296   1.318   5.205   2.769
 1463SOL    HW2 6297   1.305   5.116   2.891
 1463SOL     MW 6298   1.338   5.130   2.810
 1464SOL     OW 6299   1.264   5.069   3.072
 1464SOL    HW1 6300   1.275   5.036   3.161
 1464SOL    HW2 6301   1.183   5.028   3.041
 1464SOL     MW 6302   1.254   5.061   3.078
 1465SOL     OW 6303   0.277   4.427   2.842
 1465SOL    HW1 6304   0.227   4.426   2.923
 1465SOL    HW2 6305   0.297   4.519   2.826
 1465SOL     MW 6306   0.273   4.439   2.850
 1466SOL     OW 6307   1.344   5.191   3.604
 1466SOL    HW1 6308   1.344   5.285   3.620
 1466SOL    HW2 6309   1.389   5.181   3.520
 1466SOL     MW 6310   1.350   5.201   3.595
 1467SOL     OW 6311   1.583   3.909   2.165
 1467SOL    HW1 6312   1.576   3.913   2.260
 1467SOL    HW2 6313   1.595   4.000   2.138
 1467SOL     MW 6314   1.584   3.922   2.173
 1468SOL     OW 6315   0.872   4.472   2.279
 1468SOL    HW1 6316   0.852   4.458   2.186
 1468SOL    HW2 6317   0.965   4.451   2.286
 1468SOL     MW 6318   0.882   4.467   2.268
 1469SOL     OW 6319   0.199   4.095   3.583
 1469SOL    HW1 6320   0.156   4.154   3.520
 1469SOL    HW2 6321   0.267   4.150   3.623
 1469SOL     MW 6322   0.203   4.110   3.580
 1470SOL     OW 6323   1.311   4.715   3.128
 1470SOL    HW1 6324   1.374   4.712   3.201
 1470SOL    HW2 6325   1.227   4.733   3.170
 1470SOL     MW 6326   1.307   4.717   3.143
 1471SOL     OW 6327   0.855   5.430   2.317
 1471SOL    HW1 6328   0.913   5.501   2.344
 1471SOL    HW2 6329   0.878   5.358   2.375
 1471SOL     MW 6330   0.866   5.430   2.328
 1472SOL     OW 6331   1.650   3.892   2.907
 1472SOL    HW1 6332   1.695   3.810   2.926
 1472SOL    HW2 6333   1.670   3.948   2.983
 1472SOL     MW 6334   1.660   3.888   2.919
 1473SOL     OW 6335   0.098   3.735   3.006
 1473SOL    HW1 6336   0.089   3.736   2.911
 1473SOL    HW2 6337   0.192   3.747   3.021
 1473SOL     MW 6338   0.110   3.738   2.997
 1474SOL     OW 6339   1.735   4.928   2.626
 1474SOL    HW1 6340   1.714   4.874   2.549
 1474SOL    HW2 6341   1.831   4.926   2.630
 1474SOL     MW 6342   1.744   4.921   2.615
 1475SOL     OW 6343   0.427   5.073   3.369
 1475SOL    HW1 6344   0.348   5.023   3.392
 1475SOL    HW2 6345   0.497   5.032   3.419
 1475SOL     MW 6346   0.425   5.061   3.379
 1476SOL     OW 6347   0.311   3.862   2.052
 1476SOL    HW1 6348   0.240   3.917   2.020
 1476SOL    HW2 6349   0.353   3.828   1.973
 1476SOL     MW 6350   0.307   3.864   2.038
 1477SOL     OW 6351   1.435   4.359   2.888
 1477SOL    HW1 6352   1.358   4.405   2.854
 1477SOL    HW2 6353   1.492   4.428   2.922
 1477SOL     MW 6354   1.432   4.374   2.888
 1478SOL     OW 6355   0.067   3.961   1.901
 1478SOL    HW1 6356   0.034   4.040   1.945
 1478SOL    HW2 6357   0.122   3.994   1.830
 1478SOL     MW 6358   0.070   3.975   1.898
 1479SOL     OW 6359   0.101   5.218   2.090
 1479SOL    HW1 6360   0.118   5.302   2.132
 1479SOL    HW2 6361   0.136   5.227   2.002
 1479SOL     MW 6362   0.106   5.231   2.084
 1480SOL     OW 6363   1.373   5.307   2.307
 1480SOL    HW1 6364   1.436   5.297   2.236
 1480SOL    HW2 6365   1.290   5.327   2.262
 1480SOL     MW 6366   1.370   5.308   2.292
 1481SOL     OW 6367   1.736   4.575   3.993
 1481SOL    HW1 6368   1.777   4.517   4.058
 1481SOL    HW2 6369   1.643   4.567   4.010
 1481SOL     MW 6370   1.730   4.567   4.003
 1482SOL     OW 6371   0.530   4.758   4.222
 1482SOL    HW1 6372   0.620   4.733   4.206
 1482SOL    HW2 6373   0.526   4.851   4.199
 1482SOL     MW 6374   0.542   4.767   4.217
 1483SOL     OW 6375   1.646   5.461   4.364
 1483SOL    HW1 6376   1.658   5.407   4.442
 1483SOL    HW2 6377   1.683   5.409   4.293
 1483SOL     MW 6378   1.652   5.446   4.365
 1484SOL     OW 6379   0.814   4.214   4.235
 1484SOL    HW1 6380   0.789   4.302   4.263
 1484SOL    HW2 6381   0.811   4.217   4.139
 1484SOL     MW 6382   0.810   4.226   4.227
 1485SOL     OW 6383   0.256   4.242   4.163
 1485SOL    HW1 6384   0.288   4.330   4.145
 1485SOL    HW2 6385   0.244   4.240   4.258
 1485SOL     MW 6386   0.259   4.254   4.175
 1486SOL     OW 6387   0.655   3.997   4.250
 1486SOL    HW1 6388   0.713   4.073   4.252
 1486SOL    HW2 6389   0.590   4.018   4.183
 1486SOL     MW 6390   0.654   4.009   4.241
 1487SOL     OW 6391   0.742   4.924   4.425
 1487SOL    HW1 6392   0.822   4.927   4.477
 1487SOL    HW2 6393   0.770   4.891   4.339
 1487SOL     MW 6394   0.756   4.920   4.420
 1488SOL     OW 6395   1.369   4.906   3.941
 1488SOL    HW1 6396   1.287   4.942   3.907
 1488SOL    HW2 6397   1.437   4.949   3.890
 1488SOL     MW 6398   1.367   4.916   3.929
 1489SOL     OW 6399   0.921   5.047   4.134
 1489SOL    HW1 6400   0.898   5.109   4.202
 1489SOL    HW2 6401   0.878   4.965   4.160
 1489SOL     MW 6402   0.913   5.043   4.145
 1490SOL     OW 6403   0.418   4.020   4.102
 1490SOL    HW1 6404   0.392   3.982   4.018
 1490SOL    HW2 6405   0.355   4.090   4.118
 1490SOL     MW 6406   0.407   4.023   4.093
 1491SOL     OW 6407   0.253   4.981   4.139
 1491SOL    HW1 6408   0.201   5.049   4.095
 1491SOL    HW2 6409   0.250   4.907   4.079
 1491SOL     MW 6410   0.245   4.980   4.126
 1492SOL     OW 6411   0.915   5.444   3.917
 1492SOL    HW1 6412   0.870   5.460   4.000
 1492SOL    HW2 6413   0.846   5.409   3.859
 1492SOL     MW 6414   0.901   5.441   3.919
 1493SOL     OW 6415   1.850   4.217   3.892
 1493SOL    HW1 6416   1.759   4.219   3.920
 1493SOL    HW2 6417   1.895   4.279   3.950
 1493SOL     MW 6418   1.843   4.225   3.902
 1494SOL     OW 6419   1.595   4.820   4.242
 1494SOL    HW1 6420   1.505   4.820   4.277
 1494SOL    HW2 6421   1.588   4.866   4.159
 1494SOL     MW 6422   1.582   4.826   4.236
 1495SOL     OW 6423   1.122   4.401   4.203
 1495SOL    HW1 6424   1.148   4.425   4.114
 1495SOL    HW2 6425   1.104   4.308   4.199
 1495SOL     MW 6426   1.124   4.393   4.190
 1496SOL     OW 6427   1.787   5.021   4.054
 1496SOL    HW1 6428   1.743   5.062   4.129
 1496SOL    HW2 6429   1.844   5.089   4.019
 1496SOL     MW 6430   1.789   5.035   4.059
 1497SOL     OW 6431   0.443   5.437   4.372
 1497SOL    HW1 6432   0.475   5.525   4.350
 1497SOL    HW2 6433   0.396   5.409   4.294
 1497SOL     MW 6434   0.442   5.445   4.359
 1498SOL     OW 6435   1.827   3.799   4.421
 1498SOL    HW1 6436   1.881   3.750   4.483
 1498SOL    HW2 6437   1.770   3.733   4.382
 1498SOL     MW 6438   1.827   3.783   4.423
 1499SOL     OW 6439   0.159   5.497   3.949
 1499SOL    HW1 6440   0.188   5.587   3.941
 1499SOL    HW2 6441   0.109   5.480   3.870
 1499SOL     MW 6442   0.157   5.505   3.938
 1500SOL     OW 6443   1.563   5.305   3.920
 1500SOL    HW1 6444   1.611   5.374   3.966
 1500SOL    HW2 6445   1.484   5.349   3.889
 1500SOL     MW 6446   1.558   5.319   3.923
 1501SOL     OW 6447   0.961   4.430   3.864
 1501SOL    HW1 6448   0.963   4.377   3.785
 1501SOL    HW2 6449   1.049   4.467   3.870
 1501SOL     MW 6450   0.973   4.429   3.853
 1502SOL     OW 6451   1.575   4.356   4.200
 1502SOL    HW1 6452   1.614   4.356   4.287
 1502SOL    HW2 6453   1.516   4.432   4.200
 1502SOL     MW 6454   1.572   4.367   4.211
 1503SOL     OW 6455   1.762   4.242   4.366
 1503SOL    HW1 6456   1.851   4.211   4.383
 1503SOL    HW2 6457   1.705   4.182   4.414
 1503SOL     MW 6458   1.765   4.230   4.375
 1504SOL     OW 6459   0.188   3.956   4.395
 1504SOL    HW1 6460   0.179   3.896   4.321
 1504SOL    HW2 6461   0.121   3.927   4.458
 1504SOL     MW 6462   0.178   3.943   4.393
 1505SOL     OW 6463   1.131   5.049   3.956
 1505SOL    HW1 6464   1.081   5.051   4.038
 1505SOL    HW2 6465   1.065   5.067   3.888
 1505SOL     MW 6466   1.117   5.051   3.958
 1506SOL     OW 6467   0.594   5.467   4.064
 1506SOL    HW1 6468   0.515   5.425   4.097
 1506SOL    HW2 6469   0.660   5.450   4.131
 1506SOL     MW 6470   0.593   5.459   4.077
 1507SOL     OW 6471   0.730   4.882   3.771
 1507SOL    HW1 6472   0.652   4.828   3.758
 1507SOL    HW2 6473   0.701   4.955   3.824
 1507SOL     MW 6474   0.716   4.884   3.776
 1508SOL     OW 6475   1.311   5.398   3.839
 1508SOL    HW1 6476   1.237   5.361   3.889
 1508SOL    HW2 6477   1.319   5.488   3.872
 1508SOL     MW 6478   1.302   5.405   3.851
 1509SOL     OW 6479   1.535   5.072   3.781
 1509SOL    HW1 6480   1.482   5.121   3.717
 1509SOL    HW2 6481   1.566   5.138   3.842
 1509SOL     MW 6482   1.533   5.086   3.779
 1510SOL     OW 6483   0.760   3.961   3.836
 1510SOL    HW1 6484   0.708   3.881   3.824
 1510SOL    HW2 6485   0.847   3.938   3.804
 1510SOL     MW 6486   0.763   3.947   3.830
 1511SOL     OW 6487   0.121   4.601   4.293
 1511SOL    HW1 6488   0.212   4.616   4.320
 1511SOL    HW2 6489   0.124   4.522   4.239
 1511SOL     MW 6490   0.133   4.593   4.291
 1512SOL     OW 6491   0.129   5.213   4.332
 1512SOL    HW1 6492   0.101   5.252   4.414
 1512SOL    HW2 6493   0.149   5.122   4.354
 1512SOL     MW 6494   0.127   5.205   4.345
 1513SOL     OW 6495   0.962   5.256   4.367
 1513SOL    HW1 6496   1.045   5.210   4.351
 1513SOL    HW2 6497   0.952   5.255   4.463
 1513SOL     MW 6498   0.972   5.249   4.377
 1514SOL     OW 6499   0.695   5.313   3.772
 1514SOL    HW1 6500   0.635   5.382   3.742
 1514SOL    HW2 6501   0.640   5.255   3.825
 1514SOL     MW 6502   0.679   5.315   3.774
 1515SOL     OW 6503   1.133   3.958   3.995
 1515SOL    HW1 6504   1.066   3.934   3.932
 1515SOL    HW2 6505   1.198   4.007   3.944
 1515SOL     MW 6506   1.133   3.960   3.980
 1516SOL     OW 6507   1.070   4.462   4.459
 1516SOL    HW1 6508   1.007   4.394   4.483
 1516SOL    HW2 6509   1.090   4.443   4.367
 1516SOL     MW 6510   1.064   4.449   4.451
 1517SOL     OW 6511   0.326   5.357   4.161
 1517SOL    HW1 6512   0.287   5.404   4.087
 1517SOL    HW2 6513   0.260   5.292   4.186
 1517SOL     MW 6514   0.313   5.355   4.155
 1518SOL     OW 6515   0.818   4.766   4.185
 1518SOL    HW1 6516   0.820   4.740   4.092
 1518SOL    HW2 6517   0.876   4.703   4.228
 1518SOL     MW 6518   0.826   4.755   4.179
 1519SOL     OW 6519   1.375   5.534   4.387
 1519SOL    HW1 6520   1.318   5.487   4.326
 1519SOL    HW2 6521   1.461   5.495   4.374
 1519SOL     MW 6522   1.378   5.525   4.377
 1520SOL     OW 6523   0.133   4.944   4.452
 1520SOL    HW1 6524   0.197   4.976   4.515
 1520SOL    HW2 6525   0.182   4.880   4.400
 1520SOL     MW 6526   0.148   4.940   4.453
 1521SOL     OW 6527   1.308   4.114   3.853
 1521SOL    HW1 6528   1.281   4.180   3.789
 1521SOL    HW2 6529   1.378   4.157   3.903
 1521SOL     MW 6530   1.313   4.127   3.850
 1522SOL     OW 6531   0.976   3.819   3.790
 1522SOL    HW1 6532   1.032   3.811   3.712
 1522SOL    HW2 6533   0.953   3.729   3.812
 1522SOL     MW 6534   0.981   3.806   3.783
 1523SOL     OW 6535   1.481   4.670   3.995
 1523SOL    HW1 6536   1.448   4.759   3.985
 1523SOL    HW2 6537   1.446   4.641   4.080
 1523SOL     MW 6538   1.471   4.679   4.006
 1524SOL     OW 6539   0.475   4.708   3.787
 1524SOL    HW1 6540   0.398   4.721   3.843
 1524SOL    HW2 6541   0.439   4.672   3.706
 1524SOL     MW 6542   0.461   4.704   3.784
 1525SOL     OW 6543   1.128   4.681   4.030
 1525SOL    HW1 6544   1.038   4.702   4.005
 1525SOL    HW2 6545   1.155   4.754   4.086
 1525SOL     MW 6546   1.120   4.693   4.033
 1526SOL     OW 6547   0.757   3.797   4.437
 1526SOL    HW1 6548   0.686   3.858   4.419
 1526SOL    HW2 6549   0.808   3.794   4.356
 1526SOL     MW 6550   0.753   3.803   4.424
 1527SOL     OW 6551   0.515   5.037   4.186
 1527SOL    HW1 6552   0.508   5.069   4.276
 1527SOL    HW2 6553   0.425   5.021   4.158
 1527SOL     MW 6554   0.503   5.039   4.193
 1528SOL     OW 6555   0.518   4.321   3.900
 1528SOL    HW1 6556   0.484   4.377   3.970
 1528SOL    HW2 6557   0.589   4.271   3.940
 1528SOL     MW 6558   0.524   4.322   3.914
 1529SOL     OW 6559   1.574   4.207   3.964
 1529SOL    HW1 6560   1.566   4.278   3.901
 1529SOL    HW2 6561   1.592   4.251   4.047
 1529SOL     MW 6562   1.575   4.221   3.966
 1530SOL     OW 6563   0.434   3.862   4.393
 1530SOL    HW1 6564   0.484   3.905   4.324
 1530SOL    HW2 6565   0.349   3.906   4.393
 1530SOL     MW 6566   0.431   3.875   4.384
 1531SOL     OW 6567   1.243   4.469   3.939
 1531SOL    HW1 6568   1.290   4.487   3.858
 1531SOL    HW2 6569   1.209   4.553   3.967
 1531SOL     MW 6570   1.245   4.483   3.932
 1532SOL     OW 6571   0.356   4.647   4.433
 1532SOL    HW1 6572   0.414   4.703   4.381
 1532SOL    HW2 6573   0.400   4.562   4.435
 1532SOL     MW 6574   0.369   4.644   4.426
 1533SOL     OW 6575   1.496   3.999   4.270
 1533SOL    HW1 6576   1.418   3.949   4.295
 1533SOL    HW2 6577   1.467   4.090   4.270
 1533SOL     MW 6578   1.482   4.003   4.273
 1534SOL     OW 6579   1.082   3.961   4.429
 1534SOL    HW1 6580   1.102   4.036   4.373
 1534SOL    HW2 6581   1.062   4.000   4.514
 1534SOL     MW 6582   1.083   3.977   4.433
 1535SOL     OW 6583   0.978   5.211   3.761
 1535SOL    HW1 6584   1.005   5.289   3.713
 1535SOL    HW2 6585   0.885   5.226   3.780
 1535SOL     MW 6586   0.969   5.224   3.757
 1536SOL     OW 6587   0.018   4.373   4.152
 1536SOL    HW1 6588  -0.042   4.345   4.222
 1536SOL    HW2 6589   0.092   4.313   4.158
 1536SOL     MW 6590   0.020   4.362   4.161
 1537SOL     OW 6591   1.186   5.104   4.312
 1537SOL    HW1 6592   1.209   5.055   4.390
 1537SOL    HW2 6593   1.267   5.146   4.284
 1537SOL     MW 6594   1.199   5.104   4.319
 1538SOL     OW 6595   1.326   3.771   3.948
 1538SOL    HW1 6596   1.400   3.815   3.991
 1538SOL    HW2 6597   1.250   3.825   3.970
 1538SOL     MW 6598   1.326   3.783   3.956
 1539SOL     OW 6599   1.386   4.546   4.226
 1539SOL    HW1 6600   1.301   4.516   4.196
 1539SOL    HW2 6601   1.378   4.553   4.321
 1539SOL     MW 6602   1.374   4.544   4.235
 1540SOL     OW 6603   0.759   4.212   3.952
 1540SOL    HW1 6604   0.832   4.261   3.915
 1540SOL    HW2 6605   0.775   4.121   3.926
 1540SOL     MW 6606   0.771   4.207   3.945
 1541SOL     OW 6607   0.234   4.721   4.050
 1541SOL    HW1 6608   0.171   4.737   3.979
 1541SOL    HW2 6609   0.181   4.684   4.121
 1541SOL     MW 6610   0.219   4.718   4.050
 1542SOL     OW 6611   0.590   5.075   3.909
 1542SOL    HW1 6612   0.605   5.051   4.001
 1542SOL    HW2 6613   0.498   5.053   3.893
 1542SOL     MW 6614   0.580   5.068   3.919
 1543SOL     OW 6615   1.129   5.306   4.061
 1543SOL    HW1 6616   1.137   5.224   4.012
 1543SOL    HW2 6617   1.048   5.345   4.028
 1543SOL     MW 6618   1.119   5.301   4.051
 1544SOL     OW 6619   1.101   4.128   4.231
 1544SOL    HW1 6620   1.123   4.065   4.163
 1544SOL    HW2 6621   1.006   4.120   4.242
 1544SOL     MW 6622   1.091   4.119   4.223
 1545SOL     OW 6623   0.186   3.818   4.163
 1545SOL    HW1 6624   0.257   3.839   4.102
 1545SOL    HW2 6625   0.140   3.746   4.121
 1545SOL     MW 6626   0.190   3.812   4.149
 1546SOL     OW 6627   1.755   5.192   4.263
 1546SOL    HW1 6628   1.725   5.125   4.324
 1546SOL    HW2 6629   1.849   5.198   4.277
 1546SOL     MW 6630   1.763   5.184   4.273
 1547SOL     OW 6631   1.311   4.869   4.193
 1547SOL    HW1 6632   1.283   4.955   4.226
 1547SOL    HW2 6633   1.339   4.885   4.103
 1547SOL     MW 6634   1.311   4.883   4.185
 1548SOL     OW 6635   0.973   3.789   4.246
 1548SOL    HW1 6636   1.010   3.848   4.311
 1548SOL    HW2 6637   0.950   3.845   4.172
 1548SOL     MW 6638   0.974   3.804   4.245
 1549SOL     OW 6639   1.738   4.602   4.369
 1549SOL    HW1 6640   1.832   4.591   4.357
 1549SOL    HW2 6641   1.714   4.674   4.310
 1549SOL     MW 6642   1.748   4.610   4.360
 1550SOL     OW 6643   0.394   4.480   4.142
 1550SOL    HW1 6644   0.394   4.575   4.127
 1550SOL    HW2 6645   0.471   4.464   4.196
 1550SOL     MW 6646   0.404   4.491   4.147
 1551SOL     OW 6647   0.153   4.211   4.431
 1551SOL    HW1 6648   0.215   4.218   4.504
 1551SOL    HW2 6649   0.153   4.118   4.408
 1551SOL     MW 6650   0.161   4.200   4.438
 1552SOL     OW 6651   1.700   5.551   3.963
 1552SOL    HW1 6652   1.767   5.584   3.903
 1552SOL    HW2 6653   1.657   5.630   3.997
 1552SOL     MW 6654   1.702   5.566   3.959
 1553SOL     OW 6655   0.022   4.783   3.889
 1553SOL    HW1 6656  -0.009   4.848   3.952
 1553SOL    HW2 6657  -0.029   4.705   3.908
 1553SOL     MW 6658   0.012   4.780   3.899
 1554SOL     OW 6659   0.606   5.583   3.831
 1554SOL    HW1 6660   0.511   5.583   3.823
 1554SOL    HW2 6661   0.622   5.529   3.909
 1554SOL     MW 6662   0.596   5.577   3.840
 1555SOL     OW 6663   1.451   4.403   3.747
 1555SOL    HW1 6664   1.379   4.379   3.689
 1555SOL    HW2 6665   1.517   4.440   3.689
 1555SOL     MW 6666   1.450   4.405   3.732
 1556SOL     OW 6667   0.585   5.135   4.427
 1556SOL    HW1 6668   0.650   5.068   4.448
 1556SOL    HW2 6669   0.637   5.212   4.404
 1556SOL     MW 6670   0.600   5.137   4.426
 1557SOL     OW 6671   0.864   4.703   3.931
 1557SOL    HW1 6672   0.850   4.615   3.896
 1557SOL    HW2 6673   0.815   4.760   3.872
 1557SOL     MW 6674   0.856   4.698   3.919
 1558SOL     OW 6675   1.583   3.909   4.033
 1558SOL    HW1 6676   1.576   3.913   4.128
 1558SOL    HW2 6677   1.595   4.000   4.006
 1558SOL     MW 6678   1.584   3.922   4.041
 1559SOL     OW 6679   0.872   4.472   4.147
 1559SOL    HW1 6680   0.852   4.458   4.054
 1559SOL    HW2 6681   0.965   4.451   4.154
 1559SOL     MW 6682   0.882   4.467   4.136
 1560SOL     OW 6683   0.855   5.430   4.185
 1560SOL    HW1 6684   0.913   5.501   4.212
 1560SOL    HW2 6685   0.878   5.358   4.243
 1560SOL     MW 6686   0.866   5.430   4.196
 1561SOL     OW 6687   0.311   3.862   3.920
 1561SOL    HW1 6688   0.240   3.917   3.888
 1561SOL    HW2 6689   0.353   3.828   3.841
 1561SOL     MW 6690   0.307   3.864   3.906
 1562SOL     OW 6691   0.067   3.961   3.769
 1562SOL    HW1 6692   0.034   4.040   3.813
 1562SOL    HW2 6693   0.122   3.994   3.698
 1562SOL     MW 6694   0.070   3.975   3.766
 1563SOL     OW 6695   0.101   5.218   3.958
 1563SOL    HW1 6696   0.118   5.302   4.000
 1563SOL    HW2 6697   0.136   5.227   3.870
 1563SOL     MW 6698   0.106   5.231   3.952
 1564SOL     OW 6699   1.373   5.307   4.175
 1564SOL    HW1 6700   1.436   5.297   4.104
 1564SOL    HW2 6701   1.290   5.327   4.130
 1564SOL     MW 6702   1.370   5.308   4.160
 1565SOL     OW 6703   0.655   5.866   0.514
 1565SOL    HW1 6704   0.713   5.942   0.516
 1565SOL    HW2 6705   0.590   5.887   0.447
 1565SOL     MW 6706   0.654   5.878   0.505
 1566SOL     OW 6707   0.927   6.135   1.771
 1566SOL    HW1 6708   1.017   6.136   1.738
 1566SOL    HW2 6709   0.886   6.060   1.729
 1566SOL     MW 6710   0.933   6.125   1.762
 1567SOL     OW 6711   0.707   5.939   1.721
 1567SOL    HW1 6712   0.717   5.865   1.661
 1567SOL    HW2 6713   0.743   5.908   1.804
 1567SOL     MW 6714   0.713   5.925   1.723
 1568SOL     OW 6715   1.827   5.668   0.685
 1568SOL    HW1 6716   1.881   5.619   0.747
 1568SOL    HW2 6717   1.770   5.602   0.646
 1568SOL     MW 6718   1.827   5.652   0.687
 1569SOL     OW 6719   0.946   5.621   1.098
 1569SOL    HW1 6720   0.905   5.699   1.060
 1569SOL    HW2 6721   1.040   5.639   1.093
 1569SOL     MW 6722   0.952   5.633   1.093
 1570SOL     OW 6723   0.972   5.729   1.353
 1570SOL    HW1 6724   0.978   5.691   1.266
 1570SOL    HW2 6725   0.961   5.823   1.338
 1570SOL     MW 6726   0.973   5.737   1.341
 1571SOL     OW 6727   0.188   5.825   0.659
 1571SOL    HW1 6728   0.179   5.765   0.585
 1571SOL    HW2 6729   0.121   5.796   0.722
 1571SOL     MW 6730   0.178   5.812   0.657
 1572SOL     OW 6731   0.743   5.728   1.518
 1572SOL    HW1 6732   0.720   5.636   1.520
 1572SOL    HW2 6733   0.829   5.730   1.475
 1572SOL     MW 6734   0.750   5.718   1.514
 1573SOL     OW 6735   1.404   5.777   1.828
 1573SOL    HW1 6736   1.460   5.704   1.854
 1573SOL    HW2 6737   1.374   5.815   1.910
 1573SOL     MW 6738   1.408   5.772   1.841
 1574SOL     OW 6739   0.976   5.688   0.054
 1574SOL    HW1 6740   1.032   5.680  -0.024
 1574SOL    HW2 6741   0.953   5.598   0.076
 1574SOL     MW 6742   0.981   5.675   0.047
 1575SOL     OW 6743   0.387   5.636   1.789
 1575SOL    HW1 6744   0.315   5.601   1.737
 1575SOL    HW2 6745   0.445   5.677   1.724
 1575SOL     MW 6746   0.385   5.637   1.774
 1576SOL     OW 6747   0.757   5.666   0.701
 1576SOL    HW1 6748   0.686   5.727   0.683
 1576SOL    HW2 6749   0.808   5.663   0.620
 1576SOL     MW 6750   0.753   5.672   0.688
 1577SOL     OW 6751   1.144   5.670   1.710
 1577SOL    HW1 6752   1.139   5.577   1.691
 1577SOL    HW2 6753   1.227   5.681   1.756
 1577SOL     MW 6754   1.152   5.659   1.714
 1578SOL     OW 6755   0.434   5.731   0.657
 1578SOL    HW1 6756   0.484   5.774   0.588
 1578SOL    HW2 6757   0.349   5.775   0.657
 1578SOL     MW 6758   0.431   5.744   0.648
 1579SOL     OW 6759   1.496   5.868   0.534
 1579SOL    HW1 6760   1.418   5.818   0.559
 1579SOL    HW2 6761   1.467   5.959   0.534
 1579SOL     MW 6762   1.482   5.872   0.537
 1580SOL     OW 6763   1.082   5.830   0.693
 1580SOL    HW1 6764   1.102   5.905   0.637
 1580SOL    HW2 6765   1.062   5.869   0.778
 1580SOL     MW 6766   1.083   5.846   0.697
 1581SOL     OW 6767   0.398   5.948   1.041
 1581SOL    HW1 6768   0.428   5.862   1.012
 1581SOL    HW2 6769   0.303   5.941   1.044
 1581SOL     MW 6770   0.390   5.937   1.039
 1582SOL     OW 6771   1.326   5.952   1.593
 1582SOL    HW1 6772   1.233   5.936   1.580
 1582SOL    HW2 6773   1.352   5.890   1.661
 1582SOL     MW 6774   1.316   5.942   1.600
 1583SOL     OW 6775   0.541   5.726   0.932
 1583SOL    HW1 6776   0.551   5.635   0.958
 1583SOL    HW2 6777   0.497   5.722   0.847
 1583SOL     MW 6778   0.537   5.714   0.924
 1584SOL     OW 6779   1.326   5.640   0.212
 1584SOL    HW1 6780   1.400   5.684   0.255
 1584SOL    HW2 6781   1.250   5.694   0.234
 1584SOL     MW 6782   1.326   5.652   0.220
 1585SOL     OW 6783   0.746   5.858   1.044
 1585SOL    HW1 6784   0.719   5.860   1.135
 1585SOL    HW2 6785   0.676   5.810   0.999
 1585SOL     MW 6786   0.734   5.854   1.051
 1586SOL     OW 6787   1.227   5.677   1.130
 1586SOL    HW1 6788   1.282   5.686   1.052
 1586SOL    HW2 6789   1.282   5.711   1.201
 1586SOL     MW 6790   1.241   5.682   1.129
 1587SOL     OW 6791   1.454   5.664   1.303
 1587SOL    HW1 6792   1.525   5.610   1.267
 1587SOL    HW2 6793   1.453   5.643   1.396
 1587SOL     MW 6794   1.463   5.655   1.311
 1588SOL     OW 6795   0.186   5.687   0.427
 1588SOL    HW1 6796   0.257   5.708   0.366
 1588SOL    HW2 6797   0.140   5.615   0.385
 1588SOL     MW 6798   0.190   5.681   0.413
 1589SOL     OW 6799   0.973   5.658   0.510
 1589SOL    HW1 6800   1.010   5.717   0.575
 1589SOL    HW2 6801   0.950   5.714   0.436
 1589SOL     MW 6802   0.974   5.673   0.509
 1590SOL     OW 6803   0.639   5.811   1.284
 1590SOL    HW1 6804   0.570   5.874   1.305
 1590SOL    HW2 6805   0.666   5.775   1.369
 1590SOL     MW 6806   0.633   5.814   1.297
 1591SOL     OW 6807   1.434   5.664   0.901
 1591SOL    HW1 6808   1.522   5.673   0.938
 1591SOL    HW2 6809   1.444   5.605   0.827
 1591SOL     MW 6810   1.448   5.658   0.895
 1592SOL     OW 6811   0.846   6.169   0.821
 1592SOL    HW1 6812   0.786   6.187   0.893
 1592SOL    HW2 6813   0.880   6.081   0.840
 1592SOL     MW 6814   0.842   6.159   0.834
 1593SOL     OW 6815   1.787   5.668   1.490
 1593SOL    HW1 6816   1.708   5.714   1.518
 1593SOL    HW2 6817   1.822   5.722   1.419
 1593SOL     MW 6818   1.781   5.681   1.484
 1594SOL     OW 6819   1.583   5.778   0.297
 1594SOL    HW1 6820   1.576   5.782   0.392
 1594SOL    HW2 6821   1.595   5.869   0.270
 1594SOL     MW 6822   1.584   5.791   0.305
 1595SOL     OW 6823   1.650   5.761   1.039
 1595SOL    HW1 6824   1.695   5.679   1.058
 1595SOL    HW2 6825   1.670   5.817   1.115
 1595SOL     MW 6826   1.660   5.757   1.051
 1596SOL     OW 6827   0.098   5.604   1.138
 1596SOL    HW1 6828   0.089   5.605   1.043
 1596SOL    HW2 6829   0.192   5.616   1.153
 1596SOL     MW 6830   0.110   5.607   1.129
 1597SOL     OW 6831   0.311   5.731   0.184
 1597SOL    HW1 6832   0.240   5.786   0.152
 1597SOL    HW2 6833   0.353   5.697   0.105
 1597SOL     MW 6834   0.307   5.733   0.170
 1598SOL     OW 6835   0.067   5.830   0.033
 1598SOL    HW1 6836   0.034   5.909   0.077
 1598SOL    HW2 6837   0.122   5.863  -0.038
 1598SOL     MW 6838   0.070   5.844   0.030
 1599SOL     OW 6839   0.655   5.866   2.382
 1599SOL    HW1 6840   0.713   5.942   2.384
 1599SOL    HW2 6841   0.590   5.887   2.315
 1599SOL     MW 6842   0.654   5.878   2.373
 1600SOL     OW 6843   0.927   6.135   3.639
 1600SOL    HW1 6844   1.017   6.136   3.606
 1600SOL    HW2 6845   0.886   6.060   3.597
 1600SOL     MW 6846   0.933   6.125   3.630
 1601SOL     OW 6847   0.707   5.939   3.589
 1601SOL    HW1 6848   0.717   5.865   3.529
 1601SOL    HW2 6849   0.743   5.908   3.672
 1601SOL     MW 6850   0.713   5.925   3.591
 1602SOL     OW 6851   1.827   5.668   2.553
 1602SOL    HW1 6852   1.881   5.619   2.615
 1602SOL    HW2 6853   1.770   5.602   2.514
 1602SOL     MW 6854   1.827   5.652   2.555
 1603SOL     OW 6855   0.946   5.621   2.966
 1603SOL    HW1 6856   0.905   5.699   2.928
 1603SOL    HW2 6857   1.040   5.639   2.961
 1603SOL     MW 6858   0.952   5.633   2.961
 1604SOL     OW 6859   0.972   5.729   3.221
 1604SOL    HW1 6860   0.978   5.691   3.134
 1604SOL    HW2 6861   0.961   5.823   3.206
 1604SOL     MW 6862   0.973   5.737   3.209
 1605SOL     OW 6863   0.188   5.825   2.527
 1605SOL    HW1 6864   0.179   5.765   2.453
 1605SOL    HW2 6865   0.121   5.796   2.590
 1605SOL     MW 6866   0.178   5.812   2.525
 1606SOL     OW 6867   0.743   5.728   3.386
 1606SOL    HW1 6868   0.720   5.636   3.388
 1606SOL    HW2 6869   0.829   5.730   3.343
 1606SOL     MW 6870   0.750   5.718   3.382
 1607SOL     OW 6871   1.404   5.777   3.696
 1607SOL    HW1 6872   1.460   5.704   3.722
 1607SOL    HW2 6873   1.374   5.815   3.778
 1607SOL     MW 6874   1.408   5.772   3.709
 1608SOL     OW 6875   0.976   5.688   1.922
 1608SOL    HW1 6876   1.032   5.680   1.844
 1608SOL    HW2 6877   0.953   5.598   1.944
 1608SOL     MW 6878   0.981   5.675   1.915
 1609SOL     OW 6879   0.387   5.636   3.657
 1609SOL    HW1 6880   0.315   5.601   3.605
 1609SOL    HW2 6881   0.445   5.677   3.592
 1609SOL     MW 6882   0.385   5.637   3.642
 1610SOL     OW 6883   0.757   5.666   2.569
 1610SOL    HW1 6884   0.686   5.727   2.551
 1610SOL    HW2 6885   0.808   5.663   2.488
 1610SOL     MW 6886   0.753   5.672   2.556
 1611SOL     OW 6887   1.144   5.670   3.578
 1611SOL    HW1 6888   1.139   5.577   3.559
 1611SOL    HW2 6889   1.227   5.681   3.624
 1611SOL     MW 6890   1.152   5.659   3.582
 1612SOL     OW 6891   0.434   5.731   2.525
 1612SOL    HW1 6892   0.484   5.774   2.456
 1612SOL    HW2 6893   0.349   5.775   2.525
 1612SOL     MW 6894   0.431   5.744   2.516
 1613SOL     OW 6895   1.496   5.868   2.402
 1613SOL    HW1 6896   1.418   5.818   2.427
 1613SOL    HW2 6897   1.467   5.959   2.402
 1613SOL     MW 6898   1.482   5.872   2.405
 1614SOL     OW 6899   1.082   5.830   2.561
 1614SOL    HW1 6900   1.102   5.905   2.505
 1614SOL    HW2 6901   1.062   5.869   2.646
 1614SOL     MW 6902   1.083   5.846   2.565
 1615SOL     OW 6903   0.398   5.948   2.909
 1615SOL    HW1 6904   0.428   5.862   2.880
 1615SOL    HW2 6905   0.303   5.941   2.912
 1615SOL     MW 6906   0.390   5.937   2.907
 1616SOL     OW 6907   1.326   5.952   3.461
 1616SOL    HW1 6908   1.233   5.936   3.448
 1616SOL    HW2 6909   1.352   5.890   3.529
 1616SOL     MW 6910   1.316   5.942   3.468
 1617SOL     OW 6911   0.541   5.726   2.800
 1617SOL    HW1 6912   0.551   5.635   2.826
 1617SOL    HW2 6913   0.497   5.722   2.715
 1617SOL     MW 6914   0.537   5.714   2.792
 1618SOL     OW 6915   1.326   5.640   2.080
 1618SOL    HW1 6916   1.400   5.684   2.123
 1618SOL    HW2 6917   1.250   5.694   2.102
 1618SOL     MW 6918   1.326   5.652   2.088
 1619SOL     OW 6919   0.746   5.858   2.912
 1619SOL    HW1 6920   0.719   5.860   3.003
 1619SOL    HW2 6921   0.676   5.810   2.867
 1619SOL     MW 6922   0.734   5.854   2.919
 1620SOL     OW 6923   1.227   5.677   2.998
 1620SOL    HW1 6924   1.282   5.686   2.920
 1620SOL    HW2 6925   1.282   5.711   3.069
 1620SOL     MW 6926   1.241   5.682   2.997
 1621SOL     OW 6927   1.454   5.664   3.171
 1621SOL    HW1 6928   1.525   5.610   3.135
 1621SOL    HW2 6929   1.453   5.643   3.264
 1621SOL     MW 6930   1.463   5.655   3.179
 1622SOL     OW 6931   0.186   5.687   2.295
 1622SOL    HW1 6932   0.257   5.708   2.234
 1622SOL    HW2 6933   0.140   5.615   2.253
 1622SOL     MW 6934   0.190   5.681   2.281
 1623SOL     OW 6935   0.973   5.658   2.378
 1623SOL    HW1 6936   1.010   5.717   2.443
 1623SOL    HW2 6937   0.950   5.714   2.304
 1623SOL     MW 6938   0.974   5.673   2.377
 1624SOL     OW 6939   0.639   5.811   3.152
 1624SOL    HW1 6940   0.570   5.874   3.173
 1624SOL    HW2 6941   0.666   5.775   3.237
 1624SOL     MW 6942   0.633   5.814   3.165
 1625SOL     OW 6943   1.434   5.664   2.769
 1625SOL    HW1 6944   1.522   5.673   2.806
 1625SOL    HW2 6945   1.444   5.605   2.695
 1625SOL     MW 6946   1.448   5.658   2.763
 1626SOL     OW 6947   0.846   6.169   2.689
 1626SOL    HW1 6948   0.786   6.187   2.761
 1626SOL    HW2 6949   0.880   6.081   2.708
 1626SOL     MW 6950   0.842   6.159   2.702
 1627SOL     OW 6951   1.787   5.668   3.358
 1627SOL    HW1 6952   1.708   5.714   3.386
 1627SOL    HW2 6953   1.822   5.722   3.287
 1627SOL     MW 6954   1.781   5.681   3.352
 1628SOL     OW 6955   1.583   5.778   2.165
 1628SOL    HW1 6956   1.576   5.782   2.260
 1628SOL    HW2 6957   1.595   5.869   2.138
 1628SOL     MW 6958   1.584   5.791   2.173
 1629SOL     OW 6959   1.650   5.761   2.907
 1629SOL    HW1 6960   1.695   5.679   2.926
 1629SOL    HW2 6961   1.670   5.817   2.983
 1629SOL     MW 6962   1.660   5.757   2.919
 1630SOL     OW 6963   0.098   5.604   3.006
 1630SOL    HW1 6964   0.089   5.605   2.911
 1630SOL    HW2 6965   0.192   5.616   3.021
 1630SOL     MW 6966   0.110   5.607   2.997
 1631SOL     OW 6967   0.311   5.731   2.052
 1631SOL    HW1 6968   0.240   5.786   2.020
 1631SOL    HW2 6969   0.353   5.697   1.973
 1631SOL     MW 6970   0.307   5.733   2.038
 1632SOL     OW 6971   0.067   5.830   1.901
 1632SOL    HW1 6972   0.034   5.909   1.945
 1632SOL    HW2 6973   0.122   5.863   1.830
 1632SOL     MW 6974   0.070   5.844   1.898
 1633SOL     OW 6975   0.655   5.866   4.250
 1633SOL    HW1 6976   0.713   5.942   4.252
 1633SOL    HW2 6977   0.590   5.887   4.183
 1633SOL     MW 6978   0.654   5.878   4.241
 1634SOL     OW 6979   1.827   5.668   4.421
 1634SOL    HW1 6980   1.881   5.619   4.483
 1634SOL    HW2 6981   1.770   5.602   4.382
 1634SOL     MW 6982   1.827   5.652   4.423
 1635SOL     OW 6983   0.188   5.825   4.395
 1635SOL    HW1 6984   0.179   5.765   4.321
 1635SOL    HW2 6985   0.121   5.796   4.458
 1635SOL     MW 6986   0.178   5.812   4.393
 1636SOL     OW 6987   0.976   5.688   3.790
 1636SOL    HW1 6988   1.032   5.680   3.712
 1636SOL    HW2 6989   0.953   5.598   3.812
 1636SOL     MW 6990   0.981   5.675   3.783
 1637SOL     OW 6991   0.757   5.666   4.437
 1637SOL    HW1 6992   0.686   5.727   4.419
 1637SOL    HW2 6993   0.808   5.663   4.356
 1637SOL     MW 6994   0.753   5.672   4.424
 1638SOL     OW 6995   0.434   5.731   4.393
 1638SOL    HW1 6996   0.484   5.774   4.324
 1638SOL    HW2 6997   0.349   5.775   4.393
 1638SOL     MW 6998   0.431   5.744   4.384
 1639SOL     OW 6999   1.496   5.868   4.270
 1639SOL    HW1 7000   1.418   5.818   4.295
 1639SOL    HW2 7001   1.467   5.959   4.270
 1639SOL     MW 7002   1.482   5.872   4.273
 1640SOL     OW 7003   1.082   5.830   4.429
 1640SOL    HW1 7004   1.102   5.905   4.373
 1640SOL    HW2 7005   1.062   5.869   4.514
 1640SOL     MW 7006   1.083   5.846   4.433
 1641SOL     OW 7007   1.326   5.640   3.948
 1641SOL    HW1 7008   1.400   5.684   3.991
 1641SOL    HW2 7009   1.250   5.694   3.970
 1641SOL     MW 7010   1.326   5.652   3.956
 1642SOL     OW 7011   0.186   5.687   4.163
 1642SOL    HW1 7012   0.257   5.708   4.102
 1642SOL    HW2 7013   0.140   5.615   4.121
 1642SOL     MW 7014   0.190   5.681   4.149
 1643SOL     OW 7015   0.973   5.658   4.246
 1643SOL    HW1 7016   1.010   5.717   4.311
 1643SOL    HW2 7017   0.950   5.714   4.172
 1643SOL     MW 7018   0.974   5.673   4.245
 1644SOL     OW 7019   1.583   5.778   4.033
 1644SOL    HW1 7020   1.576   5.782   4.128
 1644SOL    HW2 7021   1.595   5.869   4.006
 1644SOL     MW 7022   1.584   5.791   4.041
 1645SOL     OW 7023   0.311   5.731   3.920
 1645SOL    HW1 7024   0.240   5.786   3.888
 1645SOL    HW2 7025   0.353   5.697   3.841
 1645SOL     MW 7026   0.307   5.733   3.906
 1646SOL     OW 7027   0.067   5.830   3.769
 1646SOL    HW1 7028   0.034   5.909   3.813
 1646SOL    HW2 7029   0.122   5.863   3.698
 1646SOL     MW 7030   0.070   5.844   3.766
 1647SOL     OW 7031   3.470   0.771   1.252
 1647SOL    HW1 7032   3.425   0.838   1.303
 1647SOL    HW2 7033   3.558   0.807   1.238
 1647SOL     MW 7034   3.476   0.784   1.256
 1648SOL     OW 7035   2.398   1.022   0.486
 1648SOL    HW1 7036   2.488   0.997   0.470
 1648SOL    HW2 7037   2.394   1.115   0.463
 1648SOL     MW 7038   2.410   1.031   0.481
 1649SOL     OW 7039   3.514   1.725   0.628
 1649SOL    HW1 7040   3.526   1.671   0.706
 1649SOL    HW2 7041   3.551   1.673   0.557
 1649SOL     MW 7042   3.520   1.710   0.629
 1650SOL     OW 7043   2.893   1.610   1.629
 1650SOL    HW1 7044   2.934   1.646   1.550
 1650SOL    HW2 7045   2.928   1.521   1.636
 1650SOL     MW 7046   2.904   1.603   1.620
 1651SOL     OW 7047   3.450   1.165   1.233
 1651SOL    HW1 7048   3.371   1.130   1.191
 1651SOL    HW2 7049   3.477   1.237   1.177
 1651SOL     MW 7050   3.443   1.170   1.220
 1652SOL     OW 7051   2.682   0.478   0.499
 1652SOL    HW1 7052   2.657   0.566   0.527
 1652SOL    HW2 7053   2.679   0.481   0.403
 1652SOL     MW 7054   2.678   0.490   0.491
 1653SOL     OW 7055   2.124   0.506   0.427
 1653SOL    HW1 7056   2.156   0.594   0.409
 1653SOL    HW2 7057   2.112   0.504   0.522
 1653SOL     MW 7058   2.127   0.518   0.439
 1654SOL     OW 7059   2.202   0.919   1.328
 1654SOL    HW1 7060   2.265   0.866   1.279
 1654SOL    HW2 7061   2.183   0.993   1.271
 1654SOL     MW 7062   2.208   0.921   1.315
 1655SOL     OW 7063   2.523   0.261   0.514
 1655SOL    HW1 7064   2.581   0.337   0.516
 1655SOL    HW2 7065   2.458   0.282   0.447
 1655SOL     MW 7066   2.522   0.273   0.505
 1656SOL     OW 7067   2.610   1.188   0.689
 1656SOL    HW1 7068   2.690   1.191   0.741
 1656SOL    HW2 7069   2.638   1.155   0.603
 1656SOL     MW 7070   2.624   1.184   0.684
 1657SOL     OW 7071   2.635   1.529   1.592
 1657SOL    HW1 7072   2.719   1.555   1.631
 1657SOL    HW2 7073   2.659   1.473   1.518
 1657SOL     MW 7074   2.649   1.525   1.587
 1658SOL     OW 7075   2.387   0.692   0.680
 1658SOL    HW1 7076   2.372   0.612   0.731
 1658SOL    HW2 7077   2.469   0.727   0.714
 1658SOL     MW 7078   2.395   0.684   0.692
 1659SOL     OW 7079   2.724   1.378   1.365
 1659SOL    HW1 7080   2.688   1.444   1.305
 1659SOL    HW2 7081   2.652   1.316   1.378
 1659SOL     MW 7082   2.710   1.378   1.359
 1660SOL     OW 7083   2.529   0.518   1.057
 1660SOL    HW1 7084   2.435   0.514   1.075
 1660SOL    HW2 7085   2.559   0.427   1.066
 1660SOL     MW 7086   2.520   0.506   1.060
 1661SOL     OW 7087   2.275   0.932   0.961
 1661SOL    HW1 7088   2.230   0.939   0.877
 1661SOL    HW2 7089   2.255   1.015   1.005
 1661SOL     MW 7090   2.267   0.944   0.955
 1662SOL     OW 7091   1.972   1.778   0.836
 1662SOL    HW1 7092   2.061   1.770   0.871
 1662SOL    HW2 7093   1.936   1.690   0.841
 1662SOL     MW 7094   1.979   1.765   0.841
 1663SOL     OW 7095   2.236   1.305   0.871
 1663SOL    HW1 7096   2.212   1.358   0.947
 1663SOL    HW2 7097   2.292   1.363   0.819
 1663SOL     MW 7098   2.240   1.320   0.874
 1664SOL     OW 7099   2.798   0.949   0.681
 1664SOL    HW1 7100   2.712   0.936   0.721
 1664SOL    HW2 7101   2.851   0.876   0.713
 1664SOL     MW 7102   2.794   0.938   0.690
 1665SOL     OW 7103   2.206   1.601   1.466
 1665SOL    HW1 7104   2.114   1.577   1.451
 1665SOL    HW2 7105   2.250   1.518   1.483
 1665SOL     MW 7106   2.200   1.586   1.465
 1666SOL     OW 7107   2.789   1.311   0.398
 1666SOL    HW1 7108   2.766   1.373   0.466
 1666SOL    HW2 7109   2.746   1.229   0.424
 1666SOL     MW 7110   2.781   1.307   0.409
 1667SOL     OW 7111   3.662   0.312   0.854
 1667SOL    HW1 7112   3.599   0.292   0.923
 1667SOL    HW2 7113   3.652   0.241   0.791
 1667SOL     MW 7114   3.652   0.299   0.855
 1668SOL     OW 7115   2.286   0.284   0.366
 1668SOL    HW1 7116   2.260   0.246   0.282
 1668SOL    HW2 7117   2.223   0.354   0.382
 1668SOL     MW 7118   2.275   0.287   0.357
 1669SOL     OW 7119   2.121   1.245   0.403
 1669SOL    HW1 7120   2.069   1.313   0.359
 1669SOL    HW2 7121   2.118   1.171   0.343
 1669SOL     MW 7122   2.113   1.244   0.390
 1670SOL     OW 7123   2.783   1.708   0.181
 1670SOL    HW1 7124   2.738   1.724   0.264
 1670SOL    HW2 7125   2.714   1.673   0.123
 1670SOL     MW 7126   2.769   1.705   0.183
 1671SOL     OW 7127   3.463   1.084   0.506
 1671SOL    HW1 7128   3.373   1.084   0.541
 1671SOL    HW2 7129   3.456   1.130   0.423
 1671SOL     MW 7130   3.450   1.090   0.500
 1672SOL     OW 7131   3.263   0.719   1.578
 1672SOL    HW1 7132   3.332   0.657   1.555
 1672SOL    HW2 7133   3.188   0.693   1.525
 1672SOL     MW 7134   3.263   0.706   1.569
 1673SOL     OW 7135   2.004   1.599   1.130
 1673SOL    HW1 7136   1.987   1.545   1.207
 1673SOL    HW2 7137   1.992   1.689   1.160
 1673SOL     MW 7138   2.001   1.603   1.144
 1674SOL     OW 7139   2.999   1.106   1.570
 1674SOL    HW1 7140   2.984   1.199   1.555
 1674SOL    HW2 7141   3.094   1.096   1.570
 1674SOL     MW 7142   3.008   1.116   1.567
 1675SOL     OW 7143   2.795   0.530   1.771
 1675SOL    HW1 7144   2.885   0.531   1.738
 1675SOL    HW2 7145   2.754   0.455   1.729
 1675SOL     MW 7146   2.801   0.520   1.762
 1676SOL     OW 7147   3.370   1.062   0.898
 1676SOL    HW1 7148   3.373   0.996   0.829
 1676SOL    HW2 7149   3.455   1.105   0.894
 1676SOL     MW 7150   3.382   1.058   0.889
 1677SOL     OW 7151   2.990   0.665   0.467
 1677SOL    HW1 7152   3.016   0.689   0.378
 1677SOL    HW2 7153   2.972   0.572   0.463
 1677SOL     MW 7154   2.992   0.657   0.454
 1678SOL     OW 7155   3.655   1.285   0.318
 1678SOL    HW1 7156   3.611   1.326   0.393
 1678SOL    HW2 7157   3.712   1.353   0.283
 1678SOL     MW 7158   3.657   1.299   0.323
 1679SOL     OW 7159   2.575   0.334   1.721
 1679SOL    HW1 7160   2.585   0.260   1.661
 1679SOL    HW2 7161   2.611   0.303   1.804
 1679SOL     MW 7162   2.581   0.320   1.723
 1680SOL     OW 7163   2.311   1.701   0.636
 1680SOL    HW1 7164   2.343   1.789   0.614
 1680SOL    HW2 7165   2.264   1.673   0.558
 1680SOL     MW 7166   2.310   1.709   0.623
 1681SOL     OW 7167   3.695   0.063   0.685
 1681SOL    HW1 7168   3.749   0.014   0.747
 1681SOL    HW2 7169   3.638  -0.003   0.646
 1681SOL     MW 7170   3.695   0.047   0.687
 1682SOL     OW 7171   2.027   1.761   0.213
 1682SOL    HW1 7172   2.056   1.851   0.205
 1682SOL    HW2 7173   1.977   1.744   0.134
 1682SOL     MW 7174   2.025   1.769   0.202
 1683SOL     OW 7175   2.814   0.016   1.098
 1683SOL    HW1 7176   2.773   0.094   1.060
 1683SOL    HW2 7177   2.908   0.034   1.093
 1683SOL     MW 7178   2.820   0.028   1.093
 1684SOL     OW 7179   2.829   0.694   0.128
 1684SOL    HW1 7180   2.831   0.641   0.049
 1684SOL    HW2 7181   2.917   0.731   0.134
 1684SOL     MW 7182   2.841   0.693   0.117
 1685SOL     OW 7183   3.443   0.620   0.464
 1685SOL    HW1 7184   3.482   0.620   0.551
 1685SOL    HW2 7185   3.384   0.696   0.464
 1685SOL     MW 7186   3.440   0.631   0.475
 1686SOL     OW 7187   2.760   0.987   1.593
 1686SOL    HW1 7188   2.737   0.967   1.683
 1686SOL    HW2 7189   2.845   1.031   1.598
 1686SOL     MW 7190   2.767   0.990   1.605
 1687SOL     OW 7191   2.840   0.124   1.353
 1687SOL    HW1 7192   2.846   0.086   1.266
 1687SOL    HW2 7193   2.829   0.218   1.338
 1687SOL     MW 7194   2.841   0.132   1.341
 1688SOL     OW 7195   2.929   0.613   1.187
 1688SOL    HW1 7196   3.004   0.642   1.134
 1688SOL    HW2 7197   2.861   0.678   1.171
 1688SOL     MW 7198   2.930   0.625   1.177
 1689SOL     OW 7199   3.479   0.581   1.464
 1689SOL    HW1 7200   3.460   0.490   1.443
 1689SOL    HW2 7201   3.457   0.630   1.385
 1689SOL     MW 7202   3.474   0.574   1.451
 1690SOL     OW 7203   3.621   1.675   1.368
 1690SOL    HW1 7204   3.549   1.637   1.419
 1690SOL    HW2 7205   3.638   1.760   1.409
 1690SOL     MW 7206   3.615   1.680   1.380
 1691SOL     OW 7207   2.926   0.319   1.570
 1691SOL    HW1 7208   2.892   0.358   1.489
 1691SOL    HW2 7209   2.904   0.227   1.563
 1691SOL     MW 7210   2.919   0.312   1.560
 1692SOL     OW 7211   3.335   1.133   1.646
 1692SOL    HW1 7212   3.417   1.174   1.676
 1692SOL    HW2 7213   3.298   1.095   1.726
 1692SOL     MW 7214   3.341   1.134   1.661
 1693SOL     OW 7215   3.630   0.506   0.630
 1693SOL    HW1 7216   3.719   0.475   0.647
 1693SOL    HW2 7217   3.573   0.446   0.678
 1693SOL     MW 7218   3.633   0.494   0.639
 1694SOL     OW 7219   2.056   0.220   0.659
 1694SOL    HW1 7220   2.047   0.160   0.585
 1694SOL    HW2 7221   1.989   0.191   0.722
 1694SOL     MW 7222   2.046   0.207   0.657
 1695SOL     OW 7223   2.003   0.393   1.022
 1695SOL    HW1 7224   1.975   0.484   1.031
 1695SOL    HW2 7225   1.940   0.354   0.961
 1695SOL     MW 7226   1.990   0.399   1.016
 1696SOL     OW 7227   2.462   1.731   0.328
 1696SOL    HW1 7228   2.383   1.689   0.361
 1696SOL    HW2 7229   2.528   1.714   0.395
 1696SOL     MW 7230   2.461   1.723   0.341
 1697SOL     OW 7231   3.590   1.251   1.725
 1697SOL    HW1 7232   3.640   1.177   1.757
 1697SOL    HW2 7233   3.536   1.278   1.800
 1697SOL     MW 7234   3.590   1.245   1.738
 1698SOL     OW 7235   2.598   1.146   0.035
 1698SOL    HW1 7236   2.520   1.092   0.022
 1698SOL    HW2 7237   2.569   1.219   0.088
 1698SOL     MW 7238   2.584   1.148   0.040
 1699SOL     OW 7239   3.724   0.886   1.227
 1699SOL    HW1 7240   3.740   0.924   1.140
 1699SOL    HW2 7241   3.758   0.952   1.288
 1699SOL     MW 7242   3.731   0.899   1.223
 1700SOL     OW 7243   3.516   1.595   0.896
 1700SOL    HW1 7244   3.545   1.662   0.957
 1700SOL    HW2 7245   3.497   1.519   0.951
 1700SOL     MW 7246   3.518   1.595   0.911
 1701SOL     OW 7247   1.987   0.668   1.192
 1701SOL    HW1 7248   2.049   0.698   1.258
 1701SOL    HW2 7249   1.921   0.737   1.186
 1701SOL     MW 7250   1.986   0.681   1.199
 1702SOL     OW 7251   2.628   0.225   0.100
 1702SOL    HW1 7252   2.576   0.145   0.088
 1702SOL    HW2 7253   2.715   0.202   0.068
 1702SOL     MW 7254   2.631   0.211   0.094
 1703SOL     OW 7255   2.082   1.777   1.644
 1703SOL    HW1 7256   2.056   1.845   1.582
 1703SOL    HW2 7257   2.130   1.714   1.592
 1703SOL     MW 7258   2.084   1.777   1.630
 1704SOL     OW 7259   2.134   1.096   1.151
 1704SOL    HW1 7260   2.187   1.171   1.176
 1704SOL    HW2 7261   2.053   1.134   1.117
 1704SOL     MW 7262   2.130   1.111   1.151
 1705SOL     OW 7263   2.674   1.000   1.139
 1705SOL    HW1 7264   2.702   0.909   1.151
 1705SOL    HW2 7265   2.603   0.994   1.075
 1705SOL     MW 7266   2.667   0.988   1.134
 1706SOL     OW 7267   1.989   0.865   0.557
 1706SOL    HW1 7268   2.080   0.880   0.584
 1706SOL    HW2 7269   1.992   0.786   0.503
 1706SOL     MW 7270   2.001   0.857   0.555
 1707SOL     OW 7271   2.225   0.573   1.811
 1707SOL    HW1 7272   2.172   0.653   1.818
 1707SOL    HW2 7273   2.295   0.585   1.876
 1707SOL     MW 7274   2.227   0.586   1.819
 1708SOL     OW 7275   2.611   0.123   1.518
 1708SOL    HW1 7276   2.588   0.031   1.520
 1708SOL    HW2 7277   2.697   0.125   1.475
 1708SOL     MW 7278   2.618   0.113   1.514
 1709SOL     OW 7279   2.295   0.647   1.557
 1709SOL    HW1 7280   2.375   0.697   1.543
 1709SOL    HW2 7281   2.286   0.641   1.652
 1709SOL     MW 7282   2.304   0.653   1.567
 1710SOL     OW 7283   2.616   1.797   0.931
 1710SOL    HW1 7284   2.705   1.812   0.961
 1710SOL    HW2 7285   2.611   1.844   0.847
 1710SOL     MW 7286   2.626   1.805   0.924
 1711SOL     OW 7287   3.272   0.172   1.828
 1711SOL    HW1 7288   3.328   0.099   1.854
 1711SOL    HW2 7289   3.242   0.210   1.910
 1711SOL     MW 7290   3.276   0.167   1.841
 1712SOL     OW 7291   1.997   1.477   0.596
 1712SOL    HW1 7292   1.969   1.516   0.678
 1712SOL    HW2 7293   2.017   1.386   0.618
 1712SOL     MW 7294   1.995   1.469   0.609
 1713SOL     OW 7295   2.830   1.520   0.631
 1713SOL    HW1 7296   2.913   1.474   0.615
 1713SOL    HW2 7297   2.820   1.519   0.727
 1713SOL     MW 7298   2.840   1.513   0.641
 1714SOL     OW 7299   3.662   0.665   0.945
 1714SOL    HW1 7300   3.751   0.695   0.927
 1714SOL    HW2 7301   3.642   0.605   0.874
 1714SOL     MW 7302   3.671   0.662   0.934
 1715SOL     OW 7303   3.513   0.844   1.825
 1715SOL    HW1 7304   3.568   0.768   1.806
 1715SOL    HW2 7305   3.515   0.852   1.920
 1715SOL     MW 7306   3.521   0.835   1.833
 1716SOL     OW 7307   2.563   1.577   0.036
 1716SOL    HW1 7308   2.503   1.646   0.006
 1716SOL    HW2 7309   2.508   1.519   0.089
 1716SOL     MW 7310   2.547   1.579   0.038
 1717SOL     OW 7311   2.808   0.406   1.344
 1717SOL    HW1 7312   2.727   0.447   1.372
 1717SOL    HW2 7313   2.855   0.474   1.296
 1717SOL     MW 7314   2.803   0.421   1.342
 1718SOL     OW 7315   3.068   0.744   0.967
 1718SOL    HW1 7316   3.081   0.838   0.977
 1718SOL    HW2 7317   3.029   0.734   0.881
 1718SOL     MW 7318   3.064   0.755   0.957
 1719SOL     OW 7319   2.520   0.939   0.771
 1719SOL    HW1 7320   2.431   0.930   0.804
 1719SOL    HW2 7321   2.524   1.029   0.739
 1719SOL     MW 7322   2.509   0.950   0.771
 1720SOL     OW 7323   3.319   0.522   0.766
 1720SOL    HW1 7324   3.264   0.443   0.765
 1720SOL    HW2 7325   3.301   0.563   0.850
 1720SOL     MW 7326   3.309   0.517   0.775
 1721SOL     OW 7327   2.290   0.209   1.583
 1721SOL    HW1 7328   2.211   0.227   1.635
 1721SOL    HW2 7329   2.285   0.271   1.510
 1721SOL     MW 7330   2.280   0.219   1.580
 1722SOL     OW 7331   2.938   0.726   0.723
 1722SOL    HW1 7332   2.875   0.658   0.747
 1722SOL    HW2 7333   2.958   0.707   0.631
 1722SOL     MW 7334   2.932   0.713   0.715
 1723SOL     OW 7335   2.194   1.621   0.425
 1723SOL    HW1 7336   2.155   1.668   0.351
 1723SOL    HW2 7337   2.128   1.556   0.450
 1723SOL     MW 7338   2.181   1.619   0.419
 1724SOL     OW 7339   2.686   1.030   0.449
 1724SOL    HW1 7340   2.688   1.004   0.356
 1724SOL    HW2 7341   2.744   0.967   0.492
 1724SOL     MW 7342   2.694   1.019   0.443
 1725SOL     OW 7343   3.239   1.590   1.221
 1725SOL    HW1 7344   3.164   1.636   1.259
 1725SOL    HW2 7345   3.221   1.497   1.238
 1725SOL     MW 7346   3.228   1.584   1.229
 1726SOL     OW 7347   3.243   1.798   0.651
 1726SOL    HW1 7348   3.186   1.751   0.590
 1726SOL    HW2 7349   3.329   1.759   0.638
 1726SOL     MW 7350   3.246   1.789   0.641
 1727SOL     OW 7351   3.196   0.274   0.782
 1727SOL    HW1 7352   3.224   0.206   0.843
 1727SOL    HW2 7353   3.110   0.245   0.752
 1727SOL     MW 7354   3.189   0.261   0.786
 1728SOL     OW 7355   2.001   1.208   0.716
 1728SOL    HW1 7356   2.065   1.240   0.779
 1728SOL    HW2 7357   2.050   1.144   0.664
 1728SOL     MW 7358   2.016   1.204   0.717
 1729SOL     OW 7359   2.501   1.284   1.698
 1729SOL    HW1 7360   2.549   1.367   1.685
 1729SOL    HW2 7361   2.558   1.232   1.754
 1729SOL     MW 7362   2.515   1.288   1.704
 1730SOL     OW 7363   2.077   1.526   1.838
 1730SOL    HW1 7364   2.133   1.450   1.853
 1730SOL    HW2 7365   2.026   1.504   1.760
 1730SOL     MW 7366   2.077   1.513   1.829
 1731SOL     OW 7367   2.844   0.083   0.054
 1731SOL    HW1 7368   2.900   0.075  -0.024
 1731SOL    HW2 7369   2.821  -0.007   0.076
 1731SOL     MW 7370   2.849   0.070   0.047
 1732SOL     OW 7371   2.962   1.363   1.447
 1732SOL    HW1 7372   2.873   1.369   1.415
 1732SOL    HW2 7373   3.006   1.442   1.415
 1732SOL     MW 7374   2.957   1.373   1.439
 1733SOL     OW 7375   2.255   0.031   1.789
 1733SOL    HW1 7376   2.183  -0.004   1.737
 1733SOL    HW2 7377   2.313   0.072   1.724
 1733SOL     MW 7378   2.253   0.032   1.774
 1734SOL     OW 7379   2.279   1.521   1.088
 1734SOL    HW1 7380   2.324   1.583   1.145
 1734SOL    HW2 7381   2.186   1.540   1.101
 1734SOL     MW 7382   2.272   1.531   1.095
 1735SOL     OW 7383   3.719   1.050   1.442
 1735SOL    HW1 7384   3.634   1.063   1.401
 1735SOL    HW2 7385   3.699   1.014   1.529
 1735SOL     MW 7386   3.706   1.046   1.447
 1736SOL     OW 7387   2.701   1.589   1.196
 1736SOL    HW1 7388   2.725   1.578   1.105
 1736SOL    HW2 7389   2.624   1.646   1.194
 1736SOL     MW 7390   2.693   1.594   1.185
 1737SOL     OW 7391   2.343   0.972   0.051
 1737SOL    HW1 7392   2.266   0.985   0.107
 1737SOL    HW2 7393   2.307   0.936  -0.030
 1737SOL     MW 7394   2.329   0.968   0.048
 1738SOL     OW 7395   2.496   1.294   0.986
 1738SOL    HW1 7396   2.489   1.273   1.080
 1738SOL    HW2 7397   2.414   1.262   0.949
 1738SOL     MW 7398   2.484   1.288   0.993
 1739SOL     OW 7399   3.360   0.304   1.388
 1739SOL    HW1 7400   3.307   0.306   1.468
 1739SOL    HW2 7401   3.345   0.217   1.351
 1739SOL     MW 7402   3.352   0.294   1.393
 1740SOL     OW 7403   3.696   0.228   1.261
 1740SOL    HW1 7404   3.677   0.295   1.196
 1740SOL    HW2 7405   3.753   0.166   1.216
 1740SOL     MW 7406   3.700   0.229   1.247
 1741SOL     OW 7407   1.942   1.386   1.649
 1741SOL    HW1 7408   1.986   1.319   1.595
 1741SOL    HW2 7409   1.857   1.348   1.669
 1741SOL     MW 7410   1.937   1.372   1.645
 1742SOL     OW 7411   2.625   0.061   0.701
 1742SOL    HW1 7412   2.554   0.122   0.683
 1742SOL    HW2 7413   2.676   0.058   0.620
 1742SOL     MW 7414   2.621   0.067   0.688
 1743SOL     OW 7415   2.383   1.301   0.450
 1743SOL    HW1 7416   2.376   1.333   0.540
 1743SOL    HW2 7417   2.293   1.285   0.422
 1743SOL     MW 7418   2.371   1.303   0.457
 1744SOL     OW 7419   2.978   1.694   1.359
 1744SOL    HW1 7420   2.898   1.679   1.309
 1744SOL    HW2 7421   2.985   1.789   1.366
 1744SOL     MW 7422   2.969   1.705   1.353
 1745SOL     OW 7423   3.092   1.659   0.849
 1745SOL    HW1 7424   3.139   1.732   0.808
 1745SOL    HW2 7425   3.013   1.698   0.885
 1745SOL     MW 7426   3.087   1.674   0.848
 1746SOL     OW 7427   3.500   1.754   1.124
 1746SOL    HW1 7428   3.543   1.724   1.204
 1746SOL    HW2 7429   3.419   1.702   1.121
 1746SOL     MW 7430   3.495   1.743   1.134
 1747SOL     OW 7431   2.585   0.718   1.831
 1747SOL    HW1 7432   2.655   0.660   1.803
 1747SOL    HW2 7433   2.528   0.663   1.886
 1747SOL     MW 7434   2.587   0.705   1.835
 1748SOL     OW 7435   3.372   0.930   1.464
 1748SOL    HW1 7436   3.377   0.983   1.544
 1748SOL    HW2 7437   3.334   0.847   1.492
 1748SOL     MW 7438   3.368   0.925   1.479
 1749SOL     OW 7439   3.012   0.065   1.710
 1749SOL    HW1 7440   3.007  -0.028   1.691
 1749SOL    HW2 7441   3.095   0.076   1.756
 1749SOL     MW 7442   3.020   0.054   1.714
 1750SOL     OW 7443   2.386   0.585   0.164
 1750SOL    HW1 7444   2.352   0.641   0.234
 1750SOL    HW2 7445   2.457   0.535   0.204
 1750SOL     MW 7446   2.392   0.586   0.178
 1751SOL     OW 7447   3.482   1.336   0.986
 1751SOL    HW1 7448   3.517   1.318   0.899
 1751SOL    HW2 7449   3.387   1.337   0.973
 1751SOL     MW 7450   3.474   1.333   0.973
 1752SOL     OW 7451   2.911   0.984   1.355
 1752SOL    HW1 7452   2.954   1.019   1.433
 1752SOL    HW2 7453   2.894   1.061   1.301
 1752SOL     MW 7454   2.914   0.999   1.358
 1753SOL     OW 7455   2.302   0.126   0.657
 1753SOL    HW1 7456   2.352   0.169   0.588
 1753SOL    HW2 7457   2.217   0.170   0.657
 1753SOL     MW 7458   2.299   0.139   0.648
 1754SOL     OW 7459   2.061   1.188   1.517
 1754SOL    HW1 7460   2.089   1.141   1.595
 1754SOL    HW2 7461   1.982   1.143   1.488
 1754SOL     MW 7462   2.054   1.177   1.523
 1755SOL     OW 7463   2.569   0.515   1.484
 1755SOL    HW1 7464   2.541   0.603   1.508
 1755SOL    HW2 7465   2.538   0.459   1.555
 1755SOL     MW 7466   2.561   0.518   1.496
 1756SOL     OW 7467   3.111   0.733   0.203
 1756SOL    HW1 7468   3.158   0.751   0.122
 1756SOL    HW2 7469   3.077   0.817   0.231
 1756SOL     MW 7470   3.113   0.747   0.196
 1757SOL     OW 7471   2.224   0.911   0.697
 1757SOL    HW1 7472   2.282   0.967   0.645
 1757SOL    HW2 7473   2.268   0.826   0.699
 1757SOL     MW 7474   2.237   0.908   0.690
 1758SOL     OW 7475   3.364   0.263   0.534
 1758SOL    HW1 7476   3.286   0.213   0.559
 1758SOL    HW2 7477   3.335   0.354   0.534
 1758SOL     MW 7478   3.350   0.267   0.537
 1759SOL     OW 7479   2.950   0.225   0.693
 1759SOL    HW1 7480   2.970   0.300   0.637
 1759SOL    HW2 7481   2.930   0.264   0.778
 1759SOL     MW 7482   2.951   0.241   0.697
 1760SOL     OW 7483   3.710   0.998   1.712
 1760SOL    HW1 7484   3.623   0.978   1.748
 1760SOL    HW2 7485   3.764   0.924   1.737
 1760SOL     MW 7486   3.705   0.987   1.720
 1761SOL     OW 7487   1.931   1.511   0.869
 1761SOL    HW1 7488   1.963   1.515   0.960
 1761SOL    HW2 7489   1.836   1.519   0.877
 1761SOL     MW 7490   1.923   1.514   0.882
 1762SOL     OW 7491   1.886   0.637   0.416
 1762SOL    HW1 7492   1.826   0.609   0.486
 1762SOL    HW2 7493   1.960   0.577   0.422
 1762SOL     MW 7494   1.888   0.626   0.425
 1763SOL     OW 7495   3.454   1.849   1.850
 1763SOL    HW1 7496   3.499   1.773   1.815
 1763SOL    HW2 7497   3.492   1.862   1.937
 1763SOL     MW 7498   3.464   1.842   1.856
 1764SOL     OW 7499   3.054   1.368   0.576
 1764SOL    HW1 7500   3.077   1.319   0.654
 1764SOL    HW2 7501   3.135   1.410   0.548
 1764SOL     MW 7502   3.067   1.368   0.583
 1765SOL     OW 7503   2.312   0.376   1.305
 1765SOL    HW1 7504   2.345   0.457   1.345
 1765SOL    HW2 7505   2.285   0.402   1.217
 1765SOL     MW 7506   2.311   0.390   1.299
 1766SOL     OW 7507   2.266   0.343   1.041
 1766SOL    HW1 7508   2.296   0.257   1.012
 1766SOL    HW2 7509   2.171   0.336   1.044
 1766SOL     MW 7510   2.258   0.332   1.039
 1767SOL     OW 7511   3.095   0.552   1.732
 1767SOL    HW1 7512   3.147   0.487   1.685
 1767SOL    HW2 7513   3.053   0.603   1.662
 1767SOL     MW 7514   3.096   0.549   1.715
 1768SOL     OW 7515   3.194   0.347   1.593
 1768SOL    HW1 7516   3.101   0.331   1.580
 1768SOL    HW2 7517   3.220   0.285   1.661
 1768SOL     MW 7518   3.184   0.337   1.600
 1769SOL     OW 7519   2.409   0.121   0.932
 1769SOL    HW1 7520   2.419   0.030   0.958
 1769SOL    HW2 7521   2.365   0.117   0.847
 1769SOL     MW 7522   2.405   0.109   0.924
 1770SOL     OW 7523   2.503   1.736   1.478
 1770SOL    HW1 7524   2.420   1.721   1.523
 1770SOL    HW2 7525   2.562   1.669   1.513
 1770SOL     MW 7526   2.501   1.726   1.488
 1771SOL     OW 7527   3.560   0.443   1.103
 1771SOL    HW1 7528   3.493   0.476   1.163
 1771SOL    HW2 7529   3.603   0.521   1.069
 1771SOL     MW 7530   3.558   0.458   1.107
 1772SOL     OW 7531   3.738   1.163   1.073
 1772SOL    HW1 7532   3.731   1.103   0.998
 1772SOL    HW2 7533   3.664   1.223   1.062
 1772SOL     MW 7534   3.728   1.163   1.062
 1773SOL     OW 7535   3.120   1.025   0.991
 1773SOL    HW1 7536   3.134   0.997   1.082
 1773SOL    HW2 7537   3.206   1.056   0.963
 1773SOL     MW 7538   3.133   1.026   1.000
 1774SOL     OW 7539   3.203   0.520   1.270
 1774SOL    HW1 7540   3.224   0.521   1.177
 1774SOL    HW2 7541   3.248   0.442   1.303
 1774SOL     MW 7542   3.210   0.510   1.262
 1775SOL     OW 7543   3.696   0.651   1.812
 1775SOL    HW1 7544   3.733   0.596   1.881
 1775SOL    HW2 7545   3.721   0.608   1.730
 1775SOL     MW 7546   3.703   0.639   1.811
 1776SOL     OW 7547   3.243   0.949   1.863
 1776SOL    HW1 7548   3.309   0.897   1.817
 1776SOL    HW2 7549   3.263   0.936   1.956
 1776SOL     MW 7550   3.254   0.940   1.870
 1777SOL     OW 7551   3.254   0.810   0.490
 1777SOL    HW1 7552   3.169   0.780   0.460
 1777SOL    HW2 7553   3.246   0.817   0.585
 1777SOL     MW 7554   3.242   0.808   0.499
 1778SOL     OW 7555   2.330   1.273   1.221
 1778SOL    HW1 7556   2.342   1.300   1.312
 1778SOL    HW2 7557   2.311   1.354   1.174
 1778SOL     MW 7558   2.329   1.288   1.226
 1779SOL     OW 7559   2.614   0.253   1.044
 1779SOL    HW1 7560   2.587   0.255   1.135
 1779SOL    HW2 7561   2.544   0.205   0.999
 1779SOL     MW 7562   2.602   0.249   1.051
 1780SOL     OW 7563   2.468   1.745   1.206
 1780SOL    HW1 7564   2.520   1.822   1.183
 1780SOL    HW2 7565   2.477   1.737   1.301
 1780SOL     MW 7566   2.477   1.752   1.217
 1781SOL     OW 7567   3.370   1.330   1.438
 1781SOL    HW1 7568   3.355   1.259   1.501
 1781SOL    HW2 7569   3.416   1.288   1.366
 1781SOL     MW 7570   3.376   1.314   1.438
 1782SOL     OW 7571   2.444   1.061   1.555
 1782SOL    HW1 7572   2.481   1.066   1.467
 1782SOL    HW2 7573   2.483   1.134   1.602
 1782SOL     MW 7574   2.454   1.071   1.550
 1783SOL     OW 7575   2.624   1.104   1.367
 1783SOL    HW1 7576   2.683   1.050   1.420
 1783SOL    HW2 7577   2.639   1.076   1.277
 1783SOL     MW 7578   2.634   1.093   1.363
 1784SOL     OW 7579   2.627   0.476   0.216
 1784SOL    HW1 7580   2.700   0.525   0.179
 1784SOL    HW2 7581   2.643   0.385   0.190
 1784SOL     MW 7582   2.639   0.471   0.209
 1785SOL     OW 7583   3.435   1.593   1.539
 1785SOL    HW1 7584   3.477   1.578   1.624
 1785SOL    HW2 7585   3.426   1.506   1.501
 1785SOL     MW 7586   3.439   1.581   1.546
 1786SOL     OW 7587   3.095   0.072   1.130
 1786SOL    HW1 7588   3.150   0.081   1.052
 1786SOL    HW2 7589   3.150   0.106   1.201
 1786SOL     MW 7590   3.109   0.077   1.129
 1787SOL     OW 7591   2.102   0.985   0.314
 1787SOL    HW1 7592   2.039   1.001   0.243
 1787SOL    HW2 7593   2.049   0.948   0.385
 1787SOL     MW 7594   2.087   0.982   0.314
 1788SOL     OW 7595   2.458   1.339   0.173
 1788SOL    HW1 7596   2.473   1.315   0.265
 1788SOL    HW2 7597   2.366   1.317   0.157
 1788SOL     MW 7598   2.448   1.332   0.183
 1789SOL     OW 7599   2.997   1.570   0.325
 1789SOL    HW1 7600   3.005   1.488   0.276
 1789SOL    HW2 7601   2.916   1.609   0.292
 1789SOL     MW 7602   2.987   1.565   0.315
 1790SOL     OW 7603   2.256   1.728   0.894
 1790SOL    HW1 7604   2.260   1.639   0.929
 1790SOL    HW2 7605   2.282   1.719   0.803
 1790SOL     MW 7606   2.259   1.716   0.886
 1791SOL     OW 7607   2.873   1.206   1.137
 1791SOL    HW1 7608   2.805   1.140   1.153
 1791SOL    HW2 7609   2.891   1.200   1.044
 1791SOL     MW 7610   2.866   1.197   1.128
 1792SOL     OW 7611   1.962   1.481   1.388
 1792SOL    HW1 7612   1.952   1.439   1.474
 1792SOL    HW2 7613   1.883   1.534   1.378
 1792SOL     MW 7614   1.951   1.482   1.399
 1793SOL     OW 7615   2.866   0.345   0.958
 1793SOL    HW1 7616   2.796   0.297   1.003
 1793SOL    HW2 7617   2.898   0.408   1.022
 1793SOL     MW 7618   2.861   0.347   0.972
 1794SOL     OW 7619   2.517   0.781   1.578
 1794SOL    HW1 7620   2.510   0.876   1.566
 1794SOL    HW2 7621   2.526   0.770   1.673
 1794SOL     MW 7622   2.518   0.793   1.588
 1795SOL     OW 7623   2.238   1.296   1.836
 1795SOL    HW1 7624   2.310   1.298   1.773
 1795SOL    HW2 7625   2.208   1.205   1.835
 1795SOL     MW 7626   2.243   1.285   1.828
 1796SOL     OW 7627   3.322   0.059   1.303
 1796SOL    HW1 7628   3.393   0.005   1.267
 1796SOL    HW2 7629   3.321   0.038   1.396
 1796SOL     MW 7630   3.331   0.050   1.311
 1797SOL     OW 7631   3.522   1.589   1.787
 1797SOL    HW1 7632   3.495   1.586   1.878
 1797SOL    HW2 7633   3.618   1.593   1.790
 1797SOL     MW 7634   3.532   1.589   1.799
 1798SOL     OW 7635   2.333   0.451   0.771
 1798SOL    HW1 7636   2.404   0.399   0.734
 1798SOL    HW2 7637   2.319   0.416   0.858
 1798SOL     MW 7638   2.341   0.440   0.778
 1799SOL     OW 7639   1.888   1.786   1.843
 1799SOL    HW1 7640   1.938   1.764   1.765
 1799SOL    HW2 7641   1.896   1.881   1.851
 1799SOL     MW 7642   1.896   1.795   1.834
 1800SOL     OW 7643   2.649   1.544   0.847
 1800SOL    HW1 7644   2.577   1.481   0.860
 1800SOL    HW2 7645   2.610   1.629   0.865
 1800SOL     MW 7646   2.633   1.547   0.850
 1801SOL     OW 7647   2.969   0.392   0.495
 1801SOL    HW1 7648   2.991   0.329   0.427
 1801SOL    HW2 7649   2.874   0.384   0.506
 1801SOL     MW 7650   2.959   0.383   0.487
 1802SOL     OW 7651   2.054   0.082   0.427
 1802SOL    HW1 7652   2.125   0.103   0.366
 1802SOL    HW2 7653   2.008   0.010   0.385
 1802SOL     MW 7654   2.058   0.076   0.413
 1803SOL     OW 7655   1.885   0.549   1.570
 1803SOL    HW1 7656   1.949   0.615   1.545
 1803SOL    HW2 7657   1.804   0.576   1.527
 1803SOL     MW 7658   1.883   0.561   1.562
 1804SOL     OW 7659   3.623   1.456   0.527
 1804SOL    HW1 7660   3.593   1.389   0.588
 1804SOL    HW2 7661   3.717   1.462   0.541
 1804SOL     MW 7662   3.631   1.448   0.537
 1805SOL     OW 7663   3.179   1.133   0.457
 1805SOL    HW1 7664   3.151   1.219   0.490
 1805SOL    HW2 7665   3.207   1.149   0.367
 1805SOL     MW 7666   3.179   1.147   0.449
 1806SOL     OW 7667   2.841   0.053   0.510
 1806SOL    HW1 7668   2.878   0.112   0.575
 1806SOL    HW2 7669   2.818   0.109   0.436
 1806SOL     MW 7670   2.842   0.068   0.509
 1807SOL     OW 7671   3.694   0.935   0.932
 1807SOL    HW1 7672   3.685   0.967   0.843
 1807SOL    HW2 7673   3.647   0.851   0.932
 1807SOL     MW 7674   3.687   0.928   0.922
 1808SOL     OW 7675   2.070   0.775   1.511
 1808SOL    HW1 7676   2.091   0.844   1.449
 1808SOL    HW2 7677   2.150   0.722   1.516
 1808SOL     MW 7678   2.083   0.776   1.505
 1809SOL     OW 7679   3.606   0.866   0.633
 1809SOL    HW1 7680   3.700   0.855   0.621
 1809SOL    HW2 7681   3.582   0.938   0.574
 1809SOL     MW 7682   3.616   0.874   0.624
 1810SOL     OW 7683   2.055   0.790   1.778
 1810SOL    HW1 7684   1.981   0.734   1.804
 1810SOL    HW2 7685   2.050   0.793   1.683
 1810SOL     MW 7686   2.044   0.783   1.768
 1811SOL     OW 7687   2.221   0.077   1.228
 1811SOL    HW1 7688   2.264   0.161   1.248
 1811SOL    HW2 7689   2.294   0.015   1.221
 1811SOL     MW 7690   2.236   0.080   1.229
 1812SOL     OW 7691   2.262   0.744   0.406
 1812SOL    HW1 7692   2.262   0.839   0.391
 1812SOL    HW2 7693   2.339   0.728   0.460
 1812SOL     MW 7694   2.272   0.755   0.411
 1813SOL     OW 7695   3.038   0.603   1.470
 1813SOL    HW1 7696   3.074   0.576   1.386
 1813SOL    HW2 7697   2.951   0.637   1.449
 1813SOL     MW 7698   3.032   0.604   1.457
 1814SOL     OW 7699   2.021   0.475   0.695
 1814SOL    HW1 7700   2.083   0.482   0.768
 1814SOL    HW2 7701   2.021   0.382   0.672
 1814SOL     MW 7702   2.029   0.464   0.702
 1815SOL     OW 7703   2.703   0.736   1.179
 1815SOL    HW1 7704   2.661   0.654   1.155
 1815SOL    HW2 7705   2.704   0.735   1.275
 1815SOL     MW 7706   2.696   0.725   1.188
 1816SOL     OW 7707   3.374   1.869   1.578
 1816SOL    HW1 7708   3.377   1.775   1.561
 1816SOL    HW2 7709   3.397   1.877   1.670
 1816SOL     MW 7710   3.377   1.857   1.588
 1817SOL     OW 7711   2.507   0.206   1.284
 1817SOL    HW1 7712   2.438   0.269   1.305
 1817SOL    HW2 7713   2.534   0.170   1.369
 1817SOL     MW 7714   2.501   0.209   1.297
 1818SOL     OW 7715   1.890   1.047   0.153
 1818SOL    HW1 7716   1.859   1.112   0.216
 1818SOL    HW2 7717   1.839   0.969   0.172
 1818SOL     MW 7718   1.880   1.044   0.163
 1819SOL     OW 7719   3.302   0.059   0.901
 1819SOL    HW1 7720   3.390   0.068   0.938
 1819SOL    HW2 7721   3.312   0.000   0.827
 1819SOL     MW 7722   3.316   0.053   0.895
 1820SOL     OW 7723   3.334   0.798   0.745
 1820SOL    HW1 7724   3.414   0.813   0.694
 1820SOL    HW2 7725   3.327   0.703   0.751
 1820SOL     MW 7726   3.343   0.787   0.740
 1821SOL     OW 7727   2.474   1.847   0.095
 1821SOL    HW1 7728   2.379   1.847   0.087
 1821SOL    HW2 7729   2.490   1.793   0.173
 1821SOL     MW 7730   2.464   1.841   0.104
 1822SOL     OW 7731   2.784   0.724   1.442
 1822SOL    HW1 7732   2.853   0.791   1.439
 1822SOL    HW2 7733   2.717   0.762   1.498
 1822SOL     MW 7734   2.785   0.737   1.449
 1823SOL     OW 7735   2.202   1.024   1.690
 1823SOL    HW1 7736   2.156   0.940   1.692
 1823SOL    HW2 7737   2.259   1.018   1.614
 1823SOL     MW 7738   2.204   1.012   1.682
 1824SOL     OW 7739   2.453   1.399   0.691
 1824SOL    HW1 7740   2.518   1.332   0.712
 1824SOL    HW2 7741   2.505   1.476   0.668
 1824SOL     MW 7742   2.468   1.401   0.690
 1825SOL     OW 7743   2.714   0.564   0.821
 1825SOL    HW1 7744   2.654   0.582   0.893
 1825SOL    HW2 7745   2.748   0.476   0.840
 1825SOL     MW 7746   2.710   0.554   0.834
 1826SOL     OW 7747   3.655   0.063   1.490
 1826SOL    HW1 7748   3.576   0.109   1.518
 1826SOL    HW2 7749   3.690   0.117   1.419
 1826SOL     MW 7750   3.649   0.076   1.484
 1827SOL     OW 7751   2.939   1.147   0.840
 1827SOL    HW1 7752   3.031   1.128   0.858
 1827SOL    HW2 7753   2.912   1.077   0.780
 1827SOL     MW 7754   2.947   1.135   0.834
 1828SOL     OW 7755   2.732   0.967   0.195
 1828SOL    HW1 7756   2.718   0.879   0.160
 1828SOL    HW2 7757   2.683   1.024   0.136
 1828SOL     MW 7758   2.724   0.962   0.183
 1829SOL     OW 7759   3.213   1.385   0.936
 1829SOL    HW1 7760   3.186   1.469   0.901
 1829SOL    HW2 7761   3.173   1.380   1.023
 1829SOL     MW 7762   3.206   1.394   0.942
 1830SOL     OW 7763   3.132   1.333   1.204
 1830SOL    HW1 7764   3.143   1.300   1.293
 1830SOL    HW2 7765   3.051   1.292   1.173
 1830SOL     MW 7766   3.122   1.325   1.210
 1831SOL     OW 7767   2.145   0.691   0.974
 1831SOL    HW1 7768   2.095   0.690   1.055
 1831SOL    HW2 7769   2.165   0.783   0.958
 1831SOL     MW 7770   2.141   0.703   0.982
 1832SOL     OW 7771   3.212   1.455   1.736
 1832SOL    HW1 7772   3.212   1.549   1.752
 1832SOL    HW2 7773   3.257   1.445   1.652
 1832SOL     MW 7774   3.218   1.465   1.727
 1833SOL     OW 7775   2.740   0.736   0.411
 1833SOL    HW1 7776   2.720   0.722   0.318
 1833SOL    HW2 7777   2.833   0.715   0.418
 1833SOL     MW 7778   2.750   0.731   0.400
 1834SOL     OW 7779   2.067   0.359   1.715
 1834SOL    HW1 7780   2.024   0.418   1.652
 1834SOL    HW2 7781   2.135   0.414   1.755
 1834SOL     MW 7782   2.071   0.374   1.712
 1835SOL     OW 7783   3.179   0.979   1.260
 1835SOL    HW1 7784   3.242   0.976   1.333
 1835SOL    HW2 7785   3.095   0.997   1.302
 1835SOL     MW 7786   3.175   0.981   1.275
 1836SOL     OW 7787   2.723   1.694   0.449
 1836SOL    HW1 7788   2.781   1.765   0.476
 1836SOL    HW2 7789   2.746   1.622   0.507
 1836SOL     MW 7790   2.734   1.694   0.460
 1837SOL     OW 7791   3.518   0.156   1.039
 1837SOL    HW1 7792   3.563   0.074   1.058
 1837SOL    HW2 7793   3.538   0.212   1.115
 1837SOL     MW 7794   3.528   0.152   1.051
 1838SOL     OW 7795   1.966  -0.001   1.138
 1838SOL    HW1 7796   1.957   0.000   1.043
 1838SOL    HW2 7797   2.060   0.011   1.153
 1838SOL     MW 7798   1.978   0.002   1.129
 1839SOL     OW 7799   3.603   1.192   0.758
 1839SOL    HW1 7800   3.582   1.138   0.681
 1839SOL    HW2 7801   3.699   1.190   0.762
 1839SOL     MW 7802   3.612   1.185   0.747
 1840SOL     OW 7803   2.295   1.337   1.501
 1840SOL    HW1 7804   2.216   1.287   1.524
 1840SOL    HW2 7805   2.365   1.296   1.551
 1840SOL     MW 7806   2.293   1.325   1.511
 1841SOL     OW 7807   2.179   0.126   0.184
 1841SOL    HW1 7808   2.108   0.181   0.152
 1841SOL    HW2 7809   2.221   0.092   0.105
 1841SOL     MW 7810   2.175   0.128   0.170
 1842SOL     OW 7811   3.303   0.623   1.020
 1842SOL    HW1 7812   3.226   0.669   0.986
 1842SOL    HW2 7813   3.360   0.692   1.054
 1842SOL     MW 7814   3.300   0.638   1.020
 1843SOL     OW 7815   1.935   0.225   0.033
 1843SOL    HW1 7816   1.902   0.304   0.077
 1843SOL    HW2 7817   1.990   0.258  -0.038
 1843SOL     MW 7818   1.938   0.239   0.030
 1844SOL     OW 7819   1.969   1.482   0.222
 1844SOL    HW1 7820   1.986   1.566   0.264
 1844SOL    HW2 7821   2.004   1.491   0.134
 1844SOL     MW 7822   1.974   1.495   0.216
 1845SOL     OW 7823   3.604   0.839   2.125
 1845SOL    HW1 7824   3.645   0.781   2.190
 1845SOL    HW2 7825   3.511   0.831   2.142
 1845SOL     MW 7826   3.598   0.831   2.135
 1846SOL     OW 7827   3.470   0.771   3.120
 1846SOL    HW1 7828   3.425   0.838   3.171
 1846SOL    HW2 7829   3.558   0.807   3.106
 1846SOL     MW 7830   3.476   0.784   3.124
 1847SOL     OW 7831   2.398   1.022   2.354
 1847SOL    HW1 7832   2.488   0.997   2.338
 1847SOL    HW2 7833   2.394   1.115   2.331
 1847SOL     MW 7834   2.410   1.031   2.349
 1848SOL     OW 7835   3.514   1.725   2.496
 1848SOL    HW1 7836   3.526   1.671   2.574
 1848SOL    HW2 7837   3.551   1.673   2.425
 1848SOL     MW 7838   3.520   1.710   2.497
 1849SOL     OW 7839   2.893   1.610   3.497
 1849SOL    HW1 7840   2.934   1.646   3.418
 1849SOL    HW2 7841   2.928   1.521   3.504
 1849SOL     MW 7842   2.904   1.603   3.488
 1850SOL     OW 7843   3.450   1.165   3.101
 1850SOL    HW1 7844   3.371   1.130   3.059
 1850SOL    HW2 7845   3.477   1.237   3.045
 1850SOL     MW 7846   3.443   1.170   3.088
 1851SOL     OW 7847   2.682   0.478   2.367
 1851SOL    HW1 7848   2.657   0.566   2.395
 1851SOL    HW2 7849   2.679   0.481   2.271
 1851SOL     MW 7850   2.678   0.490   2.359
 1852SOL     OW 7851   2.124   0.506   2.295
 1852SOL    HW1 7852   2.156   0.594   2.277
 1852SOL    HW2 7853   2.112   0.504   2.390
 1852SOL     MW 7854   2.127   0.518   2.307
 1853SOL     OW 7855   2.202   0.919   3.196
 1853SOL    HW1 7856   2.265   0.866   3.147
 1853SOL    HW2 7857   2.183   0.993   3.139
 1853SOL     MW 7858   2.208   0.921   3.183
 1854SOL     OW 7859   2.523   0.261   2.382
 1854SOL    HW1 7860   2.581   0.337   2.384
 1854SOL    HW2 7861   2.458   0.282   2.315
 1854SOL     MW 7862   2.522   0.273   2.373
 1855SOL     OW 7863   2.610   1.188   2.557
 1855SOL    HW1 7864   2.690   1.191   2.609
 1855SOL    HW2 7865   2.638   1.155   2.471
 1855SOL     MW 7866   2.624   1.184   2.552
 1856SOL     OW 7867   2.635   1.529   3.460
 1856SOL    HW1 7868   2.719   1.555   3.499
 1856SOL    HW2 7869   2.659   1.473   3.386
 1856SOL     MW 7870   2.649   1.525   3.455
 1857SOL     OW 7871   2.387   0.692   2.548
 1857SOL    HW1 7872   2.372   0.612   2.599
 1857SOL    HW2 7873   2.469   0.727   2.582
 1857SOL     MW 7874   2.395   0.684   2.560
 1858SOL     OW 7875   2.724   1.378   3.233
 1858SOL    HW1 7876   2.688   1.444   3.173
 1858SOL    HW2 7877   2.652   1.316   3.246
 1858SOL     MW 7878   2.710   1.378   3.227
 1859SOL     OW 7879   2.529   0.518   2.925
 1859SOL    HW1 7880   2.435   0.514   2.943
 1859SOL    HW2 7881   2.559   0.427   2.934
 1859SOL     MW 7882   2.520   0.506   2.928
 1860SOL     OW 7883   2.275   0.932   2.829
 1860SOL    HW1 7884   2.230   0.939   2.745
 1860SOL    HW2 7885   2.255   1.015   2.873
 1860SOL     MW 7886   2.267   0.944   2.823
 1861SOL     OW 7887   1.972   1.778   2.704
 1861SOL    HW1 7888   2.061   1.770   2.739
 1861SOL    HW2 7889   1.936   1.690   2.709
 1861SOL     MW 7890   1.979   1.765   2.709
 1862SOL     OW 7891   3.237   1.170   2.073
 1862SOL    HW1 7892   3.155   1.206   2.039
 1862SOL    HW2 7893   3.305   1.213   2.022
 1862SOL     MW 7894   3.235   1.180   2.061
 1863SOL     OW 7895   2.236   1.305   2.739
 1863SOL    HW1 7896   2.212   1.358   2.815
 1863SOL    HW2 7897   2.292   1.363   2.687
 1863SOL     MW 7898   2.240   1.320   2.742
 1864SOL     OW 7899   2.798   0.949   2.549
 1864SOL    HW1 7900   2.712   0.936   2.589
 1864SOL    HW2 7901   2.851   0.876   2.581
 1864SOL     MW 7902   2.794   0.938   2.558
 1865SOL     OW 7903   2.206   1.601   3.334
 1865SOL    HW1 7904   2.114   1.577   3.319
 1865SOL    HW2 7905   2.250   1.518   3.351
 1865SOL     MW 7906   2.200   1.586   3.333
 1866SOL     OW 7907   2.789   1.311   2.266
 1866SOL    HW1 7908   2.766   1.373   2.334
 1866SOL    HW2 7909   2.746   1.229   2.292
 1866SOL     MW 7910   2.781   1.307   2.277
 1867SOL     OW 7911   3.662   0.312   2.722
 1867SOL    HW1 7912   3.599   0.292   2.791
 1867SOL    HW2 7913   3.652   0.241   2.659
 1867SOL     MW 7914   3.652   0.299   2.723
 1868SOL     OW 7915   2.286   0.284   2.234
 1868SOL    HW1 7916   2.260   0.246   2.150
 1868SOL    HW2 7917   2.223   0.354   2.250
 1868SOL     MW 7918   2.275   0.287   2.225
 1869SOL     OW 7919   2.121   1.245   2.271
 1869SOL    HW1 7920   2.069   1.313   2.227
 1869SOL    HW2 7921   2.118   1.171   2.211
 1869SOL     MW 7922   2.113   1.244   2.258
 1870SOL     OW 7923   2.783   1.708   2.049
 1870SOL    HW1 7924   2.738   1.724   2.132
 1870SOL    HW2 7925   2.714   1.673   1.991
 1870SOL     MW 7926   2.769   1.705   2.051
 1871SOL     OW 7927   3.718   0.481   2.024
 1871SOL    HW1 7928   3.627   0.483   2.052
 1871SOL    HW2 7929   3.763   0.543   2.082
 1871SOL     MW 7930   3.711   0.489   2.034
 1872SOL     OW 7931   3.463   1.084   2.374
 1872SOL    HW1 7932   3.373   1.084   2.409
 1872SOL    HW2 7933   3.456   1.130   2.291
 1872SOL     MW 7934   3.450   1.090   2.368
 1873SOL     OW 7935   3.263   0.719   3.446
 1873SOL    HW1 7936   3.332   0.657   3.423
 1873SOL    HW2 7937   3.188   0.693   3.393
 1873SOL     MW 7938   3.263   0.706   3.437
 1874SOL     OW 7939   2.004   1.599   2.998
 1874SOL    HW1 7940   1.987   1.545   3.075
 1874SOL    HW2 7941   1.992   1.689   3.028
 1874SOL     MW 7942   2.001   1.603   3.012
 1875SOL     OW 7943   2.999   1.106   3.438
 1875SOL    HW1 7944   2.984   1.199   3.423
 1875SOL    HW2 7945   3.094   1.096   3.438
 1875SOL     MW 7946   3.008   1.116   3.435
 1876SOL     OW 7947   2.795   0.530   3.639
 1876SOL    HW1 7948   2.885   0.531   3.606
 1876SOL    HW2 7949   2.754   0.455   3.597
 1876SOL     MW 7950   2.801   0.520   3.630
 1877SOL     OW 7951   3.370   1.062   2.766
 1877SOL    HW1 7952   3.373   0.996   2.697
 1877SOL    HW2 7953   3.455   1.105   2.762
 1877SOL     MW 7954   3.382   1.058   2.757
 1878SOL     OW 7955   2.990   0.665   2.335
 1878SOL    HW1 7956   3.016   0.689   2.246
 1878SOL    HW2 7957   2.972   0.572   2.331
 1878SOL     MW 7958   2.992   0.657   2.322
 1879SOL     OW 7959   3.655   1.285   2.186
 1879SOL    HW1 7960   3.611   1.326   2.261
 1879SOL    HW2 7961   3.712   1.353   2.151
 1879SOL     MW 7962   3.657   1.299   2.191
 1880SOL     OW 7963   2.575   0.334   3.589
 1880SOL    HW1 7964   2.585   0.260   3.529
 1880SOL    HW2 7965   2.611   0.303   3.672
 1880SOL     MW 7966   2.581   0.320   3.591
 1881SOL     OW 7967   2.311   1.701   2.504
 1881SOL    HW1 7968   2.343   1.789   2.482
 1881SOL    HW2 7969   2.264   1.673   2.426
 1881SOL     MW 7970   2.310   1.709   2.491
 1882SOL     OW 7971   3.695   0.063   2.553
 1882SOL    HW1 7972   3.749   0.014   2.615
 1882SOL    HW2 7973   3.638  -0.003   2.514
 1882SOL     MW 7974   3.695   0.047   2.555
 1883SOL     OW 7975   2.027   1.761   2.081
 1883SOL    HW1 7976   2.056   1.851   2.073
 1883SOL    HW2 7977   1.977   1.744   2.002
 1883SOL     MW 7978   2.025   1.769   2.070
 1884SOL     OW 7979   2.814   0.016   2.966
 1884SOL    HW1 7980   2.773   0.094   2.928
 1884SOL    HW2 7981   2.908   0.034   2.961
 1884SOL     MW 7982   2.820   0.028   2.961
 1885SOL     OW 7983   3.431   1.569   2.052
 1885SOL    HW1 7984   3.479   1.638   2.098
 1885SOL    HW2 7985   3.352   1.613   2.021
 1885SOL     MW 7986   3.426   1.583   2.055
 1886SOL     OW 7987   2.829   0.694   1.996
 1886SOL    HW1 7988   2.831   0.641   1.917
 1886SOL    HW2 7989   2.917   0.731   2.002
 1886SOL     MW 7990   2.841   0.693   1.985
 1887SOL     OW 7991   3.443   0.620   2.332
 1887SOL    HW1 7992   3.482   0.620   2.419
 1887SOL    HW2 7993   3.384   0.696   2.332
 1887SOL     MW 7994   3.440   0.631   2.343
 1888SOL     OW 7995   2.760   0.987   3.461
 1888SOL    HW1 7996   2.737   0.967   3.551
 1888SOL    HW2 7997   2.845   1.031   3.466
 1888SOL     MW 7998   2.767   0.990   3.473
 1889SOL     OW 7999   2.840   0.124   3.221
 1889SOL    HW1 8000   2.846   0.086   3.134
 1889SOL    HW2 8001   2.829   0.218   3.206
 1889SOL     MW 8002   2.841   0.132   3.209
 1890SOL     OW 8003   2.929   0.613   3.055
 1890SOL    HW1 8004   3.004   0.642   3.002
 1890SOL    HW2 8005   2.861   0.678   3.039
 1890SOL     MW 8006   2.930   0.625   3.045
 1891SOL     OW 8007   3.479   0.581   3.332
 1891SOL    HW1 8008   3.460   0.490   3.311
 1891SOL    HW2 8009   3.457   0.630   3.253
 1891SOL     MW 8010   3.474   0.574   3.319
 1892SOL     OW 8011   3.621   1.675   3.236
 1892SOL    HW1 8012   3.549   1.637   3.287
 1892SOL    HW2 8013   3.638   1.760   3.277
 1892SOL     MW 8014   3.615   1.680   3.248
 1893SOL     OW 8015   2.926   0.319   3.438
 1893SOL    HW1 8016   2.892   0.358   3.357
 1893SOL    HW2 8017   2.904   0.227   3.431
 1893SOL     MW 8018   2.919   0.312   3.428
 1894SOL     OW 8019   3.335   1.133   3.514
 1894SOL    HW1 8020   3.417   1.174   3.544
 1894SOL    HW2 8021   3.298   1.095   3.594
 1894SOL     MW 8022   3.341   1.134   3.529
 1895SOL     OW 8023   3.630   0.506   2.498
 1895SOL    HW1 8024   3.719   0.475   2.515
 1895SOL    HW2 8025   3.573   0.446   2.546
 1895SOL     MW 8026   3.633   0.494   2.507
 1896SOL     OW 8027   2.056   0.220   2.527
 1896SOL    HW1 8028   2.047   0.160   2.453
 1896SOL    HW2 8029   1.989   0.191   2.590
 1896SOL     MW 8030   2.046   0.207   2.525
 1897SOL     OW 8031   2.999   1.313   2.088
 1897SOL    HW1 8032   2.949   1.315   2.170
 1897SOL    HW2 8033   2.933   1.331   2.020
 1897SOL     MW 8034   2.985   1.315   2.090
 1898SOL     OW 8035   2.003   0.393   2.890
 1898SOL    HW1 8036   1.975   0.484   2.899
 1898SOL    HW2 8037   1.940   0.354   2.829
 1898SOL     MW 8038   1.990   0.399   2.884
 1899SOL     OW 8039   2.462   1.731   2.196
 1899SOL    HW1 8040   2.383   1.689   2.229
 1899SOL    HW2 8041   2.528   1.714   2.263
 1899SOL     MW 8042   2.461   1.723   2.209
 1900SOL     OW 8043   3.590   1.251   3.593
 1900SOL    HW1 8044   3.640   1.177   3.625
 1900SOL    HW2 8045   3.536   1.278   3.668
 1900SOL     MW 8046   3.590   1.245   3.606
 1901SOL     OW 8047   2.598   1.146   1.903
 1901SOL    HW1 8048   2.520   1.092   1.890
 1901SOL    HW2 8049   2.569   1.219   1.956
 1901SOL     MW 8050   2.584   1.148   1.908
 1902SOL     OW 8051   3.724   0.886   3.095
 1902SOL    HW1 8052   3.740   0.924   3.008
 1902SOL    HW2 8053   3.758   0.952   3.156
 1902SOL     MW 8054   3.731   0.899   3.091
 1903SOL     OW 8055   3.516   1.595   2.764
 1903SOL    HW1 8056   3.545   1.662   2.825
 1903SOL    HW2 8057   3.497   1.519   2.819
 1903SOL     MW 8058   3.518   1.595   2.779
 1904SOL     OW 8059   3.179   1.662   1.971
 1904SOL    HW1 8060   3.105   1.625   2.021
 1904SOL    HW2 8061   3.187   1.752   2.004
 1904SOL     MW 8062   3.170   1.669   1.983
 1905SOL     OW 8063   1.987   0.668   3.060
 1905SOL    HW1 8064   2.049   0.698   3.126
 1905SOL    HW2 8065   1.921   0.737   3.054
 1905SOL     MW 8066   1.986   0.681   3.067
 1906SOL     OW 8067   3.403   1.336   1.913
 1906SOL    HW1 8068   3.350   1.385   1.849
 1906SOL    HW2 8069   3.434   1.402   1.974
 1906SOL     MW 8070   3.401   1.350   1.911
 1907SOL     OW 8071   2.628   0.225   1.968
 1907SOL    HW1 8072   2.576   0.145   1.956
 1907SOL    HW2 8073   2.715   0.202   1.936
 1907SOL     MW 8074   2.631   0.211   1.962
 1908SOL     OW 8075   2.082   1.777   3.512
 1908SOL    HW1 8076   2.056   1.845   3.450
 1908SOL    HW2 8077   2.130   1.714   3.460
 1908SOL     MW 8078   2.084   1.777   3.498
 1909SOL     OW 8079   2.134   1.096   3.019
 1909SOL    HW1 8080   2.187   1.171   3.044
 1909SOL    HW2 8081   2.053   1.134   2.985
 1909SOL     MW 8082   2.130   1.111   3.019
 1910SOL     OW 8083   2.674   1.000   3.007
 1910SOL    HW1 8084   2.702   0.909   3.019
 1910SOL    HW2 8085   2.603   0.994   2.943
 1910SOL     MW 8086   2.667   0.988   3.002
 1911SOL     OW 8087   1.989   0.865   2.425
 1911SOL    HW1 8088   2.080   0.880   2.452
 1911SOL    HW2 8089   1.992   0.786   2.371
 1911SOL     MW 8090   2.001   0.857   2.423
 1912SOL     OW 8091   2.225   0.573   3.679
 1912SOL    HW1 8092   2.172   0.653   3.686
 1912SOL    HW2 8093   2.295   0.585   3.744
 1912SOL     MW 8094   2.227   0.586   3.687
 1913SOL     OW 8095   2.611   0.123   3.386
 1913SOL    HW1 8096   2.588   0.031   3.388
 1913SOL    HW2 8097   2.697   0.125   3.343
 1913SOL     MW 8098   2.618   0.113   3.382
 1914SOL     OW 8099   2.295   0.647   3.425
 1914SOL    HW1 8100   2.375   0.697   3.411
 1914SOL    HW2 8101   2.286   0.641   3.520
 1914SOL     MW 8102   2.304   0.653   3.435
 1915SOL     OW 8103   2.616   1.797   2.799
 1915SOL    HW1 8104   2.705   1.812   2.829
 1915SOL    HW2 8105   2.611   1.844   2.715
 1915SOL     MW 8106   2.626   1.805   2.792
 1916SOL     OW 8107   3.272   0.172   3.696
 1916SOL    HW1 8108   3.328   0.099   3.722
 1916SOL    HW2 8109   3.242   0.210   3.778
 1916SOL     MW 8110   3.276   0.167   3.709
 1917SOL     OW 8111   1.997   1.477   2.464
 1917SOL    HW1 8112   1.969   1.516   2.546
 1917SOL    HW2 8113   2.017   1.386   2.486
 1917SOL     MW 8114   1.995   1.469   2.477
 1918SOL     OW 8115   2.830   1.520   2.499
 1918SOL    HW1 8116   2.913   1.474   2.483
 1918SOL    HW2 8117   2.820   1.519   2.595
 1918SOL     MW 8118   2.840   1.513   2.509
 1919SOL     OW 8119   3.662   0.665   2.813
 1919SOL    HW1 8120   3.751   0.695   2.795
 1919SOL    HW2 8121   3.642   0.605   2.742
 1919SOL     MW 8122   3.671   0.662   2.802
 1920SOL     OW 8123   3.513   0.844   3.693
 1920SOL    HW1 8124   3.568   0.768   3.674
 1920SOL    HW2 8125   3.515   0.852   3.788
 1920SOL     MW 8126   3.521   0.835   3.701
 1921SOL     OW 8127   2.563   1.577   1.904
 1921SOL    HW1 8128   2.503   1.646   1.874
 1921SOL    HW2 8129   2.508   1.519   1.957
 1921SOL     MW 8130   2.547   1.579   1.906
 1922SOL     OW 8131   3.001   0.222   2.127
 1922SOL    HW1 8132   2.934   0.198   2.064
 1922SOL    HW2 8133   3.066   0.271   2.076
 1922SOL     MW 8134   3.001   0.224   2.112
 1923SOL     OW 8135   2.808   0.406   3.212
 1923SOL    HW1 8136   2.727   0.447   3.240
 1923SOL    HW2 8137   2.855   0.474   3.164
 1923SOL     MW 8138   2.803   0.421   3.210
 1924SOL     OW 8139   3.068   0.744   2.835
 1924SOL    HW1 8140   3.081   0.838   2.845
 1924SOL    HW2 8141   3.029   0.734   2.749
 1924SOL     MW 8142   3.064   0.755   2.825
 1925SOL     OW 8143   2.520   0.939   2.639
 1925SOL    HW1 8144   2.431   0.930   2.672
 1925SOL    HW2 8145   2.524   1.029   2.607
 1925SOL     MW 8146   2.509   0.950   2.639
 1926SOL     OW 8147   3.319   0.522   2.634
 1926SOL    HW1 8148   3.264   0.443   2.633
 1926SOL    HW2 8149   3.301   0.563   2.718
 1926SOL     MW 8150   3.309   0.517   2.643
 1927SOL     OW 8151   2.290   0.209   3.451
 1927SOL    HW1 8152   2.211   0.227   3.503
 1927SOL    HW2 8153   2.285   0.271   3.378
 1927SOL     MW 8154   2.280   0.219   3.448
 1928SOL     OW 8155   2.938   0.726   2.591
 1928SOL    HW1 8156   2.875   0.658   2.615
 1928SOL    HW2 8157   2.958   0.707   2.499
 1928SOL     MW 8158   2.932   0.713   2.583
 1929SOL     OW 8159   2.194   1.621   2.293
 1929SOL    HW1 8160   2.155   1.668   2.219
 1929SOL    HW2 8161   2.128   1.556   2.318
 1929SOL     MW 8162   2.181   1.619   2.287
 1930SOL     OW 8163   2.686   1.030   2.317
 1930SOL    HW1 8164   2.688   1.004   2.224
 1930SOL    HW2 8165   2.744   0.967   2.360
 1930SOL     MW 8166   2.694   1.019   2.311
 1931SOL     OW 8167   3.239   1.590   3.089
 1931SOL    HW1 8168   3.164   1.636   3.127
 1931SOL    HW2 8169   3.221   1.497   3.106
 1931SOL     MW 8170   3.228   1.584   3.097
 1932SOL     OW 8171   3.243   1.798   2.519
 1932SOL    HW1 8172   3.186   1.751   2.458
 1932SOL    HW2 8173   3.329   1.759   2.506
 1932SOL     MW 8174   3.246   1.789   2.509
 1933SOL     OW 8175   3.196   0.274   2.650
 1933SOL    HW1 8176   3.224   0.206   2.711
 1933SOL    HW2 8177   3.110   0.245   2.620
 1933SOL     MW 8178   3.189   0.261   2.654
 1934SOL     OW 8179   2.001   1.208   2.584
 1934SOL    HW1 8180   2.065   1.240   2.647
 1934SOL    HW2 8181   2.050   1.144   2.532
 1934SOL     MW 8182   2.016   1.204   2.585
 1935SOL     OW 8183   2.501   1.284   3.566
 1935SOL    HW1 8184   2.549   1.367   3.553
 1935SOL    HW2 8185   2.558   1.232   3.622
 1935SOL     MW 8186   2.515   1.288   3.572
 1936SOL     OW 8187   2.077   1.526   3.706
 1936SOL    HW1 8188   2.133   1.450   3.721
 1936SOL    HW2 8189   2.026   1.504   3.628
 1936SOL     MW 8190   2.077   1.513   3.697
 1937SOL     OW 8191   3.176   0.378   1.985
 1937SOL    HW1 8192   3.149   0.444   1.921
 1937SOL    HW2 8193   3.246   0.421   2.035
 1937SOL     MW 8194   3.181   0.391   1.982
 1938SOL     OW 8195   2.844   0.083   1.922
 1938SOL    HW1 8196   2.900   0.075   1.844
 1938SOL    HW2 8197   2.821  -0.007   1.944
 1938SOL     MW 8198   2.849   0.070   1.915
 1939SOL     OW 8199   3.349   0.934   2.127
 1939SOL    HW1 8200   3.316   1.023   2.117
 1939SOL    HW2 8201   3.314   0.905   2.212
 1939SOL     MW 8202   3.339   0.943   2.138
 1940SOL     OW 8203   2.962   1.363   3.315
 1940SOL    HW1 8204   2.873   1.369   3.283
 1940SOL    HW2 8205   3.006   1.442   3.283
 1940SOL     MW 8206   2.957   1.373   3.307
 1941SOL     OW 8207   2.255   0.031   3.657
 1941SOL    HW1 8208   2.183  -0.004   3.605
 1941SOL    HW2 8209   2.313   0.072   3.592
 1941SOL     MW 8210   2.253   0.032   3.642
 1942SOL     OW 8211   2.279   1.521   2.956
 1942SOL    HW1 8212   2.324   1.583   3.013
 1942SOL    HW2 8213   2.186   1.540   2.969
 1942SOL     MW 8214   2.272   1.531   2.963
 1943SOL     OW 8215   3.719   1.050   3.310
 1943SOL    HW1 8216   3.634   1.063   3.269
 1943SOL    HW2 8217   3.699   1.014   3.397
 1943SOL     MW 8218   3.706   1.046   3.315
 1944SOL     OW 8219   2.701   1.589   3.064
 1944SOL    HW1 8220   2.725   1.578   2.973
 1944SOL    HW2 8221   2.624   1.646   3.062
 1944SOL     MW 8222   2.693   1.594   3.053
 1945SOL     OW 8223   2.343   0.972   1.919
 1945SOL    HW1 8224   2.266   0.985   1.975
 1945SOL    HW2 8225   2.307   0.936   1.838
 1945SOL     MW 8226   2.329   0.968   1.916
 1946SOL     OW 8227   2.996   0.945   2.162
 1946SOL    HW1 8228   2.906   0.966   2.137
 1946SOL    HW2 8229   3.023   1.018   2.218
 1946SOL     MW 8230   2.988   0.957   2.165
 1947SOL     OW 8231   2.496   1.294   2.854
 1947SOL    HW1 8232   2.489   1.273   2.948
 1947SOL    HW2 8233   2.414   1.262   2.817
 1947SOL     MW 8234   2.484   1.288   2.861
 1948SOL     OW 8235   3.360   0.304   3.256
 1948SOL    HW1 8236   3.307   0.306   3.336
 1948SOL    HW2 8237   3.345   0.217   3.219
 1948SOL     MW 8238   3.352   0.294   3.261
 1949SOL     OW 8239   3.696   0.228   3.129
 1949SOL    HW1 8240   3.677   0.295   3.064
 1949SOL    HW2 8241   3.753   0.166   3.084
 1949SOL     MW 8242   3.700   0.229   3.115
 1950SOL     OW 8243   1.942   1.386   3.517
 1950SOL    HW1 8244   1.986   1.319   3.463
 1950SOL    HW2 8245   1.857   1.348   3.537
 1950SOL     MW 8246   1.937   1.372   3.513
 1951SOL     OW 8247   2.625   0.061   2.569
 1951SOL    HW1 8248   2.554   0.122   2.551
 1951SOL    HW2 8249   2.676   0.058   2.488
 1951SOL     MW 8250   2.621   0.067   2.556
 1952SOL     OW 8251   2.383   1.301   2.318
 1952SOL    HW1 8252   2.376   1.333   2.408
 1952SOL    HW2 8253   2.293   1.285   2.290
 1952SOL     MW 8254   2.371   1.303   2.325
 1953SOL     OW 8255   2.978   1.694   3.227
 1953SOL    HW1 8256   2.898   1.679   3.177
 1953SOL    HW2 8257   2.985   1.789   3.234
 1953SOL     MW 8258   2.969   1.705   3.221
 1954SOL     OW 8259   3.092   1.659   2.717
 1954SOL    HW1 8260   3.139   1.732   2.676
 1954SOL    HW2 8261   3.013   1.698   2.753
 1954SOL     MW 8262   3.087   1.674   2.716
 1955SOL     OW 8263   3.500   1.754   2.992
 1955SOL    HW1 8264   3.543   1.724   3.072
 1955SOL    HW2 8265   3.419   1.702   2.989
 1955SOL     MW 8266   3.495   1.743   3.002
 1956SOL     OW 8267   2.585   0.718   3.699
 1956SOL    HW1 8268   2.655   0.660   3.671
 1956SOL    HW2 8269   2.528   0.663   3.754
 1956SOL     MW 8270   2.587   0.705   3.703
 1957SOL     OW 8271   3.372   0.930   3.332
 1957SOL    HW1 8272   3.377   0.983   3.412
 1957SOL    HW2 8273   3.334   0.847   3.360
 1957SOL     MW 8274   3.368   0.925   3.347
 1958SOL     OW 8275   3.012   0.065   3.578
 1958SOL    HW1 8276   3.007  -0.028   3.559
 1958SOL    HW2 8277   3.095   0.076   3.624
 1958SOL     MW 8278   3.020   0.054   3.582
 1959SOL     OW 8279   2.386   0.585   2.032
 1959SOL    HW1 8280   2.352   0.641   2.102
 1959SOL    HW2 8281   2.457   0.535   2.072
 1959SOL     MW 8282   2.392   0.586   2.046
 1960SOL     OW 8283   3.482   1.336   2.854
 1960SOL    HW1 8284   3.517   1.318   2.767
 1960SOL    HW2 8285   3.387   1.337   2.841
 1960SOL     MW 8286   3.474   1.333   2.841
 1961SOL     OW 8287   2.911   0.984   3.223
 1961SOL    HW1 8288   2.954   1.019   3.301
 1961SOL    HW2 8289   2.894   1.061   3.169
 1961SOL     MW 8290   2.914   0.999   3.226
 1962SOL     OW 8291   3.442   0.471   2.096
 1962SOL    HW1 8292   3.434   0.542   2.033
 1962SOL    HW2 8293   3.460   0.515   2.179
 1962SOL     MW 8294   3.443   0.485   2.098
 1963SOL     OW 8295   2.302   0.126   2.525
 1963SOL    HW1 8296   2.352   0.169   2.456
 1963SOL    HW2 8297   2.217   0.170   2.525
 1963SOL     MW 8298   2.299   0.139   2.516
 1964SOL     OW 8299   2.061   1.188   3.385
 1964SOL    HW1 8300   2.089   1.141   3.463
 1964SOL    HW2 8301   1.982   1.143   3.356
 1964SOL     MW 8302   2.054   1.177   3.391
 1965SOL     OW 8303   2.569   0.515   3.352
 1965SOL    HW1 8304   2.541   0.603   3.376
 1965SOL    HW2 8305   2.538   0.459   3.423
 1965SOL     MW 8306   2.561   0.518   3.364
 1966SOL     OW 8307   3.111   0.733   2.071
 1966SOL    HW1 8308   3.158   0.751   1.990
 1966SOL    HW2 8309   3.077   0.817   2.099
 1966SOL     MW 8310   3.113   0.747   2.064
 1967SOL     OW 8311   2.224   0.911   2.565
 1967SOL    HW1 8312   2.282   0.967   2.513
 1967SOL    HW2 8313   2.268   0.826   2.567
 1967SOL     MW 8314   2.237   0.908   2.558
 1968SOL     OW 8315   3.364   0.263   2.402
 1968SOL    HW1 8316   3.286   0.213   2.427
 1968SOL    HW2 8317   3.335   0.354   2.402
 1968SOL     MW 8318   3.350   0.267   2.405
 1969SOL     OW 8319   2.950   0.225   2.561
 1969SOL    HW1 8320   2.970   0.300   2.505
 1969SOL    HW2 8321   2.930   0.264   2.646
 1969SOL     MW 8322   2.951   0.241   2.565
 1970SOL     OW 8323   2.846   1.475   1.893
 1970SOL    HW1 8324   2.873   1.553   1.845
 1970SOL    HW2 8325   2.753   1.490   1.912
 1970SOL     MW 8326   2.837   1.488   1.889
 1971SOL     OW 8327   3.710   0.998   3.580
 1971SOL    HW1 8328   3.623   0.978   3.616
 1971SOL    HW2 8329   3.764   0.924   3.605
 1971SOL     MW 8330   3.705   0.987   3.588
 1972SOL     OW 8331   1.931   1.511   2.737
 1972SOL    HW1 8332   1.963   1.515   2.828
 1972SOL    HW2 8333   1.836   1.519   2.745
 1972SOL     MW 8334   1.923   1.514   2.750
 1973SOL     OW 8335   1.886   0.637   2.284
 1973SOL    HW1 8336   1.826   0.609   2.354
 1973SOL    HW2 8337   1.960   0.577   2.290
 1973SOL     MW 8338   1.888   0.626   2.293
 1974SOL     OW 8339   3.454   1.849   3.718
 1974SOL    HW1 8340   3.499   1.773   3.683
 1974SOL    HW2 8341   3.492   1.862   3.805
 1974SOL     MW 8342   3.464   1.842   3.724
 1975SOL     OW 8343   3.054   1.368   2.444
 1975SOL    HW1 8344   3.077   1.319   2.522
 1975SOL    HW2 8345   3.135   1.410   2.416
 1975SOL     MW 8346   3.067   1.368   2.451
 1976SOL     OW 8347   2.312   0.376   3.173
 1976SOL    HW1 8348   2.345   0.457   3.213
 1976SOL    HW2 8349   2.285   0.402   3.085
 1976SOL     MW 8350   2.311   0.390   3.167
 1977SOL     OW 8351   2.266   0.343   2.909
 1977SOL    HW1 8352   2.296   0.257   2.880
 1977SOL    HW2 8353   2.171   0.336   2.912
 1977SOL     MW 8354   2.258   0.332   2.907
 1978SOL     OW 8355   3.095   0.552   3.600
 1978SOL    HW1 8356   3.147   0.487   3.553
 1978SOL    HW2 8357   3.053   0.603   3.530
 1978SOL     MW 8358   3.096   0.549   3.583
 1979SOL     OW 8359   3.194   0.347   3.461
 1979SOL    HW1 8360   3.101   0.331   3.448
 1979SOL    HW2 8361   3.220   0.285   3.529
 1979SOL     MW 8362   3.184   0.337   3.468
 1980SOL     OW 8363   2.409   0.121   2.800
 1980SOL    HW1 8364   2.419   0.030   2.826
 1980SOL    HW2 8365   2.365   0.117   2.715
 1980SOL     MW 8366   2.405   0.109   2.792
 1981SOL     OW 8367   2.503   1.736   3.346
 1981SOL    HW1 8368   2.420   1.721   3.391
 1981SOL    HW2 8369   2.562   1.669   3.381
 1981SOL     MW 8370   2.501   1.726   3.356
 1982SOL     OW 8371   3.560   0.443   2.971
 1982SOL    HW1 8372   3.493   0.476   3.031
 1982SOL    HW2 8373   3.603   0.521   2.937
 1982SOL     MW 8374   3.558   0.458   2.975
 1983SOL     OW 8375   3.738   1.163   2.941
 1983SOL    HW1 8376   3.731   1.103   2.866
 1983SOL    HW2 8377   3.664   1.223   2.930
 1983SOL     MW 8378   3.728   1.163   2.930
 1984SOL     OW 8379   3.120   1.025   2.859
 1984SOL    HW1 8380   3.134   0.997   2.950
 1984SOL    HW2 8381   3.206   1.056   2.831
 1984SOL     MW 8382   3.133   1.026   2.868
 1985SOL     OW 8383   3.203   0.520   3.138
 1985SOL    HW1 8384   3.224   0.521   3.045
 1985SOL    HW2 8385   3.248   0.442   3.171
 1985SOL     MW 8386   3.210   0.510   3.130
 1986SOL     OW 8387   3.696   0.651   3.680
 1986SOL    HW1 8388   3.733   0.596   3.749
 1986SOL    HW2 8389   3.721   0.608   3.598
 1986SOL     MW 8390   3.703   0.639   3.679
 1987SOL     OW 8391   3.243   0.949   3.731
 1987SOL    HW1 8392   3.309   0.897   3.685
 1987SOL    HW2 8393   3.263   0.936   3.824
 1987SOL     MW 8394   3.254   0.940   3.738
 1988SOL     OW 8395   3.194   0.035   2.080
 1988SOL    HW1 8396   3.268   0.079   2.123
 1988SOL    HW2 8397   3.118   0.089   2.102
 1988SOL     MW 8398   3.194   0.047   2.088
 1989SOL     OW 8399   3.254   0.810   2.358
 1989SOL    HW1 8400   3.169   0.780   2.328
 1989SOL    HW2 8401   3.246   0.817   2.453
 1989SOL     MW 8402   3.242   0.808   2.367
 1990SOL     OW 8403   2.330   1.273   3.089
 1990SOL    HW1 8404   2.342   1.300   3.180
 1990SOL    HW2 8405   2.311   1.354   3.042
 1990SOL     MW 8406   2.329   1.288   3.094
 1991SOL     OW 8407   2.614   0.253   2.912
 1991SOL    HW1 8408   2.587   0.255   3.003
 1991SOL    HW2 8409   2.544   0.205   2.867
 1991SOL     MW 8410   2.602   0.249   2.919
 1992SOL     OW 8411   2.468   1.745   3.074
 1992SOL    HW1 8412   2.520   1.822   3.051
 1992SOL    HW2 8413   2.477   1.737   3.169
 1992SOL     MW 8414   2.477   1.752   3.085
 1993SOL     OW 8415   3.370   1.330   3.306
 1993SOL    HW1 8416   3.355   1.259   3.369
 1993SOL    HW2 8417   3.416   1.288   3.234
 1993SOL     MW 8418   3.376   1.314   3.306
 1994SOL     OW 8419   2.444   1.061   3.423
 1994SOL    HW1 8420   2.481   1.066   3.335
 1994SOL    HW2 8421   2.483   1.134   3.470
 1994SOL     MW 8422   2.454   1.071   3.418
 1995SOL     OW 8423   2.624   1.104   3.235
 1995SOL    HW1 8424   2.683   1.050   3.288
 1995SOL    HW2 8425   2.639   1.076   3.145
 1995SOL     MW 8426   2.634   1.093   3.231
 1996SOL     OW 8427   2.627   0.476   2.084
 1996SOL    HW1 8428   2.700   0.525   2.047
 1996SOL    HW2 8429   2.643   0.385   2.058
 1996SOL     MW 8430   2.639   0.471   2.077
 1997SOL     OW 8431   3.435   1.593   3.407
 1997SOL    HW1 8432   3.477   1.578   3.492
 1997SOL    HW2 8433   3.426   1.506   3.369
 1997SOL     MW 8434   3.439   1.581   3.414
 1998SOL     OW 8435   3.095   0.072   2.998
 1998SOL    HW1 8436   3.150   0.081   2.920
 1998SOL    HW2 8437   3.150   0.106   3.069
 1998SOL     MW 8438   3.109   0.077   2.997
 1999SOL     OW 8439   2.102   0.985   2.182
 1999SOL    HW1 8440   2.039   1.001   2.111
 1999SOL    HW2 8441   2.049   0.948   2.253
 1999SOL     MW 8442   2.087   0.982   2.182
 2000SOL     OW 8443   2.458   1.339   2.041
 2000SOL    HW1 8444   2.473   1.315   2.133
 2000SOL    HW2 8445   2.366   1.317   2.025
 2000SOL     MW 8446   2.448   1.332   2.051
 2001SOL     OW 8447   2.997   1.570   2.193
 2001SOL    HW1 8448   3.005   1.488   2.144
 2001SOL    HW2 8449   2.916   1.609   2.160
 2001SOL     MW 8450   2.987   1.565   2.183
 2002SOL     OW 8451   2.256   1.728   2.762
 2002SOL    HW1 8452   2.260   1.639   2.797
 2002SOL    HW2 8453   2.282   1.719   2.671
 2002SOL     MW 8454   2.259   1.716   2.754
 2003SOL     OW 8455   2.873   1.206   3.005
 2003SOL    HW1 8456   2.805   1.140   3.021
 2003SOL    HW2 8457   2.891   1.200   2.912
 2003SOL     MW 8458   2.866   1.197   2.996
 2004SOL     OW 8459   1.962   1.481   3.256
 2004SOL    HW1 8460   1.952   1.439   3.342
 2004SOL    HW2 8461   1.883   1.534   3.246
 2004SOL     MW 8462   1.951   1.482   3.267
 2005SOL     OW 8463   2.866   0.345   2.826
 2005SOL    HW1 8464   2.796   0.297   2.871
 2005SOL    HW2 8465   2.898   0.408   2.890
 2005SOL     MW 8466   2.861   0.347   2.840
 2006SOL     OW 8467   2.517   0.781   3.446
 2006SOL    HW1 8468   2.510   0.876   3.434
 2006SOL    HW2 8469   2.526   0.770   3.541
 2006SOL     MW 8470   2.518   0.793   3.456
 2007SOL     OW 8471   2.238   1.296   3.704
 2007SOL    HW1 8472   2.310   1.298   3.641
 2007SOL    HW2 8473   2.208   1.205   3.703
 2007SOL     MW 8474   2.243   1.285   3.696
 2008SOL     OW 8475   3.322   0.059   3.171
 2008SOL    HW1 8476   3.393   0.005   3.135
 2008SOL    HW2 8477   3.321   0.038   3.264
 2008SOL     MW 8478   3.331   0.050   3.179
 2009SOL     OW 8479   3.522   1.589   3.655
 2009SOL    HW1 8480   3.495   1.586   3.746
 2009SOL    HW2 8481   3.618   1.593   3.658
 2009SOL     MW 8482   3.532   1.589   3.667
 2010SOL     OW 8483   2.333   0.451   2.639
 2010SOL    HW1 8484   2.404   0.399   2.602
 2010SOL    HW2 8485   2.319   0.416   2.726
 2010SOL     MW 8486   2.341   0.440   2.646
 2011SOL     OW 8487   1.888   1.786   3.711
 2011SOL    HW1 8488   1.938   1.764   3.633
 2011SOL    HW2 8489   1.896   1.881   3.719
 2011SOL     MW 8490   1.896   1.795   3.702
 2012SOL     OW 8491   2.649   1.544   2.715
 2012SOL    HW1 8492   2.577   1.481   2.728
 2012SOL    HW2 8493   2.610   1.629   2.733
 2012SOL     MW 8494   2.633   1.547   2.718
 2013SOL     OW 8495   2.969   0.392   2.363
 2013SOL    HW1 8496   2.991   0.329   2.295
 2013SOL    HW2 8497   2.874   0.384   2.374
 2013SOL     MW 8498   2.959   0.383   2.355
 2014SOL     OW 8499   2.054   0.082   2.295
 2014SOL    HW1 8500   2.125   0.103   2.234
 2014SOL    HW2 8501   2.008   0.010   2.253
 2014SOL     MW 8502   2.058   0.076   2.281
 2015SOL     OW 8503   1.885   0.549   3.438
 2015SOL    HW1 8504   1.949   0.615   3.413
 2015SOL    HW2 8505   1.804   0.576   3.395
 2015SOL     MW 8506   1.883   0.561   3.430
 2016SOL     OW 8507   3.623   1.456   2.395
 2016SOL    HW1 8508   3.593   1.389   2.456
 2016SOL    HW2 8509   3.717   1.462   2.409
 2016SOL     MW 8510   3.631   1.448   2.405
 2017SOL     OW 8511   3.179   1.133   2.325
 2017SOL    HW1 8512   3.151   1.219   2.358
 2017SOL    HW2 8513   3.207   1.149   2.235
 2017SOL     MW 8514   3.179   1.147   2.317
 2018SOL     OW 8515   2.841   0.053   2.378
 2018SOL    HW1 8516   2.878   0.112   2.443
 2018SOL    HW2 8517   2.818   0.109   2.304
 2018SOL     MW 8518   2.842   0.068   2.377
 2019SOL     OW 8519   3.694   0.935   2.800
 2019SOL    HW1 8520   3.685   0.967   2.711
 2019SOL    HW2 8521   3.647   0.851   2.800
 2019SOL     MW 8522   3.687   0.928   2.790
 2020SOL     OW 8523   2.070   0.775   3.379
 2020SOL    HW1 8524   2.091   0.844   3.317
 2020SOL    HW2 8525   2.150   0.722   3.384
 2020SOL     MW 8526   2.083   0.776   3.373
 2021SOL     OW 8527   3.606   0.866   2.501
 2021SOL    HW1 8528   3.700   0.855   2.489
 2021SOL    HW2 8529   3.582   0.938   2.442
 2021SOL     MW 8530   3.616   0.874   2.492
 2022SOL     OW 8531   2.055   0.790   3.646
 2022SOL    HW1 8532   1.981   0.734   3.672
 2022SOL    HW2 8533   2.050   0.793   3.551
 2022SOL     MW 8534   2.044   0.783   3.636
 2023SOL     OW 8535   2.221   0.077   3.096
 2023SOL    HW1 8536   2.264   0.161   3.116
 2023SOL    HW2 8537   2.294   0.015   3.089
 2023SOL     MW 8538   2.236   0.080   3.097
 2024SOL     OW 8539   2.262   0.744   2.274
 2024SOL    HW1 8540   2.262   0.839   2.259
 2024SOL    HW2 8541   2.339   0.728   2.328
 2024SOL     MW 8542   2.272   0.755   2.279
 2025SOL     OW 8543   3.038   0.603   3.338
 2025SOL    HW1 8544   3.074   0.576   3.254
 2025SOL    HW2 8545   2.951   0.637   3.317
 2025SOL     MW 8546   3.032   0.604   3.325
 2026SOL     OW 8547   2.021   0.475   2.563
 2026SOL    HW1 8548   2.083   0.482   2.636
 2026SOL    HW2 8549   2.021   0.382   2.540
 2026SOL     MW 8550   2.029   0.464   2.570
 2027SOL     OW 8551   3.568   1.815   2.095
 2027SOL    HW1 8552   3.635   1.848   2.035
 2027SOL    HW2 8553   3.525   1.894   2.129
 2027SOL     MW 8554   3.570   1.830   2.091
 2028SOL     OW 8555   2.703   0.736   3.047
 2028SOL    HW1 8556   2.661   0.654   3.023
 2028SOL    HW2 8557   2.704   0.735   3.143
 2028SOL     MW 8558   2.696   0.725   3.056
 2029SOL     OW 8559   3.374   1.869   3.446
 2029SOL    HW1 8560   3.377   1.775   3.429
 2029SOL    HW2 8561   3.397   1.877   3.538
 2029SOL     MW 8562   3.377   1.857   3.456
 2030SOL     OW 8563   2.507   0.206   3.152
 2030SOL    HW1 8564   2.438   0.269   3.173
 2030SOL    HW2 8565   2.534   0.170   3.237
 2030SOL     MW 8566   2.501   0.209   3.165
 2031SOL     OW 8567   1.890   1.047   2.021
 2031SOL    HW1 8568   1.859   1.112   2.084
 2031SOL    HW2 8569   1.839   0.969   2.040
 2031SOL     MW 8570   1.880   1.044   2.031
 2032SOL     OW 8571   3.302   0.059   2.769
 2032SOL    HW1 8572   3.390   0.068   2.806
 2032SOL    HW2 8573   3.312   0.000   2.695
 2032SOL     MW 8574   3.316   0.053   2.763
 2033SOL     OW 8575   3.334   0.798   2.613
 2033SOL    HW1 8576   3.414   0.813   2.562
 2033SOL    HW2 8577   3.327   0.703   2.619
 2033SOL     MW 8578   3.343   0.787   2.608
 2034SOL     OW 8579   2.474   1.847   1.963
 2034SOL    HW1 8580   2.379   1.847   1.955
 2034SOL    HW2 8581   2.490   1.793   2.041
 2034SOL     MW 8582   2.464   1.841   1.972
 2035SOL     OW 8583   2.784   0.724   3.310
 2035SOL    HW1 8584   2.853   0.791   3.307
 2035SOL    HW2 8585   2.717   0.762   3.366
 2035SOL     MW 8586   2.785   0.737   3.317
 2036SOL     OW 8587   2.202   1.024   3.558
 2036SOL    HW1 8588   2.156   0.940   3.560
 2036SOL    HW2 8589   2.259   1.018   3.482
 2036SOL     MW 8590   2.204   1.012   3.550
 2037SOL     OW 8591   3.319   0.667   1.879
 2037SOL    HW1 8592   3.247   0.643   1.821
 2037SOL    HW2 8593   3.385   0.704   1.821
 2037SOL     MW 8594   3.318   0.669   1.864
 2038SOL     OW 8595   2.453   1.399   2.559
 2038SOL    HW1 8596   2.518   1.332   2.580
 2038SOL    HW2 8597   2.505   1.476   2.536
 2038SOL     MW 8598   2.468   1.401   2.558
 2039SOL     OW 8599   2.714   0.564   2.689
 2039SOL    HW1 8600   2.654   0.582   2.761
 2039SOL    HW2 8601   2.748   0.476   2.708
 2039SOL     MW 8602   2.710   0.554   2.702
 2040SOL     OW 8603   3.655   0.063   3.358
 2040SOL    HW1 8604   3.576   0.109   3.386
 2040SOL    HW2 8605   3.690   0.117   3.287
 2040SOL     MW 8606   3.649   0.076   3.352
 2041SOL     OW 8607   2.939   1.147   2.708
 2041SOL    HW1 8608   3.031   1.128   2.726
 2041SOL    HW2 8609   2.912   1.077   2.648
 2041SOL     MW 8610   2.947   1.135   2.702
 2042SOL     OW 8611   2.732   0.967   2.063
 2042SOL    HW1 8612   2.718   0.879   2.028
 2042SOL    HW2 8613   2.683   1.024   2.004
 2042SOL     MW 8614   2.724   0.962   2.051
 2043SOL     OW 8615   3.213   1.385   2.804
 2043SOL    HW1 8616   3.186   1.469   2.769
 2043SOL    HW2 8617   3.173   1.380   2.891
 2043SOL     MW 8618   3.206   1.394   2.810
 2044SOL     OW 8619   3.132   1.333   3.072
 2044SOL    HW1 8620   3.143   1.300   3.161
 2044SOL    HW2 8621   3.051   1.292   3.041
 2044SOL     MW 8622   3.122   1.325   3.078
 2045SOL     OW 8623   2.145   0.691   2.842
 2045SOL    HW1 8624   2.095   0.690   2.923
 2045SOL    HW2 8625   2.165   0.783   2.826
 2045SOL     MW 8626   2.141   0.703   2.850
 2046SOL     OW 8627   3.212   1.455   3.604
 2046SOL    HW1 8628   3.212   1.549   3.620
 2046SOL    HW2 8629   3.257   1.445   3.520
 2046SOL     MW 8630   3.218   1.465   3.595
 2047SOL     OW 8631   3.451   0.173   2.165
 2047SOL    HW1 8632   3.444   0.177   2.260
 2047SOL    HW2 8633   3.463   0.264   2.138
 2047SOL     MW 8634   3.452   0.186   2.173
 2048SOL     OW 8635   2.740   0.736   2.279
 2048SOL    HW1 8636   2.720   0.722   2.186
 2048SOL    HW2 8637   2.833   0.715   2.286
 2048SOL     MW 8638   2.750   0.731   2.268
 2049SOL     OW 8639   2.067   0.359   3.583
 2049SOL    HW1 8640   2.024   0.418   3.520
 2049SOL    HW2 8641   2.135   0.414   3.623
 2049SOL     MW 8642   2.071   0.374   3.580
 2050SOL     OW 8643   3.179   0.979   3.128
 2050SOL    HW1 8644   3.242   0.976   3.201
 2050SOL    HW2 8645   3.095   0.997   3.170
 2050SOL     MW 8646   3.175   0.981   3.143
 2051SOL     OW 8647   2.723   1.694   2.317
 2051SOL    HW1 8648   2.781   1.765   2.344
 2051SOL    HW2 8649   2.746   1.622   2.375
 2051SOL     MW 8650   2.734   1.694   2.328
 2052SOL     OW 8651   3.518   0.156   2.907
 2052SOL    HW1 8652   3.563   0.074   2.926
 2052SOL    HW2 8653   3.538   0.212   2.983
 2052SOL     MW 8654   3.528   0.152   2.919
 2053SOL     OW 8655   1.966  -0.001   3.006
 2053SOL    HW1 8656   1.957   0.000   2.911
 2053SOL    HW2 8657   2.060   0.011   3.021
 2053SOL     MW 8658   1.978   0.002   2.997
 2054SOL     OW 8659   3.603   1.192   2.626
 2054SOL    HW1 8660   3.582   1.138   2.549
 2054SOL    HW2 8661   3.699   1.190   2.630
 2054SOL     MW 8662   3.612   1.185   2.615
 2055SOL     OW 8663   2.295   1.337   3.369
 2055SOL    HW1 8664   2.216   1.287   3.392
 2055SOL    HW2 8665   2.365   1.296   3.419
 2055SOL     MW 8666   2.293   1.325   3.379
 2056SOL     OW 8667   2.179   0.126   2.052
 2056SOL    HW1 8668   2.108   0.181   2.020
 2056SOL    HW2 8669   2.221   0.092   1.973
 2056SOL     MW 8670   2.175   0.128   2.038
 2057SOL     OW 8671   3.303   0.623   2.888
 2057SOL    HW1 8672   3.226   0.669   2.854
 2057SOL    HW2 8673   3.360   0.692   2.922
 2057SOL     MW 8674   3.300   0.638   2.888
 2058SOL     OW 8675   1.935   0.225   1.901
 2058SOL    HW1 8676   1.902   0.304   1.945
 2058SOL    HW2 8677   1.990   0.258   1.830
 2058SOL     MW 8678   1.938   0.239   1.898
 2059SOL     OW 8679   1.969   1.482   2.090
 2059SOL    HW1 8680   1.986   1.566   2.132
 2059SOL    HW2 8681   2.004   1.491   2.002
 2059SOL     MW 8682   1.974   1.495   2.084
 2060SOL     OW 8683   3.241   1.571   2.307
 2060SOL    HW1 8684   3.304   1.561   2.236
 2060SOL    HW2 8685   3.158   1.591   2.262
 2060SOL     MW 8686   3.238   1.572   2.292
 2061SOL     OW 8687   3.604   0.839   3.993
 2061SOL    HW1 8688   3.645   0.781   4.058
 2061SOL    HW2 8689   3.511   0.831   4.010
 2061SOL     MW 8690   3.598   0.831   4.003
 2062SOL     OW 8691   2.398   1.022   4.222
 2062SOL    HW1 8692   2.488   0.997   4.206
 2062SOL    HW2 8693   2.394   1.115   4.199
 2062SOL     MW 8694   2.410   1.031   4.217
 2063SOL     OW 8695   3.514   1.725   4.364
 2063SOL    HW1 8696   3.526   1.671   4.442
 2063SOL    HW2 8697   3.551   1.673   4.293
 2063SOL     MW 8698   3.520   1.710   4.365
 2064SOL     OW 8699   2.682   0.478   4.235
 2064SOL    HW1 8700   2.657   0.566   4.263
 2064SOL    HW2 8701   2.679   0.481   4.139
 2064SOL     MW 8702   2.678   0.490   4.227
 2065SOL     OW 8703   2.124   0.506   4.163
 2065SOL    HW1 8704   2.156   0.594   4.145
 2065SOL    HW2 8705   2.112   0.504   4.258
 2065SOL     MW 8706   2.127   0.518   4.175
 2066SOL     OW 8707   2.523   0.261   4.250
 2066SOL    HW1 8708   2.581   0.337   4.252
 2066SOL    HW2 8709   2.458   0.282   4.183
 2066SOL     MW 8710   2.522   0.273   4.241
 2067SOL     OW 8711   2.610   1.188   4.425
 2067SOL    HW1 8712   2.690   1.191   4.477
 2067SOL    HW2 8713   2.638   1.155   4.339
 2067SOL     MW 8714   2.624   1.184   4.420
 2068SOL     OW 8715   3.237   1.170   3.941
 2068SOL    HW1 8716   3.155   1.206   3.907
 2068SOL    HW2 8717   3.305   1.213   3.890
 2068SOL     MW 8718   3.235   1.180   3.929
 2069SOL     OW 8719   2.789   1.311   4.134
 2069SOL    HW1 8720   2.766   1.373   4.202
 2069SOL    HW2 8721   2.746   1.229   4.160
 2069SOL     MW 8722   2.781   1.307   4.145
 2070SOL     OW 8723   2.286   0.284   4.102
 2070SOL    HW1 8724   2.260   0.246   4.018
 2070SOL    HW2 8725   2.223   0.354   4.118
 2070SOL     MW 8726   2.275   0.287   4.093
 2071SOL     OW 8727   2.121   1.245   4.139
 2071SOL    HW1 8728   2.069   1.313   4.095
 2071SOL    HW2 8729   2.118   1.171   4.079
 2071SOL     MW 8730   2.113   1.244   4.126
 2072SOL     OW 8731   2.783   1.708   3.917
 2072SOL    HW1 8732   2.738   1.724   4.000
 2072SOL    HW2 8733   2.714   1.673   3.859
 2072SOL     MW 8734   2.769   1.705   3.919
 2073SOL     OW 8735   3.718   0.481   3.892
 2073SOL    HW1 8736   3.627   0.483   3.920
 2073SOL    HW2 8737   3.763   0.543   3.950
 2073SOL     MW 8738   3.711   0.489   3.902
 2074SOL     OW 8739   3.463   1.084   4.242
 2074SOL    HW1 8740   3.373   1.084   4.277
 2074SOL    HW2 8741   3.456   1.130   4.159
 2074SOL     MW 8742   3.450   1.090   4.236
 2075SOL     OW 8743   3.655   1.285   4.054
 2075SOL    HW1 8744   3.611   1.326   4.129
 2075SOL    HW2 8745   3.712   1.353   4.019
 2075SOL     MW 8746   3.657   1.299   4.059
 2076SOL     OW 8747   2.311   1.701   4.372
 2076SOL    HW1 8748   2.343   1.789   4.350
 2076SOL    HW2 8749   2.264   1.673   4.294
 2076SOL     MW 8750   2.310   1.709   4.359
 2077SOL     OW 8751   2.027   1.761   3.949
 2077SOL    HW1 8752   2.056   1.851   3.941
 2077SOL    HW2 8753   1.977   1.744   3.870
 2077SOL     MW 8754   2.025   1.769   3.938
 2078SOL     OW 8755   3.431   1.569   3.920
 2078SOL    HW1 8756   3.479   1.638   3.966
 2078SOL    HW2 8757   3.352   1.613   3.889
 2078SOL     MW 8758   3.426   1.583   3.923
 2079SOL     OW 8759   2.829   0.694   3.864
 2079SOL    HW1 8760   2.831   0.641   3.785
 2079SOL    HW2 8761   2.917   0.731   3.870
 2079SOL     MW 8762   2.841   0.693   3.853
 2080SOL     OW 8763   2.056   0.220   4.395
 2080SOL    HW1 8764   2.047   0.160   4.321
 2080SOL    HW2 8765   1.989   0.191   4.458
 2080SOL     MW 8766   2.046   0.207   4.393
 2081SOL     OW 8767   2.999   1.313   3.956
 2081SOL    HW1 8768   2.949   1.315   4.038
 2081SOL    HW2 8769   2.933   1.331   3.888
 2081SOL     MW 8770   2.985   1.315   3.958
 2082SOL     OW 8771   2.462   1.731   4.064
 2082SOL    HW1 8772   2.383   1.689   4.097
 2082SOL    HW2 8773   2.528   1.714   4.131
 2082SOL     MW 8774   2.461   1.723   4.077
 2083SOL     OW 8775   2.598   1.146   3.771
 2083SOL    HW1 8776   2.520   1.092   3.758
 2083SOL    HW2 8777   2.569   1.219   3.824
 2083SOL     MW 8778   2.584   1.148   3.776
 2084SOL     OW 8779   3.179   1.662   3.839
 2084SOL    HW1 8780   3.105   1.625   3.889
 2084SOL    HW2 8781   3.187   1.752   3.872
 2084SOL     MW 8782   3.170   1.669   3.851
 2085SOL     OW 8783   3.403   1.336   3.781
 2085SOL    HW1 8784   3.350   1.385   3.717
 2085SOL    HW2 8785   3.434   1.402   3.842
 2085SOL     MW 8786   3.401   1.350   3.779
 2086SOL     OW 8787   2.628   0.225   3.836
 2086SOL    HW1 8788   2.576   0.145   3.824
 2086SOL    HW2 8789   2.715   0.202   3.804
 2086SOL     MW 8790   2.631   0.211   3.830
 2087SOL     OW 8791   1.989   0.865   4.293
 2087SOL    HW1 8792   2.080   0.880   4.320
 2087SOL    HW2 8793   1.992   0.786   4.239
 2087SOL     MW 8794   2.001   0.857   4.291
 2088SOL     OW 8795   1.997   1.477   4.332
 2088SOL    HW1 8796   1.969   1.516   4.414
 2088SOL    HW2 8797   2.017   1.386   4.354
 2088SOL     MW 8798   1.995   1.469   4.345
 2089SOL     OW 8799   2.830   1.520   4.367
 2089SOL    HW1 8800   2.913   1.474   4.351
 2089SOL    HW2 8801   2.820   1.519   4.463
 2089SOL     MW 8802   2.840   1.513   4.377
 2090SOL     OW 8803   2.563   1.577   3.772
 2090SOL    HW1 8804   2.503   1.646   3.742
 2090SOL    HW2 8805   2.508   1.519   3.825
 2090SOL     MW 8806   2.547   1.579   3.774
 2091SOL     OW 8807   3.001   0.222   3.995
 2091SOL    HW1 8808   2.934   0.198   3.932
 2091SOL    HW2 8809   3.066   0.271   3.944
 2091SOL     MW 8810   3.001   0.224   3.980
 2092SOL     OW 8811   2.194   1.621   4.161
 2092SOL    HW1 8812   2.155   1.668   4.087
 2092SOL    HW2 8813   2.128   1.556   4.186
 2092SOL     MW 8814   2.181   1.619   4.155
 2093SOL     OW 8815   2.686   1.030   4.185
 2093SOL    HW1 8816   2.688   1.004   4.092
 2093SOL    HW2 8817   2.744   0.967   4.228
 2093SOL     MW 8818   2.694   1.019   4.179
 2094SOL     OW 8819   2.001   1.208   4.452
 2094SOL    HW1 8820   2.065   1.240   4.515
 2094SOL    HW2 8821   2.050   1.144   4.400
 2094SOL     MW 8822   2.016   1.204   4.453
 2095SOL     OW 8823   3.176   0.378   3.853
 2095SOL    HW1 8824   3.149   0.444   3.789
 2095SOL    HW2 8825   3.246   0.421   3.903
 2095SOL     MW 8826   3.181   0.391   3.850
 2096SOL     OW 8827   2.844   0.083   3.790
 2096SOL    HW1 8828   2.900   0.075   3.712
 2096SOL    HW2 8829   2.821  -0.007   3.812
 2096SOL     MW 8830   2.849   0.070   3.783
 2097SOL     OW 8831   3.349   0.934   3.995
 2097SOL    HW1 8832   3.316   1.023   3.985
 2097SOL    HW2 8833   3.314   0.905   4.080
 2097SOL     MW 8834   3.339   0.943   4.006
 2098SOL     OW 8835   2.343   0.972   3.787
 2098SOL    HW1 8836   2.266   0.985   3.843
 2098SOL    HW2 8837   2.307   0.936   3.706
 2098SOL     MW 8838   2.329   0.968   3.784
 2099SOL     OW 8839   2.625   0.061   4.437
 2099SOL    HW1 8840   2.554   0.122   4.419
 2099SOL    HW2 8841   2.676   0.058   4.356
 2099SOL     MW 8842   2.621   0.067   4.424
 2100SOL     OW 8843   2.383   1.301   4.186
 2100SOL    HW1 8844   2.376   1.333   4.276
 2100SOL    HW2 8845   2.293   1.285   4.158
 2100SOL     MW 8846   2.371   1.303   4.193
 2101SOL     OW 8847   2.386   0.585   3.900
 2101SOL    HW1 8848   2.352   0.641   3.970
 2101SOL    HW2 8849   2.457   0.535   3.940
 2101SOL     MW 8850   2.392   0.586   3.914
 2102SOL     OW 8851   3.442   0.471   3.964
 2102SOL    HW1 8852   3.434   0.542   3.901
 2102SOL    HW2 8853   3.460   0.515   4.047
 2102SOL     MW 8854   3.443   0.485   3.966
 2103SOL     OW 8855   2.302   0.126   4.393
 2103SOL    HW1 8856   2.352   0.169   4.324
 2103SOL    HW2 8857   2.217   0.170   4.393
 2103SOL     MW 8858   2.299   0.139   4.384
 2104SOL     OW 8859   3.111   0.733   3.939
 2104SOL    HW1 8860   3.158   0.751   3.858
 2104SOL    HW2 8861   3.077   0.817   3.967
 2104SOL     MW 8862   3.113   0.747   3.932
 2105SOL     OW 8863   2.224   0.911   4.433
 2105SOL    HW1 8864   2.282   0.967   4.381
 2105SOL    HW2 8865   2.268   0.826   4.435
 2105SOL     MW 8866   2.237   0.908   4.426
 2106SOL     OW 8867   2.846   1.475   3.761
 2106SOL    HW1 8868   2.873   1.553   3.713
 2106SOL    HW2 8869   2.753   1.490   3.780
 2106SOL     MW 8870   2.837   1.488   3.757
 2107SOL     OW 8871   1.886   0.637   4.152
 2107SOL    HW1 8872   1.826   0.609   4.222
 2107SOL    HW2 8873   1.960   0.577   4.158
 2107SOL     MW 8874   1.888   0.626   4.161
 2108SOL     OW 8875   3.054   1.368   4.312
 2108SOL    HW1 8876   3.077   1.319   4.390
 2108SOL    HW2 8877   3.135   1.410   4.284
 2108SOL     MW 8878   3.067   1.368   4.319
 2109SOL     OW 8879   3.194   0.035   3.948
 2109SOL    HW1 8880   3.268   0.079   3.991
 2109SOL    HW2 8881   3.118   0.089   3.970
 2109SOL     MW 8882   3.194   0.047   3.956
 2110SOL     OW 8883   2.627   0.476   3.952
 2110SOL    HW1 8884   2.700   0.525   3.915
 2110SOL    HW2 8885   2.643   0.385   3.926
 2110SOL     MW 8886   2.639   0.471   3.945
 2111SOL     OW 8887   2.102   0.985   4.050
 2111SOL    HW1 8888   2.039   1.001   3.979
 2111SOL    HW2 8889   2.049   0.948   4.121
 2111SOL     MW 8890   2.087   0.982   4.050
 2112SOL     OW 8891   2.458   1.339   3.909
 2112SOL    HW1 8892   2.473   1.315   4.001
 2112SOL    HW2 8893   2.366   1.317   3.893
 2112SOL     MW 8894   2.448   1.332   3.919
 2113SOL     OW 8895   2.997   1.570   4.061
 2113SOL    HW1 8896   3.005   1.488   4.012
 2113SOL    HW2 8897   2.916   1.609   4.028
 2113SOL     MW 8898   2.987   1.565   4.051
 2114SOL     OW 8899   2.054   0.082   4.163
 2114SOL    HW1 8900   2.125   0.103   4.102
 2114SOL    HW2 8901   2.008   0.010   4.121
 2114SOL     MW 8902   2.058   0.076   4.149
 2115SOL     OW 8903   3.179   1.133   4.193
 2115SOL    HW1 8904   3.151   1.219   4.226
 2115SOL    HW2 8905   3.207   1.149   4.103
 2115SOL     MW 8906   3.179   1.147   4.185
 2116SOL     OW 8907   2.262   0.744   4.142
 2116SOL    HW1 8908   2.262   0.839   4.127
 2116SOL    HW2 8909   2.339   0.728   4.196
 2116SOL     MW 8910   2.272   0.755   4.147
 2117SOL     OW 8911   2.021   0.475   4.431
 2117SOL    HW1 8912   2.083   0.482   4.504
 2117SOL    HW2 8913   2.021   0.382   4.408
 2117SOL     MW 8914   2.029   0.464   4.438
 2118SOL     OW 8915   3.568   1.815   3.963
 2118SOL    HW1 8916   3.635   1.848   3.903
 2118SOL    HW2 8917   3.525   1.894   3.997
 2118SOL     MW 8918   3.570   1.830   3.959
 2119SOL     OW 8919   1.890   1.047   3.889
 2119SOL    HW1 8920   1.859   1.112   3.952
 2119SOL    HW2 8921   1.839   0.969   3.908
 2119SOL     MW 8922   1.880   1.044   3.899
 2120SOL     OW 8923   2.474   1.847   3.831
 2120SOL    HW1 8924   2.379   1.847   3.823
 2120SOL    HW2 8925   2.490   1.793   3.909
 2120SOL     MW 8926   2.464   1.841   3.840
 2121SOL     OW 8927   3.319   0.667   3.747
 2121SOL    HW1 8928   3.247   0.643   3.689
 2121SOL    HW2 8929   3.385   0.704   3.689
 2121SOL     MW 8930   3.318   0.669   3.732
 2122SOL     OW 8931   2.453   1.399   4.427
 2122SOL    HW1 8932   2.518   1.332   4.448
 2122SOL    HW2 8933   2.505   1.476   4.404
 2122SOL     MW 8934   2.468   1.401   4.426
 2123SOL     OW 8935   2.732   0.967   3.931
 2123SOL    HW1 8936   2.718   0.879   3.896
 2123SOL    HW2 8937   2.683   1.024   3.872
 2123SOL     MW 8938   2.724   0.962   3.919
 2124SOL     OW 8939   3.451   0.173   4.033
 2124SOL    HW1 8940   3.444   0.177   4.128
 2124SOL    HW2 8941   3.463   0.264   4.006
 2124SOL     MW 8942   3.452   0.186   4.041
 2125SOL     OW 8943   2.740   0.736   4.147
 2125SOL    HW1 8944   2.720   0.722   4.054
 2125SOL    HW2 8945   2.833   0.715   4.154
 2125SOL     MW 8946   2.750   0.731   4.136
 2126SOL     OW 8947   2.723   1.694   4.185
 2126SOL    HW1 8948   2.781   1.765   4.212
 2126SOL    HW2 8949   2.746   1.622   4.243
 2126SOL     MW 8950   2.734   1.694   4.196
 2127SOL     OW 8951   2.179   0.126   3.920
 2127SOL    HW1 8952   2.108   0.181   3.888
 2127SOL    HW2 8953   2.221   0.092   3.841
 2127SOL     MW 8954   2.175   0.128   3.906
 2128SOL     OW 8955   1.935   0.225   3.769
 2128SOL    HW1 8956   1.902   0.304   3.813
 2128SOL    HW2 8957   1.990   0.258   3.698
 2128SOL     MW 8958   1.938   0.239   3.766
 2129SOL     OW 8959   1.969   1.482   3.958
 2129SOL    HW1 8960   1.986   1.566   4.000
 2129SOL    HW2 8961   2.004   1.491   3.870
 2129SOL     MW 8962   1.974   1.495   3.952
 2130SOL     OW 8963   3.241   1.571   4.175
 2130SOL    HW1 8964   3.304   1.561   4.104
 2130SOL    HW2 8965   3.158   1.591   4.130
 2130SOL     MW 8966   3.238   1.572   4.160
 2131SOL     OW 8967   3.470   2.639   1.252
 2131SOL    HW1 8968   3.425   2.706   1.303
 2131SOL    HW2 8969   3.558   2.675   1.238
 2131SOL     MW 8970   3.476   2.652   1.256
 2132SOL     OW 8971   2.398   2.890   0.486
 2132SOL    HW1 8972   2.488   2.865   0.470
 2132SOL    HW2 8973   2.394   2.983   0.463
 2132SOL     MW 8974   2.410   2.899   0.481
 2133SOL     OW 8975   3.514   3.593   0.628
 2133SOL    HW1 8976   3.526   3.539   0.706
 2133SOL    HW2 8977   3.551   3.541   0.557
 2133SOL     MW 8978   3.520   3.578   0.629
 2134SOL     OW 8979   2.893   3.478   1.629
 2134SOL    HW1 8980   2.934   3.514   1.550
 2134SOL    HW2 8981   2.928   3.389   1.636
 2134SOL     MW 8982   2.904   3.471   1.620
 2135SOL     OW 8983   3.450   3.033   1.233
 2135SOL    HW1 8984   3.371   2.998   1.191
 2135SOL    HW2 8985   3.477   3.105   1.177
 2135SOL     MW 8986   3.443   3.038   1.220
 2136SOL     OW 8987   2.682   2.346   0.499
 2136SOL    HW1 8988   2.657   2.434   0.527
 2136SOL    HW2 8989   2.679   2.349   0.403
 2136SOL     MW 8990   2.678   2.358   0.491
 2137SOL     OW 8991   2.124   2.374   0.427
 2137SOL    HW1 8992   2.156   2.462   0.409
 2137SOL    HW2 8993   2.112   2.372   0.522
 2137SOL     MW 8994   2.127   2.386   0.439
 2138SOL     OW 8995   2.202   2.787   1.328
 2138SOL    HW1 8996   2.265   2.734   1.279
 2138SOL    HW2 8997   2.183   2.861   1.271
 2138SOL     MW 8998   2.208   2.789   1.315
 2139SOL     OW 8999   2.523   2.129   0.514
 2139SOL    HW1 9000   2.581   2.205   0.516
 2139SOL    HW2 9001   2.458   2.150   0.447
 2139SOL     MW 9002   2.522   2.141   0.505
 2140SOL     OW 9003   2.610   3.056   0.689
 2140SOL    HW1 9004   2.690   3.059   0.741
 2140SOL    HW2 9005   2.638   3.023   0.603
 2140SOL     MW 9006   2.624   3.052   0.684
 2141SOL     OW 9007   2.635   3.397   1.592
 2141SOL    HW1 9008   2.719   3.423   1.631
 2141SOL    HW2 9009   2.659   3.341   1.518
 2141SOL     MW 9010   2.649   3.393   1.587
 2142SOL     OW 9011   2.387   2.560   0.680
 2142SOL    HW1 9012   2.372   2.480   0.731
 2142SOL    HW2 9013   2.469   2.595   0.714
 2142SOL     MW 9014   2.395   2.552   0.692
 2143SOL     OW 9015   2.724   3.246   1.365
 2143SOL    HW1 9016   2.688   3.312   1.305
 2143SOL    HW2 9017   2.652   3.184   1.378
 2143SOL     MW 9018   2.710   3.246   1.359
 2144SOL     OW 9019   2.529   2.386   1.057
 2144SOL    HW1 9020   2.435   2.382   1.075
 2144SOL    HW2 9021   2.559   2.295   1.066
 2144SOL     MW 9022   2.520   2.374   1.060
 2145SOL     OW 9023   2.275   2.800   0.961
 2145SOL    HW1 9024   2.230   2.807   0.877
 2145SOL    HW2 9025   2.255   2.883   1.005
 2145SOL     MW 9026   2.267   2.812   0.955
 2146SOL     OW 9027   1.972   3.646   0.836
 2146SOL    HW1 9028   2.061   3.638   0.871
 2146SOL    HW2 9029   1.936   3.558   0.841
 2146SOL     MW 9030   1.979   3.633   0.841
 2147SOL     OW 9031   2.236   3.173   0.871
 2147SOL    HW1 9032   2.212   3.226   0.947
 2147SOL    HW2 9033   2.292   3.231   0.819
 2147SOL     MW 9034   2.240   3.188   0.874
 2148SOL     OW 9035   2.798   2.817   0.681
 2148SOL    HW1 9036   2.712   2.804   0.721
 2148SOL    HW2 9037   2.851   2.744   0.713
 2148SOL     MW 9038   2.794   2.806   0.690
 2149SOL     OW 9039   2.206   3.469   1.466
 2149SOL    HW1 9040   2.114   3.445   1.451
 2149SOL    HW2 9041   2.250   3.386   1.483
 2149SOL     MW 9042   2.200   3.454   1.465
 2150SOL     OW 9043   2.789   3.179   0.398
 2150SOL    HW1 9044   2.766   3.241   0.466
 2150SOL    HW2 9045   2.746   3.097   0.424
 2150SOL     MW 9046   2.781   3.175   0.409
 2151SOL     OW 9047   3.662   2.180   0.854
 2151SOL    HW1 9048   3.599   2.160   0.923
 2151SOL    HW2 9049   3.652   2.109   0.791
 2151SOL     MW 9050   3.652   2.167   0.855
 2152SOL     OW 9051   2.286   2.152   0.366
 2152SOL    HW1 9052   2.260   2.114   0.282
 2152SOL    HW2 9053   2.223   2.222   0.382
 2152SOL     MW 9054   2.275   2.155   0.357
 2153SOL     OW 9055   2.121   3.113   0.403
 2153SOL    HW1 9056   2.069   3.181   0.359
 2153SOL    HW2 9057   2.118   3.039   0.343
 2153SOL     MW 9058   2.113   3.112   0.390
 2154SOL     OW 9059   2.783   3.576   0.181
 2154SOL    HW1 9060   2.738   3.592   0.264
 2154SOL    HW2 9061   2.714   3.541   0.123
 2154SOL     MW 9062   2.769   3.573   0.183
 2155SOL     OW 9063   3.463   2.952   0.506
 2155SOL    HW1 9064   3.373   2.952   0.541
 2155SOL    HW2 9065   3.456   2.998   0.423
 2155SOL     MW 9066   3.450   2.958   0.500
 2156SOL     OW 9067   3.263   2.587   1.578
 2156SOL    HW1 9068   3.332   2.525   1.555
 2156SOL    HW2 9069   3.188   2.561   1.525
 2156SOL     MW 9070   3.263   2.574   1.569
 2157SOL     OW 9071   2.004   3.467   1.130
 2157SOL    HW1 9072   1.987   3.413   1.207
 2157SOL    HW2 9073   1.992   3.557   1.160
 2157SOL     MW 9074   2.001   3.471   1.144
 2158SOL     OW 9075   2.999   2.974   1.570
 2158SOL    HW1 9076   2.984   3.067   1.555
 2158SOL    HW2 9077   3.094   2.964   1.570
 2158SOL     MW 9078   3.008   2.984   1.567
 2159SOL     OW 9079   2.795   2.398   1.771
 2159SOL    HW1 9080   2.885   2.399   1.738
 2159SOL    HW2 9081   2.754   2.323   1.729
 2159SOL     MW 9082   2.801   2.388   1.762
 2160SOL     OW 9083   3.370   2.930   0.898
 2160SOL    HW1 9084   3.373   2.864   0.829
 2160SOL    HW2 9085   3.455   2.973   0.894
 2160SOL     MW 9086   3.382   2.926   0.889
 2161SOL     OW 9087   2.990   2.533   0.467
 2161SOL    HW1 9088   3.016   2.557   0.378
 2161SOL    HW2 9089   2.972   2.440   0.463
 2161SOL     MW 9090   2.992   2.525   0.454
 2162SOL     OW 9091   2.575   2.202   1.721
 2162SOL    HW1 9092   2.585   2.128   1.661
 2162SOL    HW2 9093   2.611   2.171   1.804
 2162SOL     MW 9094   2.581   2.188   1.723
 2163SOL     OW 9095   2.311   3.569   0.636
 2163SOL    HW1 9096   2.343   3.657   0.614
 2163SOL    HW2 9097   2.264   3.541   0.558
 2163SOL     MW 9098   2.310   3.577   0.623
 2164SOL     OW 9099   3.695   1.931   0.685
 2164SOL    HW1 9100   3.749   1.882   0.747
 2164SOL    HW2 9101   3.638   1.865   0.646
 2164SOL     MW 9102   3.695   1.915   0.687
 2165SOL     OW 9103   2.027   3.629   0.213
 2165SOL    HW1 9104   2.056   3.719   0.205
 2165SOL    HW2 9105   1.977   3.612   0.134
 2165SOL     MW 9106   2.025   3.637   0.202
 2166SOL     OW 9107   2.814   1.884   1.098
 2166SOL    HW1 9108   2.773   1.962   1.060
 2166SOL    HW2 9109   2.908   1.902   1.093
 2166SOL     MW 9110   2.820   1.896   1.093
 2167SOL     OW 9111   3.431   3.437   0.184
 2167SOL    HW1 9112   3.479   3.506   0.230
 2167SOL    HW2 9113   3.352   3.481   0.153
 2167SOL     MW 9114   3.426   3.451   0.187
 2168SOL     OW 9115   2.829   2.562   0.128
 2168SOL    HW1 9116   2.831   2.509   0.049
 2168SOL    HW2 9117   2.917   2.599   0.134
 2168SOL     MW 9118   2.841   2.561   0.117
 2169SOL     OW 9119   3.443   2.488   0.464
 2169SOL    HW1 9120   3.482   2.488   0.551
 2169SOL    HW2 9121   3.384   2.564   0.464
 2169SOL     MW 9122   3.440   2.499   0.475
 2170SOL     OW 9123   2.760   2.855   1.593
 2170SOL    HW1 9124   2.737   2.835   1.683
 2170SOL    HW2 9125   2.845   2.899   1.598
 2170SOL     MW 9126   2.767   2.858   1.605
 2171SOL     OW 9127   2.840   1.992   1.353
 2171SOL    HW1 9128   2.846   1.954   1.266
 2171SOL    HW2 9129   2.829   2.086   1.338
 2171SOL     MW 9130   2.841   2.000   1.341
 2172SOL     OW 9131   2.929   2.481   1.187
 2172SOL    HW1 9132   3.004   2.510   1.134
 2172SOL    HW2 9133   2.861   2.546   1.171
 2172SOL     MW 9134   2.930   2.493   1.177
 2173SOL     OW 9135   3.479   2.449   1.464
 2173SOL    HW1 9136   3.460   2.358   1.443
 2173SOL    HW2 9137   3.457   2.498   1.385
 2173SOL     MW 9138   3.474   2.442   1.451
 2174SOL     OW 9139   3.621   3.543   1.368
 2174SOL    HW1 9140   3.549   3.505   1.419
 2174SOL    HW2 9141   3.638   3.628   1.409
 2174SOL     MW 9142   3.615   3.548   1.380
 2175SOL     OW 9143   2.926   2.187   1.570
 2175SOL    HW1 9144   2.892   2.226   1.489
 2175SOL    HW2 9145   2.904   2.095   1.563
 2175SOL     MW 9146   2.919   2.180   1.560
 2176SOL     OW 9147   3.335   3.001   1.646
 2176SOL    HW1 9148   3.417   3.042   1.676
 2176SOL    HW2 9149   3.298   2.963   1.726
 2176SOL     MW 9150   3.341   3.002   1.661
 2177SOL     OW 9151   3.630   2.374   0.630
 2177SOL    HW1 9152   3.719   2.343   0.647
 2177SOL    HW2 9153   3.573   2.314   0.678
 2177SOL     MW 9154   3.633   2.362   0.639
 2178SOL     OW 9155   2.056   2.088   0.659
 2178SOL    HW1 9156   2.047   2.028   0.585
 2178SOL    HW2 9157   1.989   2.059   0.722
 2178SOL     MW 9158   2.046   2.075   0.657
 2179SOL     OW 9159   2.003   2.261   1.022
 2179SOL    HW1 9160   1.975   2.352   1.031
 2179SOL    HW2 9161   1.940   2.222   0.961
 2179SOL     MW 9162   1.990   2.267   1.016
 2180SOL     OW 9163   2.462   3.599   0.328
 2180SOL    HW1 9164   2.383   3.557   0.361
 2180SOL    HW2 9165   2.528   3.582   0.395
 2180SOL     MW 9166   2.461   3.591   0.341
 2181SOL     OW 9167   3.590   3.119   1.725
 2181SOL    HW1 9168   3.640   3.045   1.757
 2181SOL    HW2 9169   3.536   3.146   1.800
 2181SOL     MW 9170   3.590   3.113   1.738
 2182SOL     OW 9171   2.598   3.014   0.035
 2182SOL    HW1 9172   2.520   2.960   0.022
 2182SOL    HW2 9173   2.569   3.087   0.088
 2182SOL     MW 9174   2.584   3.016   0.040
 2183SOL     OW 9175   3.724   2.754   1.227
 2183SOL    HW1 9176   3.740   2.792   1.140
 2183SOL    HW2 9177   3.758   2.820   1.288
 2183SOL     MW 9178   3.731   2.767   1.223
 2184SOL     OW 9179   3.516   3.463   0.896
 2184SOL    HW1 9180   3.545   3.530   0.957
 2184SOL    HW2 9181   3.497   3.387   0.951
 2184SOL     MW 9182   3.518   3.463   0.911
 2185SOL     OW 9183   1.987   2.536   1.192
 2185SOL    HW1 9184   2.049   2.566   1.258
 2185SOL    HW2 9185   1.921   2.605   1.186
 2185SOL     MW 9186   1.986   2.549   1.199
 2186SOL     OW 9187   2.628   2.093   0.100
 2186SOL    HW1 9188   2.576   2.013   0.088
 2186SOL    HW2 9189   2.715   2.070   0.068
 2186SOL     MW 9190   2.631   2.079   0.094
 2187SOL     OW 9191   2.082   3.645   1.644
 2187SOL    HW1 9192   2.056   3.713   1.582
 2187SOL    HW2 9193   2.130   3.582   1.592
 2187SOL     MW 9194   2.084   3.645   1.630
 2188SOL     OW 9195   2.134   2.964   1.151
 2188SOL    HW1 9196   2.187   3.039   1.176
 2188SOL    HW2 9197   2.053   3.002   1.117
 2188SOL     MW 9198   2.130   2.979   1.151
 2189SOL     OW 9199   2.674   2.868   1.139
 2189SOL    HW1 9200   2.702   2.777   1.151
 2189SOL    HW2 9201   2.603   2.862   1.075
 2189SOL     MW 9202   2.667   2.856   1.134
 2190SOL     OW 9203   1.989   2.733   0.557
 2190SOL    HW1 9204   2.080   2.748   0.584
 2190SOL    HW2 9205   1.992   2.654   0.503
 2190SOL     MW 9206   2.001   2.725   0.555
 2191SOL     OW 9207   2.225   2.441   1.811
 2191SOL    HW1 9208   2.172   2.521   1.818
 2191SOL    HW2 9209   2.295   2.453   1.876
 2191SOL     MW 9210   2.227   2.454   1.819
 2192SOL     OW 9211   2.611   1.991   1.518
 2192SOL    HW1 9212   2.588   1.899   1.520
 2192SOL    HW2 9213   2.697   1.993   1.475
 2192SOL     MW 9214   2.618   1.981   1.514
 2193SOL     OW 9215   2.295   2.515   1.557
 2193SOL    HW1 9216   2.375   2.565   1.543
 2193SOL    HW2 9217   2.286   2.509   1.652
 2193SOL     MW 9218   2.304   2.521   1.567
 2194SOL     OW 9219   2.616   3.665   0.931
 2194SOL    HW1 9220   2.705   3.680   0.961
 2194SOL    HW2 9221   2.611   3.712   0.847
 2194SOL     MW 9222   2.626   3.673   0.924
 2195SOL     OW 9223   3.272   2.040   1.828
 2195SOL    HW1 9224   3.328   1.967   1.854
 2195SOL    HW2 9225   3.242   2.078   1.910
 2195SOL     MW 9226   3.276   2.035   1.841
 2196SOL     OW 9227   1.997   3.345   0.596
 2196SOL    HW1 9228   1.969   3.384   0.678
 2196SOL    HW2 9229   2.017   3.254   0.618
 2196SOL     MW 9230   1.995   3.337   0.609
 2197SOL     OW 9231   2.830   3.388   0.631
 2197SOL    HW1 9232   2.913   3.342   0.615
 2197SOL    HW2 9233   2.820   3.387   0.727
 2197SOL     MW 9234   2.840   3.381   0.641
 2198SOL     OW 9235   3.662   2.533   0.945
 2198SOL    HW1 9236   3.751   2.563   0.927
 2198SOL    HW2 9237   3.642   2.473   0.874
 2198SOL     MW 9238   3.671   2.530   0.934
 2199SOL     OW 9239   3.513   2.712   1.825
 2199SOL    HW1 9240   3.568   2.636   1.806
 2199SOL    HW2 9241   3.515   2.720   1.920
 2199SOL     MW 9242   3.521   2.703   1.833
 2200SOL     OW 9243   2.563   3.445   0.036
 2200SOL    HW1 9244   2.503   3.514   0.006
 2200SOL    HW2 9245   2.508   3.387   0.089
 2200SOL     MW 9246   2.547   3.447   0.038
 2201SOL     OW 9247   2.808   2.274   1.344
 2201SOL    HW1 9248   2.727   2.315   1.372
 2201SOL    HW2 9249   2.855   2.342   1.296
 2201SOL     MW 9250   2.803   2.289   1.342
 2202SOL     OW 9251   3.068   2.612   0.967
 2202SOL    HW1 9252   3.081   2.706   0.977
 2202SOL    HW2 9253   3.029   2.602   0.881
 2202SOL     MW 9254   3.064   2.623   0.957
 2203SOL     OW 9255   2.520   2.807   0.771
 2203SOL    HW1 9256   2.431   2.798   0.804
 2203SOL    HW2 9257   2.524   2.897   0.739
 2203SOL     MW 9258   2.509   2.818   0.771
 2204SOL     OW 9259   3.319   2.390   0.766
 2204SOL    HW1 9260   3.264   2.311   0.765
 2204SOL    HW2 9261   3.301   2.431   0.850
 2204SOL     MW 9262   3.309   2.385   0.775
 2205SOL     OW 9263   2.290   2.077   1.583
 2205SOL    HW1 9264   2.211   2.095   1.635
 2205SOL    HW2 9265   2.285   2.139   1.510
 2205SOL     MW 9266   2.280   2.087   1.580
 2206SOL     OW 9267   2.938   2.594   0.723
 2206SOL    HW1 9268   2.875   2.526   0.747
 2206SOL    HW2 9269   2.958   2.575   0.631
 2206SOL     MW 9270   2.932   2.581   0.715
 2207SOL     OW 9271   2.194   3.489   0.425
 2207SOL    HW1 9272   2.155   3.536   0.351
 2207SOL    HW2 9273   2.128   3.424   0.450
 2207SOL     MW 9274   2.181   3.487   0.419
 2208SOL     OW 9275   2.686   2.898   0.449
 2208SOL    HW1 9276   2.688   2.872   0.356
 2208SOL    HW2 9277   2.744   2.835   0.492
 2208SOL     MW 9278   2.694   2.887   0.443
 2209SOL     OW 9279   3.239   3.458   1.221
 2209SOL    HW1 9280   3.164   3.504   1.259
 2209SOL    HW2 9281   3.221   3.365   1.238
 2209SOL     MW 9282   3.228   3.452   1.229
 2210SOL     OW 9283   3.243   3.666   0.651
 2210SOL    HW1 9284   3.186   3.619   0.590
 2210SOL    HW2 9285   3.329   3.627   0.638
 2210SOL     MW 9286   3.246   3.657   0.641
 2211SOL     OW 9287   3.196   2.142   0.782
 2211SOL    HW1 9288   3.224   2.074   0.843
 2211SOL    HW2 9289   3.110   2.113   0.752
 2211SOL     MW 9290   3.189   2.129   0.786
 2212SOL     OW 9291   2.001   3.076   0.716
 2212SOL    HW1 9292   2.065   3.108   0.779
 2212SOL    HW2 9293   2.050   3.012   0.664
 2212SOL     MW 9294   2.016   3.072   0.717
 2213SOL     OW 9295   2.501   3.152   1.698
 2213SOL    HW1 9296   2.549   3.235   1.685
 2213SOL    HW2 9297   2.558   3.100   1.754
 2213SOL     MW 9298   2.515   3.156   1.704
 2214SOL     OW 9299   2.077   3.394   1.838
 2214SOL    HW1 9300   2.133   3.318   1.853
 2214SOL    HW2 9301   2.026   3.372   1.760
 2214SOL     MW 9302   2.077   3.381   1.829
 2215SOL     OW 9303   2.844   1.951   0.054
 2215SOL    HW1 9304   2.900   1.943  -0.024
 2215SOL    HW2 9305   2.821   1.861   0.076
 2215SOL     MW 9306   2.849   1.938   0.047
 2216SOL     OW 9307   2.962   3.231   1.447
 2216SOL    HW1 9308   2.873   3.237   1.415
 2216SOL    HW2 9309   3.006   3.310   1.415
 2216SOL     MW 9310   2.957   3.241   1.439
 2217SOL     OW 9311   2.255   1.899   1.789
 2217SOL    HW1 9312   2.183   1.864   1.737
 2217SOL    HW2 9313   2.313   1.940   1.724
 2217SOL     MW 9314   2.253   1.900   1.774
 2218SOL     OW 9315   2.279   3.389   1.088
 2218SOL    HW1 9316   2.324   3.451   1.145
 2218SOL    HW2 9317   2.186   3.408   1.101
 2218SOL     MW 9318   2.272   3.399   1.095
 2219SOL     OW 9319   3.719   2.918   1.442
 2219SOL    HW1 9320   3.634   2.931   1.401
 2219SOL    HW2 9321   3.699   2.882   1.529
 2219SOL     MW 9322   3.706   2.914   1.447
 2220SOL     OW 9323   2.701   3.457   1.196
 2220SOL    HW1 9324   2.725   3.446   1.105
 2220SOL    HW2 9325   2.624   3.514   1.194
 2220SOL     MW 9326   2.693   3.462   1.185
 2221SOL     OW 9327   2.343   2.840   0.051
 2221SOL    HW1 9328   2.266   2.853   0.107
 2221SOL    HW2 9329   2.307   2.804  -0.030
 2221SOL     MW 9330   2.329   2.836   0.048
 2222SOL     OW 9331   2.496   3.162   0.986
 2222SOL    HW1 9332   2.489   3.141   1.080
 2222SOL    HW2 9333   2.414   3.130   0.949
 2222SOL     MW 9334   2.484   3.156   0.993
 2223SOL     OW 9335   3.360   2.172   1.388
 2223SOL    HW1 9336   3.307   2.174   1.468
 2223SOL    HW2 9337   3.345   2.085   1.351
 2223SOL     MW 9338   3.352   2.162   1.393
 2224SOL     OW 9339   3.696   2.096   1.261
 2224SOL    HW1 9340   3.677   2.163   1.196
 2224SOL    HW2 9341   3.753   2.034   1.216
 2224SOL     MW 9342   3.700   2.097   1.247
 2225SOL     OW 9343   1.942   3.254   1.649
 2225SOL    HW1 9344   1.986   3.187   1.595
 2225SOL    HW2 9345   1.857   3.216   1.669
 2225SOL     MW 9346   1.937   3.240   1.645
 2226SOL     OW 9347   2.625   1.929   0.701
 2226SOL    HW1 9348   2.554   1.990   0.683
 2226SOL    HW2 9349   2.676   1.926   0.620
 2226SOL     MW 9350   2.621   1.935   0.688
 2227SOL     OW 9351   2.383   3.169   0.450
 2227SOL    HW1 9352   2.376   3.201   0.540
 2227SOL    HW2 9353   2.293   3.153   0.422
 2227SOL     MW 9354   2.371   3.171   0.457
 2228SOL     OW 9355   2.978   3.562   1.359
 2228SOL    HW1 9356   2.898   3.547   1.309
 2228SOL    HW2 9357   2.985   3.657   1.366
 2228SOL     MW 9358   2.969   3.573   1.353
 2229SOL     OW 9359   3.092   3.527   0.849
 2229SOL    HW1 9360   3.139   3.600   0.808
 2229SOL    HW2 9361   3.013   3.566   0.885
 2229SOL     MW 9362   3.087   3.542   0.848
 2230SOL     OW 9363   2.585   2.586   1.831
 2230SOL    HW1 9364   2.655   2.528   1.803
 2230SOL    HW2 9365   2.528   2.531   1.886
 2230SOL     MW 9366   2.587   2.573   1.835
 2231SOL     OW 9367   3.372   2.798   1.464
 2231SOL    HW1 9368   3.377   2.851   1.544
 2231SOL    HW2 9369   3.334   2.715   1.492
 2231SOL     MW 9370   3.368   2.793   1.479
 2232SOL     OW 9371   3.012   1.933   1.710
 2232SOL    HW1 9372   3.007   1.840   1.691
 2232SOL    HW2 9373   3.095   1.944   1.756
 2232SOL     MW 9374   3.020   1.922   1.714
 2233SOL     OW 9375   2.386   2.453   0.164
 2233SOL    HW1 9376   2.352   2.509   0.234
 2233SOL    HW2 9377   2.457   2.403   0.204
 2233SOL     MW 9378   2.392   2.454   0.178
 2234SOL     OW 9379   3.482   3.204   0.986
 2234SOL    HW1 9380   3.517   3.186   0.899
 2234SOL    HW2 9381   3.387   3.205   0.973
 2234SOL     MW 9382   3.474   3.201   0.973
 2235SOL     OW 9383   2.911   2.852   1.355
 2235SOL    HW1 9384   2.954   2.887   1.433
 2235SOL    HW2 9385   2.894   2.929   1.301
 2235SOL     MW 9386   2.914   2.867   1.358
 2236SOL     OW 9387   2.302   1.994   0.657
 2236SOL    HW1 9388   2.352   2.037   0.588
 2236SOL    HW2 9389   2.217   2.038   0.657
 2236SOL     MW 9390   2.299   2.007   0.648
 2237SOL     OW 9391   2.061   3.056   1.517
 2237SOL    HW1 9392   2.089   3.009   1.595
 2237SOL    HW2 9393   1.982   3.011   1.488
 2237SOL     MW 9394   2.054   3.045   1.523
 2238SOL     OW 9395   2.569   2.383   1.484
 2238SOL    HW1 9396   2.541   2.471   1.508
 2238SOL    HW2 9397   2.538   2.327   1.555
 2238SOL     MW 9398   2.561   2.386   1.496
 2239SOL     OW 9399   3.111   2.601   0.203
 2239SOL    HW1 9400   3.158   2.619   0.122
 2239SOL    HW2 9401   3.077   2.685   0.231
 2239SOL     MW 9402   3.113   2.615   0.196
 2240SOL     OW 9403   2.224   2.779   0.697
 2240SOL    HW1 9404   2.282   2.835   0.645
 2240SOL    HW2 9405   2.268   2.694   0.699
 2240SOL     MW 9406   2.237   2.776   0.690
 2241SOL     OW 9407   3.364   2.131   0.534
 2241SOL    HW1 9408   3.286   2.081   0.559
 2241SOL    HW2 9409   3.335   2.222   0.534
 2241SOL     MW 9410   3.350   2.135   0.537
 2242SOL     OW 9411   2.950   2.093   0.693
 2242SOL    HW1 9412   2.970   2.168   0.637
 2242SOL    HW2 9413   2.930   2.132   0.778
 2242SOL     MW 9414   2.951   2.109   0.697
 2243SOL     OW 9415   2.846   3.343   0.025
 2243SOL    HW1 9416   2.873   3.421  -0.023
 2243SOL    HW2 9417   2.753   3.358   0.044
 2243SOL     MW 9418   2.837   3.356   0.021
 2244SOL     OW 9419   3.710   2.866   1.712
 2244SOL    HW1 9420   3.623   2.846   1.748
 2244SOL    HW2 9421   3.764   2.792   1.737
 2244SOL     MW 9422   3.705   2.855   1.720
 2245SOL     OW 9423   1.931   3.379   0.869
 2245SOL    HW1 9424   1.963   3.383   0.960
 2245SOL    HW2 9425   1.836   3.387   0.877
 2245SOL     MW 9426   1.923   3.382   0.882
 2246SOL     OW 9427   1.886   2.505   0.416
 2246SOL    HW1 9428   1.826   2.477   0.486
 2246SOL    HW2 9429   1.960   2.445   0.422
 2246SOL     MW 9430   1.888   2.494   0.425
 2247SOL     OW 9431   3.454   3.717   1.850
 2247SOL    HW1 9432   3.499   3.641   1.815
 2247SOL    HW2 9433   3.492   3.730   1.937
 2247SOL     MW 9434   3.464   3.710   1.856
 2248SOL     OW 9435   3.054   3.236   0.576
 2248SOL    HW1 9436   3.077   3.187   0.654
 2248SOL    HW2 9437   3.135   3.278   0.548
 2248SOL     MW 9438   3.067   3.236   0.583
 2249SOL     OW 9439   2.312   2.244   1.305
 2249SOL    HW1 9440   2.345   2.325   1.345
 2249SOL    HW2 9441   2.285   2.270   1.217
 2249SOL     MW 9442   2.311   2.258   1.299
 2250SOL     OW 9443   2.266   2.211   1.041
 2250SOL    HW1 9444   2.296   2.125   1.012
 2250SOL    HW2 9445   2.171   2.204   1.044
 2250SOL     MW 9446   2.258   2.200   1.039
 2251SOL     OW 9447   3.095   2.420   1.732
 2251SOL    HW1 9448   3.147   2.355   1.685
 2251SOL    HW2 9449   3.053   2.471   1.662
 2251SOL     MW 9450   3.096   2.417   1.715
 2252SOL     OW 9451   3.194   2.215   1.593
 2252SOL    HW1 9452   3.101   2.199   1.580
 2252SOL    HW2 9453   3.220   2.153   1.661
 2252SOL     MW 9454   3.184   2.205   1.600
 2253SOL     OW 9455   2.409   1.989   0.932
 2253SOL    HW1 9456   2.419   1.898   0.958
 2253SOL    HW2 9457   2.365   1.985   0.847
 2253SOL     MW 9458   2.405   1.977   0.924
 2254SOL     OW 9459   2.503   3.604   1.478
 2254SOL    HW1 9460   2.420   3.589   1.523
 2254SOL    HW2 9461   2.562   3.537   1.513
 2254SOL     MW 9462   2.501   3.594   1.488
 2255SOL     OW 9463   3.560   2.311   1.103
 2255SOL    HW1 9464   3.493   2.344   1.163
 2255SOL    HW2 9465   3.603   2.389   1.069
 2255SOL     MW 9466   3.558   2.326   1.107
 2256SOL     OW 9467   3.738   3.031   1.073
 2256SOL    HW1 9468   3.731   2.971   0.998
 2256SOL    HW2 9469   3.664   3.091   1.062
 2256SOL     MW 9470   3.728   3.031   1.062
 2257SOL     OW 9471   3.120   2.893   0.991
 2257SOL    HW1 9472   3.134   2.865   1.082
 2257SOL    HW2 9473   3.206   2.924   0.963
 2257SOL     MW 9474   3.133   2.894   1.000
 2258SOL     OW 9475   3.203   2.388   1.270
 2258SOL    HW1 9476   3.224   2.389   1.177
 2258SOL    HW2 9477   3.248   2.310   1.303
 2258SOL     MW 9478   3.210   2.378   1.262
 2259SOL     OW 9479   3.696   2.519   1.812
 2259SOL    HW1 9480   3.733   2.464   1.881
 2259SOL    HW2 9481   3.721   2.476   1.730
 2259SOL     MW 9482   3.703   2.507   1.811
 2260SOL     OW 9483   3.243   2.817   1.863
 2260SOL    HW1 9484   3.309   2.765   1.817
 2260SOL    HW2 9485   3.263   2.804   1.956
 2260SOL     MW 9486   3.254   2.808   1.870
 2261SOL     OW 9487   3.254   2.678   0.490
 2261SOL    HW1 9488   3.169   2.648   0.460
 2261SOL    HW2 9489   3.246   2.685   0.585
 2261SOL     MW 9490   3.242   2.676   0.499
 2262SOL     OW 9491   2.330   3.141   1.221
 2262SOL    HW1 9492   2.342   3.168   1.312
 2262SOL    HW2 9493   2.311   3.222   1.174
 2262SOL     MW 9494   2.329   3.156   1.226
 2263SOL     OW 9495   2.614   2.121   1.044
 2263SOL    HW1 9496   2.587   2.123   1.135
 2263SOL    HW2 9497   2.544   2.073   0.999
 2263SOL     MW 9498   2.602   2.117   1.051
 2264SOL     OW 9499   2.468   3.613   1.206
 2264SOL    HW1 9500   2.520   3.690   1.183
 2264SOL    HW2 9501   2.477   3.605   1.301
 2264SOL     MW 9502   2.477   3.620   1.217
 2265SOL     OW 9503   3.370   3.198   1.438
 2265SOL    HW1 9504   3.355   3.127   1.501
 2265SOL    HW2 9505   3.416   3.156   1.366
 2265SOL     MW 9506   3.376   3.182   1.438
 2266SOL     OW 9507   2.444   2.929   1.555
 2266SOL    HW1 9508   2.481   2.934   1.467
 2266SOL    HW2 9509   2.483   3.002   1.602
 2266SOL     MW 9510   2.454   2.939   1.550
 2267SOL     OW 9511   2.624   2.972   1.367
 2267SOL    HW1 9512   2.683   2.918   1.420
 2267SOL    HW2 9513   2.639   2.944   1.277
 2267SOL     MW 9514   2.634   2.961   1.363
 2268SOL     OW 9515   2.627   2.344   0.216
 2268SOL    HW1 9516   2.700   2.393   0.179
 2268SOL    HW2 9517   2.643   2.253   0.190
 2268SOL     MW 9518   2.639   2.339   0.209
 2269SOL     OW 9519   3.435   3.461   1.539
 2269SOL    HW1 9520   3.477   3.446   1.624
 2269SOL    HW2 9521   3.426   3.374   1.501
 2269SOL     MW 9522   3.439   3.449   1.546
 2270SOL     OW 9523   3.095   1.940   1.130
 2270SOL    HW1 9524   3.150   1.949   1.052
 2270SOL    HW2 9525   3.150   1.974   1.201
 2270SOL     MW 9526   3.109   1.945   1.129
 2271SOL     OW 9527   2.102   2.853   0.314
 2271SOL    HW1 9528   2.039   2.869   0.243
 2271SOL    HW2 9529   2.049   2.816   0.385
 2271SOL     MW 9530   2.087   2.850   0.314
 2272SOL     OW 9531   2.458   3.207   0.173
 2272SOL    HW1 9532   2.473   3.183   0.265
 2272SOL    HW2 9533   2.366   3.185   0.157
 2272SOL     MW 9534   2.448   3.200   0.183
 2273SOL     OW 9535   2.256   3.596   0.894
 2273SOL    HW1 9536   2.260   3.507   0.929
 2273SOL    HW2 9537   2.282   3.587   0.803
 2273SOL     MW 9538   2.259   3.584   0.886
 2274SOL     OW 9539   2.873   3.074   1.137
 2274SOL    HW1 9540   2.805   3.008   1.153
 2274SOL    HW2 9541   2.891   3.068   1.044
 2274SOL     MW 9542   2.866   3.065   1.128
 2275SOL     OW 9543   1.962   3.349   1.388
 2275SOL    HW1 9544   1.952   3.307   1.474
 2275SOL    HW2 9545   1.883   3.402   1.378
 2275SOL     MW 9546   1.951   3.350   1.399
 2276SOL     OW 9547   2.866   2.213   0.958
 2276SOL    HW1 9548   2.796   2.165   1.003
 2276SOL    HW2 9549   2.898   2.276   1.022
 2276SOL     MW 9550   2.861   2.215   0.972
 2277SOL     OW 9551   2.517   2.649   1.578
 2277SOL    HW1 9552   2.510   2.744   1.566
 2277SOL    HW2 9553   2.526   2.638   1.673
 2277SOL     MW 9554   2.518   2.661   1.588
 2278SOL     OW 9555   2.238   3.164   1.836
 2278SOL    HW1 9556   2.310   3.166   1.773
 2278SOL    HW2 9557   2.208   3.073   1.835
 2278SOL     MW 9558   2.243   3.153   1.828
 2279SOL     OW 9559   3.322   1.927   1.303
 2279SOL    HW1 9560   3.393   1.873   1.267
 2279SOL    HW2 9561   3.321   1.906   1.396
 2279SOL     MW 9562   3.331   1.918   1.311
 2280SOL     OW 9563   3.522   3.457   1.787
 2280SOL    HW1 9564   3.495   3.454   1.878
 2280SOL    HW2 9565   3.618   3.461   1.790
 2280SOL     MW 9566   3.532   3.457   1.799
 2281SOL     OW 9567   2.333   2.319   0.771
 2281SOL    HW1 9568   2.404   2.267   0.734
 2281SOL    HW2 9569   2.319   2.284   0.858
 2281SOL     MW 9570   2.341   2.308   0.778
 2282SOL     OW 9571   1.888   3.654   1.843
 2282SOL    HW1 9572   1.938   3.632   1.765
 2282SOL    HW2 9573   1.896   3.749   1.851
 2282SOL     MW 9574   1.896   3.663   1.834
 2283SOL     OW 9575   2.649   3.412   0.847
 2283SOL    HW1 9576   2.577   3.349   0.860
 2283SOL    HW2 9577   2.610   3.497   0.865
 2283SOL     MW 9578   2.633   3.415   0.850
 2284SOL     OW 9579   2.969   2.260   0.495
 2284SOL    HW1 9580   2.991   2.197   0.427
 2284SOL    HW2 9581   2.874   2.252   0.506
 2284SOL     MW 9582   2.959   2.251   0.487
 2285SOL     OW 9583   2.054   1.950   0.427
 2285SOL    HW1 9584   2.125   1.971   0.366
 2285SOL    HW2 9585   2.008   1.878   0.385
 2285SOL     MW 9586   2.058   1.944   0.413
 2286SOL     OW 9587   1.885   2.417   1.570
 2286SOL    HW1 9588   1.949   2.483   1.545
 2286SOL    HW2 9589   1.804   2.444   1.527
 2286SOL     MW 9590   1.883   2.429   1.562
 2287SOL     OW 9591   3.623   3.324   0.527
 2287SOL    HW1 9592   3.593   3.257   0.588
 2287SOL    HW2 9593   3.717   3.330   0.541
 2287SOL     MW 9594   3.631   3.316   0.537
 2288SOL     OW 9595   3.179   3.001   0.457
 2288SOL    HW1 9596   3.151   3.087   0.490
 2288SOL    HW2 9597   3.207   3.017   0.367
 2288SOL     MW 9598   3.179   3.015   0.449
 2289SOL     OW 9599   2.841   1.921   0.510
 2289SOL    HW1 9600   2.878   1.980   0.575
 2289SOL    HW2 9601   2.818   1.977   0.436
 2289SOL     MW 9602   2.842   1.936   0.509
 2290SOL     OW 9603   3.694   2.803   0.932
 2290SOL    HW1 9604   3.685   2.835   0.843
 2290SOL    HW2 9605   3.647   2.719   0.932
 2290SOL     MW 9606   3.687   2.796   0.922
 2291SOL     OW 9607   2.070   2.643   1.511
 2291SOL    HW1 9608   2.091   2.712   1.449
 2291SOL    HW2 9609   2.150   2.590   1.516
 2291SOL     MW 9610   2.083   2.644   1.505
 2292SOL     OW 9611   3.606   2.734   0.633
 2292SOL    HW1 9612   3.700   2.723   0.621
 2292SOL    HW2 9613   3.582   2.806   0.574
 2292SOL     MW 9614   3.616   2.742   0.624
 2293SOL     OW 9615   2.055   2.658   1.778
 2293SOL    HW1 9616   1.981   2.602   1.804
 2293SOL    HW2 9617   2.050   2.661   1.683
 2293SOL     MW 9618   2.044   2.651   1.768
 2294SOL     OW 9619   2.221   1.945   1.228
 2294SOL    HW1 9620   2.264   2.029   1.248
 2294SOL    HW2 9621   2.294   1.883   1.221
 2294SOL     MW 9622   2.236   1.948   1.229
 2295SOL     OW 9623   2.262   2.612   0.406
 2295SOL    HW1 9624   2.262   2.707   0.391
 2295SOL    HW2 9625   2.339   2.596   0.460
 2295SOL     MW 9626   2.272   2.623   0.411
 2296SOL     OW 9627   3.038   2.471   1.470
 2296SOL    HW1 9628   3.074   2.444   1.386
 2296SOL    HW2 9629   2.951   2.505   1.449
 2296SOL     MW 9630   3.032   2.472   1.457
 2297SOL     OW 9631   2.021   2.343   0.695
 2297SOL    HW1 9632   2.083   2.350   0.768
 2297SOL    HW2 9633   2.021   2.250   0.672
 2297SOL     MW 9634   2.029   2.332   0.702
 2298SOL     OW 9635   3.568   3.683   0.227
 2298SOL    HW1 9636   3.635   3.716   0.167
 2298SOL    HW2 9637   3.525   3.762   0.261
 2298SOL     MW 9638   3.570   3.698   0.223
 2299SOL     OW 9639   2.703   2.604   1.179
 2299SOL    HW1 9640   2.661   2.522   1.155
 2299SOL    HW2 9641   2.704   2.603   1.275
 2299SOL     MW 9642   2.696   2.593   1.188
 2300SOL     OW 9643   3.374   3.737   1.578
 2300SOL    HW1 9644   3.377   3.643   1.561
 2300SOL    HW2 9645   3.397   3.745   1.670
 2300SOL     MW 9646   3.377   3.725   1.588
 2301SOL     OW 9647   2.507   2.074   1.284
 2301SOL    HW1 9648   2.438   2.137   1.305
 2301SOL    HW2 9649   2.534   2.038   1.369
 2301SOL     MW 9650   2.501   2.077   1.297
 2302SOL     OW 9651   1.890   2.915   0.153
 2302SOL    HW1 9652   1.859   2.980   0.216
 2302SOL    HW2 9653   1.839   2.837   0.172
 2302SOL     MW 9654   1.880   2.912   0.163
 2303SOL     OW 9655   3.302   1.927   0.901
 2303SOL    HW1 9656   3.390   1.936   0.938
 2303SOL    HW2 9657   3.312   1.868   0.827
 2303SOL     MW 9658   3.316   1.921   0.895
 2304SOL     OW 9659   3.334   2.666   0.745
 2304SOL    HW1 9660   3.414   2.681   0.694
 2304SOL    HW2 9661   3.327   2.571   0.751
 2304SOL     MW 9662   3.343   2.655   0.740
 2305SOL     OW 9663   2.474   3.715   0.095
 2305SOL    HW1 9664   2.379   3.715   0.087
 2305SOL    HW2 9665   2.490   3.661   0.173
 2305SOL     MW 9666   2.464   3.709   0.104
 2306SOL     OW 9667   2.784   2.592   1.442
 2306SOL    HW1 9668   2.853   2.659   1.439
 2306SOL    HW2 9669   2.717   2.630   1.498
 2306SOL     MW 9670   2.785   2.605   1.449
 2307SOL     OW 9671   2.202   2.892   1.690
 2307SOL    HW1 9672   2.156   2.808   1.692
 2307SOL    HW2 9673   2.259   2.886   1.614
 2307SOL     MW 9674   2.204   2.880   1.682
 2308SOL     OW 9675   2.453   3.267   0.691
 2308SOL    HW1 9676   2.518   3.200   0.712
 2308SOL    HW2 9677   2.505   3.344   0.668
 2308SOL     MW 9678   2.468   3.269   0.690
 2309SOL     OW 9679   2.714   2.432   0.821
 2309SOL    HW1 9680   2.654   2.450   0.893
 2309SOL    HW2 9681   2.748   2.344   0.840
 2309SOL     MW 9682   2.710   2.422   0.834
 2310SOL     OW 9683   3.655   1.931   1.490
 2310SOL    HW1 9684   3.576   1.977   1.518
 2310SOL    HW2 9685   3.690   1.985   1.419
 2310SOL     MW 9686   3.649   1.944   1.484
 2311SOL     OW 9687   2.939   3.015   0.840
 2311SOL    HW1 9688   3.031   2.996   0.858
 2311SOL    HW2 9689   2.912   2.945   0.780
 2311SOL     MW 9690   2.947   3.003   0.834
 2312SOL     OW 9691   2.732   2.835   0.195
 2312SOL    HW1 9692   2.718   2.747   0.160
 2312SOL    HW2 9693   2.683   2.892   0.136
 2312SOL     MW 9694   2.724   2.830   0.183
 2313SOL     OW 9695   3.213   3.253   0.936
 2313SOL    HW1 9696   3.186   3.337   0.901
 2313SOL    HW2 9697   3.173   3.248   1.023
 2313SOL     MW 9698   3.206   3.262   0.942
 2314SOL     OW 9699   3.132   3.201   1.204
 2314SOL    HW1 9700   3.143   3.168   1.293
 2314SOL    HW2 9701   3.051   3.160   1.173
 2314SOL     MW 9702   3.122   3.193   1.210
 2315SOL     OW 9703   2.145   2.559   0.974
 2315SOL    HW1 9704   2.095   2.558   1.055
 2315SOL    HW2 9705   2.165   2.651   0.958
 2315SOL     MW 9706   2.141   2.571   0.982
 2316SOL     OW 9707   3.212   3.323   1.736
 2316SOL    HW1 9708   3.212   3.417   1.752
 2316SOL    HW2 9709   3.257   3.313   1.652
 2316SOL     MW 9710   3.218   3.333   1.727
 2317SOL     OW 9711   2.740   2.604   0.411
 2317SOL    HW1 9712   2.720   2.590   0.318
 2317SOL    HW2 9713   2.833   2.583   0.418
 2317SOL     MW 9714   2.750   2.599   0.400
 2318SOL     OW 9715   2.067   2.227   1.715
 2318SOL    HW1 9716   2.024   2.286   1.652
 2318SOL    HW2 9717   2.135   2.282   1.755
 2318SOL     MW 9718   2.071   2.242   1.712
 2319SOL     OW 9719   3.179   2.847   1.260
 2319SOL    HW1 9720   3.242   2.844   1.333
 2319SOL    HW2 9721   3.095   2.865   1.302
 2319SOL     MW 9722   3.175   2.849   1.275
 2320SOL     OW 9723   2.723   3.562   0.449
 2320SOL    HW1 9724   2.781   3.633   0.476
 2320SOL    HW2 9725   2.746   3.490   0.507
 2320SOL     MW 9726   2.734   3.562   0.460
 2321SOL     OW 9727   3.518   2.024   1.039
 2321SOL    HW1 9728   3.563   1.942   1.058
 2321SOL    HW2 9729   3.538   2.080   1.115
 2321SOL     MW 9730   3.528   2.020   1.051
 2322SOL     OW 9731   1.966   1.867   1.138
 2322SOL    HW1 9732   1.957   1.868   1.043
 2322SOL    HW2 9733   2.060   1.879   1.153
 2322SOL     MW 9734   1.978   1.870   1.129
 2323SOL     OW 9735   3.603   3.060   0.758
 2323SOL    HW1 9736   3.582   3.006   0.681
 2323SOL    HW2 9737   3.699   3.058   0.762
 2323SOL     MW 9738   3.612   3.053   0.747
 2324SOL     OW 9739   2.295   3.205   1.501
 2324SOL    HW1 9740   2.216   3.155   1.524
 2324SOL    HW2 9741   2.365   3.164   1.551
 2324SOL     MW 9742   2.293   3.193   1.511
 2325SOL     OW 9743   2.179   1.994   0.184
 2325SOL    HW1 9744   2.108   2.049   0.152
 2325SOL    HW2 9745   2.221   1.960   0.105
 2325SOL     MW 9746   2.175   1.996   0.170
 2326SOL     OW 9747   3.303   2.491   1.020
 2326SOL    HW1 9748   3.226   2.537   0.986
 2326SOL    HW2 9749   3.360   2.560   1.054
 2326SOL     MW 9750   3.300   2.506   1.020
 2327SOL     OW 9751   1.935   2.093   0.033
 2327SOL    HW1 9752   1.902   2.172   0.077
 2327SOL    HW2 9753   1.990   2.126  -0.038
 2327SOL     MW 9754   1.938   2.107   0.030
 2328SOL     OW 9755   1.969   3.350   0.222
 2328SOL    HW1 9756   1.986   3.434   0.264
 2328SOL    HW2 9757   2.004   3.359   0.134
 2328SOL     MW 9758   1.974   3.363   0.216
 2329SOL     OW 9759   3.604   2.707   2.125
 2329SOL    HW1 9760   3.645   2.649   2.190
 2329SOL    HW2 9761   3.511   2.699   2.142
 2329SOL     MW 9762   3.598   2.699   2.135
 2330SOL     OW 9763   3.470   2.639   3.120
 2330SOL    HW1 9764   3.425   2.706   3.171
 2330SOL    HW2 9765   3.558   2.675   3.106
 2330SOL     MW 9766   3.476   2.652   3.124
 2331SOL     OW 9767   2.398   2.890   2.354
 2331SOL    HW1 9768   2.488   2.865   2.338
 2331SOL    HW2 9769   2.394   2.983   2.331
 2331SOL     MW 9770   2.410   2.899   2.349
 2332SOL     OW 9771   3.514   3.593   2.496
 2332SOL    HW1 9772   3.526   3.539   2.574
 2332SOL    HW2 9773   3.551   3.541   2.425
 2332SOL     MW 9774   3.520   3.578   2.497
 2333SOL     OW 9775   2.893   3.478   3.497
 2333SOL    HW1 9776   2.934   3.514   3.418
 2333SOL    HW2 9777   2.928   3.389   3.504
 2333SOL     MW 9778   2.904   3.471   3.488
 2334SOL     OW 9779   3.450   3.033   3.101
 2334SOL    HW1 9780   3.371   2.998   3.059
 2334SOL    HW2 9781   3.477   3.105   3.045
 2334SOL     MW 9782   3.443   3.038   3.088
 2335SOL     OW 9783   2.682   2.346   2.367
 2335SOL    HW1 9784   2.657   2.434   2.395
 2335SOL    HW2 9785   2.679   2.349   2.271
 2335SOL     MW 9786   2.678   2.358   2.359
 2336SOL     OW 9787   2.124   2.374   2.295
 2336SOL    HW1 9788   2.156   2.462   2.277
 2336SOL    HW2 9789   2.112   2.372   2.390
 2336SOL     MW 9790   2.127   2.386   2.307
 2337SOL     OW 9791   2.202   2.787   3.196
 2337SOL    HW1 9792   2.265   2.734   3.147
 2337SOL    HW2 9793   2.183   2.861   3.139
 2337SOL     MW 9794   2.208   2.789   3.183
 2338SOL     OW 9795   2.523   2.129   2.382
 2338SOL    HW1 9796   2.581   2.205   2.384
 2338SOL    HW2 9797   2.458   2.150   2.315
 2338SOL     MW 9798   2.522   2.141   2.373
 2339SOL     OW 9799   2.610   3.056   2.557
 2339SOL    HW1 9800   2.690   3.059   2.609
 2339SOL    HW2 9801   2.638   3.023   2.471
 2339SOL     MW 9802   2.624   3.052   2.552
 2340SOL     OW 9803   2.635   3.397   3.460
 2340SOL    HW1 9804   2.719   3.423   3.499
 2340SOL    HW2 9805   2.659   3.341   3.386
 2340SOL     MW 9806   2.649   3.393   3.455
 2341SOL     OW 9807   2.387   2.560   2.548
 2341SOL    HW1 9808   2.372   2.480   2.599
 2341SOL    HW2 9809   2.469   2.595   2.582
 2341SOL     MW 9810   2.395   2.552   2.560
 2342SOL     OW 9811   2.724   3.246   3.233
 2342SOL    HW1 9812   2.688   3.312   3.173
 2342SOL    HW2 9813   2.652   3.184   3.246
 2342SOL     MW 9814   2.710   3.246   3.227
 2343SOL     OW 9815   2.529   2.386   2.925
 2343SOL    HW1 9816   2.435   2.382   2.943
 2343SOL    HW2 9817   2.559   2.295   2.934
 2343SOL     MW 9818   2.520   2.374   2.928
 2344SOL     OW 9819   2.275   2.800   2.829
 2344SOL    HW1 9820   2.230   2.807   2.745
 2344SOL    HW2 9821   2.255   2.883   2.873
 2344SOL     MW 9822   2.267   2.812   2.823
 2345SOL     OW 9823   1.972   3.646   2.704
 2345SOL    HW1 9824   2.061   3.638   2.739
 2345SOL    HW2 9825   1.936   3.558   2.709
 2345SOL     MW 9826   1.979   3.633   2.709
 2346SOL     OW 9827   3.237   3.038   2.073
 2346SOL    HW1 9828   3.155   3.074   2.039
 2346SOL    HW2 9829   3.305   3.081   2.022
 2346SOL     MW 9830   3.235   3.048   2.061
 2347SOL     OW 9831   2.236   3.173   2.739
 2347SOL    HW1 9832   2.212   3.226   2.815
 2347SOL    HW2 9833   2.292   3.231   2.687
 2347SOL     MW 9834   2.240   3.188   2.742
 2348SOL     OW 9835   2.798   2.817   2.549
 2348SOL    HW1 9836   2.712   2.804   2.589
 2348SOL    HW2 9837   2.851   2.744   2.581
 2348SOL     MW 9838   2.794   2.806   2.558
 2349SOL     OW 9839   2.206   3.469   3.334
 2349SOL    HW1 9840   2.114   3.445   3.319
 2349SOL    HW2 9841   2.250   3.386   3.351
 2349SOL     MW 9842   2.200   3.454   3.333
 2350SOL     OW 9843   2.789   3.179   2.266
 2350SOL    HW1 9844   2.766   3.241   2.334
 2350SOL    HW2 9845   2.746   3.097   2.292
 2350SOL     MW 9846   2.781   3.175   2.277
 2351SOL     OW 9847   3.662   2.180   2.722
 2351SOL    HW1 9848   3.599   2.160   2.791
 2351SOL    HW2 9849   3.652   2.109   2.659
 2351SOL     MW 9850   3.652   2.167   2.723
 2352SOL     OW 9851   2.286   2.152   2.234
 2352SOL    HW1 9852   2.260   2.114   2.150
 2352SOL    HW2 9853   2.223   2.222   2.250
 2352SOL     MW 9854   2.275   2.155   2.225
 2353SOL     OW 9855   2.121   3.113   2.271
 2353SOL    HW1 9856   2.069   3.181   2.227
 2353SOL    HW2 9857   2.118   3.039   2.211
 2353SOL     MW 9858   2.113   3.112   2.258
 2354SOL     OW 9859   2.783   3.576   2.049
 2354SOL    HW1 9860   2.738   3.592   2.132
 2354SOL    HW2 9861   2.714   3.541   1.991
 2354SOL     MW 9862   2.769   3.573   2.051
 2355SOL     OW 9863   3.718   2.349   2.024
 2355SOL    HW1 9864   3.627   2.351   2.052
 2355SOL    HW2 9865   3.763   2.411   2.082
 2355SOL     MW 9866   3.711   2.357   2.034
 2356SOL     OW 9867   3.463   2.952   2.374
 2356SOL    HW1 9868   3.373   2.952   2.409
 2356SOL    HW2 9869   3.456   2.998   2.291
 2356SOL     MW 9870   3.450   2.958   2.368
 2357SOL     OW 9871   3.263   2.587   3.446
 2357SOL    HW1 9872   3.332   2.525   3.423
 2357SOL    HW2 9873   3.188   2.561   3.393
 2357SOL     MW 9874   3.263   2.574   3.437
 2358SOL     OW 9875   2.004   3.467   2.998
 2358SOL    HW1 9876   1.987   3.413   3.075
 2358SOL    HW2 9877   1.992   3.557   3.028
 2358SOL     MW 9878   2.001   3.471   3.012
 2359SOL     OW 9879   2.999   2.974   3.438
 2359SOL    HW1 9880   2.984   3.067   3.423
 2359SOL    HW2 9881   3.094   2.964   3.438
 2359SOL     MW 9882   3.008   2.984   3.435
 2360SOL     OW 9883   2.795   2.398   3.639
 2360SOL    HW1 9884   2.885   2.399   3.606
 2360SOL    HW2 9885   2.754   2.323   3.597
 2360SOL     MW 9886   2.801   2.388   3.630
 2361SOL     OW 9887   3.370   2.930   2.766
 2361SOL    HW1 9888   3.373   2.864   2.697
 2361SOL    HW2 9889   3.455   2.973   2.762
 2361SOL     MW 9890   3.382   2.926   2.757
 2362SOL     OW 9891   2.990   2.533   2.335
 2362SOL    HW1 9892   3.016   2.557   2.246
 2362SOL    HW2 9893   2.972   2.440   2.331
 2362SOL     MW 9894   2.992   2.525   2.322
 2363SOL     OW 9895   3.655   3.153   2.186
 2363SOL    HW1 9896   3.611   3.194   2.261
 2363SOL    HW2 9897   3.712   3.221   2.151
 2363SOL     MW 9898   3.657   3.167   2.191
 2364SOL     OW 9899   2.575   2.202   3.589
 2364SOL    HW1 9900   2.585   2.128   3.529
 2364SOL    HW2 9901   2.611   2.171   3.672
 2364SOL     MW 9902   2.581   2.188   3.591
 2365SOL     OW 9903   2.311   3.569   2.504
 2365SOL    HW1 9904   2.343   3.657   2.482
 2365SOL    HW2 9905   2.264   3.541   2.426
 2365SOL     MW 9906   2.310   3.577   2.491
 2366SOL     OW 9907   3.695   1.931   2.553
 2366SOL    HW1 9908   3.749   1.882   2.615
 2366SOL    HW2 9909   3.638   1.865   2.514
 2366SOL     MW 9910   3.695   1.915   2.555
 2367SOL     OW 9911   2.027   3.629   2.081
 2367SOL    HW1 9912   2.056   3.719   2.073
 2367SOL    HW2 9913   1.977   3.612   2.002
 2367SOL     MW 9914   2.025   3.637   2.070
 2368SOL     OW 9915   2.814   1.884   2.966
 2368SOL    HW1 9916   2.773   1.962   2.928
 2368SOL    HW2 9917   2.908   1.902   2.961
 2368SOL     MW 9918   2.820   1.896   2.961
 2369SOL     OW 9919   3.431   3.437   2.052
 2369SOL    HW1 9920   3.479   3.506   2.098
 2369SOL    HW2 9921   3.352   3.481   2.021
 2369SOL     MW 9922   3.426   3.451   2.055
 2370SOL     OW 9923   2.829   2.562   1.996
 2370SOL    HW1 9924   2.831   2.509   1.917
 2370SOL    HW2 9925   2.917   2.599   2.002
 2370SOL     MW 9926   2.841   2.561   1.985
 2371SOL     OW 9927   3.443   2.488   2.332
 2371SOL    HW1 9928   3.482   2.488   2.419
 2371SOL    HW2 9929   3.384   2.564   2.332
 2371SOL     MW 9930   3.440   2.499   2.343
 2372SOL     OW 9931   2.760   2.855   3.461
 2372SOL    HW1 9932   2.737   2.835   3.551
 2372SOL    HW2 9933   2.845   2.899   3.466
 2372SOL     MW 9934   2.767   2.858   3.473
 2373SOL     OW 9935   2.840   1.992   3.221
 2373SOL    HW1 9936   2.846   1.954   3.134
 2373SOL    HW2 9937   2.829   2.086   3.206
 2373SOL     MW 9938   2.841   2.000   3.209
 2374SOL     OW 9939   2.929   2.481   3.055
 2374SOL    HW1 9940   3.004   2.510   3.002
 2374SOL    HW2 9941   2.861   2.546   3.039
 2374SOL     MW 9942   2.930   2.493   3.045
 2375SOL     OW 9943   3.479   2.449   3.332
 2375SOL    HW1 9944   3.460   2.358   3.311
 2375SOL    HW2 9945   3.457   2.498   3.253
 2375SOL     MW 9946   3.474   2.442   3.319
 2376SOL     OW 9947   3.621   3.543   3.236
 2376SOL    HW1 9948   3.549   3.505   3.287
 2376SOL    HW2 9949   3.638   3.628   3.277
 2376SOL     MW 9950   3.615   3.548   3.248
 2377SOL     OW 9951   2.926   2.187   3.438
 2377SOL    HW1 9952   2.892   2.226   3.357
 2377SOL    HW2 9953   2.904   2.095   3.431
 2377SOL     MW 9954   2.919   2.180   3.428
 2378SOL     OW 9955   3.335   3.001   3.514
 2378SOL    HW1 9956   3.417   3.042   3.544
 2378SOL    HW2 9957   3.298   2.963   3.594
 2378SOL     MW 9958   3.341   3.002   3.529
 2379SOL     OW 9959   3.630   2.374   2.498
 2379SOL    HW1 9960   3.719   2.343   2.515
 2379SOL    HW2 9961   3.573   2.314   2.546
 2379SOL     MW 9962   3.633   2.362   2.507
 2380SOL     OW 9963   2.056   2.088   2.527
 2380SOL    HW1 9964   2.047   2.028   2.453
 2380SOL    HW2 9965   1.989   2.059   2.590
 2380SOL     MW 9966   2.046   2.075   2.525
 2381SOL     OW 9967   2.999   3.181   2.088
 2381SOL    HW1 9968   2.949   3.183   2.170
 2381SOL    HW2 9969   2.933   3.199   2.020
 2381SOL     MW 9970   2.985   3.183   2.090
 2382SOL     OW 9971   2.003   2.261   2.890
 2382SOL    HW1 9972   1.975   2.352   2.899
 2382SOL    HW2 9973   1.940   2.222   2.829
 2382SOL     MW 9974   1.990   2.267   2.884
 2383SOL     OW 9975   2.462   3.599   2.196
 2383SOL    HW1 9976   2.383   3.557   2.229
 2383SOL    HW2 9977   2.528   3.582   2.263
 2383SOL     MW 9978   2.461   3.591   2.209
 2384SOL     OW 9979   3.590   3.119   3.593
 2384SOL    HW1 9980   3.640   3.045   3.625
 2384SOL    HW2 9981   3.536   3.146   3.668
 2384SOL     MW 9982   3.590   3.113   3.606
 2385SOL     OW 9983   2.598   3.014   1.903
 2385SOL    HW1 9984   2.520   2.960   1.890
 2385SOL    HW2 9985   2.569   3.087   1.956
 2385SOL     MW 9986   2.584   3.016   1.908
 2386SOL     OW 9987   3.724   2.754   3.095
 2386SOL    HW1 9988   3.740   2.792   3.008
 2386SOL    HW2 9989   3.758   2.820   3.156
 2386SOL     MW 9990   3.731   2.767   3.091
 2387SOL     OW 9991   3.516   3.463   2.764
 2387SOL    HW1 9992   3.545   3.530   2.825
 2387SOL    HW2 9993   3.497   3.387   2.819
 2387SOL     MW 9994   3.518   3.463   2.779
 2388SOL     OW 9995   3.179   3.530   1.971
 2388SOL    HW1 9996   3.105   3.493   2.021
 2388SOL    HW2 9997   3.187   3.620   2.004
 2388SOL     MW 9998   3.170   3.537   1.983
 2389SOL     OW 9999   1.987   2.536   3.060
 2389SOL    HW110000   2.049   2.566   3.126
 2389SOL    HW210001   1.921   2.605   3.054
 2389SOL     MW10002   1.986   2.549   3.067
 2390SOL     OW10003   3.403   3.204   1.913
 2390SOL    HW110004   3.350   3.253   1.849
 2390SOL    HW210005   3.434   3.270   1.974
 2390SOL     MW10006   3.401   3.218   1.911
 2391SOL     OW10007   2.628   2.093   1.968
 2391SOL    HW110008   2.576   2.013   1.956
 2391SOL    HW210009   2.715   2.070   1.936
 2391SOL     MW10010   2.631   2.079   1.962
 2392SOL     OW10011   2.082   3.645   3.512
 2392SOL    HW110012   2.056   3.713   3.450
 2392SOL    HW210013   2.130   3.582   3.460
 2392SOL     MW10014   2.084   3.645   3.498
 2393SOL     OW10015   2.134   2.964   3.019
 2393SOL    HW110016   2.187   3.039   3.044
 2393SOL    HW210017   2.053   3.002   2.985
 2393SOL     MW10018   2.130   2.979   3.019
 2394SOL     OW10019   2.674   2.868   3.007
 2394SOL    HW110020   2.702   2.777   3.019
 2394SOL    HW210021   2.603   2.862   2.943
 2394SOL     MW10022   2.667   2.856   3.002
 2395SOL     OW10023   1.989   2.733   2.425
 2395SOL    HW110024   2.080   2.748   2.452
 2395SOL    HW210025   1.992   2.654   2.371
 2395SOL     MW10026   2.001   2.725   2.423
 2396SOL     OW10027   2.225   2.441   3.679
 2396SOL    HW110028   2.172   2.521   3.686
 2396SOL    HW210029   2.295   2.453   3.744
 2396SOL     MW10030   2.227   2.454   3.687
 2397SOL     OW10031   2.611   1.991   3.386
 2397SOL    HW110032   2.588   1.899   3.388
 2397SOL    HW210033   2.697   1.993   3.343
 2397SOL     MW10034   2.618   1.981   3.382
 2398SOL     OW10035   2.295   2.515   3.425
 2398SOL    HW110036   2.375   2.565   3.411
 2398SOL    HW210037   2.286   2.509   3.520
 2398SOL     MW10038   2.304   2.521   3.435
 2399SOL     OW10039   2.616   3.665   2.799
 2399SOL    HW110040   2.705   3.680   2.829
 2399SOL    HW210041   2.611   3.712   2.715
 2399SOL     MW10042   2.626   3.673   2.792
 2400SOL     OW10043   3.272   2.040   3.696
 2400SOL    HW110044   3.328   1.967   3.722
 2400SOL    HW210045   3.242   2.078   3.778
 2400SOL     MW10046   3.276   2.035   3.709
 2401SOL     OW10047   1.997   3.345   2.464
 2401SOL    HW110048   1.969   3.384   2.546
 2401SOL    HW210049   2.017   3.254   2.486
 2401SOL     MW10050   1.995   3.337   2.477
 2402SOL     OW10051   2.830   3.388   2.499
 2402SOL    HW110052   2.913   3.342   2.483
 2402SOL    HW210053   2.820   3.387   2.595
 2402SOL     MW10054   2.840   3.381   2.509
 2403SOL     OW10055   3.662   2.533   2.813
 2403SOL    HW110056   3.751   2.563   2.795
 2403SOL    HW210057   3.642   2.473   2.742
 2403SOL     MW10058   3.671   2.530   2.802
 2404SOL     OW10059   3.513   2.712   3.693
 2404SOL    HW110060   3.568   2.636   3.674
 2404SOL    HW210061   3.515   2.720   3.788
 2404SOL     MW10062   3.521   2.703   3.701
 2405SOL     OW10063   2.563   3.445   1.904
 2405SOL    HW110064   2.503   3.514   1.874
 2405SOL    HW210065   2.508   3.387   1.957
 2405SOL     MW10066   2.547   3.447   1.906
 2406SOL     OW10067   3.001   2.090   2.127
 2406SOL    HW110068   2.934   2.066   2.064
 2406SOL    HW210069   3.066   2.139   2.076
 2406SOL     MW10070   3.001   2.092   2.112
 2407SOL     OW10071   2.808   2.274   3.212
 2407SOL    HW110072   2.727   2.315   3.240
 2407SOL    HW210073   2.855   2.342   3.164
 2407SOL     MW10074   2.803   2.289   3.210
 2408SOL     OW10075   3.068   2.612   2.835
 2408SOL    HW110076   3.081   2.706   2.845
 2408SOL    HW210077   3.029   2.602   2.749
 2408SOL     MW10078   3.064   2.623   2.825
 2409SOL     OW10079   2.520   2.807   2.639
 2409SOL    HW110080   2.431   2.798   2.672
 2409SOL    HW210081   2.524   2.897   2.607
 2409SOL     MW10082   2.509   2.818   2.639
 2410SOL     OW10083   3.319   2.390   2.634
 2410SOL    HW110084   3.264   2.311   2.633
 2410SOL    HW210085   3.301   2.431   2.718
 2410SOL     MW10086   3.309   2.385   2.643
 2411SOL     OW10087   2.290   2.077   3.451
 2411SOL    HW110088   2.211   2.095   3.503
 2411SOL    HW210089   2.285   2.139   3.378
 2411SOL     MW10090   2.280   2.087   3.448
 2412SOL     OW10091   2.938   2.594   2.591
 2412SOL    HW110092   2.875   2.526   2.615
 2412SOL    HW210093   2.958   2.575   2.499
 2412SOL     MW10094   2.932   2.581   2.583
 2413SOL     OW10095   2.194   3.489   2.293
 2413SOL    HW110096   2.155   3.536   2.219
 2413SOL    HW210097   2.128   3.424   2.318
 2413SOL     MW10098   2.181   3.487   2.287
 2414SOL     OW10099   2.686   2.898   2.317
 2414SOL    HW110100   2.688   2.872   2.224
 2414SOL    HW210101   2.744   2.835   2.360
 2414SOL     MW10102   2.694   2.887   2.311
 2415SOL     OW10103   3.239   3.458   3.089
 2415SOL    HW110104   3.164   3.504   3.127
 2415SOL    HW210105   3.221   3.365   3.106
 2415SOL     MW10106   3.228   3.452   3.097
 2416SOL     OW10107   3.243   3.666   2.519
 2416SOL    HW110108   3.186   3.619   2.458
 2416SOL    HW210109   3.329   3.627   2.506
 2416SOL     MW10110   3.246   3.657   2.509
 2417SOL     OW10111   3.196   2.142   2.650
 2417SOL    HW110112   3.224   2.074   2.711
 2417SOL    HW210113   3.110   2.113   2.620
 2417SOL     MW10114   3.189   2.129   2.654
 2418SOL     OW10115   2.001   3.076   2.584
 2418SOL    HW110116   2.065   3.108   2.647
 2418SOL    HW210117   2.050   3.012   2.532
 2418SOL     MW10118   2.016   3.072   2.585
 2419SOL     OW10119   2.501   3.152   3.566
 2419SOL    HW110120   2.549   3.235   3.553
 2419SOL    HW210121   2.558   3.100   3.622
 2419SOL     MW10122   2.515   3.156   3.572
 2420SOL     OW10123   2.077   3.394   3.706
 2420SOL    HW110124   2.133   3.318   3.721
 2420SOL    HW210125   2.026   3.372   3.628
 2420SOL     MW10126   2.077   3.381   3.697
 2421SOL     OW10127   3.176   2.246   1.985
 2421SOL    HW110128   3.149   2.312   1.921
 2421SOL    HW210129   3.246   2.289   2.035
 2421SOL     MW10130   3.181   2.259   1.982
 2422SOL     OW10131   2.844   1.951   1.922
 2422SOL    HW110132   2.900   1.943   1.844
 2422SOL    HW210133   2.821   1.861   1.944
 2422SOL     MW10134   2.849   1.938   1.915
 2423SOL     OW10135   3.349   2.802   2.127
 2423SOL    HW110136   3.316   2.891   2.117
 2423SOL    HW210137   3.314   2.773   2.212
 2423SOL     MW10138   3.339   2.811   2.138
 2424SOL     OW10139   2.962   3.231   3.315
 2424SOL    HW110140   2.873   3.237   3.283
 2424SOL    HW210141   3.006   3.310   3.283
 2424SOL     MW10142   2.957   3.241   3.307
 2425SOL     OW10143   2.255   1.899   3.657
 2425SOL    HW110144   2.183   1.864   3.605
 2425SOL    HW210145   2.313   1.940   3.592
 2425SOL     MW10146   2.253   1.900   3.642
 2426SOL     OW10147   2.279   3.389   2.956
 2426SOL    HW110148   2.324   3.451   3.013
 2426SOL    HW210149   2.186   3.408   2.969
 2426SOL     MW10150   2.272   3.399   2.963
 2427SOL     OW10151   3.719   2.918   3.310
 2427SOL    HW110152   3.634   2.931   3.269
 2427SOL    HW210153   3.699   2.882   3.397
 2427SOL     MW10154   3.706   2.914   3.315
 2428SOL     OW10155   2.701   3.457   3.064
 2428SOL    HW110156   2.725   3.446   2.973
 2428SOL    HW210157   2.624   3.514   3.062
 2428SOL     MW10158   2.693   3.462   3.053
 2429SOL     OW10159   2.343   2.840   1.919
 2429SOL    HW110160   2.266   2.853   1.975
 2429SOL    HW210161   2.307   2.804   1.838
 2429SOL     MW10162   2.329   2.836   1.916
 2430SOL     OW10163   2.996   2.813   2.162
 2430SOL    HW110164   2.906   2.834   2.137
 2430SOL    HW210165   3.023   2.886   2.218
 2430SOL     MW10166   2.988   2.825   2.165
 2431SOL     OW10167   2.496   3.162   2.854
 2431SOL    HW110168   2.489   3.141   2.948
 2431SOL    HW210169   2.414   3.130   2.817
 2431SOL     MW10170   2.484   3.156   2.861
 2432SOL     OW10171   3.360   2.172   3.256
 2432SOL    HW110172   3.307   2.174   3.336
 2432SOL    HW210173   3.345   2.085   3.219
 2432SOL     MW10174   3.352   2.162   3.261
 2433SOL     OW10175   3.696   2.096   3.129
 2433SOL    HW110176   3.677   2.163   3.064
 2433SOL    HW210177   3.753   2.034   3.084
 2433SOL     MW10178   3.700   2.097   3.115
 2434SOL     OW10179   1.942   3.254   3.517
 2434SOL    HW110180   1.986   3.187   3.463
 2434SOL    HW210181   1.857   3.216   3.537
 2434SOL     MW10182   1.937   3.240   3.513
 2435SOL     OW10183   2.625   1.929   2.569
 2435SOL    HW110184   2.554   1.990   2.551
 2435SOL    HW210185   2.676   1.926   2.488
 2435SOL     MW10186   2.621   1.935   2.556
 2436SOL     OW10187   2.383   3.169   2.318
 2436SOL    HW110188   2.376   3.201   2.408
 2436SOL    HW210189   2.293   3.153   2.290
 2436SOL     MW10190   2.371   3.171   2.325
 2437SOL     OW10191   2.978   3.562   3.227
 2437SOL    HW110192   2.898   3.547   3.177
 2437SOL    HW210193   2.985   3.657   3.234
 2437SOL     MW10194   2.969   3.573   3.221
 2438SOL     OW10195   3.092   3.527   2.717
 2438SOL    HW110196   3.139   3.600   2.676
 2438SOL    HW210197   3.013   3.566   2.753
 2438SOL     MW10198   3.087   3.542   2.716
 2439SOL     OW10199   3.500   3.622   2.992
 2439SOL    HW110200   3.543   3.592   3.072
 2439SOL    HW210201   3.419   3.570   2.989
 2439SOL     MW10202   3.495   3.611   3.002
 2440SOL     OW10203   2.585   2.586   3.699
 2440SOL    HW110204   2.655   2.528   3.671
 2440SOL    HW210205   2.528   2.531   3.754
 2440SOL     MW10206   2.587   2.573   3.703
 2441SOL     OW10207   3.372   2.798   3.332
 2441SOL    HW110208   3.377   2.851   3.412
 2441SOL    HW210209   3.334   2.715   3.360
 2441SOL     MW10210   3.368   2.793   3.347
 2442SOL     OW10211   3.012   1.933   3.578
 2442SOL    HW110212   3.007   1.840   3.559
 2442SOL    HW210213   3.095   1.944   3.624
 2442SOL     MW10214   3.020   1.922   3.582
 2443SOL     OW10215   2.386   2.453   2.032
 2443SOL    HW110216   2.352   2.509   2.102
 2443SOL    HW210217   2.457   2.403   2.072
 2443SOL     MW10218   2.392   2.454   2.046
 2444SOL     OW10219   3.482   3.204   2.854
 2444SOL    HW110220   3.517   3.186   2.767
 2444SOL    HW210221   3.387   3.205   2.841
 2444SOL     MW10222   3.474   3.201   2.841
 2445SOL     OW10223   2.911   2.852   3.223
 2445SOL    HW110224   2.954   2.887   3.301
 2445SOL    HW210225   2.894   2.929   3.169
 2445SOL     MW10226   2.914   2.867   3.226
 2446SOL     OW10227   3.442   2.339   2.096
 2446SOL    HW110228   3.434   2.410   2.033
 2446SOL    HW210229   3.460   2.383   2.179
 2446SOL     MW10230   3.443   2.353   2.098
 2447SOL     OW10231   2.302   1.994   2.525
 2447SOL    HW110232   2.352   2.037   2.456
 2447SOL    HW210233   2.217   2.038   2.525
 2447SOL     MW10234   2.299   2.007   2.516
 2448SOL     OW10235   2.061   3.056   3.385
 2448SOL    HW110236   2.089   3.009   3.463
 2448SOL    HW210237   1.982   3.011   3.356
 2448SOL     MW10238   2.054   3.045   3.391
 2449SOL     OW10239   2.569   2.383   3.352
 2449SOL    HW110240   2.541   2.471   3.376
 2449SOL    HW210241   2.538   2.327   3.423
 2449SOL     MW10242   2.561   2.386   3.364
 2450SOL     OW10243   3.111   2.601   2.071
 2450SOL    HW110244   3.158   2.619   1.990
 2450SOL    HW210245   3.077   2.685   2.099
 2450SOL     MW10246   3.113   2.615   2.064
 2451SOL     OW10247   2.224   2.779   2.565
 2451SOL    HW110248   2.282   2.835   2.513
 2451SOL    HW210249   2.268   2.694   2.567
 2451SOL     MW10250   2.237   2.776   2.558
 2452SOL     OW10251   3.364   2.131   2.402
 2452SOL    HW110252   3.286   2.081   2.427
 2452SOL    HW210253   3.335   2.222   2.402
 2452SOL     MW10254   3.350   2.135   2.405
 2453SOL     OW10255   2.950   2.093   2.561
 2453SOL    HW110256   2.970   2.168   2.505
 2453SOL    HW210257   2.930   2.132   2.646
 2453SOL     MW10258   2.951   2.109   2.565
 2454SOL     OW10259   2.846   3.343   1.893
 2454SOL    HW110260   2.873   3.421   1.845
 2454SOL    HW210261   2.753   3.358   1.912
 2454SOL     MW10262   2.837   3.356   1.889
 2455SOL     OW10263   3.710   2.866   3.580
 2455SOL    HW110264   3.623   2.846   3.616
 2455SOL    HW210265   3.764   2.792   3.605
 2455SOL     MW10266   3.705   2.855   3.588
 2456SOL     OW10267   1.931   3.379   2.737
 2456SOL    HW110268   1.963   3.383   2.828
 2456SOL    HW210269   1.836   3.387   2.745
 2456SOL     MW10270   1.923   3.382   2.750
 2457SOL     OW10271   1.886   2.505   2.284
 2457SOL    HW110272   1.826   2.477   2.354
 2457SOL    HW210273   1.960   2.445   2.290
 2457SOL     MW10274   1.888   2.494   2.293
 2458SOL     OW10275   3.454   3.717   3.718
 2458SOL    HW110276   3.499   3.641   3.683
 2458SOL    HW210277   3.492   3.730   3.805
 2458SOL     MW10278   3.464   3.710   3.724
 2459SOL     OW10279   3.054   3.236   2.444
 2459SOL    HW110280   3.077   3.187   2.522
 2459SOL    HW210281   3.135   3.278   2.416
 2459SOL     MW10282   3.067   3.236   2.451
 2460SOL     OW10283   2.312   2.244   3.173
 2460SOL    HW110284   2.345   2.325   3.213
 2460SOL    HW210285   2.285   2.270   3.085
 2460SOL     MW10286   2.311   2.258   3.167
 2461SOL     OW10287   2.266   2.211   2.909
 2461SOL    HW110288   2.296   2.125   2.880
 2461SOL    HW210289   2.171   2.204   2.912
 2461SOL     MW10290   2.258   2.200   2.907
 2462SOL     OW10291   3.095   2.420   3.600
 2462SOL    HW110292   3.147   2.355   3.553
 2462SOL    HW210293   3.053   2.471   3.530
 2462SOL     MW10294   3.096   2.417   3.583
 2463SOL     OW10295   3.194   2.215   3.461
 2463SOL    HW110296   3.101   2.199   3.448
 2463SOL    HW210297   3.220   2.153   3.529
 2463SOL     MW10298   3.184   2.205   3.468
 2464SOL     OW10299   2.409   1.989   2.800
 2464SOL    HW110300   2.419   1.898   2.826
 2464SOL    HW210301   2.365   1.985   2.715
 2464SOL     MW10302   2.405   1.977   2.792
 2465SOL     OW10303   2.503   3.604   3.346
 2465SOL    HW110304   2.420   3.589   3.391
 2465SOL    HW210305   2.562   3.537   3.381
 2465SOL     MW10306   2.501   3.594   3.356
 2466SOL     OW10307   3.560   2.311   2.971
 2466SOL    HW110308   3.493   2.344   3.031
 2466SOL    HW210309   3.603   2.389   2.937
 2466SOL     MW10310   3.558   2.326   2.975
 2467SOL     OW10311   3.738   3.031   2.941
 2467SOL    HW110312   3.731   2.971   2.866
 2467SOL    HW210313   3.664   3.091   2.930
 2467SOL     MW10314   3.728   3.031   2.930
 2468SOL     OW10315   3.120   2.893   2.859
 2468SOL    HW110316   3.134   2.865   2.950
 2468SOL    HW210317   3.206   2.924   2.831
 2468SOL     MW10318   3.133   2.894   2.868
 2469SOL     OW10319   3.203   2.388   3.138
 2469SOL    HW110320   3.224   2.389   3.045
 2469SOL    HW210321   3.248   2.310   3.171
 2469SOL     MW10322   3.210   2.378   3.130
 2470SOL     OW10323   3.696   2.519   3.680
 2470SOL    HW110324   3.733   2.464   3.749
 2470SOL    HW210325   3.721   2.476   3.598
 2470SOL     MW10326   3.703   2.507   3.679
 2471SOL     OW10327   3.243   2.817   3.731
 2471SOL    HW110328   3.309   2.765   3.685
 2471SOL    HW210329   3.263   2.804   3.824
 2471SOL     MW10330   3.254   2.808   3.738
 2472SOL     OW10331   3.194   1.903   2.080
 2472SOL    HW110332   3.268   1.947   2.123
 2472SOL    HW210333   3.118   1.957   2.102
 2472SOL     MW10334   3.194   1.915   2.088
 2473SOL     OW10335   3.254   2.678   2.358
 2473SOL    HW110336   3.169   2.648   2.328
 2473SOL    HW210337   3.246   2.685   2.453
 2473SOL     MW10338   3.242   2.676   2.367
 2474SOL     OW10339   2.330   3.141   3.089
 2474SOL    HW110340   2.342   3.168   3.180
 2474SOL    HW210341   2.311   3.222   3.042
 2474SOL     MW10342   2.329   3.156   3.094
 2475SOL     OW10343   2.614   2.121   2.912
 2475SOL    HW110344   2.587   2.123   3.003
 2475SOL    HW210345   2.544   2.073   2.867
 2475SOL     MW10346   2.602   2.117   2.919
 2476SOL     OW10347   2.468   3.613   3.074
 2476SOL    HW110348   2.520   3.690   3.051
 2476SOL    HW210349   2.477   3.605   3.169
 2476SOL     MW10350   2.477   3.620   3.085
 2477SOL     OW10351   3.370   3.198   3.306
 2477SOL    HW110352   3.355   3.127   3.369
 2477SOL    HW210353   3.416   3.156   3.234
 2477SOL     MW10354   3.376   3.182   3.306
 2478SOL     OW10355   2.444   2.929   3.423
 2478SOL    HW110356   2.481   2.934   3.335
 2478SOL    HW210357   2.483   3.002   3.470
 2478SOL     MW10358   2.454   2.939   3.418
 2479SOL     OW10359   2.624   2.972   3.235
 2479SOL    HW110360   2.683   2.918   3.288
 2479SOL    HW210361   2.639   2.944   3.145
 2479SOL     MW10362   2.634   2.961   3.231
 2480SOL     OW10363   2.627   2.344   2.084
 2480SOL    HW110364   2.700   2.393   2.047
 2480SOL    HW210365   2.643   2.253   2.058
 2480SOL     MW10366   2.639   2.339   2.077
 2481SOL     OW10367   3.435   3.461   3.407
 2481SOL    HW110368   3.477   3.446   3.492
 2481SOL    HW210369   3.426   3.374   3.369
 2481SOL     MW10370   3.439   3.449   3.414
 2482SOL     OW10371   3.095   1.940   2.998
 2482SOL    HW110372   3.150   1.949   2.920
 2482SOL    HW210373   3.150   1.974   3.069
 2482SOL     MW10374   3.109   1.945   2.997
 2483SOL     OW10375   2.102   2.853   2.182
 2483SOL    HW110376   2.039   2.869   2.111
 2483SOL    HW210377   2.049   2.816   2.253
 2483SOL     MW10378   2.087   2.850   2.182
 2484SOL     OW10379   2.458   3.207   2.041
 2484SOL    HW110380   2.473   3.183   2.133
 2484SOL    HW210381   2.366   3.185   2.025
 2484SOL     MW10382   2.448   3.200   2.051
 2485SOL     OW10383   2.997   3.438   2.193
 2485SOL    HW110384   3.005   3.356   2.144
 2485SOL    HW210385   2.916   3.477   2.160
 2485SOL     MW10386   2.987   3.433   2.183
 2486SOL     OW10387   2.256   3.596   2.762
 2486SOL    HW110388   2.260   3.507   2.797
 2486SOL    HW210389   2.282   3.587   2.671
 2486SOL     MW10390   2.259   3.584   2.754
 2487SOL     OW10391   2.873   3.074   3.005
 2487SOL    HW110392   2.805   3.008   3.021
 2487SOL    HW210393   2.891   3.068   2.912
 2487SOL     MW10394   2.866   3.065   2.996
 2488SOL     OW10395   1.962   3.349   3.256
 2488SOL    HW110396   1.952   3.307   3.342
 2488SOL    HW210397   1.883   3.402   3.246
 2488SOL     MW10398   1.951   3.350   3.267
 2489SOL     OW10399   2.866   2.213   2.826
 2489SOL    HW110400   2.796   2.165   2.871
 2489SOL    HW210401   2.898   2.276   2.890
 2489SOL     MW10402   2.861   2.215   2.840
 2490SOL     OW10403   2.517   2.649   3.446
 2490SOL    HW110404   2.510   2.744   3.434
 2490SOL    HW210405   2.526   2.638   3.541
 2490SOL     MW10406   2.518   2.661   3.456
 2491SOL     OW10407   2.238   3.164   3.704
 2491SOL    HW110408   2.310   3.166   3.641
 2491SOL    HW210409   2.208   3.073   3.703
 2491SOL     MW10410   2.243   3.153   3.696
 2492SOL     OW10411   3.322   1.927   3.171
 2492SOL    HW110412   3.393   1.873   3.135
 2492SOL    HW210413   3.321   1.906   3.264
 2492SOL     MW10414   3.331   1.918   3.179
 2493SOL     OW10415   3.522   3.457   3.655
 2493SOL    HW110416   3.495   3.454   3.746
 2493SOL    HW210417   3.618   3.461   3.658
 2493SOL     MW10418   3.532   3.457   3.667
 2494SOL     OW10419   2.333   2.319   2.639
 2494SOL    HW110420   2.404   2.267   2.602
 2494SOL    HW210421   2.319   2.284   2.726
 2494SOL     MW10422   2.341   2.308   2.646
 2495SOL     OW10423   1.888   3.654   3.711
 2495SOL    HW110424   1.938   3.632   3.633
 2495SOL    HW210425   1.896   3.749   3.719
 2495SOL     MW10426   1.896   3.663   3.702
 2496SOL     OW10427   2.649   3.412   2.715
 2496SOL    HW110428   2.577   3.349   2.728
 2496SOL    HW210429   2.610   3.497   2.733
 2496SOL     MW10430   2.633   3.415   2.718
 2497SOL     OW10431   2.969   2.260   2.363
 2497SOL    HW110432   2.991   2.197   2.295
 2497SOL    HW210433   2.874   2.252   2.374
 2497SOL     MW10434   2.959   2.251   2.355
 2498SOL     OW10435   2.054   1.950   2.295
 2498SOL    HW110436   2.125   1.971   2.234
 2498SOL    HW210437   2.008   1.878   2.253
 2498SOL     MW10438   2.058   1.944   2.281
 2499SOL     OW10439   1.885   2.417   3.438
 2499SOL    HW110440   1.949   2.483   3.413
 2499SOL    HW210441   1.804   2.444   3.395
 2499SOL     MW10442   1.883   2.429   3.430
 2500SOL     OW10443   3.623   3.324   2.395
 2500SOL    HW110444   3.593   3.257   2.456
 2500SOL    HW210445   3.717   3.330   2.409
 2500SOL     MW10446   3.631   3.316   2.405
 2501SOL     OW10447   3.179   3.001   2.325
 2501SOL    HW110448   3.151   3.087   2.358
 2501SOL    HW210449   3.207   3.017   2.235
 2501SOL     MW10450   3.179   3.015   2.317
 2502SOL     OW10451   2.841   1.921   2.378
 2502SOL    HW110452   2.878   1.980   2.443
 2502SOL    HW210453   2.818   1.977   2.304
 2502SOL     MW10454   2.842   1.936   2.377
 2503SOL     OW10455   3.694   2.803   2.800
 2503SOL    HW110456   3.685   2.835   2.711
 2503SOL    HW210457   3.647   2.719   2.800
 2503SOL     MW10458   3.687   2.796   2.790
 2504SOL     OW10459   2.070   2.643   3.379
 2504SOL    HW110460   2.091   2.712   3.317
 2504SOL    HW210461   2.150   2.590   3.384
 2504SOL     MW10462   2.083   2.644   3.373
 2505SOL     OW10463   3.606   2.734   2.501
 2505SOL    HW110464   3.700   2.723   2.489
 2505SOL    HW210465   3.582   2.806   2.442
 2505SOL     MW10466   3.616   2.742   2.492
 2506SOL     OW10467   2.055   2.658   3.646
 2506SOL    HW110468   1.981   2.602   3.672
 2506SOL    HW210469   2.050   2.661   3.551
 2506SOL     MW10470   2.044   2.651   3.636
 2507SOL     OW10471   2.221   1.945   3.096
 2507SOL    HW110472   2.264   2.029   3.116
 2507SOL    HW210473   2.294   1.883   3.089
 2507SOL     MW10474   2.236   1.948   3.097
 2508SOL     OW10475   2.262   2.612   2.274
 2508SOL    HW110476   2.262   2.707   2.259
 2508SOL    HW210477   2.339   2.596   2.328
 2508SOL     MW10478   2.272   2.623   2.279
 2509SOL     OW10479   3.038   2.471   3.338
 2509SOL    HW110480   3.074   2.444   3.254
 2509SOL    HW210481   2.951   2.505   3.317
 2509SOL     MW10482   3.032   2.472   3.325
 2510SOL     OW10483   2.021   2.343   2.563
 2510SOL    HW110484   2.083   2.350   2.636
 2510SOL    HW210485   2.021   2.250   2.540
 2510SOL     MW10486   2.029   2.332   2.570
 2511SOL     OW10487   3.568   3.683   2.095
 2511SOL    HW110488   3.635   3.716   2.035
 2511SOL    HW210489   3.525   3.762   2.129
 2511SOL     MW10490   3.570   3.698   2.091
 2512SOL     OW10491   2.703   2.604   3.047
 2512SOL    HW110492   2.661   2.522   3.023
 2512SOL    HW210493   2.704   2.603   3.143
 2512SOL     MW10494   2.696   2.593   3.056
 2513SOL     OW10495   3.374   3.737   3.446
 2513SOL    HW110496   3.377   3.643   3.429
 2513SOL    HW210497   3.397   3.745   3.538
 2513SOL     MW10498   3.377   3.725   3.456
 2514SOL     OW10499   2.507   2.074   3.152
 2514SOL    HW110500   2.438   2.137   3.173
 2514SOL    HW210501   2.534   2.038   3.237
 2514SOL     MW10502   2.501   2.077   3.165
 2515SOL     OW10503   1.890   2.915   2.021
 2515SOL    HW110504   1.859   2.980   2.084
 2515SOL    HW210505   1.839   2.837   2.040
 2515SOL     MW10506   1.880   2.912   2.031
 2516SOL     OW10507   3.302   1.927   2.769
 2516SOL    HW110508   3.390   1.936   2.806
 2516SOL    HW210509   3.312   1.868   2.695
 2516SOL     MW10510   3.316   1.921   2.763
 2517SOL     OW10511   3.334   2.666   2.613
 2517SOL    HW110512   3.414   2.681   2.562
 2517SOL    HW210513   3.327   2.571   2.619
 2517SOL     MW10514   3.343   2.655   2.608
 2518SOL     OW10515   2.474   3.715   1.963
 2518SOL    HW110516   2.379   3.715   1.955
 2518SOL    HW210517   2.490   3.661   2.041
 2518SOL     MW10518   2.464   3.709   1.972
 2519SOL     OW10519   2.784   2.592   3.310
 2519SOL    HW110520   2.853   2.659   3.307
 2519SOL    HW210521   2.717   2.630   3.366
 2519SOL     MW10522   2.785   2.605   3.317
 2520SOL     OW10523   2.202   2.892   3.558
 2520SOL    HW110524   2.156   2.808   3.560
 2520SOL    HW210525   2.259   2.886   3.482
 2520SOL     MW10526   2.204   2.880   3.550
 2521SOL     OW10527   3.319   2.535   1.879
 2521SOL    HW110528   3.247   2.511   1.821
 2521SOL    HW210529   3.385   2.572   1.821
 2521SOL     MW10530   3.318   2.537   1.864
 2522SOL     OW10531   2.453   3.267   2.559
 2522SOL    HW110532   2.518   3.200   2.580
 2522SOL    HW210533   2.505   3.344   2.536
 2522SOL     MW10534   2.468   3.269   2.558
 2523SOL     OW10535   2.714   2.432   2.689
 2523SOL    HW110536   2.654   2.450   2.761
 2523SOL    HW210537   2.748   2.344   2.708
 2523SOL     MW10538   2.710   2.422   2.702
 2524SOL     OW10539   3.655   1.931   3.358
 2524SOL    HW110540   3.576   1.977   3.386
 2524SOL    HW210541   3.690   1.985   3.287
 2524SOL     MW10542   3.649   1.944   3.352
 2525SOL     OW10543   2.939   3.015   2.708
 2525SOL    HW110544   3.031   2.996   2.726
 2525SOL    HW210545   2.912   2.945   2.648
 2525SOL     MW10546   2.947   3.003   2.702
 2526SOL     OW10547   2.732   2.835   2.063
 2526SOL    HW110548   2.718   2.747   2.028
 2526SOL    HW210549   2.683   2.892   2.004
 2526SOL     MW10550   2.724   2.830   2.051
 2527SOL     OW10551   3.213   3.253   2.804
 2527SOL    HW110552   3.186   3.337   2.769
 2527SOL    HW210553   3.173   3.248   2.891
 2527SOL     MW10554   3.206   3.262   2.810
 2528SOL     OW10555   3.132   3.201   3.072
 2528SOL    HW110556   3.143   3.168   3.161
 2528SOL    HW210557   3.051   3.160   3.041
 2528SOL     MW10558   3.122   3.193   3.078
 2529SOL     OW10559   2.145   2.559   2.842
 2529SOL    HW110560   2.095   2.558   2.923
 2529SOL    HW210561   2.165   2.651   2.826
 2529SOL     MW10562   2.141   2.571   2.850
 2530SOL     OW10563   3.212   3.323   3.604
 2530SOL    HW110564   3.212   3.417   3.620
 2530SOL    HW210565   3.257   3.313   3.520
 2530SOL     MW10566   3.218   3.333   3.595
 2531SOL     OW10567   3.451   2.041   2.165
 2531SOL    HW110568   3.444   2.045   2.260
 2531SOL    HW210569   3.463   2.132   2.138
 2531SOL     MW10570   3.452   2.054   2.173
 2532SOL     OW10571   2.740   2.604   2.279
 2532SOL    HW110572   2.720   2.590   2.186
 2532SOL    HW210573   2.833   2.583   2.286
 2532SOL     MW10574   2.750   2.599   2.268
 2533SOL     OW10575   2.067   2.227   3.583
 2533SOL    HW110576   2.024   2.286   3.520
 2533SOL    HW210577   2.135   2.282   3.623
 2533SOL     MW10578   2.071   2.242   3.580
 2534SOL     OW10579   3.179   2.847   3.128
 2534SOL    HW110580   3.242   2.844   3.201
 2534SOL    HW210581   3.095   2.865   3.170
 2534SOL     MW10582   3.175   2.849   3.143
 2535SOL     OW10583   2.723   3.562   2.317
 2535SOL    HW110584   2.781   3.633   2.344
 2535SOL    HW210585   2.746   3.490   2.375
 2535SOL     MW10586   2.734   3.562   2.328
 2536SOL     OW10587   3.518   2.024   2.907
 2536SOL    HW110588   3.563   1.942   2.926
 2536SOL    HW210589   3.538   2.080   2.983
 2536SOL     MW10590   3.528   2.020   2.919
 2537SOL     OW10591   1.966   1.867   3.006
 2537SOL    HW110592   1.957   1.868   2.911
 2537SOL    HW210593   2.060   1.879   3.021
 2537SOL     MW10594   1.978   1.870   2.997
 2538SOL     OW10595   3.603   3.060   2.626
 2538SOL    HW110596   3.582   3.006   2.549
 2538SOL    HW210597   3.699   3.058   2.630
 2538SOL     MW10598   3.612   3.053   2.615
 2539SOL     OW10599   2.295   3.205   3.369
 2539SOL    HW110600   2.216   3.155   3.392
 2539SOL    HW210601   2.365   3.164   3.419
 2539SOL     MW10602   2.293   3.193   3.379
 2540SOL     OW10603   2.179   1.994   2.052
 2540SOL    HW110604   2.108   2.049   2.020
 2540SOL    HW210605   2.221   1.960   1.973
 2540SOL     MW10606   2.175   1.996   2.038
 2541SOL     OW10607   3.303   2.491   2.888
 2541SOL    HW110608   3.226   2.537   2.854
 2541SOL    HW210609   3.360   2.560   2.922
 2541SOL     MW10610   3.300   2.506   2.888
 2542SOL     OW10611   1.935   2.093   1.901
 2542SOL    HW110612   1.902   2.172   1.945
 2542SOL    HW210613   1.990   2.126   1.830
 2542SOL     MW10614   1.938   2.107   1.898
 2543SOL     OW10615   1.969   3.350   2.090
 2543SOL    HW110616   1.986   3.434   2.132
 2543SOL    HW210617   2.004   3.359   2.002
 2543SOL     MW10618   1.974   3.363   2.084
 2544SOL     OW10619   3.241   3.439   2.307
 2544SOL    HW110620   3.304   3.429   2.236
 2544SOL    HW210621   3.158   3.459   2.262
 2544SOL     MW10622   3.238   3.440   2.292
 2545SOL     OW10623   3.604   2.707   3.993
 2545SOL    HW110624   3.645   2.649   4.058
 2545SOL    HW210625   3.511   2.699   4.010
 2545SOL     MW10626   3.598   2.699   4.003
 2546SOL     OW10627   2.398   2.890   4.222
 2546SOL    HW110628   2.488   2.865   4.206
 2546SOL    HW210629   2.394   2.983   4.199
 2546SOL     MW10630   2.410   2.899   4.217
 2547SOL     OW10631   2.682   2.346   4.235
 2547SOL    HW110632   2.657   2.434   4.263
 2547SOL    HW210633   2.679   2.349   4.139
 2547SOL     MW10634   2.678   2.358   4.227
 2548SOL     OW10635   2.124   2.374   4.163
 2548SOL    HW110636   2.156   2.462   4.145
 2548SOL    HW210637   2.112   2.372   4.258
 2548SOL     MW10638   2.127   2.386   4.175
 2549SOL     OW10639   2.523   2.129   4.250
 2549SOL    HW110640   2.581   2.205   4.252
 2549SOL    HW210641   2.458   2.150   4.183
 2549SOL     MW10642   2.522   2.141   4.241
 2550SOL     OW10643   2.610   3.056   4.425
 2550SOL    HW110644   2.690   3.059   4.477
 2550SOL    HW210645   2.638   3.023   4.339
 2550SOL     MW10646   2.624   3.052   4.420
 2551SOL     OW10647   3.237   3.038   3.941
 2551SOL    HW110648   3.155   3.074   3.907
 2551SOL    HW210649   3.305   3.081   3.890
 2551SOL     MW10650   3.235   3.048   3.929
 2552SOL     OW10651   2.789   3.179   4.134
 2552SOL    HW110652   2.766   3.241   4.202
 2552SOL    HW210653   2.746   3.097   4.160
 2552SOL     MW10654   2.781   3.175   4.145
 2553SOL     OW10655   2.286   2.152   4.102
 2553SOL    HW110656   2.260   2.114   4.018
 2553SOL    HW210657   2.223   2.222   4.118
 2553SOL     MW10658   2.275   2.155   4.093
 2554SOL     OW10659   2.121   3.113   4.139
 2554SOL    HW110660   2.069   3.181   4.095
 2554SOL    HW210661   2.118   3.039   4.079
 2554SOL     MW10662   2.113   3.112   4.126
 2555SOL     OW10663   2.783   3.576   3.917
 2555SOL    HW110664   2.738   3.592   4.000
 2555SOL    HW210665   2.714   3.541   3.859
 2555SOL     MW10666   2.769   3.573   3.919
 2556SOL     OW10667   3.718   2.349   3.892
 2556SOL    HW110668   3.627   2.351   3.920
 2556SOL    HW210669   3.763   2.411   3.950
 2556SOL     MW10670   3.711   2.357   3.902
 2557SOL     OW10671   3.655   3.153   4.054
 2557SOL    HW110672   3.611   3.194   4.129
 2557SOL    HW210673   3.712   3.221   4.019
 2557SOL     MW10674   3.657   3.167   4.059
 2558SOL     OW10675   2.311   3.569   4.372
 2558SOL    HW110676   2.343   3.657   4.350
 2558SOL    HW210677   2.264   3.541   4.294
 2558SOL     MW10678   2.310   3.577   4.359
 2559SOL     OW10679   2.027   3.629   3.949
 2559SOL    HW110680   2.056   3.719   3.941
 2559SOL    HW210681   1.977   3.612   3.870
 2559SOL     MW10682   2.025   3.637   3.938
 2560SOL     OW10683   3.431   3.437   3.920
 2560SOL    HW110684   3.479   3.506   3.966
 2560SOL    HW210685   3.352   3.481   3.889
 2560SOL     MW10686   3.426   3.451   3.923
 2561SOL     OW10687   2.829   2.562   3.864
 2561SOL    HW110688   2.831   2.509   3.785
 2561SOL    HW210689   2.917   2.599   3.870
 2561SOL     MW10690   2.841   2.561   3.853
 2562SOL     OW10691   2.056   2.088   4.395
 2562SOL    HW110692   2.047   2.028   4.321
 2562SOL    HW210693   1.989   2.059   4.458
 2562SOL     MW10694   2.046   2.075   4.393
 2563SOL     OW10695   2.999   3.181   3.956
 2563SOL    HW110696   2.949   3.183   4.038
 2563SOL    HW210697   2.933   3.199   3.888
 2563SOL     MW10698   2.985   3.183   3.958
 2564SOL     OW10699   2.462   3.599   4.064
 2564SOL    HW110700   2.383   3.557   4.097
 2564SOL    HW210701   2.528   3.582   4.131
 2564SOL     MW10702   2.461   3.591   4.077
 2565SOL     OW10703   2.598   3.014   3.771
 2565SOL    HW110704   2.520   2.960   3.758
 2565SOL    HW210705   2.569   3.087   3.824
 2565SOL     MW10706   2.584   3.016   3.776
 2566SOL     OW10707   3.179   3.530   3.839
 2566SOL    HW110708   3.105   3.493   3.889
 2566SOL    HW210709   3.187   3.620   3.872
 2566SOL     MW10710   3.170   3.537   3.851
 2567SOL     OW10711   3.403   3.204   3.781
 2567SOL    HW110712   3.350   3.253   3.717
 2567SOL    HW210713   3.434   3.270   3.842
 2567SOL     MW10714   3.401   3.218   3.779
 2568SOL     OW10715   2.628   2.093   3.836
 2568SOL    HW110716   2.576   2.013   3.824
 2568SOL    HW210717   2.715   2.070   3.804
 2568SOL     MW10718   2.631   2.079   3.830
 2569SOL     OW10719   1.989   2.733   4.293
 2569SOL    HW110720   2.080   2.748   4.320
 2569SOL    HW210721   1.992   2.654   4.239
 2569SOL     MW10722   2.001   2.725   4.291
 2570SOL     OW10723   1.997   3.345   4.332
 2570SOL    HW110724   1.969   3.384   4.414
 2570SOL    HW210725   2.017   3.254   4.354
 2570SOL     MW10726   1.995   3.337   4.345
 2571SOL     OW10727   2.830   3.388   4.367
 2571SOL    HW110728   2.913   3.342   4.351
 2571SOL    HW210729   2.820   3.387   4.463
 2571SOL     MW10730   2.840   3.381   4.377
 2572SOL     OW10731   2.563   3.445   3.772
 2572SOL    HW110732   2.503   3.514   3.742
 2572SOL    HW210733   2.508   3.387   3.825
 2572SOL     MW10734   2.547   3.447   3.774
 2573SOL     OW10735   3.001   2.090   3.995
 2573SOL    HW110736   2.934   2.066   3.932
 2573SOL    HW210737   3.066   2.139   3.944
 2573SOL     MW10738   3.001   2.092   3.980
 2574SOL     OW10739   2.194   3.489   4.161
 2574SOL    HW110740   2.155   3.536   4.087
 2574SOL    HW210741   2.128   3.424   4.186
 2574SOL     MW10742   2.181   3.487   4.155
 2575SOL     OW10743   2.686   2.898   4.185
 2575SOL    HW110744   2.688   2.872   4.092
 2575SOL    HW210745   2.744   2.835   4.228
 2575SOL     MW10746   2.694   2.887   4.179
 2576SOL     OW10747   2.001   3.076   4.452
 2576SOL    HW110748   2.065   3.108   4.515
 2576SOL    HW210749   2.050   3.012   4.400
 2576SOL     MW10750   2.016   3.072   4.453
 2577SOL     OW10751   3.176   2.246   3.853
 2577SOL    HW110752   3.149   2.312   3.789
 2577SOL    HW210753   3.246   2.289   3.903
 2577SOL     MW10754   3.181   2.259   3.850
 2578SOL     OW10755   2.844   1.951   3.790
 2578SOL    HW110756   2.900   1.943   3.712
 2578SOL    HW210757   2.821   1.861   3.812
 2578SOL     MW10758   2.849   1.938   3.783
 2579SOL     OW10759   3.349   2.802   3.995
 2579SOL    HW110760   3.316   2.891   3.985
 2579SOL    HW210761   3.314   2.773   4.080
 2579SOL     MW10762   3.339   2.811   4.006
 2580SOL     OW10763   2.343   2.840   3.787
 2580SOL    HW110764   2.266   2.853   3.843
 2580SOL    HW210765   2.307   2.804   3.706
 2580SOL     MW10766   2.329   2.836   3.784
 2581SOL     OW10767   2.625   1.929   4.437
 2581SOL    HW110768   2.554   1.990   4.419
 2581SOL    HW210769   2.676   1.926   4.356
 2581SOL     MW10770   2.621   1.935   4.424
 2582SOL     OW10771   2.383   3.169   4.186
 2582SOL    HW110772   2.376   3.201   4.276
 2582SOL    HW210773   2.293   3.153   4.158
 2582SOL     MW10774   2.371   3.171   4.193
 2583SOL     OW10775   2.386   2.453   3.900
 2583SOL    HW110776   2.352   2.509   3.970
 2583SOL    HW210777   2.457   2.403   3.940
 2583SOL     MW10778   2.392   2.454   3.914
 2584SOL     OW10779   3.442   2.339   3.964
 2584SOL    HW110780   3.434   2.410   3.901
 2584SOL    HW210781   3.460   2.383   4.047
 2584SOL     MW10782   3.443   2.353   3.966
 2585SOL     OW10783   2.302   1.994   4.393
 2585SOL    HW110784   2.352   2.037   4.324
 2585SOL    HW210785   2.217   2.038   4.393
 2585SOL     MW10786   2.299   2.007   4.384
 2586SOL     OW10787   3.111   2.601   3.939
 2586SOL    HW110788   3.158   2.619   3.858
 2586SOL    HW210789   3.077   2.685   3.967
 2586SOL     MW10790   3.113   2.615   3.932
 2587SOL     OW10791   2.224   2.779   4.433
 2587SOL    HW110792   2.282   2.835   4.381
 2587SOL    HW210793   2.268   2.694   4.435
 2587SOL     MW10794   2.237   2.776   4.426
 2588SOL     OW10795   2.846   3.343   3.761
 2588SOL    HW110796   2.873   3.421   3.713
 2588SOL    HW210797   2.753   3.358   3.780
 2588SOL     MW10798   2.837   3.356   3.757
 2589SOL     OW10799   1.886   2.505   4.152
 2589SOL    HW110800   1.826   2.477   4.222
 2589SOL    HW210801   1.960   2.445   4.158
 2589SOL     MW10802   1.888   2.494   4.161
 2590SOL     OW10803   3.194   1.903   3.948
 2590SOL    HW110804   3.268   1.947   3.991
 2590SOL    HW210805   3.118   1.957   3.970
 2590SOL     MW10806   3.194   1.915   3.956
 2591SOL     OW10807   2.627   2.344   3.952
 2591SOL    HW110808   2.700   2.393   3.915
 2591SOL    HW210809   2.643   2.253   3.926
 2591SOL     MW10810   2.639   2.339   3.945
 2592SOL     OW10811   2.102   2.853   4.050
 2592SOL    HW110812   2.039   2.869   3.979
 2592SOL    HW210813   2.049   2.816   4.121
 2592SOL     MW10814   2.087   2.850   4.050
 2593SOL     OW10815   2.458   3.207   3.909
 2593SOL    HW110816   2.473   3.183   4.001
 2593SOL    HW210817   2.366   3.185   3.893
 2593SOL     MW10818   2.448   3.200   3.919
 2594SOL     OW10819   2.997   3.438   4.061
 2594SOL    HW110820   3.005   3.356   4.012
 2594SOL    HW210821   2.916   3.477   4.028
 2594SOL     MW10822   2.987   3.433   4.051
 2595SOL     OW10823   2.054   1.950   4.163
 2595SOL    HW110824   2.125   1.971   4.102
 2595SOL    HW210825   2.008   1.878   4.121
 2595SOL     MW10826   2.058   1.944   4.149
 2596SOL     OW10827   2.262   2.612   4.142
 2596SOL    HW110828   2.262   2.707   4.127
 2596SOL    HW210829   2.339   2.596   4.196
 2596SOL     MW10830   2.272   2.623   4.147
 2597SOL     OW10831   2.021   2.343   4.431
 2597SOL    HW110832   2.083   2.350   4.504
 2597SOL    HW210833   2.021   2.250   4.408
 2597SOL     MW10834   2.029   2.332   4.438
 2598SOL     OW10835   3.568   3.683   3.963
 2598SOL    HW110836   3.635   3.716   3.903
 2598SOL    HW210837   3.525   3.762   3.997
 2598SOL     MW10838   3.570   3.698   3.959
 2599SOL     OW10839   1.890   2.915   3.889
 2599SOL    HW110840   1.859   2.980   3.952
 2599SOL    HW210841   1.839   2.837   3.908
 2599SOL     MW10842   1.880   2.912   3.899
 2600SOL     OW10843   2.474   3.715   3.831
 2600SOL    HW110844   2.379   3.715   3.823
 2600SOL    HW210845   2.490   3.661   3.909
 2600SOL     MW10846   2.464   3.709   3.840
 2601SOL     OW10847   3.319   2.535   3.747
 2601SOL    HW110848   3.247   2.511   3.689
 2601SOL    HW210849   3.385   2.572   3.689
 2601SOL     MW10850   3.318   2.537   3.732
 2602SOL     OW10851   2.453   3.267   4.427
 2602SOL    HW110852   2.518   3.200   4.448
 2602SOL    HW210853   2.505   3.344   4.404
 2602SOL     MW10854   2.468   3.269   4.426
 2603SOL     OW10855   2.732   2.835   3.931
 2603SOL    HW110856   2.718   2.747   3.896
 2603SOL    HW210857   2.683   2.892   3.872
 2603SOL     MW10858   2.724   2.830   3.919
 2604SOL     OW10859   3.451   2.041   4.033
 2604SOL    HW110860   3.444   2.045   4.128
 2604SOL    HW210861   3.463   2.132   4.006
 2604SOL     MW10862   3.452   2.054   4.041
 2605SOL     OW10863   2.740   2.604   4.147
 2605SOL    HW110864   2.720   2.590   4.054
 2605SOL    HW210865   2.833   2.583   4.154
 2605SOL     MW10866   2.750   2.599   4.136
 2606SOL     OW10867   2.723   3.562   4.185
 2606SOL    HW110868   2.781   3.633   4.212
 2606SOL    HW210869   2.746   3.490   4.243
 2606SOL     MW10870   2.734   3.562   4.196
 2607SOL     OW10871   2.179   1.994   3.920
 2607SOL    HW110872   2.108   2.049   3.888
 2607SOL    HW210873   2.221   1.960   3.841
 2607SOL     MW10874   2.175   1.996   3.906
 2608SOL     OW10875   1.935   2.093   3.769
 2608SOL    HW110876   1.902   2.172   3.813
 2608SOL    HW210877   1.990   2.126   3.698
 2608SOL     MW10878   1.938   2.107   3.766
 2609SOL     OW10879   1.969   3.350   3.958
 2609SOL    HW110880   1.986   3.434   4.000
 2609SOL    HW210881   2.004   3.359   3.870
 2609SOL     MW10882   1.974   3.363   3.952
 2610SOL     OW10883   3.241   3.439   4.175
 2610SOL    HW110884   3.304   3.429   4.104
 2610SOL    HW210885   3.158   3.459   4.130
 2610SOL     MW10886   3.238   3.440   4.160
 2611SOL     OW10887   3.604   4.575   0.257
 2611SOL    HW110888   3.645   4.517   0.322
 2611SOL    HW210889   3.511   4.567   0.274
 2611SOL     MW10890   3.598   4.567   0.267
 2612SOL     OW10891   2.398   4.758   0.486
 2612SOL    HW110892   2.488   4.733   0.470
 2612SOL    HW210893   2.394   4.851   0.463
 2612SOL     MW10894   2.410   4.767   0.481
 2613SOL     OW10895   3.514   5.461   0.628
 2613SOL    HW110896   3.526   5.407   0.706
 2613SOL    HW210897   3.551   5.409   0.557
 2613SOL     MW10898   3.520   5.446   0.629
 2614SOL     OW10899   2.893   5.346   1.629
 2614SOL    HW110900   2.934   5.382   1.550
 2614SOL    HW210901   2.928   5.257   1.636
 2614SOL     MW10902   2.904   5.339   1.620
 2615SOL     OW10903   2.682   4.214   0.499
 2615SOL    HW110904   2.657   4.302   0.527
 2615SOL    HW210905   2.679   4.217   0.403
 2615SOL     MW10906   2.678   4.226   0.491
 2616SOL     OW10907   2.124   4.242   0.427
 2616SOL    HW110908   2.156   4.330   0.409
 2616SOL    HW210909   2.112   4.240   0.522
 2616SOL     MW10910   2.127   4.254   0.439
 2617SOL     OW10911   2.202   4.655   1.328
 2617SOL    HW110912   2.265   4.602   1.279
 2617SOL    HW210913   2.183   4.729   1.271
 2617SOL     MW10914   2.208   4.657   1.315
 2618SOL     OW10915   2.523   3.997   0.514
 2618SOL    HW110916   2.581   4.073   0.516
 2618SOL    HW210917   2.458   4.018   0.447
 2618SOL     MW10918   2.522   4.009   0.505
 2619SOL     OW10919   2.610   4.924   0.689
 2619SOL    HW110920   2.690   4.927   0.741
 2619SOL    HW210921   2.638   4.891   0.603
 2619SOL     MW10922   2.624   4.920   0.684
 2620SOL     OW10923   2.635   5.265   1.592
 2620SOL    HW110924   2.719   5.291   1.631
 2620SOL    HW210925   2.659   5.209   1.518
 2620SOL     MW10926   2.649   5.261   1.587
 2621SOL     OW10927   2.387   4.428   0.680
 2621SOL    HW110928   2.372   4.348   0.731
 2621SOL    HW210929   2.469   4.463   0.714
 2621SOL     MW10930   2.395   4.420   0.692
 2622SOL     OW10931   2.724   5.114   1.365
 2622SOL    HW110932   2.688   5.180   1.305
 2622SOL    HW210933   2.652   5.052   1.378
 2622SOL     MW10934   2.710   5.114   1.359
 2623SOL     OW10935   2.529   4.254   1.057
 2623SOL    HW110936   2.435   4.250   1.075
 2623SOL    HW210937   2.559   4.163   1.066
 2623SOL     MW10938   2.520   4.242   1.060
 2624SOL     OW10939   2.275   4.668   0.961
 2624SOL    HW110940   2.230   4.675   0.877
 2624SOL    HW210941   2.255   4.751   1.005
 2624SOL     MW10942   2.267   4.680   0.955
 2625SOL     OW10943   1.972   5.514   0.836
 2625SOL    HW110944   2.061   5.506   0.871
 2625SOL    HW210945   1.936   5.426   0.841
 2625SOL     MW10946   1.979   5.501   0.841
 2626SOL     OW10947   2.236   5.041   0.871
 2626SOL    HW110948   2.212   5.094   0.947
 2626SOL    HW210949   2.292   5.099   0.819
 2626SOL     MW10950   2.240   5.056   0.874
 2627SOL     OW10951   2.798   4.685   0.681
 2627SOL    HW110952   2.712   4.672   0.721
 2627SOL    HW210953   2.851   4.612   0.713
 2627SOL     MW10954   2.794   4.674   0.690
 2628SOL     OW10955   2.206   5.337   1.466
 2628SOL    HW110956   2.114   5.313   1.451
 2628SOL    HW210957   2.250   5.254   1.483
 2628SOL     MW10958   2.200   5.322   1.465
 2629SOL     OW10959   2.789   5.047   0.398
 2629SOL    HW110960   2.766   5.109   0.466
 2629SOL    HW210961   2.746   4.965   0.424
 2629SOL     MW10962   2.781   5.043   0.409
 2630SOL     OW10963   2.286   4.020   0.366
 2630SOL    HW110964   2.260   3.982   0.282
 2630SOL    HW210965   2.223   4.090   0.382
 2630SOL     MW10966   2.275   4.023   0.357
 2631SOL     OW10967   2.121   4.981   0.403
 2631SOL    HW110968   2.069   5.049   0.359
 2631SOL    HW210969   2.118   4.907   0.343
 2631SOL     MW10970   2.113   4.980   0.390
 2632SOL     OW10971   2.783   5.444   0.181
 2632SOL    HW110972   2.738   5.460   0.264
 2632SOL    HW210973   2.714   5.409   0.123
 2632SOL     MW10974   2.769   5.441   0.183
 2633SOL     OW10975   3.463   4.820   0.506
 2633SOL    HW110976   3.373   4.820   0.541
 2633SOL    HW210977   3.456   4.866   0.423
 2633SOL     MW10978   3.450   4.826   0.500
 2634SOL     OW10979   2.004   5.335   1.130
 2634SOL    HW110980   1.987   5.281   1.207
 2634SOL    HW210981   1.992   5.425   1.160
 2634SOL     MW10982   2.001   5.339   1.144
 2635SOL     OW10983   2.999   4.842   1.570
 2635SOL    HW110984   2.984   4.935   1.555
 2635SOL    HW210985   3.094   4.832   1.570
 2635SOL     MW10986   3.008   4.852   1.567
 2636SOL     OW10987   2.795   4.266   1.771
 2636SOL    HW110988   2.885   4.267   1.738
 2636SOL    HW210989   2.754   4.191   1.729
 2636SOL     MW10990   2.801   4.256   1.762
 2637SOL     OW10991   3.370   4.798   0.898
 2637SOL    HW110992   3.373   4.732   0.829
 2637SOL    HW210993   3.455   4.841   0.894
 2637SOL     MW10994   3.382   4.794   0.889
 2638SOL     OW10995   2.575   4.070   1.721
 2638SOL    HW110996   2.585   3.996   1.661
 2638SOL    HW210997   2.611   4.039   1.804
 2638SOL     MW10998   2.581   4.056   1.723
 2639SOL     OW10999   2.311   5.437   0.636
 2639SOL    HW111000   2.343   5.525   0.614
 2639SOL    HW211001   2.264   5.409   0.558
 2639SOL     MW11002   2.310   5.445   0.623
 2640SOL     OW11003   3.695   3.799   0.685
 2640SOL    HW111004   3.749   3.750   0.747
 2640SOL    HW211005   3.638   3.733   0.646
 2640SOL     MW11006   3.695   3.783   0.687
 2641SOL     OW11007   2.027   5.497   0.213
 2641SOL    HW111008   2.056   5.587   0.205
 2641SOL    HW211009   1.977   5.480   0.134
 2641SOL     MW11010   2.025   5.505   0.202
 2642SOL     OW11011   2.814   3.752   1.098
 2642SOL    HW111012   2.773   3.830   1.060
 2642SOL    HW211013   2.908   3.770   1.093
 2642SOL     MW11014   2.820   3.764   1.093
 2643SOL     OW11015   3.431   5.305   0.184
 2643SOL    HW111016   3.479   5.374   0.230
 2643SOL    HW211017   3.352   5.349   0.153
 2643SOL     MW11018   3.426   5.319   0.187
 2644SOL     OW11019   2.829   4.430   0.128
 2644SOL    HW111020   2.831   4.377   0.049
 2644SOL    HW211021   2.917   4.467   0.134
 2644SOL     MW11022   2.841   4.429   0.117
 2645SOL     OW11023   3.443   4.356   0.464
 2645SOL    HW111024   3.482   4.356   0.551
 2645SOL    HW211025   3.384   4.432   0.464
 2645SOL     MW11026   3.440   4.367   0.475
 2646SOL     OW11027   2.760   4.723   1.593
 2646SOL    HW111028   2.737   4.703   1.683
 2646SOL    HW211029   2.845   4.767   1.598
 2646SOL     MW11030   2.767   4.726   1.605
 2647SOL     OW11031   2.840   3.860   1.353
 2647SOL    HW111032   2.846   3.822   1.266
 2647SOL    HW211033   2.829   3.954   1.338
 2647SOL     MW11034   2.841   3.868   1.341
 2648SOL     OW11035   2.929   4.349   1.187
 2648SOL    HW111036   3.004   4.378   1.134
 2648SOL    HW211037   2.861   4.414   1.171
 2648SOL     MW11038   2.930   4.361   1.177
 2649SOL     OW11039   2.926   4.055   1.570
 2649SOL    HW111040   2.892   4.094   1.489
 2649SOL    HW211041   2.904   3.963   1.563
 2649SOL     MW11042   2.919   4.048   1.560
 2650SOL     OW11043   3.630   4.242   0.630
 2650SOL    HW111044   3.719   4.211   0.647
 2650SOL    HW211045   3.573   4.182   0.678
 2650SOL     MW11046   3.633   4.230   0.639
 2651SOL     OW11047   2.056   3.956   0.659
 2651SOL    HW111048   2.047   3.896   0.585
 2651SOL    HW211049   1.989   3.927   0.722
 2651SOL     MW11050   2.046   3.943   0.657
 2652SOL     OW11051   2.003   4.129   1.022
 2652SOL    HW111052   1.975   4.220   1.031
 2652SOL    HW211053   1.940   4.090   0.961
 2652SOL     MW11054   1.990   4.135   1.016
 2653SOL     OW11055   2.462   5.467   0.328
 2653SOL    HW111056   2.383   5.425   0.361
 2653SOL    HW211057   2.528   5.450   0.395
 2653SOL     MW11058   2.461   5.459   0.341
 2654SOL     OW11059   2.598   4.882   0.035
 2654SOL    HW111060   2.520   4.828   0.022
 2654SOL    HW211061   2.569   4.955   0.088
 2654SOL     MW11062   2.584   4.884   0.040
 2655SOL     OW11063   3.516   5.331   0.896
 2655SOL    HW111064   3.545   5.398   0.957
 2655SOL    HW211065   3.497   5.255   0.951
 2655SOL     MW11066   3.518   5.331   0.911
 2656SOL     OW11067   1.987   4.404   1.192
 2656SOL    HW111068   2.049   4.434   1.258
 2656SOL    HW211069   1.921   4.473   1.186
 2656SOL     MW11070   1.986   4.417   1.199
 2657SOL     OW11071   2.628   3.961   0.100
 2657SOL    HW111072   2.576   3.881   0.088
 2657SOL    HW211073   2.715   3.938   0.068
 2657SOL     MW11074   2.631   3.947   0.094
 2658SOL     OW11075   2.082   5.513   1.644
 2658SOL    HW111076   2.056   5.581   1.582
 2658SOL    HW211077   2.130   5.450   1.592
 2658SOL     MW11078   2.084   5.513   1.630
 2659SOL     OW11079   2.134   4.832   1.151
 2659SOL    HW111080   2.187   4.907   1.176
 2659SOL    HW211081   2.053   4.870   1.117
 2659SOL     MW11082   2.130   4.847   1.151
 2660SOL     OW11083   2.674   4.736   1.139
 2660SOL    HW111084   2.702   4.645   1.151
 2660SOL    HW211085   2.603   4.730   1.075
 2660SOL     MW11086   2.667   4.724   1.134
 2661SOL     OW11087   1.989   4.601   0.557
 2661SOL    HW111088   2.080   4.616   0.584
 2661SOL    HW211089   1.992   4.522   0.503
 2661SOL     MW11090   2.001   4.593   0.555
 2662SOL     OW11091   2.225   4.309   1.811
 2662SOL    HW111092   2.172   4.389   1.818
 2662SOL    HW211093   2.295   4.321   1.876
 2662SOL     MW11094   2.227   4.322   1.819
 2663SOL     OW11095   2.611   3.859   1.518
 2663SOL    HW111096   2.588   3.767   1.520
 2663SOL    HW211097   2.697   3.861   1.475
 2663SOL     MW11098   2.618   3.849   1.514
 2664SOL     OW11099   2.295   4.383   1.557
 2664SOL    HW111100   2.375   4.433   1.543
 2664SOL    HW211101   2.286   4.377   1.652
 2664SOL     MW11102   2.304   4.389   1.567
 2665SOL     OW11103   2.616   5.533   0.931
 2665SOL    HW111104   2.705   5.548   0.961
 2665SOL    HW211105   2.611   5.580   0.847
 2665SOL     MW11106   2.626   5.541   0.924
 2666SOL     OW11107   3.272   3.908   1.828
 2666SOL    HW111108   3.328   3.835   1.854
 2666SOL    HW211109   3.242   3.946   1.910
 2666SOL     MW11110   3.276   3.903   1.841
 2667SOL     OW11111   1.997   5.213   0.596
 2667SOL    HW111112   1.969   5.252   0.678
 2667SOL    HW211113   2.017   5.122   0.618
 2667SOL     MW11114   1.995   5.205   0.609
 2668SOL     OW11115   2.830   5.256   0.631
 2668SOL    HW111116   2.913   5.210   0.615
 2668SOL    HW211117   2.820   5.255   0.727
 2668SOL     MW11118   2.840   5.249   0.641
 2669SOL     OW11119   3.662   4.401   0.945
 2669SOL    HW111120   3.751   4.431   0.927
 2669SOL    HW211121   3.642   4.341   0.874
 2669SOL     MW11122   3.671   4.398   0.934
 2670SOL     OW11123   2.563   5.313   0.036
 2670SOL    HW111124   2.503   5.382   0.006
 2670SOL    HW211125   2.508   5.255   0.089
 2670SOL     MW11126   2.547   5.315   0.038
 2671SOL     OW11127   2.808   4.142   1.344
 2671SOL    HW111128   2.727   4.183   1.372
 2671SOL    HW211129   2.855   4.210   1.296
 2671SOL     MW11130   2.803   4.157   1.342
 2672SOL     OW11131   3.068   4.480   0.967
 2672SOL    HW111132   3.081   4.574   0.977
 2672SOL    HW211133   3.029   4.470   0.881
 2672SOL     MW11134   3.064   4.491   0.957
 2673SOL     OW11135   2.520   4.675   0.771
 2673SOL    HW111136   2.431   4.666   0.804
 2673SOL    HW211137   2.524   4.765   0.739
 2673SOL     MW11138   2.509   4.686   0.771
 2674SOL     OW11139   3.319   4.258   0.766
 2674SOL    HW111140   3.264   4.179   0.765
 2674SOL    HW211141   3.301   4.299   0.850
 2674SOL     MW11142   3.309   4.253   0.775
 2675SOL     OW11143   2.290   3.945   1.583
 2675SOL    HW111144   2.211   3.963   1.635
 2675SOL    HW211145   2.285   4.007   1.510
 2675SOL     MW11146   2.280   3.955   1.580
 2676SOL     OW11147   2.938   4.462   0.723
 2676SOL    HW111148   2.875   4.394   0.747
 2676SOL    HW211149   2.958   4.443   0.631
 2676SOL     MW11150   2.932   4.449   0.715
 2677SOL     OW11151   2.194   5.357   0.425
 2677SOL    HW111152   2.155   5.404   0.351
 2677SOL    HW211153   2.128   5.292   0.450
 2677SOL     MW11154   2.181   5.355   0.419
 2678SOL     OW11155   2.686   4.766   0.449
 2678SOL    HW111156   2.688   4.740   0.356
 2678SOL    HW211157   2.744   4.703   0.492
 2678SOL     MW11158   2.694   4.755   0.443
 2679SOL     OW11159   3.243   5.534   0.651
 2679SOL    HW111160   3.186   5.487   0.590
 2679SOL    HW211161   3.329   5.495   0.638
 2679SOL     MW11162   3.246   5.525   0.641
 2680SOL     OW11163   3.196   4.010   0.782
 2680SOL    HW111164   3.224   3.942   0.843
 2680SOL    HW211165   3.110   3.981   0.752
 2680SOL     MW11166   3.189   3.997   0.786
 2681SOL     OW11167   2.001   4.944   0.716
 2681SOL    HW111168   2.065   4.976   0.779
 2681SOL    HW211169   2.050   4.880   0.664
 2681SOL     MW11170   2.016   4.940   0.717
 2682SOL     OW11171   2.501   5.020   1.698
 2682SOL    HW111172   2.549   5.103   1.685
 2682SOL    HW211173   2.558   4.968   1.754
 2682SOL     MW11174   2.515   5.024   1.704
 2683SOL     OW11175   2.077   5.262   1.838
 2683SOL    HW111176   2.133   5.186   1.853
 2683SOL    HW211177   2.026   5.240   1.760
 2683SOL     MW11178   2.077   5.249   1.829
 2684SOL     OW11179   2.844   3.819   0.054
 2684SOL    HW111180   2.900   3.811  -0.024
 2684SOL    HW211181   2.821   3.729   0.076
 2684SOL     MW11182   2.849   3.806   0.047
 2685SOL     OW11183   2.962   5.099   1.447
 2685SOL    HW111184   2.873   5.105   1.415
 2685SOL    HW211185   3.006   5.178   1.415
 2685SOL     MW11186   2.957   5.109   1.439
 2686SOL     OW11187   2.255   3.767   1.789
 2686SOL    HW111188   2.183   3.732   1.737
 2686SOL    HW211189   2.313   3.808   1.724
 2686SOL     MW11190   2.253   3.768   1.774
 2687SOL     OW11191   2.279   5.257   1.088
 2687SOL    HW111192   2.324   5.319   1.145
 2687SOL    HW211193   2.186   5.276   1.101
 2687SOL     MW11194   2.272   5.267   1.095
 2688SOL     OW11195   2.701   5.325   1.196
 2688SOL    HW111196   2.725   5.314   1.105
 2688SOL    HW211197   2.624   5.382   1.194
 2688SOL     MW11198   2.693   5.330   1.185
 2689SOL     OW11199   2.343   4.708   0.051
 2689SOL    HW111200   2.266   4.721   0.107
 2689SOL    HW211201   2.307   4.672  -0.030
 2689SOL     MW11202   2.329   4.704   0.048
 2690SOL     OW11203   2.996   4.681   0.294
 2690SOL    HW111204   2.906   4.702   0.269
 2690SOL    HW211205   3.023   4.754   0.350
 2690SOL     MW11206   2.988   4.693   0.297
 2691SOL     OW11207   2.496   5.030   0.986
 2691SOL    HW111208   2.489   5.009   1.080
 2691SOL    HW211209   2.414   4.998   0.949
 2691SOL     MW11210   2.484   5.024   0.993
 2692SOL     OW11211   3.696   3.964   1.261
 2692SOL    HW111212   3.677   4.031   1.196
 2692SOL    HW211213   3.753   3.902   1.216
 2692SOL     MW11214   3.700   3.965   1.247
 2693SOL     OW11215   1.942   5.122   1.649
 2693SOL    HW111216   1.986   5.055   1.595
 2693SOL    HW211217   1.857   5.084   1.669
 2693SOL     MW11218   1.937   5.108   1.645
 2694SOL     OW11219   2.625   3.797   0.701
 2694SOL    HW111220   2.554   3.858   0.683
 2694SOL    HW211221   2.676   3.794   0.620
 2694SOL     MW11222   2.621   3.803   0.688
 2695SOL     OW11223   2.383   5.037   0.450
 2695SOL    HW111224   2.376   5.069   0.540
 2695SOL    HW211225   2.293   5.021   0.422
 2695SOL     MW11226   2.371   5.039   0.457
 2696SOL     OW11227   2.978   5.430   1.359
 2696SOL    HW111228   2.898   5.415   1.309
 2696SOL    HW211229   2.985   5.525   1.366
 2696SOL     MW11230   2.969   5.441   1.353
 2697SOL     OW11231   3.092   5.395   0.849
 2697SOL    HW111232   3.139   5.468   0.808
 2697SOL    HW211233   3.013   5.434   0.885
 2697SOL     MW11234   3.087   5.410   0.848
 2698SOL     OW11235   3.500   5.490   1.124
 2698SOL    HW111236   3.543   5.460   1.204
 2698SOL    HW211237   3.419   5.438   1.121
 2698SOL     MW11238   3.495   5.479   1.134
 2699SOL     OW11239   2.585   4.454   1.831
 2699SOL    HW111240   2.655   4.396   1.803
 2699SOL    HW211241   2.528   4.399   1.886
 2699SOL     MW11242   2.587   4.441   1.835
 2700SOL     OW11243   3.012   3.801   1.710
 2700SOL    HW111244   3.007   3.708   1.691
 2700SOL    HW211245   3.095   3.812   1.756
 2700SOL     MW11246   3.020   3.790   1.714
 2701SOL     OW11247   2.386   4.321   0.164
 2701SOL    HW111248   2.352   4.377   0.234
 2701SOL    HW211249   2.457   4.271   0.204
 2701SOL     MW11250   2.392   4.322   0.178
 2702SOL     OW11251   2.911   4.720   1.355
 2702SOL    HW111252   2.954   4.755   1.433
 2702SOL    HW211253   2.894   4.797   1.301
 2702SOL     MW11254   2.914   4.735   1.358
 2703SOL     OW11255   2.302   3.862   0.657
 2703SOL    HW111256   2.352   3.905   0.588
 2703SOL    HW211257   2.217   3.906   0.657
 2703SOL     MW11258   2.299   3.875   0.648
 2704SOL     OW11259   2.061   4.924   1.517
 2704SOL    HW111260   2.089   4.877   1.595
 2704SOL    HW211261   1.982   4.879   1.488
 2704SOL     MW11262   2.054   4.913   1.523
 2705SOL     OW11263   2.569   4.251   1.484
 2705SOL    HW111264   2.541   4.339   1.508
 2705SOL    HW211265   2.538   4.195   1.555
 2705SOL     MW11266   2.561   4.254   1.496
 2706SOL     OW11267   2.224   4.647   0.697
 2706SOL    HW111268   2.282   4.703   0.645
 2706SOL    HW211269   2.268   4.562   0.699
 2706SOL     MW11270   2.237   4.644   0.690
 2707SOL     OW11271   3.364   3.999   0.534
 2707SOL    HW111272   3.286   3.949   0.559
 2707SOL    HW211273   3.335   4.090   0.534
 2707SOL     MW11274   3.350   4.003   0.537
 2708SOL     OW11275   2.950   3.961   0.693
 2708SOL    HW111276   2.970   4.036   0.637
 2708SOL    HW211277   2.930   4.000   0.778
 2708SOL     MW11278   2.951   3.977   0.697
 2709SOL     OW11279   2.846   5.211   0.025
 2709SOL    HW111280   2.873   5.289  -0.023
 2709SOL    HW211281   2.753   5.226   0.044
 2709SOL     MW11282   2.837   5.224   0.021
 2710SOL     OW11283   1.931   5.247   0.869
 2710SOL    HW111284   1.963   5.251   0.960
 2710SOL    HW211285   1.836   5.255   0.877
 2710SOL     MW11286   1.923   5.250   0.882
 2711SOL     OW11287   1.886   4.373   0.416
 2711SOL    HW111288   1.826   4.345   0.486
 2711SOL    HW211289   1.960   4.313   0.422
 2711SOL     MW11290   1.888   4.362   0.425
 2712SOL     OW11291   3.054   5.104   0.576
 2712SOL    HW111292   3.077   5.055   0.654
 2712SOL    HW211293   3.135   5.146   0.548
 2712SOL     MW11294   3.067   5.104   0.583
 2713SOL     OW11295   2.312   4.112   1.305
 2713SOL    HW111296   2.345   4.193   1.345
 2713SOL    HW211297   2.285   4.138   1.217
 2713SOL     MW11298   2.311   4.126   1.299
 2714SOL     OW11299   2.266   4.079   1.041
 2714SOL    HW111300   2.296   3.993   1.012
 2714SOL    HW211301   2.171   4.072   1.044
 2714SOL     MW11302   2.258   4.068   1.039
 2715SOL     OW11303   3.095   4.288   1.732
 2715SOL    HW111304   3.147   4.223   1.685
 2715SOL    HW211305   3.053   4.339   1.662
 2715SOL     MW11306   3.096   4.285   1.715
 2716SOL     OW11307   3.194   4.083   1.593
 2716SOL    HW111308   3.101   4.067   1.580
 2716SOL    HW211309   3.220   4.021   1.661
 2716SOL     MW11310   3.184   4.073   1.600
 2717SOL     OW11311   2.409   3.857   0.932
 2717SOL    HW111312   2.419   3.766   0.958
 2717SOL    HW211313   2.365   3.853   0.847
 2717SOL     MW11314   2.405   3.845   0.924
 2718SOL     OW11315   2.503   5.472   1.478
 2718SOL    HW111316   2.420   5.457   1.523
 2718SOL    HW211317   2.562   5.405   1.513
 2718SOL     MW11318   2.501   5.462   1.488
 2719SOL     OW11319   3.738   4.899   1.073
 2719SOL    HW111320   3.731   4.839   0.998
 2719SOL    HW211321   3.664   4.959   1.062
 2719SOL     MW11322   3.728   4.899   1.062
 2720SOL     OW11323   3.120   4.761   0.991
 2720SOL    HW111324   3.134   4.733   1.082
 2720SOL    HW211325   3.206   4.792   0.963
 2720SOL     MW11326   3.133   4.762   1.000
 2721SOL     OW11327   3.203   4.256   1.270
 2721SOL    HW111328   3.224   4.257   1.177
 2721SOL    HW211329   3.248   4.178   1.303
 2721SOL     MW11330   3.210   4.246   1.262
 2722SOL     OW11331   3.696   4.387   1.812
 2722SOL    HW111332   3.733   4.332   1.881
 2722SOL    HW211333   3.721   4.344   1.730
 2722SOL     MW11334   3.703   4.375   1.811
 2723SOL     OW11335   3.243   4.685   1.863
 2723SOL    HW111336   3.309   4.633   1.817
 2723SOL    HW211337   3.263   4.672   1.956
 2723SOL     MW11338   3.254   4.676   1.870
 2724SOL     OW11339   3.254   4.546   0.490
 2724SOL    HW111340   3.169   4.516   0.460
 2724SOL    HW211341   3.246   4.553   0.585
 2724SOL     MW11342   3.242   4.544   0.499
 2725SOL     OW11343   2.330   5.009   1.221
 2725SOL    HW111344   2.342   5.036   1.312
 2725SOL    HW211345   2.311   5.090   1.174
 2725SOL     MW11346   2.329   5.024   1.226
 2726SOL     OW11347   2.614   3.989   1.044
 2726SOL    HW111348   2.587   3.991   1.135
 2726SOL    HW211349   2.544   3.941   0.999
 2726SOL     MW11350   2.602   3.985   1.051
 2727SOL     OW11351   2.468   5.481   1.206
 2727SOL    HW111352   2.520   5.558   1.183
 2727SOL    HW211353   2.477   5.473   1.301
 2727SOL     MW11354   2.477   5.488   1.217
 2728SOL     OW11355   2.444   4.797   1.555
 2728SOL    HW111356   2.481   4.802   1.467
 2728SOL    HW211357   2.483   4.870   1.602
 2728SOL     MW11358   2.454   4.807   1.550
 2729SOL     OW11359   2.624   4.840   1.367
 2729SOL    HW111360   2.683   4.786   1.420
 2729SOL    HW211361   2.639   4.812   1.277
 2729SOL     MW11362   2.634   4.829   1.363
 2730SOL     OW11363   2.627   4.212   0.216
 2730SOL    HW111364   2.700   4.261   0.179
 2730SOL    HW211365   2.643   4.121   0.190
 2730SOL     MW11366   2.639   4.207   0.209
 2731SOL     OW11367   3.095   3.808   1.130
 2731SOL    HW111368   3.150   3.817   1.052
 2731SOL    HW211369   3.150   3.842   1.201
 2731SOL     MW11370   3.109   3.813   1.129
 2732SOL     OW11371   2.102   4.721   0.314
 2732SOL    HW111372   2.039   4.737   0.243
 2732SOL    HW211373   2.049   4.684   0.385
 2732SOL     MW11374   2.087   4.718   0.314
 2733SOL     OW11375   2.458   5.075   0.173
 2733SOL    HW111376   2.473   5.051   0.265
 2733SOL    HW211377   2.366   5.053   0.157
 2733SOL     MW11378   2.448   5.068   0.183
 2734SOL     OW11379   2.256   5.464   0.894
 2734SOL    HW111380   2.260   5.375   0.929
 2734SOL    HW211381   2.282   5.455   0.803
 2734SOL     MW11382   2.259   5.452   0.886
 2735SOL     OW11383   2.873   4.942   1.137
 2735SOL    HW111384   2.805   4.876   1.153
 2735SOL    HW211385   2.891   4.936   1.044
 2735SOL     MW11386   2.866   4.933   1.128
 2736SOL     OW11387   1.962   5.217   1.388
 2736SOL    HW111388   1.952   5.175   1.474
 2736SOL    HW211389   1.883   5.270   1.378
 2736SOL     MW11390   1.951   5.218   1.399
 2737SOL     OW11391   2.866   4.081   0.958
 2737SOL    HW111392   2.796   4.033   1.003
 2737SOL    HW211393   2.898   4.144   1.022
 2737SOL     MW11394   2.861   4.083   0.972
 2738SOL     OW11395   2.517   4.517   1.578
 2738SOL    HW111396   2.510   4.612   1.566
 2738SOL    HW211397   2.526   4.506   1.673
 2738SOL     MW11398   2.518   4.529   1.588
 2739SOL     OW11399   2.238   5.032   1.836
 2739SOL    HW111400   2.310   5.034   1.773
 2739SOL    HW211401   2.208   4.941   1.835
 2739SOL     MW11402   2.243   5.021   1.828
 2740SOL     OW11403   3.322   3.795   1.303
 2740SOL    HW111404   3.393   3.741   1.267
 2740SOL    HW211405   3.321   3.774   1.396
 2740SOL     MW11406   3.331   3.786   1.311
 2741SOL     OW11407   2.333   4.187   0.771
 2741SOL    HW111408   2.404   4.135   0.734
 2741SOL    HW211409   2.319   4.152   0.858
 2741SOL     MW11410   2.341   4.176   0.778
 2742SOL     OW11411   1.888   5.522   1.843
 2742SOL    HW111412   1.938   5.500   1.765
 2742SOL    HW211413   1.896   5.617   1.851
 2742SOL     MW11414   1.896   5.531   1.834
 2743SOL     OW11415   2.649   5.280   0.847
 2743SOL    HW111416   2.577   5.217   0.860
 2743SOL    HW211417   2.610   5.365   0.865
 2743SOL     MW11418   2.633   5.283   0.850
 2744SOL     OW11419   2.969   4.128   0.495
 2744SOL    HW111420   2.991   4.065   0.427
 2744SOL    HW211421   2.874   4.120   0.506
 2744SOL     MW11422   2.959   4.119   0.487
 2745SOL     OW11423   2.054   3.818   0.427
 2745SOL    HW111424   2.125   3.839   0.366
 2745SOL    HW211425   2.008   3.746   0.385
 2745SOL     MW11426   2.058   3.812   0.413
 2746SOL     OW11427   1.885   4.285   1.570
 2746SOL    HW111428   1.949   4.351   1.545
 2746SOL    HW211429   1.804   4.312   1.527
 2746SOL     MW11430   1.883   4.297   1.562
 2747SOL     OW11431   3.623   5.192   0.527
 2747SOL    HW111432   3.593   5.125   0.588
 2747SOL    HW211433   3.717   5.198   0.541
 2747SOL     MW11434   3.631   5.184   0.537
 2748SOL     OW11435   3.179   4.869   0.457
 2748SOL    HW111436   3.151   4.955   0.490
 2748SOL    HW211437   3.207   4.885   0.367
 2748SOL     MW11438   3.179   4.883   0.449
 2749SOL     OW11439   2.841   3.789   0.510
 2749SOL    HW111440   2.878   3.848   0.575
 2749SOL    HW211441   2.818   3.845   0.436
 2749SOL     MW11442   2.842   3.804   0.509
 2750SOL     OW11443   3.694   4.671   0.932
 2750SOL    HW111444   3.685   4.703   0.843
 2750SOL    HW211445   3.647   4.587   0.932
 2750SOL     MW11446   3.687   4.664   0.922
 2751SOL     OW11447   2.070   4.511   1.511
 2751SOL    HW111448   2.091   4.580   1.449
 2751SOL    HW211449   2.150   4.458   1.516
 2751SOL     MW11450   2.083   4.512   1.505
 2752SOL     OW11451   3.606   4.602   0.633
 2752SOL    HW111452   3.700   4.591   0.621
 2752SOL    HW211453   3.582   4.674   0.574
 2752SOL     MW11454   3.616   4.610   0.624
 2753SOL     OW11455   2.055   4.526   1.778
 2753SOL    HW111456   1.981   4.470   1.804
 2753SOL    HW211457   2.050   4.529   1.683
 2753SOL     MW11458   2.044   4.519   1.768
 2754SOL     OW11459   2.221   3.813   1.228
 2754SOL    HW111460   2.264   3.897   1.248
 2754SOL    HW211461   2.294   3.751   1.221
 2754SOL     MW11462   2.236   3.816   1.229
 2755SOL     OW11463   2.262   4.480   0.406
 2755SOL    HW111464   2.262   4.575   0.391
 2755SOL    HW211465   2.339   4.464   0.460
 2755SOL     MW11466   2.272   4.491   0.411
 2756SOL     OW11467   3.038   4.339   1.470
 2756SOL    HW111468   3.074   4.312   1.386
 2756SOL    HW211469   2.951   4.373   1.449
 2756SOL     MW11470   3.032   4.340   1.457
 2757SOL     OW11471   2.021   4.211   0.695
 2757SOL    HW111472   2.083   4.218   0.768
 2757SOL    HW211473   2.021   4.118   0.672
 2757SOL     MW11474   2.029   4.200   0.702
 2758SOL     OW11475   3.568   5.551   0.227
 2758SOL    HW111476   3.635   5.584   0.167
 2758SOL    HW211477   3.525   5.630   0.261
 2758SOL     MW11478   3.570   5.566   0.223
 2759SOL     OW11479   2.703   4.472   1.179
 2759SOL    HW111480   2.661   4.390   1.155
 2759SOL    HW211481   2.704   4.471   1.275
 2759SOL     MW11482   2.696   4.461   1.188
 2760SOL     OW11483   2.507   3.942   1.284
 2760SOL    HW111484   2.438   4.005   1.305
 2760SOL    HW211485   2.534   3.906   1.369
 2760SOL     MW11486   2.501   3.945   1.297
 2761SOL     OW11487   1.890   4.783   0.153
 2761SOL    HW111488   1.859   4.848   0.216
 2761SOL    HW211489   1.839   4.705   0.172
 2761SOL     MW11490   1.880   4.780   0.163
 2762SOL     OW11491   3.302   3.795   0.901
 2762SOL    HW111492   3.390   3.804   0.938
 2762SOL    HW211493   3.312   3.736   0.827
 2762SOL     MW11494   3.316   3.789   0.895
 2763SOL     OW11495   3.334   4.534   0.745
 2763SOL    HW111496   3.414   4.549   0.694
 2763SOL    HW211497   3.327   4.439   0.751
 2763SOL     MW11498   3.343   4.523   0.740
 2764SOL     OW11499   2.474   5.583   0.095
 2764SOL    HW111500   2.379   5.583   0.087
 2764SOL    HW211501   2.490   5.529   0.173
 2764SOL     MW11502   2.464   5.577   0.104
 2765SOL     OW11503   2.784   4.460   1.442
 2765SOL    HW111504   2.853   4.527   1.439
 2765SOL    HW211505   2.717   4.498   1.498
 2765SOL     MW11506   2.785   4.473   1.449
 2766SOL     OW11507   2.202   4.760   1.690
 2766SOL    HW111508   2.156   4.676   1.692
 2766SOL    HW211509   2.259   4.754   1.614
 2766SOL     MW11510   2.204   4.748   1.682
 2767SOL     OW11511   2.453   5.135   0.691
 2767SOL    HW111512   2.518   5.068   0.712
 2767SOL    HW211513   2.505   5.212   0.668
 2767SOL     MW11514   2.468   5.137   0.690
 2768SOL     OW11515   2.714   4.300   0.821
 2768SOL    HW111516   2.654   4.318   0.893
 2768SOL    HW211517   2.748   4.212   0.840
 2768SOL     MW11518   2.710   4.290   0.834
 2769SOL     OW11519   3.655   3.799   1.490
 2769SOL    HW111520   3.576   3.845   1.518
 2769SOL    HW211521   3.690   3.853   1.419
 2769SOL     MW11522   3.649   3.812   1.484
 2770SOL     OW11523   2.939   4.883   0.840
 2770SOL    HW111524   3.031   4.864   0.858
 2770SOL    HW211525   2.912   4.813   0.780
 2770SOL     MW11526   2.947   4.871   0.834
 2771SOL     OW11527   2.732   4.703   0.195
 2771SOL    HW111528   2.718   4.615   0.160
 2771SOL    HW211529   2.683   4.760   0.136
 2771SOL     MW11530   2.724   4.698   0.183
 2772SOL     OW11531   3.213   5.121   0.936
 2772SOL    HW111532   3.186   5.205   0.901
 2772SOL    HW211533   3.173   5.116   1.023
 2772SOL     MW11534   3.206   5.130   0.942
 2773SOL     OW11535   3.132   5.069   1.204
 2773SOL    HW111536   3.143   5.036   1.293
 2773SOL    HW211537   3.051   5.028   1.173
 2773SOL     MW11538   3.122   5.061   1.210
 2774SOL     OW11539   2.145   4.427   0.974
 2774SOL    HW111540   2.095   4.426   1.055
 2774SOL    HW211541   2.165   4.519   0.958
 2774SOL     MW11542   2.141   4.439   0.982
 2775SOL     OW11543   2.740   4.472   0.411
 2775SOL    HW111544   2.720   4.458   0.318
 2775SOL    HW211545   2.833   4.451   0.418
 2775SOL     MW11546   2.750   4.467   0.400
 2776SOL     OW11547   2.067   4.095   1.715
 2776SOL    HW111548   2.024   4.154   1.652
 2776SOL    HW211549   2.135   4.150   1.755
 2776SOL     MW11550   2.071   4.110   1.712
 2777SOL     OW11551   3.179   4.715   1.260
 2777SOL    HW111552   3.242   4.712   1.333
 2777SOL    HW211553   3.095   4.733   1.302
 2777SOL     MW11554   3.175   4.717   1.275
 2778SOL     OW11555   2.723   5.430   0.449
 2778SOL    HW111556   2.781   5.501   0.476
 2778SOL    HW211557   2.746   5.358   0.507
 2778SOL     MW11558   2.734   5.430   0.460
 2779SOL     OW11559   1.966   3.735   1.138
 2779SOL    HW111560   1.957   3.736   1.043
 2779SOL    HW211561   2.060   3.747   1.153
 2779SOL     MW11562   1.978   3.738   1.129
 2780SOL     OW11563   3.603   4.928   0.758
 2780SOL    HW111564   3.582   4.874   0.681
 2780SOL    HW211565   3.699   4.926   0.762
 2780SOL     MW11566   3.612   4.921   0.747
 2781SOL     OW11567   2.295   5.073   1.501
 2781SOL    HW111568   2.216   5.023   1.524
 2781SOL    HW211569   2.365   5.032   1.551
 2781SOL     MW11570   2.293   5.061   1.511
 2782SOL     OW11571   2.179   3.862   0.184
 2782SOL    HW111572   2.108   3.917   0.152
 2782SOL    HW211573   2.221   3.828   0.105
 2782SOL     MW11574   2.175   3.864   0.170
 2783SOL     OW11575   3.303   4.359   1.020
 2783SOL    HW111576   3.226   4.405   0.986
 2783SOL    HW211577   3.360   4.428   1.054
 2783SOL     MW11578   3.300   4.374   1.020
 2784SOL     OW11579   1.935   3.961   0.033
 2784SOL    HW111580   1.902   4.040   0.077
 2784SOL    HW211581   1.990   3.994  -0.038
 2784SOL     MW11582   1.938   3.975   0.030
 2785SOL     OW11583   1.969   5.218   0.222
 2785SOL    HW111584   1.986   5.302   0.264
 2785SOL    HW211585   2.004   5.227   0.134
 2785SOL     MW11586   1.974   5.231   0.216
 2786SOL     OW11587   3.604   4.575   2.125
 2786SOL    HW111588   3.645   4.517   2.190
 2786SOL    HW211589   3.511   4.567   2.142
 2786SOL     MW11590   3.598   4.567   2.135
 2787SOL     OW11591   3.470   4.507   3.120
 2787SOL    HW111592   3.425   4.574   3.171
 2787SOL    HW211593   3.558   4.543   3.106
 2787SOL     MW11594   3.476   4.520   3.124
 2788SOL     OW11595   2.398   4.758   2.354
 2788SOL    HW111596   2.488   4.733   2.338
 2788SOL    HW211597   2.394   4.851   2.331
 2788SOL     MW11598   2.410   4.767   2.349
 2789SOL     OW11599   3.514   5.461   2.496
 2789SOL    HW111600   3.526   5.407   2.574
 2789SOL    HW211601   3.551   5.409   2.425
 2789SOL     MW11602   3.520   5.446   2.497
 2790SOL     OW11603   2.893   5.346   3.497
 2790SOL    HW111604   2.934   5.382   3.418
 2790SOL    HW211605   2.928   5.257   3.504
 2790SOL     MW11606   2.904   5.339   3.488
 2791SOL     OW11607   3.450   4.901   3.101
 2791SOL    HW111608   3.371   4.866   3.059
 2791SOL    HW211609   3.477   4.973   3.045
 2791SOL     MW11610   3.443   4.906   3.088
 2792SOL     OW11611   2.682   4.214   2.367
 2792SOL    HW111612   2.657   4.302   2.395
 2792SOL    HW211613   2.679   4.217   2.271
 2792SOL     MW11614   2.678   4.226   2.359
 2793SOL     OW11615   2.124   4.242   2.295
 2793SOL    HW111616   2.156   4.330   2.277
 2793SOL    HW211617   2.112   4.240   2.390
 2793SOL     MW11618   2.127   4.254   2.307
 2794SOL     OW11619   2.202   4.655   3.196
 2794SOL    HW111620   2.265   4.602   3.147
 2794SOL    HW211621   2.183   4.729   3.139
 2794SOL     MW11622   2.208   4.657   3.183
 2795SOL     OW11623   2.523   3.997   2.382
 2795SOL    HW111624   2.581   4.073   2.384
 2795SOL    HW211625   2.458   4.018   2.315
 2795SOL     MW11626   2.522   4.009   2.373
 2796SOL     OW11627   2.610   4.924   2.557
 2796SOL    HW111628   2.690   4.927   2.609
 2796SOL    HW211629   2.638   4.891   2.471
 2796SOL     MW11630   2.624   4.920   2.552
 2797SOL     OW11631   2.635   5.265   3.460
 2797SOL    HW111632   2.719   5.291   3.499
 2797SOL    HW211633   2.659   5.209   3.386
 2797SOL     MW11634   2.649   5.261   3.455
 2798SOL     OW11635   2.387   4.428   2.548
 2798SOL    HW111636   2.372   4.348   2.599
 2798SOL    HW211637   2.469   4.463   2.582
 2798SOL     MW11638   2.395   4.420   2.560
 2799SOL     OW11639   2.724   5.114   3.233
 2799SOL    HW111640   2.688   5.180   3.173
 2799SOL    HW211641   2.652   5.052   3.246
 2799SOL     MW11642   2.710   5.114   3.227
 2800SOL     OW11643   2.529   4.254   2.925
 2800SOL    HW111644   2.435   4.250   2.943
 2800SOL    HW211645   2.559   4.163   2.934
 2800SOL     MW11646   2.520   4.242   2.928
 2801SOL     OW11647   2.275   4.668   2.829
 2801SOL    HW111648   2.230   4.675   2.745
 2801SOL    HW211649   2.255   4.751   2.873
 2801SOL     MW11650   2.267   4.680   2.823
 2802SOL     OW11651   1.972   5.514   2.704
 2802SOL    HW111652   2.061   5.506   2.739
 2802SOL    HW211653   1.936   5.426   2.709
 2802SOL     MW11654   1.979   5.501   2.709
 2803SOL     OW11655   3.237   4.906   2.073
 2803SOL    HW111656   3.155   4.942   2.039
 2803SOL    HW211657   3.305   4.949   2.022
 2803SOL     MW11658   3.235   4.916   2.061
 2804SOL     OW11659   2.236   5.041   2.739
 2804SOL    HW111660   2.212   5.094   2.815
 2804SOL    HW211661   2.292   5.099   2.687
 2804SOL     MW11662   2.240   5.056   2.742
 2805SOL     OW11663   2.798   4.685   2.549
 2805SOL    HW111664   2.712   4.672   2.589
 2805SOL    HW211665   2.851   4.612   2.581
 2805SOL     MW11666   2.794   4.674   2.558
 2806SOL     OW11667   2.206   5.337   3.334
 2806SOL    HW111668   2.114   5.313   3.319
 2806SOL    HW211669   2.250   5.254   3.351
 2806SOL     MW11670   2.200   5.322   3.333
 2807SOL     OW11671   2.789   5.047   2.266
 2807SOL    HW111672   2.766   5.109   2.334
 2807SOL    HW211673   2.746   4.965   2.292
 2807SOL     MW11674   2.781   5.043   2.277
 2808SOL     OW11675   3.662   4.048   2.722
 2808SOL    HW111676   3.599   4.028   2.791
 2808SOL    HW211677   3.652   3.977   2.659
 2808SOL     MW11678   3.652   4.035   2.723
 2809SOL     OW11679   2.286   4.020   2.234
 2809SOL    HW111680   2.260   3.982   2.150
 2809SOL    HW211681   2.223   4.090   2.250
 2809SOL     MW11682   2.275   4.023   2.225
 2810SOL     OW11683   2.121   4.981   2.271
 2810SOL    HW111684   2.069   5.049   2.227
 2810SOL    HW211685   2.118   4.907   2.211
 2810SOL     MW11686   2.113   4.980   2.258
 2811SOL     OW11687   2.783   5.444   2.049
 2811SOL    HW111688   2.738   5.460   2.132
 2811SOL    HW211689   2.714   5.409   1.991
 2811SOL     MW11690   2.769   5.441   2.051
 2812SOL     OW11691   3.718   4.217   2.024
 2812SOL    HW111692   3.627   4.219   2.052
 2812SOL    HW211693   3.763   4.279   2.082
 2812SOL     MW11694   3.711   4.225   2.034
 2813SOL     OW11695   3.463   4.820   2.374
 2813SOL    HW111696   3.373   4.820   2.409
 2813SOL    HW211697   3.456   4.866   2.291
 2813SOL     MW11698   3.450   4.826   2.368
 2814SOL     OW11699   3.263   4.455   3.446
 2814SOL    HW111700   3.332   4.393   3.423
 2814SOL    HW211701   3.188   4.429   3.393
 2814SOL     MW11702   3.263   4.442   3.437
 2815SOL     OW11703   2.004   5.335   2.998
 2815SOL    HW111704   1.987   5.281   3.075
 2815SOL    HW211705   1.992   5.425   3.028
 2815SOL     MW11706   2.001   5.339   3.012
 2816SOL     OW11707   2.999   4.842   3.438
 2816SOL    HW111708   2.984   4.935   3.423
 2816SOL    HW211709   3.094   4.832   3.438
 2816SOL     MW11710   3.008   4.852   3.435
 2817SOL     OW11711   2.795   4.266   3.639
 2817SOL    HW111712   2.885   4.267   3.606
 2817SOL    HW211713   2.754   4.191   3.597
 2817SOL     MW11714   2.801   4.256   3.630
 2818SOL     OW11715   2.990   4.401   2.335
 2818SOL    HW111716   3.016   4.425   2.246
 2818SOL    HW211717   2.972   4.308   2.331
 2818SOL     MW11718   2.992   4.393   2.322
 2819SOL     OW11719   2.575   4.070   3.589
 2819SOL    HW111720   2.585   3.996   3.529
 2819SOL    HW211721   2.611   4.039   3.672
 2819SOL     MW11722   2.581   4.056   3.591
 2820SOL     OW11723   2.311   5.437   2.504
 2820SOL    HW111724   2.343   5.525   2.482
 2820SOL    HW211725   2.264   5.409   2.426
 2820SOL     MW11726   2.310   5.445   2.491
 2821SOL     OW11727   3.695   3.799   2.553
 2821SOL    HW111728   3.749   3.750   2.615
 2821SOL    HW211729   3.638   3.733   2.514
 2821SOL     MW11730   3.695   3.783   2.555
 2822SOL     OW11731   2.027   5.497   2.081
 2822SOL    HW111732   2.056   5.587   2.073
 2822SOL    HW211733   1.977   5.480   2.002
 2822SOL     MW11734   2.025   5.505   2.070
 2823SOL     OW11735   2.814   3.752   2.966
 2823SOL    HW111736   2.773   3.830   2.928
 2823SOL    HW211737   2.908   3.770   2.961
 2823SOL     MW11738   2.820   3.764   2.961
 2824SOL     OW11739   2.829   4.430   1.996
 2824SOL    HW111740   2.831   4.377   1.917
 2824SOL    HW211741   2.917   4.467   2.002
 2824SOL     MW11742   2.841   4.429   1.985
 2825SOL     OW11743   3.443   4.356   2.332
 2825SOL    HW111744   3.482   4.356   2.419
 2825SOL    HW211745   3.384   4.432   2.332
 2825SOL     MW11746   3.440   4.367   2.343
 2826SOL     OW11747   2.760   4.723   3.461
 2826SOL    HW111748   2.737   4.703   3.551
 2826SOL    HW211749   2.845   4.767   3.466
 2826SOL     MW11750   2.767   4.726   3.473
 2827SOL     OW11751   2.840   3.860   3.221
 2827SOL    HW111752   2.846   3.822   3.134
 2827SOL    HW211753   2.829   3.954   3.206
 2827SOL     MW11754   2.841   3.868   3.209
 2828SOL     OW11755   2.929   4.349   3.055
 2828SOL    HW111756   3.004   4.378   3.002
 2828SOL    HW211757   2.861   4.414   3.039
 2828SOL     MW11758   2.930   4.361   3.045
 2829SOL     OW11759   3.479   4.317   3.332
 2829SOL    HW111760   3.460   4.226   3.311
 2829SOL    HW211761   3.457   4.366   3.253
 2829SOL     MW11762   3.474   4.310   3.319
 2830SOL     OW11763   3.621   5.411   3.236
 2830SOL    HW111764   3.549   5.373   3.287
 2830SOL    HW211765   3.638   5.496   3.277
 2830SOL     MW11766   3.615   5.416   3.248
 2831SOL     OW11767   2.926   4.055   3.438
 2831SOL    HW111768   2.892   4.094   3.357
 2831SOL    HW211769   2.904   3.963   3.431
 2831SOL     MW11770   2.919   4.048   3.428
 2832SOL     OW11771   3.335   4.869   3.514
 2832SOL    HW111772   3.417   4.910   3.544
 2832SOL    HW211773   3.298   4.831   3.594
 2832SOL     MW11774   3.341   4.870   3.529
 2833SOL     OW11775   2.056   3.956   2.527
 2833SOL    HW111776   2.047   3.896   2.453
 2833SOL    HW211777   1.989   3.927   2.590
 2833SOL     MW11778   2.046   3.943   2.525
 2834SOL     OW11779   2.999   5.049   2.088
 2834SOL    HW111780   2.949   5.051   2.170
 2834SOL    HW211781   2.933   5.067   2.020
 2834SOL     MW11782   2.985   5.051   2.090
 2835SOL     OW11783   2.003   4.129   2.890
 2835SOL    HW111784   1.975   4.220   2.899
 2835SOL    HW211785   1.940   4.090   2.829
 2835SOL     MW11786   1.990   4.135   2.884
 2836SOL     OW11787   2.462   5.467   2.196
 2836SOL    HW111788   2.383   5.425   2.229
 2836SOL    HW211789   2.528   5.450   2.263
 2836SOL     MW11790   2.461   5.459   2.209
 2837SOL     OW11791   3.590   4.987   3.593
 2837SOL    HW111792   3.640   4.913   3.625
 2837SOL    HW211793   3.536   5.014   3.668
 2837SOL     MW11794   3.590   4.981   3.606
 2838SOL     OW11795   2.598   4.882   1.903
 2838SOL    HW111796   2.520   4.828   1.890
 2838SOL    HW211797   2.569   4.955   1.956
 2838SOL     MW11798   2.584   4.884   1.908
 2839SOL     OW11799   3.724   4.622   3.095
 2839SOL    HW111800   3.740   4.660   3.008
 2839SOL    HW211801   3.758   4.688   3.156
 2839SOL     MW11802   3.731   4.635   3.091
 2840SOL     OW11803   3.516   5.331   2.764
 2840SOL    HW111804   3.545   5.398   2.825
 2840SOL    HW211805   3.497   5.255   2.819
 2840SOL     MW11806   3.518   5.331   2.779
 2841SOL     OW11807   3.179   5.398   1.971
 2841SOL    HW111808   3.105   5.361   2.021
 2841SOL    HW211809   3.187   5.488   2.004
 2841SOL     MW11810   3.170   5.405   1.983
 2842SOL     OW11811   1.987   4.404   3.060
 2842SOL    HW111812   2.049   4.434   3.126
 2842SOL    HW211813   1.921   4.473   3.054
 2842SOL     MW11814   1.986   4.417   3.067
 2843SOL     OW11815   3.403   5.072   1.913
 2843SOL    HW111816   3.350   5.121   1.849
 2843SOL    HW211817   3.434   5.138   1.974
 2843SOL     MW11818   3.401   5.086   1.911
 2844SOL     OW11819   2.628   3.961   1.968
 2844SOL    HW111820   2.576   3.881   1.956
 2844SOL    HW211821   2.715   3.938   1.936
 2844SOL     MW11822   2.631   3.947   1.962
 2845SOL     OW11823   2.082   5.513   3.512
 2845SOL    HW111824   2.056   5.581   3.450
 2845SOL    HW211825   2.130   5.450   3.460
 2845SOL     MW11826   2.084   5.513   3.498
 2846SOL     OW11827   2.134   4.832   3.019
 2846SOL    HW111828   2.187   4.907   3.044
 2846SOL    HW211829   2.053   4.870   2.985
 2846SOL     MW11830   2.130   4.847   3.019
 2847SOL     OW11831   2.674   4.736   3.007
 2847SOL    HW111832   2.702   4.645   3.019
 2847SOL    HW211833   2.603   4.730   2.943
 2847SOL     MW11834   2.667   4.724   3.002
 2848SOL     OW11835   1.989   4.601   2.425
 2848SOL    HW111836   2.080   4.616   2.452
 2848SOL    HW211837   1.992   4.522   2.371
 2848SOL     MW11838   2.001   4.593   2.423
 2849SOL     OW11839   2.225   4.309   3.679
 2849SOL    HW111840   2.172   4.389   3.686
 2849SOL    HW211841   2.295   4.321   3.744
 2849SOL     MW11842   2.227   4.322   3.687
 2850SOL     OW11843   2.611   3.859   3.386
 2850SOL    HW111844   2.588   3.767   3.388
 2850SOL    HW211845   2.697   3.861   3.343
 2850SOL     MW11846   2.618   3.849   3.382
 2851SOL     OW11847   2.295   4.383   3.425
 2851SOL    HW111848   2.375   4.433   3.411
 2851SOL    HW211849   2.286   4.377   3.520
 2851SOL     MW11850   2.304   4.389   3.435
 2852SOL     OW11851   2.616   5.533   2.799
 2852SOL    HW111852   2.705   5.548   2.829
 2852SOL    HW211853   2.611   5.580   2.715
 2852SOL     MW11854   2.626   5.541   2.792
 2853SOL     OW11855   3.272   3.908   3.696
 2853SOL    HW111856   3.328   3.835   3.722
 2853SOL    HW211857   3.242   3.946   3.778
 2853SOL     MW11858   3.276   3.903   3.709
 2854SOL     OW11859   1.997   5.213   2.464
 2854SOL    HW111860   1.969   5.252   2.546
 2854SOL    HW211861   2.017   5.122   2.486
 2854SOL     MW11862   1.995   5.205   2.477
 2855SOL     OW11863   2.830   5.256   2.499
 2855SOL    HW111864   2.913   5.210   2.483
 2855SOL    HW211865   2.820   5.255   2.595
 2855SOL     MW11866   2.840   5.249   2.509
 2856SOL     OW11867   3.513   4.580   3.693
 2856SOL    HW111868   3.568   4.504   3.674
 2856SOL    HW211869   3.515   4.588   3.788
 2856SOL     MW11870   3.521   4.571   3.701
 2857SOL     OW11871   2.563   5.313   1.904
 2857SOL    HW111872   2.503   5.382   1.874
 2857SOL    HW211873   2.508   5.255   1.957
 2857SOL     MW11874   2.547   5.315   1.906
 2858SOL     OW11875   3.001   3.958   2.127
 2858SOL    HW111876   2.934   3.934   2.064
 2858SOL    HW211877   3.066   4.007   2.076
 2858SOL     MW11878   3.001   3.960   2.112
 2859SOL     OW11879   2.808   4.142   3.212
 2859SOL    HW111880   2.727   4.183   3.240
 2859SOL    HW211881   2.855   4.210   3.164
 2859SOL     MW11882   2.803   4.157   3.210
 2860SOL     OW11883   3.068   4.480   2.835
 2860SOL    HW111884   3.081   4.574   2.845
 2860SOL    HW211885   3.029   4.470   2.749
 2860SOL     MW11886   3.064   4.491   2.825
 2861SOL     OW11887   2.520   4.675   2.639
 2861SOL    HW111888   2.431   4.666   2.672
 2861SOL    HW211889   2.524   4.765   2.607
 2861SOL     MW11890   2.509   4.686   2.639
 2862SOL     OW11891   3.319   4.258   2.634
 2862SOL    HW111892   3.264   4.179   2.633
 2862SOL    HW211893   3.301   4.299   2.718
 2862SOL     MW11894   3.309   4.253   2.643
 2863SOL     OW11895   2.290   3.945   3.451
 2863SOL    HW111896   2.211   3.963   3.503
 2863SOL    HW211897   2.285   4.007   3.378
 2863SOL     MW11898   2.280   3.955   3.448
 2864SOL     OW11899   2.938   4.462   2.591
 2864SOL    HW111900   2.875   4.394   2.615
 2864SOL    HW211901   2.958   4.443   2.499
 2864SOL     MW11902   2.932   4.449   2.583
 2865SOL     OW11903   2.194   5.357   2.293
 2865SOL    HW111904   2.155   5.404   2.219
 2865SOL    HW211905   2.128   5.292   2.318
 2865SOL     MW11906   2.181   5.355   2.287
 2866SOL     OW11907   2.686   4.766   2.317
 2866SOL    HW111908   2.688   4.740   2.224
 2866SOL    HW211909   2.744   4.703   2.360
 2866SOL     MW11910   2.694   4.755   2.311
 2867SOL     OW11911   3.239   5.326   3.089
 2867SOL    HW111912   3.164   5.372   3.127
 2867SOL    HW211913   3.221   5.233   3.106
 2867SOL     MW11914   3.228   5.320   3.097
 2868SOL     OW11915   3.243   5.534   2.519
 2868SOL    HW111916   3.186   5.487   2.458
 2868SOL    HW211917   3.329   5.495   2.506
 2868SOL     MW11918   3.246   5.525   2.509
 2869SOL     OW11919   3.196   4.010   2.650
 2869SOL    HW111920   3.224   3.942   2.711
 2869SOL    HW211921   3.110   3.981   2.620
 2869SOL     MW11922   3.189   3.997   2.654
 2870SOL     OW11923   2.001   4.944   2.584
 2870SOL    HW111924   2.065   4.976   2.647
 2870SOL    HW211925   2.050   4.880   2.532
 2870SOL     MW11926   2.016   4.940   2.585
 2871SOL     OW11927   2.501   5.020   3.566
 2871SOL    HW111928   2.549   5.103   3.553
 2871SOL    HW211929   2.558   4.968   3.622
 2871SOL     MW11930   2.515   5.024   3.572
 2872SOL     OW11931   2.077   5.262   3.706
 2872SOL    HW111932   2.133   5.186   3.721
 2872SOL    HW211933   2.026   5.240   3.628
 2872SOL     MW11934   2.077   5.249   3.697
 2873SOL     OW11935   3.176   4.114   1.985
 2873SOL    HW111936   3.149   4.180   1.921
 2873SOL    HW211937   3.246   4.157   2.035
 2873SOL     MW11938   3.181   4.127   1.982
 2874SOL     OW11939   2.844   3.819   1.922
 2874SOL    HW111940   2.900   3.811   1.844
 2874SOL    HW211941   2.821   3.729   1.944
 2874SOL     MW11942   2.849   3.806   1.915
 2875SOL     OW11943   3.349   4.670   2.127
 2875SOL    HW111944   3.316   4.759   2.117
 2875SOL    HW211945   3.314   4.641   2.212
 2875SOL     MW11946   3.339   4.679   2.138
 2876SOL     OW11947   2.962   5.099   3.315
 2876SOL    HW111948   2.873   5.105   3.283
 2876SOL    HW211949   3.006   5.178   3.283
 2876SOL     MW11950   2.957   5.109   3.307
 2877SOL     OW11951   2.255   3.767   3.657
 2877SOL    HW111952   2.183   3.732   3.605
 2877SOL    HW211953   2.313   3.808   3.592
 2877SOL     MW11954   2.253   3.768   3.642
 2878SOL     OW11955   2.279   5.257   2.956
 2878SOL    HW111956   2.324   5.319   3.013
 2878SOL    HW211957   2.186   5.276   2.969
 2878SOL     MW11958   2.272   5.267   2.963
 2879SOL     OW11959   3.719   4.786   3.310
 2879SOL    HW111960   3.634   4.799   3.269
 2879SOL    HW211961   3.699   4.750   3.397
 2879SOL     MW11962   3.706   4.782   3.315
 2880SOL     OW11963   2.701   5.325   3.064
 2880SOL    HW111964   2.725   5.314   2.973
 2880SOL    HW211965   2.624   5.382   3.062
 2880SOL     MW11966   2.693   5.330   3.053
 2881SOL     OW11967   2.343   4.708   1.919
 2881SOL    HW111968   2.266   4.721   1.975
 2881SOL    HW211969   2.307   4.672   1.838
 2881SOL     MW11970   2.329   4.704   1.916
 2882SOL     OW11971   2.996   4.681   2.162
 2882SOL    HW111972   2.906   4.702   2.137
 2882SOL    HW211973   3.023   4.754   2.218
 2882SOL     MW11974   2.988   4.693   2.165
 2883SOL     OW11975   2.496   5.030   2.854
 2883SOL    HW111976   2.489   5.009   2.948
 2883SOL    HW211977   2.414   4.998   2.817
 2883SOL     MW11978   2.484   5.024   2.861
 2884SOL     OW11979   3.360   4.040   3.256
 2884SOL    HW111980   3.307   4.042   3.336
 2884SOL    HW211981   3.345   3.953   3.219
 2884SOL     MW11982   3.352   4.030   3.261
 2885SOL     OW11983   3.696   3.964   3.129
 2885SOL    HW111984   3.677   4.031   3.064
 2885SOL    HW211985   3.753   3.902   3.084
 2885SOL     MW11986   3.700   3.965   3.115
 2886SOL     OW11987   1.942   5.122   3.517
 2886SOL    HW111988   1.986   5.055   3.463
 2886SOL    HW211989   1.857   5.084   3.537
 2886SOL     MW11990   1.937   5.108   3.513
 2887SOL     OW11991   2.625   3.797   2.569
 2887SOL    HW111992   2.554   3.858   2.551
 2887SOL    HW211993   2.676   3.794   2.488
 2887SOL     MW11994   2.621   3.803   2.556
 2888SOL     OW11995   2.383   5.037   2.318
 2888SOL    HW111996   2.376   5.069   2.408
 2888SOL    HW211997   2.293   5.021   2.290
 2888SOL     MW11998   2.371   5.039   2.325
 2889SOL     OW11999   2.978   5.430   3.227
 2889SOL    HW112000   2.898   5.415   3.177
 2889SOL    HW212001   2.985   5.525   3.234
 2889SOL     MW12002   2.969   5.441   3.221
 2890SOL     OW12003   3.092   5.395   2.717
 2890SOL    HW112004   3.139   5.468   2.676
 2890SOL    HW212005   3.013   5.434   2.753
 2890SOL     MW12006   3.087   5.410   2.716
 2891SOL     OW12007   3.500   5.490   2.992
 2891SOL    HW112008   3.543   5.460   3.072
 2891SOL    HW212009   3.419   5.438   2.989
 2891SOL     MW12010   3.495   5.479   3.002
 2892SOL     OW12011   2.585   4.454   3.699
 2892SOL    HW112012   2.655   4.396   3.671
 2892SOL    HW212013   2.528   4.399   3.754
 2892SOL     MW12014   2.587   4.441   3.703
 2893SOL     OW12015   3.372   4.666   3.332
 2893SOL    HW112016   3.377   4.719   3.412
 2893SOL    HW212017   3.334   4.583   3.360
 2893SOL     MW12018   3.368   4.661   3.347
 2894SOL     OW12019   3.012   3.801   3.578
 2894SOL    HW112020   3.007   3.708   3.559
 2894SOL    HW212021   3.095   3.812   3.624
 2894SOL     MW12022   3.020   3.790   3.582
 2895SOL     OW12023   2.386   4.321   2.032
 2895SOL    HW112024   2.352   4.377   2.102
 2895SOL    HW212025   2.457   4.271   2.072
 2895SOL     MW12026   2.392   4.322   2.046
 2896SOL     OW12027   3.482   5.072   2.854
 2896SOL    HW112028   3.517   5.054   2.767
 2896SOL    HW212029   3.387   5.073   2.841
 2896SOL     MW12030   3.474   5.069   2.841
 2897SOL     OW12031   2.911   4.720   3.223
 2897SOL    HW112032   2.954   4.755   3.301
 2897SOL    HW212033   2.894   4.797   3.169
 2897SOL     MW12034   2.914   4.735   3.226
 2898SOL     OW12035   3.442   4.207   2.096
 2898SOL    HW112036   3.434   4.278   2.033
 2898SOL    HW212037   3.460   4.251   2.179
 2898SOL     MW12038   3.443   4.221   2.098
 2899SOL     OW12039   2.302   3.862   2.525
 2899SOL    HW112040   2.352   3.905   2.456
 2899SOL    HW212041   2.217   3.906   2.525
 2899SOL     MW12042   2.299   3.875   2.516
 2900SOL     OW12043   2.061   4.924   3.385
 2900SOL    HW112044   2.089   4.877   3.463
 2900SOL    HW212045   1.982   4.879   3.356
 2900SOL     MW12046   2.054   4.913   3.391
 2901SOL     OW12047   2.569   4.251   3.352
 2901SOL    HW112048   2.541   4.339   3.376
 2901SOL    HW212049   2.538   4.195   3.423
 2901SOL     MW12050   2.561   4.254   3.364
 2902SOL     OW12051   3.111   4.469   2.071
 2902SOL    HW112052   3.158   4.487   1.990
 2902SOL    HW212053   3.077   4.553   2.099
 2902SOL     MW12054   3.113   4.483   2.064
 2903SOL     OW12055   2.224   4.647   2.565
 2903SOL    HW112056   2.282   4.703   2.513
 2903SOL    HW212057   2.268   4.562   2.567
 2903SOL     MW12058   2.237   4.644   2.558
 2904SOL     OW12059   3.364   3.999   2.402
 2904SOL    HW112060   3.286   3.949   2.427
 2904SOL    HW212061   3.335   4.090   2.402
 2904SOL     MW12062   3.350   4.003   2.405
 2905SOL     OW12063   2.950   3.961   2.561
 2905SOL    HW112064   2.970   4.036   2.505
 2905SOL    HW212065   2.930   4.000   2.646
 2905SOL     MW12066   2.951   3.977   2.565
 2906SOL     OW12067   2.846   5.211   1.893
 2906SOL    HW112068   2.873   5.289   1.845
 2906SOL    HW212069   2.753   5.226   1.912
 2906SOL     MW12070   2.837   5.224   1.889
 2907SOL     OW12071   3.710   4.734   3.580
 2907SOL    HW112072   3.623   4.714   3.616
 2907SOL    HW212073   3.764   4.660   3.605
 2907SOL     MW12074   3.705   4.723   3.588
 2908SOL     OW12075   1.931   5.247   2.737
 2908SOL    HW112076   1.963   5.251   2.828
 2908SOL    HW212077   1.836   5.255   2.745
 2908SOL     MW12078   1.923   5.250   2.750
 2909SOL     OW12079   1.886   4.373   2.284
 2909SOL    HW112080   1.826   4.345   2.354
 2909SOL    HW212081   1.960   4.313   2.290
 2909SOL     MW12082   1.888   4.362   2.293
 2910SOL     OW12083   3.454   5.585   3.718
 2910SOL    HW112084   3.499   5.509   3.683
 2910SOL    HW212085   3.492   5.598   3.805
 2910SOL     MW12086   3.464   5.578   3.724
 2911SOL     OW12087   3.054   5.104   2.444
 2911SOL    HW112088   3.077   5.055   2.522
 2911SOL    HW212089   3.135   5.146   2.416
 2911SOL     MW12090   3.067   5.104   2.451
 2912SOL     OW12091   2.312   4.112   3.173
 2912SOL    HW112092   2.345   4.193   3.213
 2912SOL    HW212093   2.285   4.138   3.085
 2912SOL     MW12094   2.311   4.126   3.167
 2913SOL     OW12095   2.266   4.079   2.909
 2913SOL    HW112096   2.296   3.993   2.880
 2913SOL    HW212097   2.171   4.072   2.912
 2913SOL     MW12098   2.258   4.068   2.907
 2914SOL     OW12099   3.095   4.288   3.600
 2914SOL    HW112100   3.147   4.223   3.553
 2914SOL    HW212101   3.053   4.339   3.530
 2914SOL     MW12102   3.096   4.285   3.583
 2915SOL     OW12103   3.194   4.083   3.461
 2915SOL    HW112104   3.101   4.067   3.448
 2915SOL    HW212105   3.220   4.021   3.529
 2915SOL     MW12106   3.184   4.073   3.468
 2916SOL     OW12107   2.409   3.857   2.800
 2916SOL    HW112108   2.419   3.766   2.826
 2916SOL    HW212109   2.365   3.853   2.715
 2916SOL     MW12110   2.405   3.845   2.792
 2917SOL     OW12111   2.503   5.472   3.346
 2917SOL    HW112112   2.420   5.457   3.391
 2917SOL    HW212113   2.562   5.405   3.381
 2917SOL     MW12114   2.501   5.462   3.356
 2918SOL     OW12115   3.738   4.899   2.941
 2918SOL    HW112116   3.731   4.839   2.866
 2918SOL    HW212117   3.664   4.959   2.930
 2918SOL     MW12118   3.728   4.899   2.930
 2919SOL     OW12119   3.120   4.761   2.859
 2919SOL    HW112120   3.134   4.733   2.950
 2919SOL    HW212121   3.206   4.792   2.831
 2919SOL     MW12122   3.133   4.762   2.868
 2920SOL     OW12123   3.203   4.256   3.138
 2920SOL    HW112124   3.224   4.257   3.045
 2920SOL    HW212125   3.248   4.178   3.171
 2920SOL     MW12126   3.210   4.246   3.130
 2921SOL     OW12127   3.696   4.387   3.680
 2921SOL    HW112128   3.733   4.332   3.749
 2921SOL    HW212129   3.721   4.344   3.598
 2921SOL     MW12130   3.703   4.375   3.679
 2922SOL     OW12131   3.243   4.685   3.731
 2922SOL    HW112132   3.309   4.633   3.685
 2922SOL    HW212133   3.263   4.672   3.824
 2922SOL     MW12134   3.254   4.676   3.738
 2923SOL     OW12135   3.194   3.771   2.080
 2923SOL    HW112136   3.268   3.815   2.123
 2923SOL    HW212137   3.118   3.825   2.102
 2923SOL     MW12138   3.194   3.783   2.088
 2924SOL     OW12139   3.254   4.546   2.358
 2924SOL    HW112140   3.169   4.516   2.328
 2924SOL    HW212141   3.246   4.553   2.453
 2924SOL     MW12142   3.242   4.544   2.367
 2925SOL     OW12143   2.330   5.009   3.089
 2925SOL    HW112144   2.342   5.036   3.180
 2925SOL    HW212145   2.311   5.090   3.042
 2925SOL     MW12146   2.329   5.024   3.094
 2926SOL     OW12147   2.614   3.989   2.912
 2926SOL    HW112148   2.587   3.991   3.003
 2926SOL    HW212149   2.544   3.941   2.867
 2926SOL     MW12150   2.602   3.985   2.919
 2927SOL     OW12151   2.468   5.481   3.074
 2927SOL    HW112152   2.520   5.558   3.051
 2927SOL    HW212153   2.477   5.473   3.169
 2927SOL     MW12154   2.477   5.488   3.085
 2928SOL     OW12155   3.370   5.066   3.306
 2928SOL    HW112156   3.355   4.995   3.369
 2928SOL    HW212157   3.416   5.024   3.234
 2928SOL     MW12158   3.376   5.050   3.306
 2929SOL     OW12159   2.444   4.797   3.423
 2929SOL    HW112160   2.481   4.802   3.335
 2929SOL    HW212161   2.483   4.870   3.470
 2929SOL     MW12162   2.454   4.807   3.418
 2930SOL     OW12163   2.624   4.840   3.235
 2930SOL    HW112164   2.683   4.786   3.288
 2930SOL    HW212165   2.639   4.812   3.145
 2930SOL     MW12166   2.634   4.829   3.231
 2931SOL     OW12167   2.627   4.212   2.084
 2931SOL    HW112168   2.700   4.261   2.047
 2931SOL    HW212169   2.643   4.121   2.058
 2931SOL     MW12170   2.639   4.207   2.077
 2932SOL     OW12171   3.435   5.329   3.407
 2932SOL    HW112172   3.477   5.314   3.492
 2932SOL    HW212173   3.426   5.242   3.369
 2932SOL     MW12174   3.439   5.317   3.414
 2933SOL     OW12175   3.095   3.808   2.998
 2933SOL    HW112176   3.150   3.817   2.920
 2933SOL    HW212177   3.150   3.842   3.069
 2933SOL     MW12178   3.109   3.813   2.997
 2934SOL     OW12179   2.102   4.721   2.182
 2934SOL    HW112180   2.039   4.737   2.111
 2934SOL    HW212181   2.049   4.684   2.253
 2934SOL     MW12182   2.087   4.718   2.182
 2935SOL     OW12183   2.458   5.075   2.041
 2935SOL    HW112184   2.473   5.051   2.133
 2935SOL    HW212185   2.366   5.053   2.025
 2935SOL     MW12186   2.448   5.068   2.051
 2936SOL     OW12187   2.997   5.306   2.193
 2936SOL    HW112188   3.005   5.224   2.144
 2936SOL    HW212189   2.916   5.345   2.160
 2936SOL     MW12190   2.987   5.301   2.183
 2937SOL     OW12191   2.256   5.464   2.762
 2937SOL    HW112192   2.260   5.375   2.797
 2937SOL    HW212193   2.282   5.455   2.671
 2937SOL     MW12194   2.259   5.452   2.754
 2938SOL     OW12195   2.873   4.942   3.005
 2938SOL    HW112196   2.805   4.876   3.021
 2938SOL    HW212197   2.891   4.936   2.912
 2938SOL     MW12198   2.866   4.933   2.996
 2939SOL     OW12199   1.962   5.217   3.256
 2939SOL    HW112200   1.952   5.175   3.342
 2939SOL    HW212201   1.883   5.270   3.246
 2939SOL     MW12202   1.951   5.218   3.267
 2940SOL     OW12203   2.866   4.081   2.826
 2940SOL    HW112204   2.796   4.033   2.871
 2940SOL    HW212205   2.898   4.144   2.890
 2940SOL     MW12206   2.861   4.083   2.840
 2941SOL     OW12207   2.517   4.517   3.446
 2941SOL    HW112208   2.510   4.612   3.434
 2941SOL    HW212209   2.526   4.506   3.541
 2941SOL     MW12210   2.518   4.529   3.456
 2942SOL     OW12211   2.238   5.032   3.704
 2942SOL    HW112212   2.310   5.034   3.641
 2942SOL    HW212213   2.208   4.941   3.703
 2942SOL     MW12214   2.243   5.021   3.696
 2943SOL     OW12215   3.322   3.795   3.171
 2943SOL    HW112216   3.393   3.741   3.135
 2943SOL    HW212217   3.321   3.774   3.264
 2943SOL     MW12218   3.331   3.786   3.179
 2944SOL     OW12219   3.522   5.325   3.655
 2944SOL    HW112220   3.495   5.322   3.746
 2944SOL    HW212221   3.618   5.329   3.658
 2944SOL     MW12222   3.532   5.325   3.667
 2945SOL     OW12223   2.333   4.187   2.639
 2945SOL    HW112224   2.404   4.135   2.602
 2945SOL    HW212225   2.319   4.152   2.726
 2945SOL     MW12226   2.341   4.176   2.646
 2946SOL     OW12227   1.888   5.522   3.711
 2946SOL    HW112228   1.938   5.500   3.633
 2946SOL    HW212229   1.896   5.617   3.719
 2946SOL     MW12230   1.896   5.531   3.702
 2947SOL     OW12231   2.649   5.280   2.715
 2947SOL    HW112232   2.577   5.217   2.728
 2947SOL    HW212233   2.610   5.365   2.733
 2947SOL     MW12234   2.633   5.283   2.718
 2948SOL     OW12235   2.969   4.128   2.363
 2948SOL    HW112236   2.991   4.065   2.295
 2948SOL    HW212237   2.874   4.120   2.374
 2948SOL     MW12238   2.959   4.119   2.355
 2949SOL     OW12239   2.054   3.818   2.295
 2949SOL    HW112240   2.125   3.839   2.234
 2949SOL    HW212241   2.008   3.746   2.253
 2949SOL     MW12242   2.058   3.812   2.281
 2950SOL     OW12243   1.885   4.285   3.438
 2950SOL    HW112244   1.949   4.351   3.413
 2950SOL    HW212245   1.804   4.312   3.395
 2950SOL     MW12246   1.883   4.297   3.430
 2951SOL     OW12247   3.179   4.869   2.325
 2951SOL    HW112248   3.151   4.955   2.358
 2951SOL    HW212249   3.207   4.885   2.235
 2951SOL     MW12250   3.179   4.883   2.317
 2952SOL     OW12251   2.841   3.789   2.378
 2952SOL    HW112252   2.878   3.848   2.443
 2952SOL    HW212253   2.818   3.845   2.304
 2952SOL     MW12254   2.842   3.804   2.377
 2953SOL     OW12255   2.070   4.511   3.379
 2953SOL    HW112256   2.091   4.580   3.317
 2953SOL    HW212257   2.150   4.458   3.384
 2953SOL     MW12258   2.083   4.512   3.373
 2954SOL     OW12259   2.055   4.526   3.646
 2954SOL    HW112260   1.981   4.470   3.672
 2954SOL    HW212261   2.050   4.529   3.551
 2954SOL     MW12262   2.044   4.519   3.636
 2955SOL     OW12263   2.221   3.813   3.096
 2955SOL    HW112264   2.264   3.897   3.116
 2955SOL    HW212265   2.294   3.751   3.089
 2955SOL     MW12266   2.236   3.816   3.097
 2956SOL     OW12267   2.262   4.480   2.274
 2956SOL    HW112268   2.262   4.575   2.259
 2956SOL    HW212269   2.339   4.464   2.328
 2956SOL     MW12270   2.272   4.491   2.279
 2957SOL     OW12271   3.038   4.339   3.338
 2957SOL    HW112272   3.074   4.312   3.254
 2957SOL    HW212273   2.951   4.373   3.317
 2957SOL     MW12274   3.032   4.340   3.325
 2958SOL     OW12275   2.021   4.211   2.563
 2958SOL    HW112276   2.083   4.218   2.636
 2958SOL    HW212277   2.021   4.118   2.540
 2958SOL     MW12278   2.029   4.200   2.570
 2959SOL     OW12279   2.703   4.472   3.047
 2959SOL    HW112280   2.661   4.390   3.023
 2959SOL    HW212281   2.704   4.471   3.143
 2959SOL     MW12282   2.696   4.461   3.056
 2960SOL     OW12283   3.374   5.605   3.446
 2960SOL    HW112284   3.377   5.511   3.429
 2960SOL    HW212285   3.397   5.613   3.538
 2960SOL     MW12286   3.377   5.593   3.456
 2961SOL     OW12287   2.507   3.942   3.152
 2961SOL    HW112288   2.438   4.005   3.173
 2961SOL    HW212289   2.534   3.906   3.237
 2961SOL     MW12290   2.501   3.945   3.165
 2962SOL     OW12291   1.890   4.783   2.021
 2962SOL    HW112292   1.859   4.848   2.084
 2962SOL    HW212293   1.839   4.705   2.040
 2962SOL     MW12294   1.880   4.780   2.031
 2963SOL     OW12295   3.302   3.795   2.769
 2963SOL    HW112296   3.390   3.804   2.806
 2963SOL    HW212297   3.312   3.736   2.695
 2963SOL     MW12298   3.316   3.789   2.763
 2964SOL     OW12299   3.334   4.534   2.613
 2964SOL    HW112300   3.414   4.549   2.562
 2964SOL    HW212301   3.327   4.439   2.619
 2964SOL     MW12302   3.343   4.523   2.608
 2965SOL     OW12303   2.474   5.583   1.963
 2965SOL    HW112304   2.379   5.583   1.955
 2965SOL    HW212305   2.490   5.529   2.041
 2965SOL     MW12306   2.464   5.577   1.972
 2966SOL     OW12307   2.784   4.460   3.310
 2966SOL    HW112308   2.853   4.527   3.307
 2966SOL    HW212309   2.717   4.498   3.366
 2966SOL     MW12310   2.785   4.473   3.317
 2967SOL     OW12311   2.202   4.760   3.558
 2967SOL    HW112312   2.156   4.676   3.560
 2967SOL    HW212313   2.259   4.754   3.482
 2967SOL     MW12314   2.204   4.748   3.550
 2968SOL     OW12315   3.319   4.403   1.879
 2968SOL    HW112316   3.247   4.379   1.821
 2968SOL    HW212317   3.385   4.440   1.821
 2968SOL     MW12318   3.318   4.405   1.864
 2969SOL     OW12319   2.453   5.135   2.559
 2969SOL    HW112320   2.518   5.068   2.580
 2969SOL    HW212321   2.505   5.212   2.536
 2969SOL     MW12322   2.468   5.137   2.558
 2970SOL     OW12323   2.714   4.300   2.689
 2970SOL    HW112324   2.654   4.318   2.761
 2970SOL    HW212325   2.748   4.212   2.708
 2970SOL     MW12326   2.710   4.290   2.702
 2971SOL     OW12327   3.655   3.799   3.358
 2971SOL    HW112328   3.576   3.845   3.386
 2971SOL    HW212329   3.690   3.853   3.287
 2971SOL     MW12330   3.649   3.812   3.352
 2972SOL     OW12331   2.939   4.883   2.708
 2972SOL    HW112332   3.031   4.864   2.726
 2972SOL    HW212333   2.912   4.813   2.648
 2972SOL     MW12334   2.947   4.871   2.702
 2973SOL     OW12335   2.732   4.703   2.063
 2973SOL    HW112336   2.718   4.615   2.028
 2973SOL    HW212337   2.683   4.760   2.004
 2973SOL     MW12338   2.724   4.698   2.051
 2974SOL     OW12339   3.213   5.121   2.804
 2974SOL    HW112340   3.186   5.205   2.769
 2974SOL    HW212341   3.173   5.116   2.891
 2974SOL     MW12342   3.206   5.130   2.810
 2975SOL     OW12343   3.132   5.069   3.072
 2975SOL    HW112344   3.143   5.036   3.161
 2975SOL    HW212345   3.051   5.028   3.041
 2975SOL     MW12346   3.122   5.061   3.078
 2976SOL     OW12347   2.145   4.427   2.842
 2976SOL    HW112348   2.095   4.426   2.923
 2976SOL    HW212349   2.165   4.519   2.826
 2976SOL     MW12350   2.141   4.439   2.850
 2977SOL     OW12351   3.212   5.191   3.604
 2977SOL    HW112352   3.212   5.285   3.620
 2977SOL    HW212353   3.257   5.181   3.520
 2977SOL     MW12354   3.218   5.201   3.595
 2978SOL     OW12355   3.451   3.909   2.165
 2978SOL    HW112356   3.444   3.913   2.260
 2978SOL    HW212357   3.463   4.000   2.138
 2978SOL     MW12358   3.452   3.922   2.173
 2979SOL     OW12359   2.740   4.472   2.279
 2979SOL    HW112360   2.720   4.458   2.186
 2979SOL    HW212361   2.833   4.451   2.286
 2979SOL     MW12362   2.750   4.467   2.268
 2980SOL     OW12363   2.067   4.095   3.583
 2980SOL    HW112364   2.024   4.154   3.520
 2980SOL    HW212365   2.135   4.150   3.623
 2980SOL     MW12366   2.071   4.110   3.580
 2981SOL     OW12367   3.179   4.715   3.128
 2981SOL    HW112368   3.242   4.712   3.201
 2981SOL    HW212369   3.095   4.733   3.170
 2981SOL     MW12370   3.175   4.717   3.143
 2982SOL     OW12371   2.723   5.430   2.317
 2982SOL    HW112372   2.781   5.501   2.344
 2982SOL    HW212373   2.746   5.358   2.375
 2982SOL     MW12374   2.734   5.430   2.328
 2983SOL     OW12375   3.518   3.892   2.907
 2983SOL    HW112376   3.563   3.810   2.926
 2983SOL    HW212377   3.538   3.948   2.983
 2983SOL     MW12378   3.528   3.888   2.919
 2984SOL     OW12379   1.966   3.735   3.006
 2984SOL    HW112380   1.957   3.736   2.911
 2984SOL    HW212381   2.060   3.747   3.021
 2984SOL     MW12382   1.978   3.738   2.997
 2985SOL     OW12383   2.295   5.073   3.369
 2985SOL    HW112384   2.216   5.023   3.392
 2985SOL    HW212385   2.365   5.032   3.419
 2985SOL     MW12386   2.293   5.061   3.379
 2986SOL     OW12387   2.179   3.862   2.052
 2986SOL    HW112388   2.108   3.917   2.020
 2986SOL    HW212389   2.221   3.828   1.973
 2986SOL     MW12390   2.175   3.864   2.038
 2987SOL     OW12391   3.303   4.359   2.888
 2987SOL    HW112392   3.226   4.405   2.854
 2987SOL    HW212393   3.360   4.428   2.922
 2987SOL     MW12394   3.300   4.374   2.888
 2988SOL     OW12395   1.935   3.961   1.901
 2988SOL    HW112396   1.902   4.040   1.945
 2988SOL    HW212397   1.990   3.994   1.830
 2988SOL     MW12398   1.938   3.975   1.898
 2989SOL     OW12399   1.969   5.218   2.090
 2989SOL    HW112400   1.986   5.302   2.132
 2989SOL    HW212401   2.004   5.227   2.002
 2989SOL     MW12402   1.974   5.231   2.084
 2990SOL     OW12403   2.398   4.758   4.222
 2990SOL    HW112404   2.488   4.733   4.206
 2990SOL    HW212405   2.394   4.851   4.199
 2990SOL     MW12406   2.410   4.767   4.217
 2991SOL     OW12407   2.682   4.214   4.235
 2991SOL    HW112408   2.657   4.302   4.263
 2991SOL    HW212409   2.679   4.217   4.139
 2991SOL     MW12410   2.678   4.226   4.227
 2992SOL     OW12411   2.124   4.242   4.163
 2992SOL    HW112412   2.156   4.330   4.145
 2992SOL    HW212413   2.112   4.240   4.258
 2992SOL     MW12414   2.127   4.254   4.175
 2993SOL     OW12415   2.523   3.997   4.250
 2993SOL    HW112416   2.581   4.073   4.252
 2993SOL    HW212417   2.458   4.018   4.183
 2993SOL     MW12418   2.522   4.009   4.241
 2994SOL     OW12419   2.610   4.924   4.425
 2994SOL    HW112420   2.690   4.927   4.477
 2994SOL    HW212421   2.638   4.891   4.339
 2994SOL     MW12422   2.624   4.920   4.420
 2995SOL     OW12423   3.237   4.906   3.941
 2995SOL    HW112424   3.155   4.942   3.907
 2995SOL    HW212425   3.305   4.949   3.890
 2995SOL     MW12426   3.235   4.916   3.929
 2996SOL     OW12427   2.789   5.047   4.134
 2996SOL    HW112428   2.766   5.109   4.202
 2996SOL    HW212429   2.746   4.965   4.160
 2996SOL     MW12430   2.781   5.043   4.145
 2997SOL     OW12431   2.286   4.020   4.102
 2997SOL    HW112432   2.260   3.982   4.018
 2997SOL    HW212433   2.223   4.090   4.118
 2997SOL     MW12434   2.275   4.023   4.093
 2998SOL     OW12435   2.121   4.981   4.139
 2998SOL    HW112436   2.069   5.049   4.095
 2998SOL    HW212437   2.118   4.907   4.079
 2998SOL     MW12438   2.113   4.980   4.126
 2999SOL     OW12439   2.783   5.444   3.917
 2999SOL    HW112440   2.738   5.460   4.000
 2999SOL    HW212441   2.714   5.409   3.859
 2999SOL     MW12442   2.769   5.441   3.919
 3000SOL     OW12443   3.718   4.217   3.892
 3000SOL    HW112444   3.627   4.219   3.920
 3000SOL    HW212445   3.763   4.279   3.950
 3000SOL     MW12446   3.711   4.225   3.902
 3001SOL     OW12447   3.655   5.021   4.054
 3001SOL    HW112448   3.611   5.062   4.129
 3001SOL    HW212449   3.712   5.089   4.019
 3001SOL     MW12450   3.657   5.035   4.059
 3002SOL     OW12451   2.311   5.437   4.372
 3002SOL    HW112452   2.343   5.525   4.350
 3002SOL    HW212453   2.264   5.409   4.294
 3002SOL     MW12454   2.310   5.445   4.359
 3003SOL     OW12455   2.027   5.497   3.949
 3003SOL    HW112456   2.056   5.587   3.941
 3003SOL    HW212457   1.977   5.480   3.870
 3003SOL     MW12458   2.025   5.505   3.938
 3004SOL     OW12459   3.431   5.305   3.920
 3004SOL    HW112460   3.479   5.374   3.966
 3004SOL    HW212461   3.352   5.349   3.889
 3004SOL     MW12462   3.426   5.319   3.923
 3005SOL     OW12463   2.829   4.430   3.864
 3005SOL    HW112464   2.831   4.377   3.785
 3005SOL    HW212465   2.917   4.467   3.870
 3005SOL     MW12466   2.841   4.429   3.853
 3006SOL     OW12467   2.056   3.956   4.395
 3006SOL    HW112468   2.047   3.896   4.321
 3006SOL    HW212469   1.989   3.927   4.458
 3006SOL     MW12470   2.046   3.943   4.393
 3007SOL     OW12471   2.999   5.049   3.956
 3007SOL    HW112472   2.949   5.051   4.038
 3007SOL    HW212473   2.933   5.067   3.888
 3007SOL     MW12474   2.985   5.051   3.958
 3008SOL     OW12475   2.462   5.467   4.064
 3008SOL    HW112476   2.383   5.425   4.097
 3008SOL    HW212477   2.528   5.450   4.131
 3008SOL     MW12478   2.461   5.459   4.077
 3009SOL     OW12479   2.598   4.882   3.771
 3009SOL    HW112480   2.520   4.828   3.758
 3009SOL    HW212481   2.569   4.955   3.824
 3009SOL     MW12482   2.584   4.884   3.776
 3010SOL     OW12483   3.179   5.398   3.839
 3010SOL    HW112484   3.105   5.361   3.889
 3010SOL    HW212485   3.187   5.488   3.872
 3010SOL     MW12486   3.170   5.405   3.851
 3011SOL     OW12487   3.403   5.072   3.781
 3011SOL    HW112488   3.350   5.121   3.717
 3011SOL    HW212489   3.434   5.138   3.842
 3011SOL     MW12490   3.401   5.086   3.779
 3012SOL     OW12491   2.628   3.961   3.836
 3012SOL    HW112492   2.576   3.881   3.824
 3012SOL    HW212493   2.715   3.938   3.804
 3012SOL     MW12494   2.631   3.947   3.830
 3013SOL     OW12495   1.989   4.601   4.293
 3013SOL    HW112496   2.080   4.616   4.320
 3013SOL    HW212497   1.992   4.522   4.239
 3013SOL     MW12498   2.001   4.593   4.291
 3014SOL     OW12499   1.997   5.213   4.332
 3014SOL    HW112500   1.969   5.252   4.414
 3014SOL    HW212501   2.017   5.122   4.354
 3014SOL     MW12502   1.995   5.205   4.345
 3015SOL     OW12503   2.830   5.256   4.367
 3015SOL    HW112504   2.913   5.210   4.351
 3015SOL    HW212505   2.820   5.255   4.463
 3015SOL     MW12506   2.840   5.249   4.377
 3016SOL     OW12507   2.563   5.313   3.772
 3016SOL    HW112508   2.503   5.382   3.742
 3016SOL    HW212509   2.508   5.255   3.825
 3016SOL     MW12510   2.547   5.315   3.774
 3017SOL     OW12511   3.001   3.958   3.995
 3017SOL    HW112512   2.934   3.934   3.932
 3017SOL    HW212513   3.066   4.007   3.944
 3017SOL     MW12514   3.001   3.960   3.980
 3018SOL     OW12515   2.194   5.357   4.161
 3018SOL    HW112516   2.155   5.404   4.087
 3018SOL    HW212517   2.128   5.292   4.186
 3018SOL     MW12518   2.181   5.355   4.155
 3019SOL     OW12519   2.686   4.766   4.185
 3019SOL    HW112520   2.688   4.740   4.092
 3019SOL    HW212521   2.744   4.703   4.228
 3019SOL     MW12522   2.694   4.755   4.179
 3020SOL     OW12523   2.001   4.944   4.452
 3020SOL    HW112524   2.065   4.976   4.515
 3020SOL    HW212525   2.050   4.880   4.400
 3020SOL     MW12526   2.016   4.940   4.453
 3021SOL     OW12527   3.176   4.114   3.853
 3021SOL    HW112528   3.149   4.180   3.789
 3021SOL    HW212529   3.246   4.157   3.903
 3021SOL     MW12530   3.181   4.127   3.850
 3022SOL     OW12531   2.844   3.819   3.790
 3022SOL    HW112532   2.900   3.811   3.712
 3022SOL    HW212533   2.821   3.729   3.812
 3022SOL     MW12534   2.849   3.806   3.783
 3023SOL     OW12535   3.349   4.670   3.995
 3023SOL    HW112536   3.316   4.759   3.985
 3023SOL    HW212537   3.314   4.641   4.080
 3023SOL     MW12538   3.339   4.679   4.006
 3024SOL     OW12539   2.343   4.708   3.787
 3024SOL    HW112540   2.266   4.721   3.843
 3024SOL    HW212541   2.307   4.672   3.706
 3024SOL     MW12542   2.329   4.704   3.784
 3025SOL     OW12543   2.996   4.681   4.030
 3025SOL    HW112544   2.906   4.702   4.005
 3025SOL    HW212545   3.023   4.754   4.086
 3025SOL     MW12546   2.988   4.693   4.033
 3026SOL     OW12547   2.625   3.797   4.437
 3026SOL    HW112548   2.554   3.858   4.419
 3026SOL    HW212549   2.676   3.794   4.356
 3026SOL     MW12550   2.621   3.803   4.424
 3027SOL     OW12551   2.383   5.037   4.186
 3027SOL    HW112552   2.376   5.069   4.276
 3027SOL    HW212553   2.293   5.021   4.158
 3027SOL     MW12554   2.371   5.039   4.193
 3028SOL     OW12555   2.386   4.321   3.900
 3028SOL    HW112556   2.352   4.377   3.970
 3028SOL    HW212557   2.457   4.271   3.940
 3028SOL     MW12558   2.392   4.322   3.914
 3029SOL     OW12559   3.442   4.207   3.964
 3029SOL    HW112560   3.434   4.278   3.901
 3029SOL    HW212561   3.460   4.251   4.047
 3029SOL     MW12562   3.443   4.221   3.966
 3030SOL     OW12563   2.302   3.862   4.393
 3030SOL    HW112564   2.352   3.905   4.324
 3030SOL    HW212565   2.217   3.906   4.393
 3030SOL     MW12566   2.299   3.875   4.384
 3031SOL     OW12567   3.111   4.469   3.939
 3031SOL    HW112568   3.158   4.487   3.858
 3031SOL    HW212569   3.077   4.553   3.967
 3031SOL     MW12570   3.113   4.483   3.932
 3032SOL     OW12571   2.224   4.647   4.433
 3032SOL    HW112572   2.282   4.703   4.381
 3032SOL    HW212573   2.268   4.562   4.435
 3032SOL     MW12574   2.237   4.644   4.426
 3033SOL     OW12575   2.846   5.211   3.761
 3033SOL    HW112576   2.873   5.289   3.713
 3033SOL    HW212577   2.753   5.226   3.780
 3033SOL     MW12578   2.837   5.224   3.757
 3034SOL     OW12579   1.886   4.373   4.152
 3034SOL    HW112580   1.826   4.345   4.222
 3034SOL    HW212581   1.960   4.313   4.158
 3034SOL     MW12582   1.888   4.362   4.161
 3035SOL     OW12583   3.194   3.771   3.948
 3035SOL    HW112584   3.268   3.815   3.991
 3035SOL    HW212585   3.118   3.825   3.970
 3035SOL     MW12586   3.194   3.783   3.956
 3036SOL     OW12587   3.254   4.546   4.226
 3036SOL    HW112588   3.169   4.516   4.196
 3036SOL    HW212589   3.246   4.553   4.321
 3036SOL     MW12590   3.242   4.544   4.235
 3037SOL     OW12591   2.627   4.212   3.952
 3037SOL    HW112592   2.700   4.261   3.915
 3037SOL    HW212593   2.643   4.121   3.926
 3037SOL     MW12594   2.639   4.207   3.945
 3038SOL     OW12595   2.102   4.721   4.050
 3038SOL    HW112596   2.039   4.737   3.979
 3038SOL    HW212597   2.049   4.684   4.121
 3038SOL     MW12598   2.087   4.718   4.050
 3039SOL     OW12599   2.458   5.075   3.909
 3039SOL    HW112600   2.473   5.051   4.001
 3039SOL    HW212601   2.366   5.053   3.893
 3039SOL     MW12602   2.448   5.068   3.919
 3040SOL     OW12603   2.997   5.306   4.061
 3040SOL    HW112604   3.005   5.224   4.012
 3040SOL    HW212605   2.916   5.345   4.028
 3040SOL     MW12606   2.987   5.301   4.051
 3041SOL     OW12607   2.054   3.818   4.163
 3041SOL    HW112608   2.125   3.839   4.102
 3041SOL    HW212609   2.008   3.746   4.121
 3041SOL     MW12610   2.058   3.812   4.149
 3042SOL     OW12611   2.262   4.480   4.142
 3042SOL    HW112612   2.262   4.575   4.127
 3042SOL    HW212613   2.339   4.464   4.196
 3042SOL     MW12614   2.272   4.491   4.147
 3043SOL     OW12615   2.021   4.211   4.431
 3043SOL    HW112616   2.083   4.218   4.504
 3043SOL    HW212617   2.021   4.118   4.408
 3043SOL     MW12618   2.029   4.200   4.438
 3044SOL     OW12619   3.568   5.551   3.963
 3044SOL    HW112620   3.635   5.584   3.903
 3044SOL    HW212621   3.525   5.630   3.997
 3044SOL     MW12622   3.570   5.566   3.959
 3045SOL     OW12623   1.890   4.783   3.889
 3045SOL    HW112624   1.859   4.848   3.952
 3045SOL    HW212625   1.839   4.705   3.908
 3045SOL     MW12626   1.880   4.780   3.899
 3046SOL     OW12627   2.474   5.583   3.831
 3046SOL    HW112628   2.379   5.583   3.823
 3046SOL    HW212629   2.490   5.529   3.909
 3046SOL     MW12630   2.464   5.577   3.840
 3047SOL     OW12631   3.319   4.403   3.747
 3047SOL    HW112632   3.247   4.379   3.689
 3047SOL    HW212633   3.385   4.440   3.689
 3047SOL     MW12634   3.318   4.405   3.732
 3048SOL     OW12635   2.453   5.135   4.427
 3048SOL    HW112636   2.518   5.068   4.448
 3048SOL    HW212637   2.505   5.212   4.404
 3048SOL     MW12638   2.468   5.137   4.426
 3049SOL     OW12639   2.732   4.703   3.931
 3049SOL    HW112640   2.718   4.615   3.896
 3049SOL    HW212641   2.683   4.760   3.872
 3049SOL     MW12642   2.724   4.698   3.919
 3050SOL     OW12643   2.740   4.472   4.147
 3050SOL    HW112644   2.720   4.458   4.054
 3050SOL    HW212645   2.833   4.451   4.154
 3050SOL     MW12646   2.750   4.467   4.136
 3051SOL     OW12647   2.723   5.430   4.185
 3051SOL    HW112648   2.781   5.501   4.212
 3051SOL    HW212649   2.746   5.358   4.243
 3051SOL     MW12650   2.734   5.430   4.196
 3052SOL     OW12651   2.179   3.862   3.920
 3052SOL    HW112652   2.108   3.917   3.888
 3052SOL    HW212653   2.221   3.828   3.841
 3052SOL     MW12654   2.175   3.864   3.906
 3053SOL     OW12655   1.935   3.961   3.769
 3053SOL    HW112656   1.902   4.040   3.813
 3053SOL    HW212657   1.990   3.994   3.698
 3053SOL     MW12658   1.938   3.975   3.766
 3054SOL     OW12659   1.969   5.218   3.958
 3054SOL    HW112660   1.986   5.302   4.000
 3054SOL    HW212661   2.004   5.227   3.870
 3054SOL     MW12662   1.974   5.231   3.952
 3055SOL     OW12663   3.241   5.307   4.175
 3055SOL    HW112664   3.304   5.297   4.104
 3055SOL    HW212665   3.158   5.327   4.130
 3055SOL     MW12666   3.238   5.308   4.160
 3056SOL     OW12667   2.523   5.866   0.514
 3056SOL    HW112668   2.581   5.942   0.516
 3056SOL    HW212669   2.458   5.887   0.447
 3056SOL     MW12670   2.522   5.878   0.505
 3057SOL     OW12671   2.795   6.135   1.771
 3057SOL    HW112672   2.885   6.136   1.738
 3057SOL    HW212673   2.754   6.060   1.729
 3057SOL     MW12674   2.801   6.125   1.762
 3058SOL     OW12675   2.575   5.939   1.721
 3058SOL    HW112676   2.585   5.865   1.661
 3058SOL    HW212677   2.611   5.908   1.804
 3058SOL     MW12678   2.581   5.925   1.723
 3059SOL     OW12679   3.695   5.668   0.685
 3059SOL    HW112680   3.749   5.619   0.747
 3059SOL    HW212681   3.638   5.602   0.646
 3059SOL     MW12682   3.695   5.652   0.687
 3060SOL     OW12683   2.814   5.621   1.098
 3060SOL    HW112684   2.773   5.699   1.060
 3060SOL    HW212685   2.908   5.639   1.093
 3060SOL     MW12686   2.820   5.633   1.093
 3061SOL     OW12687   2.840   5.729   1.353
 3061SOL    HW112688   2.846   5.691   1.266
 3061SOL    HW212689   2.829   5.823   1.338
 3061SOL     MW12690   2.841   5.737   1.341
 3062SOL     OW12691   2.056   5.825   0.659
 3062SOL    HW112692   2.047   5.765   0.585
 3062SOL    HW212693   1.989   5.796   0.722
 3062SOL     MW12694   2.046   5.812   0.657
 3063SOL     OW12695   2.611   5.728   1.518
 3063SOL    HW112696   2.588   5.636   1.520
 3063SOL    HW212697   2.697   5.730   1.475
 3063SOL     MW12698   2.618   5.718   1.514
 3064SOL     OW12699   3.272   5.777   1.828
 3064SOL    HW112700   3.328   5.704   1.854
 3064SOL    HW212701   3.242   5.815   1.910
 3064SOL     MW12702   3.276   5.772   1.841
 3065SOL     OW12703   2.844   5.688   0.054
 3065SOL    HW112704   2.900   5.680  -0.024
 3065SOL    HW212705   2.821   5.598   0.076
 3065SOL     MW12706   2.849   5.675   0.047
 3066SOL     OW12707   2.255   5.636   1.789
 3066SOL    HW112708   2.183   5.601   1.737
 3066SOL    HW212709   2.313   5.677   1.724
 3066SOL     MW12710   2.253   5.637   1.774
 3067SOL     OW12711   2.625   5.666   0.701
 3067SOL    HW112712   2.554   5.727   0.683
 3067SOL    HW212713   2.676   5.663   0.620
 3067SOL     MW12714   2.621   5.672   0.688
 3068SOL     OW12715   3.012   5.670   1.710
 3068SOL    HW112716   3.007   5.577   1.691
 3068SOL    HW212717   3.095   5.681   1.756
 3068SOL     MW12718   3.020   5.659   1.714
 3069SOL     OW12719   2.302   5.731   0.657
 3069SOL    HW112720   2.352   5.774   0.588
 3069SOL    HW212721   2.217   5.775   0.657
 3069SOL     MW12722   2.299   5.744   0.648
 3070SOL     OW12723   3.364   5.868   0.534
 3070SOL    HW112724   3.286   5.818   0.559
 3070SOL    HW212725   3.335   5.959   0.534
 3070SOL     MW12726   3.350   5.872   0.537
 3071SOL     OW12727   2.950   5.830   0.693
 3071SOL    HW112728   2.970   5.905   0.637
 3071SOL    HW212729   2.930   5.869   0.778
 3071SOL     MW12730   2.951   5.846   0.697
 3072SOL     OW12731   2.266   5.948   1.041
 3072SOL    HW112732   2.296   5.862   1.012
 3072SOL    HW212733   2.171   5.941   1.044
 3072SOL     MW12734   2.258   5.937   1.039
 3073SOL     OW12735   3.194   5.952   1.593
 3073SOL    HW112736   3.101   5.936   1.580
 3073SOL    HW212737   3.220   5.890   1.661
 3073SOL     MW12738   3.184   5.942   1.600
 3074SOL     OW12739   2.409   5.726   0.932
 3074SOL    HW112740   2.419   5.635   0.958
 3074SOL    HW212741   2.365   5.722   0.847
 3074SOL     MW12742   2.405   5.714   0.924
 3075SOL     OW12743   2.614   5.858   1.044
 3075SOL    HW112744   2.587   5.860   1.135
 3075SOL    HW212745   2.544   5.810   0.999
 3075SOL     MW12746   2.602   5.854   1.051
 3076SOL     OW12747   3.095   5.677   1.130
 3076SOL    HW112748   3.150   5.686   1.052
 3076SOL    HW212749   3.150   5.711   1.201
 3076SOL     MW12750   3.109   5.682   1.129
 3077SOL     OW12751   3.322   5.664   1.303
 3077SOL    HW112752   3.393   5.610   1.267
 3077SOL    HW212753   3.321   5.643   1.396
 3077SOL     MW12754   3.331   5.655   1.311
 3078SOL     OW12755   2.054   5.687   0.427
 3078SOL    HW112756   2.125   5.708   0.366
 3078SOL    HW212757   2.008   5.615   0.385
 3078SOL     MW12758   2.058   5.681   0.413
 3079SOL     OW12759   2.841   5.658   0.510
 3079SOL    HW112760   2.878   5.717   0.575
 3079SOL    HW212761   2.818   5.714   0.436
 3079SOL     MW12762   2.842   5.673   0.509
 3080SOL     OW12763   2.507   5.811   1.284
 3080SOL    HW112764   2.438   5.874   1.305
 3080SOL    HW212765   2.534   5.775   1.369
 3080SOL     MW12766   2.501   5.814   1.297
 3081SOL     OW12767   3.302   5.664   0.901
 3081SOL    HW112768   3.390   5.673   0.938
 3081SOL    HW212769   3.312   5.605   0.827
 3081SOL     MW12770   3.316   5.658   0.895
 3082SOL     OW12771   2.714   6.169   0.821
 3082SOL    HW112772   2.654   6.187   0.893
 3082SOL    HW212773   2.748   6.081   0.840
 3082SOL     MW12774   2.710   6.159   0.834
 3083SOL     OW12775   3.655   5.668   1.490
 3083SOL    HW112776   3.576   5.714   1.518
 3083SOL    HW212777   3.690   5.722   1.419
 3083SOL     MW12778   3.649   5.681   1.484
 3084SOL     OW12779   3.518   5.761   1.039
 3084SOL    HW112780   3.563   5.679   1.058
 3084SOL    HW212781   3.538   5.817   1.115
 3084SOL     MW12782   3.528   5.757   1.051
 3085SOL     OW12783   1.966   5.604   1.138
 3085SOL    HW112784   1.957   5.605   1.043
 3085SOL    HW212785   2.060   5.616   1.153
 3085SOL     MW12786   1.978   5.607   1.129
 3086SOL     OW12787   2.179   5.731   0.184
 3086SOL    HW112788   2.108   5.786   0.152
 3086SOL    HW212789   2.221   5.697   0.105
 3086SOL     MW12790   2.175   5.733   0.170
 3087SOL     OW12791   1.935   5.830   0.033
 3087SOL    HW112792   1.902   5.909   0.077
 3087SOL    HW212793   1.990   5.863  -0.038
 3087SOL     MW12794   1.938   5.844   0.030
 3088SOL     OW12795   2.523   5.866   2.382
 3088SOL    HW112796   2.581   5.942   2.384
 3088SOL    HW212797   2.458   5.887   2.315
 3088SOL     MW12798   2.522   5.878   2.373
 3089SOL     OW12799   2.795   6.135   3.639
 3089SOL    HW112800   2.885   6.136   3.606
 3089SOL    HW212801   2.754   6.060   3.597
 3089SOL     MW12802   2.801   6.125   3.630
 3090SOL     OW12803   2.575   5.939   3.589
 3090SOL    HW112804   2.585   5.865   3.529
 3090SOL    HW212805   2.611   5.908   3.672
 3090SOL     MW12806   2.581   5.925   3.591
 3091SOL     OW12807   3.695   5.668   2.553
 3091SOL    HW112808   3.749   5.619   2.615
 3091SOL    HW212809   3.638   5.602   2.514
 3091SOL     MW12810   3.695   5.652   2.555
 3092SOL     OW12811   2.814   5.621   2.966
 3092SOL    HW112812   2.773   5.699   2.928
 3092SOL    HW212813   2.908   5.639   2.961
 3092SOL     MW12814   2.820   5.633   2.961
 3093SOL     OW12815   2.840   5.729   3.221
 3093SOL    HW112816   2.846   5.691   3.134
 3093SOL    HW212817   2.829   5.823   3.206
 3093SOL     MW12818   2.841   5.737   3.209
 3094SOL     OW12819   2.056   5.825   2.527
 3094SOL    HW112820   2.047   5.765   2.453
 3094SOL    HW212821   1.989   5.796   2.590
 3094SOL     MW12822   2.046   5.812   2.525
 3095SOL     OW12823   2.611   5.728   3.386
 3095SOL    HW112824   2.588   5.636   3.388
 3095SOL    HW212825   2.697   5.730   3.343
 3095SOL     MW12826   2.618   5.718   3.382
 3096SOL     OW12827   3.272   5.777   3.696
 3096SOL    HW112828   3.328   5.704   3.722
 3096SOL    HW212829   3.242   5.815   3.778
 3096SOL     MW12830   3.276   5.772   3.709
 3097SOL     OW12831   2.844   5.688   1.922
 3097SOL    HW112832   2.900   5.680   1.844
 3097SOL    HW212833   2.821   5.598   1.944
 3097SOL     MW12834   2.849   5.675   1.915
 3098SOL     OW12835   2.255   5.636   3.657
 3098SOL    HW112836   2.183   5.601   3.605
 3098SOL    HW212837   2.313   5.677   3.592
 3098SOL     MW12838   2.253   5.637   3.642
 3099SOL     OW12839   2.625   5.666   2.569
 3099SOL    HW112840   2.554   5.727   2.551
 3099SOL    HW212841   2.676   5.663   2.488
 3099SOL     MW12842   2.621   5.672   2.556
 3100SOL     OW12843   3.012   5.670   3.578
 3100SOL    HW112844   3.007   5.577   3.559
 3100SOL    HW212845   3.095   5.681   3.624
 3100SOL     MW12846   3.020   5.659   3.582
 3101SOL     OW12847   2.302   5.731   2.525
 3101SOL    HW112848   2.352   5.774   2.456
 3101SOL    HW212849   2.217   5.775   2.525
 3101SOL     MW12850   2.299   5.744   2.516
 3102SOL     OW12851   3.364   5.868   2.402
 3102SOL    HW112852   3.286   5.818   2.427
 3102SOL    HW212853   3.335   5.959   2.402
 3102SOL     MW12854   3.350   5.872   2.405
 3103SOL     OW12855   2.950   5.830   2.561
 3103SOL    HW112856   2.970   5.905   2.505
 3103SOL    HW212857   2.930   5.869   2.646
 3103SOL     MW12858   2.951   5.846   2.565
 3104SOL     OW12859   2.266   5.948   2.909
 3104SOL    HW112860   2.296   5.862   2.880
 3104SOL    HW212861   2.171   5.941   2.912
 3104SOL     MW12862   2.258   5.937   2.907
 3105SOL     OW12863   3.194   5.952   3.461
 3105SOL    HW112864   3.101   5.936   3.448
 3105SOL    HW212865   3.220   5.890   3.529
 3105SOL     MW12866   3.184   5.942   3.468
 3106SOL     OW12867   2.409   5.726   2.800
 3106SOL    HW112868   2.419   5.635   2.826
 3106SOL    HW212869   2.365   5.722   2.715
 3106SOL     MW12870   2.405   5.714   2.792
 3107SOL     OW12871   3.194   5.640   2.080
 3107SOL    HW112872   3.268   5.684   2.123
 3107SOL    HW212873   3.118   5.694   2.102
 3107SOL     MW12874   3.194   5.652   2.088
 3108SOL     OW12875   2.614   5.858   2.912
 3108SOL    HW112876   2.587   5.860   3.003
 3108SOL    HW212877   2.544   5.810   2.867
 3108SOL     MW12878   2.602   5.854   2.919
 3109SOL     OW12879   3.095   5.677   2.998
 3109SOL    HW112880   3.150   5.686   2.920
 3109SOL    HW212881   3.150   5.711   3.069
 3109SOL     MW12882   3.109   5.682   2.997
 3110SOL     OW12883   3.322   5.664   3.171
 3110SOL    HW112884   3.393   5.610   3.135
 3110SOL    HW212885   3.321   5.643   3.264
 3110SOL     MW12886   3.331   5.655   3.179
 3111SOL     OW12887   2.054   5.687   2.295
 3111SOL    HW112888   2.125   5.708   2.234
 3111SOL    HW212889   2.008   5.615   2.253
 3111SOL     MW12890   2.058   5.681   2.281
 3112SOL     OW12891   2.841   5.658   2.378
 3112SOL    HW112892   2.878   5.717   2.443
 3112SOL    HW212893   2.818   5.714   2.304
 3112SOL     MW12894   2.842   5.673   2.377
 3113SOL     OW12895   2.507   5.811   3.152
 3113SOL    HW112896   2.438   5.874   3.173
 3113SOL    HW212897   2.534   5.775   3.237
 3113SOL     MW12898   2.501   5.814   3.165
 3114SOL     OW12899   3.302   5.664   2.769
 3114SOL    HW112900   3.390   5.673   2.806
 3114SOL    HW212901   3.312   5.605   2.695
 3114SOL     MW12902   3.316   5.658   2.763
 3115SOL     OW12903   2.714   6.169   2.689
 3115SOL    HW112904   2.654   6.187   2.761
 3115SOL    HW212905   2.748   6.081   2.708
 3115SOL     MW12906   2.710   6.159   2.702
 3116SOL     OW12907   3.655   5.668   3.358
 3116SOL    HW112908   3.576   5.714   3.386
 3116SOL    HW212909   3.690   5.722   3.287
 3116SOL     MW12910   3.649   5.681   3.352
 3117SOL     OW12911   3.451   5.778   2.165
 3117SOL    HW112912   3.444   5.782   2.260
 3117SOL    HW212913   3.463   5.869   2.138
 3117SOL     MW12914   3.452   5.791   2.173
 3118SOL     OW12915   3.518   5.761   2.907
 3118SOL    HW112916   3.563   5.679   2.926
 3118SOL    HW212917   3.538   5.817   2.983
 3118SOL     MW12918   3.528   5.757   2.919
 3119SOL     OW12919   1.966   5.604   3.006
 3119SOL    HW112920   1.957   5.605   2.911
 3119SOL    HW212921   2.060   5.616   3.021
 3119SOL     MW12922   1.978   5.607   2.997
 3120SOL     OW12923   2.179   5.731   2.052
 3120SOL    HW112924   2.108   5.786   2.020
 3120SOL    HW212925   2.221   5.697   1.973
 3120SOL     MW12926   2.175   5.733   2.038
 3121SOL     OW12927   1.935   5.830   1.901
 3121SOL    HW112928   1.902   5.909   1.945
 3121SOL    HW212929   1.990   5.863   1.830
 3121SOL     MW12930   1.938   5.844   1.898
 3122SOL     OW12931   2.523   5.866   4.250
 3122SOL    HW112932   2.581   5.942   4.252
 3122SOL    HW212933   2.458   5.887   4.183
 3122SOL     MW12934   2.522   5.878   4.241
 3123SOL     OW12935   2.056   5.825   4.395
 3123SOL    HW112936   2.047   5.765   4.321
 3123SOL    HW212937   1.989   5.796   4.458
 3123SOL     MW12938   2.046   5.812   4.393
 3124SOL     OW12939   2.844   5.688   3.790
 3124SOL    HW112940   2.900   5.680   3.712
 3124SOL    HW212941   2.821   5.598   3.812
 3124SOL     MW12942   2.849   5.675   3.783
 3125SOL     OW12943   2.625   5.666   4.437
 3125SOL    HW112944   2.554   5.727   4.419
 3125SOL    HW212945   2.676   5.663   4.356
 3125SOL     MW12946   2.621   5.672   4.424
 3126SOL     OW12947   2.302   5.731   4.393
 3126SOL    HW112948   2.352   5.774   4.324
 3126SOL    HW212949   2.217   5.775   4.393
 3126SOL     MW12950   2.299   5.744   4.384
 3127SOL     OW12951   3.194   5.640   3.948
 3127SOL    HW112952   3.268   5.684   3.991
 3127SOL    HW212953   3.118   5.694   3.970
 3127SOL     MW12954   3.194   5.652   3.956
 3128SOL     OW12955   2.054   5.687   4.163
 3128SOL    HW112956   2.125   5.708   4.102
 3128SOL    HW212957   2.008   5.615   4.121
 3128SOL     MW12958   2.058   5.681   4.149
 3129SOL     OW12959   2.179   5.731   3.920
 3129SOL    HW112960   2.108   5.786   3.888
 3129SOL    HW212961   2.221   5.697   3.841
 3129SOL     MW12962   2.175   5.733   3.906
 3130SOL     OW12963   1.935   5.830   3.769
 3130SOL    HW112964   1.902   5.909   3.813
 3130SOL    HW212965   1.990   5.863   3.698
 3130SOL     MW12966   1.938   5.844   3.766
 3131SOL     OW12967   5.338   0.771   1.252
 3131SOL    HW112968   5.293   0.838   1.303
 3131SOL    HW212969   5.426   0.807   1.238
 3131SOL     MW12970   5.344   0.784   1.256
 3132SOL     OW12971   4.266   1.022   0.486
 3132SOL    HW112972   4.356   0.997   0.470
 3132SOL    HW212973   4.262   1.115   0.463
 3132SOL     MW12974   4.278   1.031   0.481
 3133SOL     OW12975   5.382   1.725   0.628
 3133SOL    HW112976   5.394   1.671   0.706
 3133SOL    HW212977   5.419   1.673   0.557
 3133SOL     MW12978   5.388   1.710   0.629
 3134SOL     OW12979   4.761   1.610   1.629
 3134SOL    HW112980   4.802   1.646   1.550
 3134SOL    HW212981   4.796   1.521   1.636
 3134SOL     MW12982   4.772   1.603   1.620
 3135SOL     OW12983   5.318   1.165   1.233
 3135SOL    HW112984   5.239   1.130   1.191
 3135SOL    HW212985   5.345   1.237   1.177
 3135SOL     MW12986   5.311   1.170   1.220
 3136SOL     OW12987   4.550   0.478   0.499
 3136SOL    HW112988   4.525   0.566   0.527
 3136SOL    HW212989   4.547   0.481   0.403
 3136SOL     MW12990   4.546   0.490   0.491
 3137SOL     OW12991   3.992   0.506   0.427
 3137SOL    HW112992   4.024   0.594   0.409
 3137SOL    HW212993   3.980   0.504   0.522
 3137SOL     MW12994   3.995   0.518   0.439
 3138SOL     OW12995   4.070   0.919   1.328
 3138SOL    HW112996   4.133   0.866   1.279
 3138SOL    HW212997   4.051   0.993   1.271
 3138SOL     MW12998   4.076   0.921   1.315
 3139SOL     OW12999   4.391   0.261   0.514
 3139SOL    HW113000   4.449   0.337   0.516
 3139SOL    HW213001   4.326   0.282   0.447
 3139SOL     MW13002   4.390   0.273   0.505
 3140SOL     OW13003   4.478   1.188   0.689
 3140SOL    HW113004   4.558   1.191   0.741
 3140SOL    HW213005   4.506   1.155   0.603
 3140SOL     MW13006   4.492   1.184   0.684
 3141SOL     OW13007   4.503   1.529   1.592
 3141SOL    HW113008   4.587   1.555   1.631
 3141SOL    HW213009   4.527   1.473   1.518
 3141SOL     MW13010   4.517   1.525   1.587
 3142SOL     OW13011   4.255   0.692   0.680
 3142SOL    HW113012   4.240   0.612   0.731
 3142SOL    HW213013   4.337   0.727   0.714
 3142SOL     MW13014   4.263   0.684   0.692
 3143SOL     OW13015   4.592   1.378   1.365
 3143SOL    HW113016   4.556   1.444   1.305
 3143SOL    HW213017   4.520   1.316   1.378
 3143SOL     MW13018   4.578   1.378   1.359
 3144SOL     OW13019   4.397   0.518   1.057
 3144SOL    HW113020   4.303   0.514   1.075
 3144SOL    HW213021   4.427   0.427   1.066
 3144SOL     MW13022   4.388   0.506   1.060
 3145SOL     OW13023   4.143   0.932   0.961
 3145SOL    HW113024   4.098   0.939   0.877
 3145SOL    HW213025   4.123   1.015   1.005
 3145SOL     MW13026   4.135   0.944   0.955
 3146SOL     OW13027   3.840   1.778   0.836
 3146SOL    HW113028   3.929   1.770   0.871
 3146SOL    HW213029   3.804   1.690   0.841
 3146SOL     MW13030   3.847   1.765   0.841
 3147SOL     OW13031   4.104   1.305   0.871
 3147SOL    HW113032   4.080   1.358   0.947
 3147SOL    HW213033   4.160   1.363   0.819
 3147SOL     MW13034   4.108   1.320   0.874
 3148SOL     OW13035   4.666   0.949   0.681
 3148SOL    HW113036   4.580   0.936   0.721
 3148SOL    HW213037   4.719   0.876   0.713
 3148SOL     MW13038   4.662   0.938   0.690
 3149SOL     OW13039   4.074   1.601   1.466
 3149SOL    HW113040   3.982   1.577   1.451
 3149SOL    HW213041   4.118   1.518   1.483
 3149SOL     MW13042   4.068   1.586   1.465
 3150SOL     OW13043   5.530   0.312   0.854
 3150SOL    HW113044   5.467   0.292   0.923
 3150SOL    HW213045   5.520   0.241   0.791
 3150SOL     MW13046   5.520   0.299   0.855
 3151SOL     OW13047   5.331   1.084   0.506
 3151SOL    HW113048   5.241   1.084   0.541
 3151SOL    HW213049   5.324   1.130   0.423
 3151SOL     MW13050   5.318   1.090   0.500
 3152SOL     OW13051   5.131   0.719   1.578
 3152SOL    HW113052   5.200   0.657   1.555
 3152SOL    HW213053   5.056   0.693   1.525
 3152SOL     MW13054   5.131   0.706   1.569
 3153SOL     OW13055   3.872   1.599   1.130
 3153SOL    HW113056   3.855   1.545   1.207
 3153SOL    HW213057   3.860   1.689   1.160
 3153SOL     MW13058   3.869   1.603   1.144
 3154SOL     OW13059   4.867   1.106   1.570
 3154SOL    HW113060   4.852   1.199   1.555
 3154SOL    HW213061   4.962   1.096   1.570
 3154SOL     MW13062   4.876   1.116   1.567
 3155SOL     OW13063   4.663   0.530   1.771
 3155SOL    HW113064   4.753   0.531   1.738
 3155SOL    HW213065   4.622   0.455   1.729
 3155SOL     MW13066   4.669   0.520   1.762
 3156SOL     OW13067   5.238   1.062   0.898
 3156SOL    HW113068   5.241   0.996   0.829
 3156SOL    HW213069   5.323   1.105   0.894
 3156SOL     MW13070   5.250   1.058   0.889
 3157SOL     OW13071   4.858   0.665   0.467
 3157SOL    HW113072   4.884   0.689   0.378
 3157SOL    HW213073   4.840   0.572   0.463
 3157SOL     MW13074   4.860   0.657   0.454
 3158SOL     OW13075   5.523   1.285   0.318
 3158SOL    HW113076   5.479   1.326   0.393
 3158SOL    HW213077   5.580   1.353   0.283
 3158SOL     MW13078   5.525   1.299   0.323
 3159SOL     OW13079   4.443   0.334   1.721
 3159SOL    HW113080   4.453   0.260   1.661
 3159SOL    HW213081   4.479   0.303   1.804
 3159SOL     MW13082   4.449   0.320   1.723
 3160SOL     OW13083   4.179   1.701   0.636
 3160SOL    HW113084   4.211   1.789   0.614
 3160SOL    HW213085   4.132   1.673   0.558
 3160SOL     MW13086   4.178   1.709   0.623
 3161SOL     OW13087   5.563   0.063   0.685
 3161SOL    HW113088   5.617   0.014   0.747
 3161SOL    HW213089   5.506  -0.003   0.646
 3161SOL     MW13090   5.563   0.047   0.687
 3162SOL     OW13091   4.682   0.016   1.098
 3162SOL    HW113092   4.641   0.094   1.060
 3162SOL    HW213093   4.776   0.034   1.093
 3162SOL     MW13094   4.688   0.028   1.093
 3163SOL     OW13095   5.311   0.620   0.464
 3163SOL    HW113096   5.350   0.620   0.551
 3163SOL    HW213097   5.252   0.696   0.464
 3163SOL     MW13098   5.308   0.631   0.475
 3164SOL     OW13099   4.628   0.987   1.593
 3164SOL    HW113100   4.605   0.967   1.683
 3164SOL    HW213101   4.713   1.031   1.598
 3164SOL     MW13102   4.635   0.990   1.605
 3165SOL     OW13103   4.708   0.124   1.353
 3165SOL    HW113104   4.714   0.086   1.266
 3165SOL    HW213105   4.697   0.218   1.338
 3165SOL     MW13106   4.709   0.132   1.341
 3166SOL     OW13107   4.797   0.613   1.187
 3166SOL    HW113108   4.872   0.642   1.134
 3166SOL    HW213109   4.729   0.678   1.171
 3166SOL     MW13110   4.798   0.625   1.177
 3167SOL     OW13111   5.347   0.581   1.464
 3167SOL    HW113112   5.328   0.490   1.443
 3167SOL    HW213113   5.325   0.630   1.385
 3167SOL     MW13114   5.342   0.574   1.451
 3168SOL     OW13115   5.489   1.675   1.368
 3168SOL    HW113116   5.417   1.637   1.419
 3168SOL    HW213117   5.506   1.760   1.409
 3168SOL     MW13118   5.483   1.680   1.380
 3169SOL     OW13119   4.794   0.319   1.570
 3169SOL    HW113120   4.760   0.358   1.489
 3169SOL    HW213121   4.772   0.227   1.563
 3169SOL     MW13122   4.787   0.312   1.560
 3170SOL     OW13123   5.203   1.133   1.646
 3170SOL    HW113124   5.285   1.174   1.676
 3170SOL    HW213125   5.166   1.095   1.726
 3170SOL     MW13126   5.209   1.134   1.661
 3171SOL     OW13127   5.498   0.506   0.630
 3171SOL    HW113128   5.587   0.475   0.647
 3171SOL    HW213129   5.441   0.446   0.678
 3171SOL     MW13130   5.501   0.494   0.639
 3172SOL     OW13131   3.924   0.220   0.659
 3172SOL    HW113132   3.915   0.160   0.585
 3172SOL    HW213133   3.857   0.191   0.722
 3172SOL     MW13134   3.914   0.207   0.657
 3173SOL     OW13135   3.871   0.393   1.022
 3173SOL    HW113136   3.843   0.484   1.031
 3173SOL    HW213137   3.808   0.354   0.961
 3173SOL     MW13138   3.858   0.399   1.016
 3174SOL     OW13139   4.330   1.731   0.328
 3174SOL    HW113140   4.251   1.689   0.361
 3174SOL    HW213141   4.396   1.714   0.395
 3174SOL     MW13142   4.329   1.723   0.341
 3175SOL     OW13143   5.458   1.251   1.725
 3175SOL    HW113144   5.508   1.177   1.757
 3175SOL    HW213145   5.404   1.278   1.800
 3175SOL     MW13146   5.458   1.245   1.738
 3176SOL     OW13147   5.592   0.886   1.227
 3176SOL    HW113148   5.608   0.924   1.140
 3176SOL    HW213149   5.626   0.952   1.288
 3176SOL     MW13150   5.599   0.899   1.223
 3177SOL     OW13151   5.384   1.595   0.896
 3177SOL    HW113152   5.413   1.662   0.957
 3177SOL    HW213153   5.365   1.519   0.951
 3177SOL     MW13154   5.386   1.595   0.911
 3178SOL     OW13155   3.855   0.668   1.192
 3178SOL    HW113156   3.917   0.698   1.258
 3178SOL    HW213157   3.789   0.737   1.186
 3178SOL     MW13158   3.854   0.681   1.199
 3179SOL     OW13159   3.950   1.777   1.644
 3179SOL    HW113160   3.924   1.845   1.582
 3179SOL    HW213161   3.998   1.714   1.592
 3179SOL     MW13162   3.952   1.777   1.630
 3180SOL     OW13163   4.002   1.096   1.151
 3180SOL    HW113164   4.055   1.171   1.176
 3180SOL    HW213165   3.921   1.134   1.117
 3180SOL     MW13166   3.998   1.111   1.151
 3181SOL     OW13167   4.542   1.000   1.139
 3181SOL    HW113168   4.570   0.909   1.151
 3181SOL    HW213169   4.471   0.994   1.075
 3181SOL     MW13170   4.535   0.988   1.134
 3182SOL     OW13171   3.857   0.865   0.557
 3182SOL    HW113172   3.948   0.880   0.584
 3182SOL    HW213173   3.860   0.786   0.503
 3182SOL     MW13174   3.869   0.857   0.555
 3183SOL     OW13175   4.093   0.573   1.811
 3183SOL    HW113176   4.040   0.653   1.818
 3183SOL    HW213177   4.163   0.585   1.876
 3183SOL     MW13178   4.095   0.586   1.819
 3184SOL     OW13179   4.479   0.123   1.518
 3184SOL    HW113180   4.456   0.031   1.520
 3184SOL    HW213181   4.565   0.125   1.475
 3184SOL     MW13182   4.486   0.113   1.514
 3185SOL     OW13183   4.163   0.647   1.557
 3185SOL    HW113184   4.243   0.697   1.543
 3185SOL    HW213185   4.154   0.641   1.652
 3185SOL     MW13186   4.172   0.653   1.567
 3186SOL     OW13187   4.484   1.797   0.931
 3186SOL    HW113188   4.573   1.812   0.961
 3186SOL    HW213189   4.479   1.844   0.847
 3186SOL     MW13190   4.494   1.805   0.924
 3187SOL     OW13191   5.140   0.172   1.828
 3187SOL    HW113192   5.196   0.099   1.854
 3187SOL    HW213193   5.110   0.210   1.910
 3187SOL     MW13194   5.144   0.167   1.841
 3188SOL     OW13195   3.865   1.477   0.596
 3188SOL    HW113196   3.837   1.516   0.678
 3188SOL    HW213197   3.885   1.386   0.618
 3188SOL     MW13198   3.863   1.469   0.609
 3189SOL     OW13199   4.698   1.520   0.631
 3189SOL    HW113200   4.781   1.474   0.615
 3189SOL    HW213201   4.688   1.519   0.727
 3189SOL     MW13202   4.708   1.513   0.641
 3190SOL     OW13203   5.530   0.665   0.945
 3190SOL    HW113204   5.619   0.695   0.927
 3190SOL    HW213205   5.510   0.605   0.874
 3190SOL     MW13206   5.539   0.662   0.934
 3191SOL     OW13207   5.381   0.844   1.825
 3191SOL    HW113208   5.436   0.768   1.806
 3191SOL    HW213209   5.383   0.852   1.920
 3191SOL     MW13210   5.389   0.835   1.833
 3192SOL     OW13211   4.676   0.406   1.344
 3192SOL    HW113212   4.595   0.447   1.372
 3192SOL    HW213213   4.723   0.474   1.296
 3192SOL     MW13214   4.671   0.421   1.342
 3193SOL     OW13215   4.936   0.744   0.967
 3193SOL    HW113216   4.949   0.838   0.977
 3193SOL    HW213217   4.897   0.734   0.881
 3193SOL     MW13218   4.932   0.755   0.957
 3194SOL     OW13219   4.388   0.939   0.771
 3194SOL    HW113220   4.299   0.930   0.804
 3194SOL    HW213221   4.392   1.029   0.739
 3194SOL     MW13222   4.377   0.950   0.771
 3195SOL     OW13223   5.187   0.522   0.766
 3195SOL    HW113224   5.132   0.443   0.765
 3195SOL    HW213225   5.169   0.563   0.850
 3195SOL     MW13226   5.177   0.517   0.775
 3196SOL     OW13227   4.158   0.209   1.583
 3196SOL    HW113228   4.079   0.227   1.635
 3196SOL    HW213229   4.153   0.271   1.510
 3196SOL     MW13230   4.148   0.219   1.580
 3197SOL     OW13231   4.806   0.726   0.723
 3197SOL    HW113232   4.743   0.658   0.747
 3197SOL    HW213233   4.826   0.707   0.631
 3197SOL     MW13234   4.800   0.713   0.715
 3198SOL     OW13235   4.554   1.030   0.449
 3198SOL    HW113236   4.556   1.004   0.356
 3198SOL    HW213237   4.612   0.967   0.492
 3198SOL     MW13238   4.562   1.019   0.443
 3199SOL     OW13239   5.107   1.590   1.221
 3199SOL    HW113240   5.032   1.636   1.259
 3199SOL    HW213241   5.089   1.497   1.238
 3199SOL     MW13242   5.096   1.584   1.229
 3200SOL     OW13243   5.111   1.798   0.651
 3200SOL    HW113244   5.054   1.751   0.590
 3200SOL    HW213245   5.197   1.759   0.638
 3200SOL     MW13246   5.114   1.789   0.641
 3201SOL     OW13247   5.064   0.274   0.782
 3201SOL    HW113248   5.092   0.206   0.843
 3201SOL    HW213249   4.978   0.245   0.752
 3201SOL     MW13250   5.057   0.261   0.786
 3202SOL     OW13251   3.869   1.208   0.716
 3202SOL    HW113252   3.933   1.240   0.779
 3202SOL    HW213253   3.918   1.144   0.664
 3202SOL     MW13254   3.884   1.204   0.717
 3203SOL     OW13255   4.369   1.284   1.698
 3203SOL    HW113256   4.417   1.367   1.685
 3203SOL    HW213257   4.426   1.232   1.754
 3203SOL     MW13258   4.383   1.288   1.704
 3204SOL     OW13259   3.945   1.526   1.838
 3204SOL    HW113260   4.001   1.450   1.853
 3204SOL    HW213261   3.894   1.504   1.760
 3204SOL     MW13262   3.945   1.513   1.829
 3205SOL     OW13263   4.712   0.083   0.054
 3205SOL    HW113264   4.768   0.075  -0.024
 3205SOL    HW213265   4.689  -0.007   0.076
 3205SOL     MW13266   4.717   0.070   0.047
 3206SOL     OW13267   4.830   1.363   1.447
 3206SOL    HW113268   4.741   1.369   1.415
 3206SOL    HW213269   4.874   1.442   1.415
 3206SOL     MW13270   4.825   1.373   1.439
 3207SOL     OW13271   4.123   0.031   1.789
 3207SOL    HW113272   4.051  -0.004   1.737
 3207SOL    HW213273   4.181   0.072   1.724
 3207SOL     MW13274   4.121   0.032   1.774
 3208SOL     OW13275   4.147   1.521   1.088
 3208SOL    HW113276   4.192   1.583   1.145
 3208SOL    HW213277   4.054   1.540   1.101
 3208SOL     MW13278   4.140   1.531   1.095
 3209SOL     OW13279   5.587   1.050   1.442
 3209SOL    HW113280   5.502   1.063   1.401
 3209SOL    HW213281   5.567   1.014   1.529
 3209SOL     MW13282   5.574   1.046   1.447
 3210SOL     OW13283   4.569   1.589   1.196
 3210SOL    HW113284   4.593   1.578   1.105
 3210SOL    HW213285   4.492   1.646   1.194
 3210SOL     MW13286   4.561   1.594   1.185
 3211SOL     OW13287   4.211   0.972   0.051
 3211SOL    HW113288   4.134   0.985   0.107
 3211SOL    HW213289   4.175   0.936  -0.030
 3211SOL     MW13290   4.197   0.968   0.048
 3212SOL     OW13291   4.364   1.294   0.986
 3212SOL    HW113292   4.357   1.273   1.080
 3212SOL    HW213293   4.282   1.262   0.949
 3212SOL     MW13294   4.352   1.288   0.993
 3213SOL     OW13295   5.228   0.304   1.388
 3213SOL    HW113296   5.175   0.306   1.468
 3213SOL    HW213297   5.213   0.217   1.351
 3213SOL     MW13298   5.220   0.294   1.393
 3214SOL     OW13299   5.564   0.228   1.261
 3214SOL    HW113300   5.545   0.295   1.196
 3214SOL    HW213301   5.621   0.166   1.216
 3214SOL     MW13302   5.568   0.229   1.247
 3215SOL     OW13303   3.810   1.386   1.649
 3215SOL    HW113304   3.854   1.319   1.595
 3215SOL    HW213305   3.725   1.348   1.669
 3215SOL     MW13306   3.805   1.372   1.645
 3216SOL     OW13307   4.493   0.061   0.701
 3216SOL    HW113308   4.422   0.122   0.683
 3216SOL    HW213309   4.544   0.058   0.620
 3216SOL     MW13310   4.489   0.067   0.688
 3217SOL     OW13311   4.251   1.301   0.450
 3217SOL    HW113312   4.244   1.333   0.540
 3217SOL    HW213313   4.161   1.285   0.422
 3217SOL     MW13314   4.239   1.303   0.457
 3218SOL     OW13315   4.846   1.694   1.359
 3218SOL    HW113316   4.766   1.679   1.309
 3218SOL    HW213317   4.853   1.789   1.366
 3218SOL     MW13318   4.837   1.705   1.353
 3219SOL     OW13319   4.960   1.659   0.849
 3219SOL    HW113320   5.007   1.732   0.808
 3219SOL    HW213321   4.881   1.698   0.885
 3219SOL     MW13322   4.955   1.674   0.848
 3220SOL     OW13323   5.368   1.754   1.124
 3220SOL    HW113324   5.411   1.724   1.204
 3220SOL    HW213325   5.287   1.702   1.121
 3220SOL     MW13326   5.363   1.743   1.134
 3221SOL     OW13327   4.453   0.718   1.831
 3221SOL    HW113328   4.523   0.660   1.803
 3221SOL    HW213329   4.396   0.663   1.886
 3221SOL     MW13330   4.455   0.705   1.835
 3222SOL     OW13331   5.240   0.930   1.464
 3222SOL    HW113332   5.245   0.983   1.544
 3222SOL    HW213333   5.202   0.847   1.492
 3222SOL     MW13334   5.236   0.925   1.479
 3223SOL     OW13335   4.880   0.065   1.710
 3223SOL    HW113336   4.875  -0.028   1.691
 3223SOL    HW213337   4.963   0.076   1.756
 3223SOL     MW13338   4.888   0.054   1.714
 3224SOL     OW13339   5.350   1.336   0.986
 3224SOL    HW113340   5.385   1.318   0.899
 3224SOL    HW213341   5.255   1.337   0.973
 3224SOL     MW13342   5.342   1.333   0.973
 3225SOL     OW13343   4.779   0.984   1.355
 3225SOL    HW113344   4.822   1.019   1.433
 3225SOL    HW213345   4.762   1.061   1.301
 3225SOL     MW13346   4.782   0.999   1.358
 3226SOL     OW13347   4.170   0.126   0.657
 3226SOL    HW113348   4.220   0.169   0.588
 3226SOL    HW213349   4.085   0.170   0.657
 3226SOL     MW13350   4.167   0.139   0.648
 3227SOL     OW13351   3.929   1.188   1.517
 3227SOL    HW113352   3.957   1.141   1.595
 3227SOL    HW213353   3.850   1.143   1.488
 3227SOL     MW13354   3.922   1.177   1.523
 3228SOL     OW13355   4.437   0.515   1.484
 3228SOL    HW113356   4.409   0.603   1.508
 3228SOL    HW213357   4.406   0.459   1.555
 3228SOL     MW13358   4.429   0.518   1.496
 3229SOL     OW13359   4.979   0.733   0.203
 3229SOL    HW113360   5.026   0.751   0.122
 3229SOL    HW213361   4.945   0.817   0.231
 3229SOL     MW13362   4.981   0.747   0.196
 3230SOL     OW13363   4.092   0.911   0.697
 3230SOL    HW113364   4.150   0.967   0.645
 3230SOL    HW213365   4.136   0.826   0.699
 3230SOL     MW13366   4.105   0.908   0.690
 3231SOL     OW13367   5.232   0.263   0.534
 3231SOL    HW113368   5.154   0.213   0.559
 3231SOL    HW213369   5.203   0.354   0.534
 3231SOL     MW13370   5.218   0.267   0.537
 3232SOL     OW13371   4.818   0.225   0.693
 3232SOL    HW113372   4.838   0.300   0.637
 3232SOL    HW213373   4.798   0.264   0.778
 3232SOL     MW13374   4.819   0.241   0.697
 3233SOL     OW13375   5.578   0.998   1.712
 3233SOL    HW113376   5.491   0.978   1.748
 3233SOL    HW213377   5.632   0.924   1.737
 3233SOL     MW13378   5.573   0.987   1.720
 3234SOL     OW13379   3.799   1.511   0.869
 3234SOL    HW113380   3.831   1.515   0.960
 3234SOL    HW213381   3.704   1.519   0.877
 3234SOL     MW13382   3.791   1.514   0.882
 3235SOL     OW13383   3.754   0.637   0.416
 3235SOL    HW113384   3.694   0.609   0.486
 3235SOL    HW213385   3.828   0.577   0.422
 3235SOL     MW13386   3.756   0.626   0.425
 3236SOL     OW13387   5.322   1.849   1.850
 3236SOL    HW113388   5.367   1.773   1.815
 3236SOL    HW213389   5.360   1.862   1.937
 3236SOL     MW13390   5.332   1.842   1.856
 3237SOL     OW13391   4.922   1.368   0.576
 3237SOL    HW113392   4.945   1.319   0.654
 3237SOL    HW213393   5.003   1.410   0.548
 3237SOL     MW13394   4.935   1.368   0.583
 3238SOL     OW13395   4.180   0.376   1.305
 3238SOL    HW113396   4.213   0.457   1.345
 3238SOL    HW213397   4.153   0.402   1.217
 3238SOL     MW13398   4.179   0.390   1.299
 3239SOL     OW13399   4.134   0.343   1.041
 3239SOL    HW113400   4.164   0.257   1.012
 3239SOL    HW213401   4.039   0.336   1.044
 3239SOL     MW13402   4.126   0.332   1.039
 3240SOL     OW13403   4.963   0.552   1.732
 3240SOL    HW113404   5.015   0.487   1.685
 3240SOL    HW213405   4.921   0.603   1.662
 3240SOL     MW13406   4.964   0.549   1.715
 3241SOL     OW13407   5.062   0.347   1.593
 3241SOL    HW113408   4.969   0.331   1.580
 3241SOL    HW213409   5.088   0.285   1.661
 3241SOL     MW13410   5.052   0.337   1.600
 3242SOL     OW13411   4.277   0.121   0.932
 3242SOL    HW113412   4.287   0.030   0.958
 3242SOL    HW213413   4.233   0.117   0.847
 3242SOL     MW13414   4.273   0.109   0.924
 3243SOL     OW13415   4.371   1.736   1.478
 3243SOL    HW113416   4.288   1.721   1.523
 3243SOL    HW213417   4.430   1.669   1.513
 3243SOL     MW13418   4.369   1.726   1.488
 3244SOL     OW13419   5.428   0.443   1.103
 3244SOL    HW113420   5.361   0.476   1.163
 3244SOL    HW213421   5.471   0.521   1.069
 3244SOL     MW13422   5.426   0.458   1.107
 3245SOL     OW13423   5.606   1.163   1.073
 3245SOL    HW113424   5.599   1.103   0.998
 3245SOL    HW213425   5.532   1.223   1.062
 3245SOL     MW13426   5.596   1.163   1.062
 3246SOL     OW13427   4.988   1.025   0.991
 3246SOL    HW113428   5.002   0.997   1.082
 3246SOL    HW213429   5.074   1.056   0.963
 3246SOL     MW13430   5.001   1.026   1.000
 3247SOL     OW13431   5.071   0.520   1.270
 3247SOL    HW113432   5.092   0.521   1.177
 3247SOL    HW213433   5.116   0.442   1.303
 3247SOL     MW13434   5.078   0.510   1.262
 3248SOL     OW13435   5.564   0.651   1.812
 3248SOL    HW113436   5.601   0.596   1.881
 3248SOL    HW213437   5.589   0.608   1.730
 3248SOL     MW13438   5.571   0.639   1.811
 3249SOL     OW13439   5.111   0.949   1.863
 3249SOL    HW113440   5.177   0.897   1.817
 3249SOL    HW213441   5.131   0.936   1.956
 3249SOL     MW13442   5.122   0.940   1.870
 3250SOL     OW13443   5.122   0.810   0.490
 3250SOL    HW113444   5.037   0.780   0.460
 3250SOL    HW213445   5.114   0.817   0.585
 3250SOL     MW13446   5.110   0.808   0.499
 3251SOL     OW13447   4.198   1.273   1.221
 3251SOL    HW113448   4.210   1.300   1.312
 3251SOL    HW213449   4.179   1.354   1.174
 3251SOL     MW13450   4.197   1.288   1.226
 3252SOL     OW13451   4.482   0.253   1.044
 3252SOL    HW113452   4.455   0.255   1.135
 3252SOL    HW213453   4.412   0.205   0.999
 3252SOL     MW13454   4.470   0.249   1.051
 3253SOL     OW13455   4.336   1.745   1.206
 3253SOL    HW113456   4.388   1.822   1.183
 3253SOL    HW213457   4.345   1.737   1.301
 3253SOL     MW13458   4.345   1.752   1.217
 3254SOL     OW13459   5.238   1.330   1.438
 3254SOL    HW113460   5.223   1.259   1.501
 3254SOL    HW213461   5.284   1.288   1.366
 3254SOL     MW13462   5.244   1.314   1.438
 3255SOL     OW13463   4.312   1.061   1.555
 3255SOL    HW113464   4.349   1.066   1.467
 3255SOL    HW213465   4.351   1.134   1.602
 3255SOL     MW13466   4.322   1.071   1.550
 3256SOL     OW13467   4.492   1.104   1.367
 3256SOL    HW113468   4.551   1.050   1.420
 3256SOL    HW213469   4.507   1.076   1.277
 3256SOL     MW13470   4.502   1.093   1.363
 3257SOL     OW13471   5.303   1.593   1.539
 3257SOL    HW113472   5.345   1.578   1.624
 3257SOL    HW213473   5.294   1.506   1.501
 3257SOL     MW13474   5.307   1.581   1.546
 3258SOL     OW13475   4.963   0.072   1.130
 3258SOL    HW113476   5.018   0.081   1.052
 3258SOL    HW213477   5.018   0.106   1.201
 3258SOL     MW13478   4.977   0.077   1.129
 3259SOL     OW13479   4.326   1.339   0.173
 3259SOL    HW113480   4.341   1.315   0.265
 3259SOL    HW213481   4.234   1.317   0.157
 3259SOL     MW13482   4.316   1.332   0.183
 3260SOL     OW13483   4.124   1.728   0.894
 3260SOL    HW113484   4.128   1.639   0.929
 3260SOL    HW213485   4.150   1.719   0.803
 3260SOL     MW13486   4.127   1.716   0.886
 3261SOL     OW13487   4.741   1.206   1.137
 3261SOL    HW113488   4.673   1.140   1.153
 3261SOL    HW213489   4.759   1.200   1.044
 3261SOL     MW13490   4.734   1.197   1.128
 3262SOL     OW13491   3.830   1.481   1.388
 3262SOL    HW113492   3.820   1.439   1.474
 3262SOL    HW213493   3.751   1.534   1.378
 3262SOL     MW13494   3.819   1.482   1.399
 3263SOL     OW13495   4.734   0.345   0.958
 3263SOL    HW113496   4.664   0.297   1.003
 3263SOL    HW213497   4.766   0.408   1.022
 3263SOL     MW13498   4.729   0.347   0.972
 3264SOL     OW13499   4.385   0.781   1.578
 3264SOL    HW113500   4.378   0.876   1.566
 3264SOL    HW213501   4.394   0.770   1.673
 3264SOL     MW13502   4.386   0.793   1.588
 3265SOL     OW13503   4.106   1.296   1.836
 3265SOL    HW113504   4.178   1.298   1.773
 3265SOL    HW213505   4.076   1.205   1.835
 3265SOL     MW13506   4.111   1.285   1.828
 3266SOL     OW13507   5.190   0.059   1.303
 3266SOL    HW113508   5.261   0.005   1.267
 3266SOL    HW213509   5.189   0.038   1.396
 3266SOL     MW13510   5.199   0.050   1.311
 3267SOL     OW13511   5.390   1.589   1.787
 3267SOL    HW113512   5.363   1.586   1.878
 3267SOL    HW213513   5.486   1.593   1.790
 3267SOL     MW13514   5.400   1.589   1.799
 3268SOL     OW13515   4.201   0.451   0.771
 3268SOL    HW113516   4.272   0.399   0.734
 3268SOL    HW213517   4.187   0.416   0.858
 3268SOL     MW13518   4.209   0.440   0.778
 3269SOL     OW13519   3.756   1.786   1.843
 3269SOL    HW113520   3.806   1.764   1.765
 3269SOL    HW213521   3.764   1.881   1.851
 3269SOL     MW13522   3.764   1.795   1.834
 3270SOL     OW13523   4.517   1.544   0.847
 3270SOL    HW113524   4.445   1.481   0.860
 3270SOL    HW213525   4.478   1.629   0.865
 3270SOL     MW13526   4.501   1.547   0.850
 3271SOL     OW13527   4.837   0.392   0.495
 3271SOL    HW113528   4.859   0.329   0.427
 3271SOL    HW213529   4.742   0.384   0.506
 3271SOL     MW13530   4.827   0.383   0.487
 3272SOL     OW13531   3.922   0.082   0.427
 3272SOL    HW113532   3.993   0.103   0.366
 3272SOL    HW213533   3.876   0.010   0.385
 3272SOL     MW13534   3.926   0.076   0.413
 3273SOL     OW13535   3.753   0.549   1.570
 3273SOL    HW113536   3.817   0.615   1.545
 3273SOL    HW213537   3.672   0.576   1.527
 3273SOL     MW13538   3.751   0.561   1.562
 3274SOL     OW13539   5.491   1.456   0.527
 3274SOL    HW113540   5.461   1.389   0.588
 3274SOL    HW213541   5.585   1.462   0.541
 3274SOL     MW13542   5.499   1.448   0.537
 3275SOL     OW13543   5.047   1.133   0.457
 3275SOL    HW113544   5.019   1.219   0.490
 3275SOL    HW213545   5.075   1.149   0.367
 3275SOL     MW13546   5.047   1.147   0.449
 3276SOL     OW13547   4.709   0.053   0.510
 3276SOL    HW113548   4.746   0.112   0.575
 3276SOL    HW213549   4.686   0.109   0.436
 3276SOL     MW13550   4.710   0.068   0.509
 3277SOL     OW13551   5.562   0.935   0.932
 3277SOL    HW113552   5.553   0.967   0.843
 3277SOL    HW213553   5.515   0.851   0.932
 3277SOL     MW13554   5.555   0.928   0.922
 3278SOL     OW13555   3.938   0.775   1.511
 3278SOL    HW113556   3.959   0.844   1.449
 3278SOL    HW213557   4.018   0.722   1.516
 3278SOL     MW13558   3.951   0.776   1.505
 3279SOL     OW13559   5.474   0.866   0.633
 3279SOL    HW113560   5.568   0.855   0.621
 3279SOL    HW213561   5.450   0.938   0.574
 3279SOL     MW13562   5.484   0.874   0.624
 3280SOL     OW13563   3.923   0.790   1.778
 3280SOL    HW113564   3.849   0.734   1.804
 3280SOL    HW213565   3.918   0.793   1.683
 3280SOL     MW13566   3.912   0.783   1.768
 3281SOL     OW13567   4.089   0.077   1.228
 3281SOL    HW113568   4.132   0.161   1.248
 3281SOL    HW213569   4.162   0.015   1.221
 3281SOL     MW13570   4.104   0.080   1.229
 3282SOL     OW13571   4.130   0.744   0.406
 3282SOL    HW113572   4.130   0.839   0.391
 3282SOL    HW213573   4.207   0.728   0.460
 3282SOL     MW13574   4.140   0.755   0.411
 3283SOL     OW13575   4.906   0.603   1.470
 3283SOL    HW113576   4.942   0.576   1.386
 3283SOL    HW213577   4.819   0.637   1.449
 3283SOL     MW13578   4.900   0.604   1.457
 3284SOL     OW13579   3.889   0.475   0.695
 3284SOL    HW113580   3.951   0.482   0.768
 3284SOL    HW213581   3.889   0.382   0.672
 3284SOL     MW13582   3.897   0.464   0.702
 3285SOL     OW13583   4.571   0.736   1.179
 3285SOL    HW113584   4.529   0.654   1.155
 3285SOL    HW213585   4.572   0.735   1.275
 3285SOL     MW13586   4.564   0.725   1.188
 3286SOL     OW13587   5.242   1.869   1.578
 3286SOL    HW113588   5.245   1.775   1.561
 3286SOL    HW213589   5.265   1.877   1.670
 3286SOL     MW13590   5.245   1.857   1.588
 3287SOL     OW13591   4.375   0.206   1.284
 3287SOL    HW113592   4.306   0.269   1.305
 3287SOL    HW213593   4.402   0.170   1.369
 3287SOL     MW13594   4.369   0.209   1.297
 3288SOL     OW13595   5.170   0.059   0.901
 3288SOL    HW113596   5.258   0.068   0.938
 3288SOL    HW213597   5.180   0.000   0.827
 3288SOL     MW13598   5.184   0.053   0.895
 3289SOL     OW13599   5.202   0.798   0.745
 3289SOL    HW113600   5.282   0.813   0.694
 3289SOL    HW213601   5.195   0.703   0.751
 3289SOL     MW13602   5.211   0.787   0.740
 3290SOL     OW13603   4.652   0.724   1.442
 3290SOL    HW113604   4.721   0.791   1.439
 3290SOL    HW213605   4.585   0.762   1.498
 3290SOL     MW13606   4.653   0.737   1.449
 3291SOL     OW13607   4.070   1.024   1.690
 3291SOL    HW113608   4.024   0.940   1.692
 3291SOL    HW213609   4.127   1.018   1.614
 3291SOL     MW13610   4.072   1.012   1.682
 3292SOL     OW13611   4.321   1.399   0.691
 3292SOL    HW113612   4.386   1.332   0.712
 3292SOL    HW213613   4.373   1.476   0.668
 3292SOL     MW13614   4.336   1.401   0.690
 3293SOL     OW13615   4.582   0.564   0.821
 3293SOL    HW113616   4.522   0.582   0.893
 3293SOL    HW213617   4.616   0.476   0.840
 3293SOL     MW13618   4.578   0.554   0.834
 3294SOL     OW13619   5.523   0.063   1.490
 3294SOL    HW113620   5.444   0.109   1.518
 3294SOL    HW213621   5.558   0.117   1.419
 3294SOL     MW13622   5.517   0.076   1.484
 3295SOL     OW13623   4.807   1.147   0.840
 3295SOL    HW113624   4.899   1.128   0.858
 3295SOL    HW213625   4.780   1.077   0.780
 3295SOL     MW13626   4.815   1.135   0.834
 3296SOL     OW13627   5.081   1.385   0.936
 3296SOL    HW113628   5.054   1.469   0.901
 3296SOL    HW213629   5.041   1.380   1.023
 3296SOL     MW13630   5.074   1.394   0.942
 3297SOL     OW13631   5.000   1.333   1.204
 3297SOL    HW113632   5.011   1.300   1.293
 3297SOL    HW213633   4.919   1.292   1.173
 3297SOL     MW13634   4.990   1.325   1.210
 3298SOL     OW13635   4.013   0.691   0.974
 3298SOL    HW113636   3.963   0.690   1.055
 3298SOL    HW213637   4.033   0.783   0.958
 3298SOL     MW13638   4.009   0.703   0.982
 3299SOL     OW13639   5.080   1.455   1.736
 3299SOL    HW113640   5.080   1.549   1.752
 3299SOL    HW213641   5.125   1.445   1.652
 3299SOL     MW13642   5.086   1.465   1.727
 3300SOL     OW13643   3.935   0.359   1.715
 3300SOL    HW113644   3.892   0.418   1.652
 3300SOL    HW213645   4.003   0.414   1.755
 3300SOL     MW13646   3.939   0.374   1.712
 3301SOL     OW13647   5.047   0.979   1.260
 3301SOL    HW113648   5.110   0.976   1.333
 3301SOL    HW213649   4.963   0.997   1.302
 3301SOL     MW13650   5.043   0.981   1.275
 3302SOL     OW13651   4.591   1.694   0.449
 3302SOL    HW113652   4.649   1.765   0.476
 3302SOL    HW213653   4.614   1.622   0.507
 3302SOL     MW13654   4.602   1.694   0.460
 3303SOL     OW13655   5.386   0.156   1.039
 3303SOL    HW113656   5.431   0.074   1.058
 3303SOL    HW213657   5.406   0.212   1.115
 3303SOL     MW13658   5.396   0.152   1.051
 3304SOL     OW13659   3.834  -0.001   1.138
 3304SOL    HW113660   3.825   0.000   1.043
 3304SOL    HW213661   3.928   0.011   1.153
 3304SOL     MW13662   3.846   0.002   1.129
 3305SOL     OW13663   5.471   1.192   0.758
 3305SOL    HW113664   5.450   1.138   0.681
 3305SOL    HW213665   5.567   1.190   0.762
 3305SOL     MW13666   5.480   1.185   0.747
 3306SOL     OW13667   4.163   1.337   1.501
 3306SOL    HW113668   4.084   1.287   1.524
 3306SOL    HW213669   4.233   1.296   1.551
 3306SOL     MW13670   4.161   1.325   1.511
 3307SOL     OW13671   4.047   0.126   0.184
 3307SOL    HW113672   3.976   0.181   0.152
 3307SOL    HW213673   4.089   0.092   0.105
 3307SOL     MW13674   4.043   0.128   0.170
 3308SOL     OW13675   5.171   0.623   1.020
 3308SOL    HW113676   5.094   0.669   0.986
 3308SOL    HW213677   5.228   0.692   1.054
 3308SOL     MW13678   5.168   0.638   1.020
 3309SOL     OW13679   5.472   0.839   2.125
 3309SOL    HW113680   5.513   0.781   2.190
 3309SOL    HW213681   5.379   0.831   2.142
 3309SOL     MW13682   5.466   0.831   2.135
 3310SOL     OW13683   5.338   0.771   3.120
 3310SOL    HW113684   5.293   0.838   3.171
 3310SOL    HW213685   5.426   0.807   3.106
 3310SOL     MW13686   5.344   0.784   3.124
 3311SOL     OW13687   4.266   1.022   2.354
 3311SOL    HW113688   4.356   0.997   2.338
 3311SOL    HW213689   4.262   1.115   2.331
 3311SOL     MW13690   4.278   1.031   2.349
 3312SOL     OW13691   5.382   1.725   2.496
 3312SOL    HW113692   5.394   1.671   2.574
 3312SOL    HW213693   5.419   1.673   2.425
 3312SOL     MW13694   5.388   1.710   2.497
 3313SOL     OW13695   4.761   1.610   3.497
 3313SOL    HW113696   4.802   1.646   3.418
 3313SOL    HW213697   4.796   1.521   3.504
 3313SOL     MW13698   4.772   1.603   3.488
 3314SOL     OW13699   5.318   1.165   3.101
 3314SOL    HW113700   5.239   1.130   3.059
 3314SOL    HW213701   5.345   1.237   3.045
 3314SOL     MW13702   5.311   1.170   3.088
 3315SOL     OW13703   4.550   0.478   2.367
 3315SOL    HW113704   4.525   0.566   2.395
 3315SOL    HW213705   4.547   0.481   2.271
 3315SOL     MW13706   4.546   0.490   2.359
 3316SOL     OW13707   3.992   0.506   2.295
 3316SOL    HW113708   4.024   0.594   2.277
 3316SOL    HW213709   3.980   0.504   2.390
 3316SOL     MW13710   3.995   0.518   2.307
 3317SOL     OW13711   4.070   0.919   3.196
 3317SOL    HW113712   4.133   0.866   3.147
 3317SOL    HW213713   4.051   0.993   3.139
 3317SOL     MW13714   4.076   0.921   3.183
 3318SOL     OW13715   4.391   0.261   2.382
 3318SOL    HW113716   4.449   0.337   2.384
 3318SOL    HW213717   4.326   0.282   2.315
 3318SOL     MW13718   4.390   0.273   2.373
 3319SOL     OW13719   4.478   1.188   2.557
 3319SOL    HW113720   4.558   1.191   2.609
 3319SOL    HW213721   4.506   1.155   2.471
 3319SOL     MW13722   4.492   1.184   2.552
 3320SOL     OW13723   4.503   1.529   3.460
 3320SOL    HW113724   4.587   1.555   3.499
 3320SOL    HW213725   4.527   1.473   3.386
 3320SOL     MW13726   4.517   1.525   3.455
 3321SOL     OW13727   4.255   0.692   2.548
 3321SOL    HW113728   4.240   0.612   2.599
 3321SOL    HW213729   4.337   0.727   2.582
 3321SOL     MW13730   4.263   0.684   2.560
 3322SOL     OW13731   4.592   1.378   3.233
 3322SOL    HW113732   4.556   1.444   3.173
 3322SOL    HW213733   4.520   1.316   3.246
 3322SOL     MW13734   4.578   1.378   3.227
 3323SOL     OW13735   4.397   0.518   2.925
 3323SOL    HW113736   4.303   0.514   2.943
 3323SOL    HW213737   4.427   0.427   2.934
 3323SOL     MW13738   4.388   0.506   2.928
 3324SOL     OW13739   4.143   0.932   2.829
 3324SOL    HW113740   4.098   0.939   2.745
 3324SOL    HW213741   4.123   1.015   2.873
 3324SOL     MW13742   4.135   0.944   2.823
 3325SOL     OW13743   3.840   1.778   2.704
 3325SOL    HW113744   3.929   1.770   2.739
 3325SOL    HW213745   3.804   1.690   2.709
 3325SOL     MW13746   3.847   1.765   2.709
 3326SOL     OW13747   5.105   1.170   2.073
 3326SOL    HW113748   5.023   1.206   2.039
 3326SOL    HW213749   5.173   1.213   2.022
 3326SOL     MW13750   5.103   1.180   2.061
 3327SOL     OW13751   4.104   1.305   2.739
 3327SOL    HW113752   4.080   1.358   2.815
 3327SOL    HW213753   4.160   1.363   2.687
 3327SOL     MW13754   4.108   1.320   2.742
 3328SOL     OW13755   4.666   0.949   2.549
 3328SOL    HW113756   4.580   0.936   2.589
 3328SOL    HW213757   4.719   0.876   2.581
 3328SOL     MW13758   4.662   0.938   2.558
 3329SOL     OW13759   4.074   1.601   3.334
 3329SOL    HW113760   3.982   1.577   3.319
 3329SOL    HW213761   4.118   1.518   3.351
 3329SOL     MW13762   4.068   1.586   3.333
 3330SOL     OW13763   4.657   1.311   2.266
 3330SOL    HW113764   4.634   1.373   2.334
 3330SOL    HW213765   4.614   1.229   2.292
 3330SOL     MW13766   4.649   1.307   2.277
 3331SOL     OW13767   5.530   0.312   2.722
 3331SOL    HW113768   5.467   0.292   2.791
 3331SOL    HW213769   5.520   0.241   2.659
 3331SOL     MW13770   5.520   0.299   2.723
 3332SOL     OW13771   4.154   0.284   2.234
 3332SOL    HW113772   4.128   0.246   2.150
 3332SOL    HW213773   4.091   0.354   2.250
 3332SOL     MW13774   4.143   0.287   2.225
 3333SOL     OW13775   3.989   1.245   2.271
 3333SOL    HW113776   3.937   1.313   2.227
 3333SOL    HW213777   3.986   1.171   2.211
 3333SOL     MW13778   3.981   1.244   2.258
 3334SOL     OW13779   4.651   1.708   2.049
 3334SOL    HW113780   4.606   1.724   2.132
 3334SOL    HW213781   4.582   1.673   1.991
 3334SOL     MW13782   4.637   1.705   2.051
 3335SOL     OW13783   5.586   0.481   2.024
 3335SOL    HW113784   5.495   0.483   2.052
 3335SOL    HW213785   5.631   0.543   2.082
 3335SOL     MW13786   5.579   0.489   2.034
 3336SOL     OW13787   5.331   1.084   2.374
 3336SOL    HW113788   5.241   1.084   2.409
 3336SOL    HW213789   5.324   1.130   2.291
 3336SOL     MW13790   5.318   1.090   2.368
 3337SOL     OW13791   5.131   0.719   3.446
 3337SOL    HW113792   5.200   0.657   3.423
 3337SOL    HW213793   5.056   0.693   3.393
 3337SOL     MW13794   5.131   0.706   3.437
 3338SOL     OW13795   3.872   1.599   2.998
 3338SOL    HW113796   3.855   1.545   3.075
 3338SOL    HW213797   3.860   1.689   3.028
 3338SOL     MW13798   3.869   1.603   3.012
 3339SOL     OW13799   4.867   1.106   3.438
 3339SOL    HW113800   4.852   1.199   3.423
 3339SOL    HW213801   4.962   1.096   3.438
 3339SOL     MW13802   4.876   1.116   3.435
 3340SOL     OW13803   4.663   0.530   3.639
 3340SOL    HW113804   4.753   0.531   3.606
 3340SOL    HW213805   4.622   0.455   3.597
 3340SOL     MW13806   4.669   0.520   3.630
 3341SOL     OW13807   5.238   1.062   2.766
 3341SOL    HW113808   5.241   0.996   2.697
 3341SOL    HW213809   5.323   1.105   2.762
 3341SOL     MW13810   5.250   1.058   2.757
 3342SOL     OW13811   4.858   0.665   2.335
 3342SOL    HW113812   4.884   0.689   2.246
 3342SOL    HW213813   4.840   0.572   2.331
 3342SOL     MW13814   4.860   0.657   2.322
 3343SOL     OW13815   5.523   1.285   2.186
 3343SOL    HW113816   5.479   1.326   2.261
 3343SOL    HW213817   5.580   1.353   2.151
 3343SOL     MW13818   5.525   1.299   2.191
 3344SOL     OW13819   4.443   0.334   3.589
 3344SOL    HW113820   4.453   0.260   3.529
 3344SOL    HW213821   4.479   0.303   3.672
 3344SOL     MW13822   4.449   0.320   3.591
 3345SOL     OW13823   4.179   1.701   2.504
 3345SOL    HW113824   4.211   1.789   2.482
 3345SOL    HW213825   4.132   1.673   2.426
 3345SOL     MW13826   4.178   1.709   2.491
 3346SOL     OW13827   5.563   0.063   2.553
 3346SOL    HW113828   5.617   0.014   2.615
 3346SOL    HW213829   5.506  -0.003   2.514
 3346SOL     MW13830   5.563   0.047   2.555
 3347SOL     OW13831   3.895   1.761   2.081
 3347SOL    HW113832   3.924   1.851   2.073
 3347SOL    HW213833   3.845   1.744   2.002
 3347SOL     MW13834   3.893   1.769   2.070
 3348SOL     OW13835   4.682   0.016   2.966
 3348SOL    HW113836   4.641   0.094   2.928
 3348SOL    HW213837   4.776   0.034   2.961
 3348SOL     MW13838   4.688   0.028   2.961
 3349SOL     OW13839   5.299   1.569   2.052
 3349SOL    HW113840   5.347   1.638   2.098
 3349SOL    HW213841   5.220   1.613   2.021
 3349SOL     MW13842   5.294   1.583   2.055
 3350SOL     OW13843   4.697   0.694   1.996
 3350SOL    HW113844   4.699   0.641   1.917
 3350SOL    HW213845   4.785   0.731   2.002
 3350SOL     MW13846   4.709   0.693   1.985
 3351SOL     OW13847   5.311   0.620   2.332
 3351SOL    HW113848   5.350   0.620   2.419
 3351SOL    HW213849   5.252   0.696   2.332
 3351SOL     MW13850   5.308   0.631   2.343
 3352SOL     OW13851   4.628   0.987   3.461
 3352SOL    HW113852   4.605   0.967   3.551
 3352SOL    HW213853   4.713   1.031   3.466
 3352SOL     MW13854   4.635   0.990   3.473
 3353SOL     OW13855   4.708   0.124   3.221
 3353SOL    HW113856   4.714   0.086   3.134
 3353SOL    HW213857   4.697   0.218   3.206
 3353SOL     MW13858   4.709   0.132   3.209
 3354SOL     OW13859   4.797   0.613   3.055
 3354SOL    HW113860   4.872   0.642   3.002
 3354SOL    HW213861   4.729   0.678   3.039
 3354SOL     MW13862   4.798   0.625   3.045
 3355SOL     OW13863   5.347   0.581   3.332
 3355SOL    HW113864   5.328   0.490   3.311
 3355SOL    HW213865   5.325   0.630   3.253
 3355SOL     MW13866   5.342   0.574   3.319
 3356SOL     OW13867   5.489   1.675   3.236
 3356SOL    HW113868   5.417   1.637   3.287
 3356SOL    HW213869   5.506   1.760   3.277
 3356SOL     MW13870   5.483   1.680   3.248
 3357SOL     OW13871   4.794   0.319   3.438
 3357SOL    HW113872   4.760   0.358   3.357
 3357SOL    HW213873   4.772   0.227   3.431
 3357SOL     MW13874   4.787   0.312   3.428
 3358SOL     OW13875   5.203   1.133   3.514
 3358SOL    HW113876   5.285   1.174   3.544
 3358SOL    HW213877   5.166   1.095   3.594
 3358SOL     MW13878   5.209   1.134   3.529
 3359SOL     OW13879   5.498   0.506   2.498
 3359SOL    HW113880   5.587   0.475   2.515
 3359SOL    HW213881   5.441   0.446   2.546
 3359SOL     MW13882   5.501   0.494   2.507
 3360SOL     OW13883   3.924   0.220   2.527
 3360SOL    HW113884   3.915   0.160   2.453
 3360SOL    HW213885   3.857   0.191   2.590
 3360SOL     MW13886   3.914   0.207   2.525
 3361SOL     OW13887   4.867   1.313   2.088
 3361SOL    HW113888   4.817   1.315   2.170
 3361SOL    HW213889   4.801   1.331   2.020
 3361SOL     MW13890   4.853   1.315   2.090
 3362SOL     OW13891   3.871   0.393   2.890
 3362SOL    HW113892   3.843   0.484   2.899
 3362SOL    HW213893   3.808   0.354   2.829
 3362SOL     MW13894   3.858   0.399   2.884
 3363SOL     OW13895   4.330   1.731   2.196
 3363SOL    HW113896   4.251   1.689   2.229
 3363SOL    HW213897   4.396   1.714   2.263
 3363SOL     MW13898   4.329   1.723   2.209
 3364SOL     OW13899   5.458   1.251   3.593
 3364SOL    HW113900   5.508   1.177   3.625
 3364SOL    HW213901   5.404   1.278   3.668
 3364SOL     MW13902   5.458   1.245   3.606
 3365SOL     OW13903   4.466   1.146   1.903
 3365SOL    HW113904   4.388   1.092   1.890
 3365SOL    HW213905   4.437   1.219   1.956
 3365SOL     MW13906   4.452   1.148   1.908
 3366SOL     OW13907   5.592   0.886   3.095
 3366SOL    HW113908   5.608   0.924   3.008
 3366SOL    HW213909   5.626   0.952   3.156
 3366SOL     MW13910   5.599   0.899   3.091
 3367SOL     OW13911   5.384   1.595   2.764
 3367SOL    HW113912   5.413   1.662   2.825
 3367SOL    HW213913   5.365   1.519   2.819
 3367SOL     MW13914   5.386   1.595   2.779
 3368SOL     OW13915   5.047   1.662   1.971
 3368SOL    HW113916   4.973   1.625   2.021
 3368SOL    HW213917   5.055   1.752   2.004
 3368SOL     MW13918   5.038   1.669   1.983
 3369SOL     OW13919   3.855   0.668   3.060
 3369SOL    HW113920   3.917   0.698   3.126
 3369SOL    HW213921   3.789   0.737   3.054
 3369SOL     MW13922   3.854   0.681   3.067
 3370SOL     OW13923   5.271   1.336   1.913
 3370SOL    HW113924   5.218   1.385   1.849
 3370SOL    HW213925   5.302   1.402   1.974
 3370SOL     MW13926   5.269   1.350   1.911
 3371SOL     OW13927   4.496   0.225   1.968
 3371SOL    HW113928   4.444   0.145   1.956
 3371SOL    HW213929   4.583   0.202   1.936
 3371SOL     MW13930   4.499   0.211   1.962
 3372SOL     OW13931   3.950   1.777   3.512
 3372SOL    HW113932   3.924   1.845   3.450
 3372SOL    HW213933   3.998   1.714   3.460
 3372SOL     MW13934   3.952   1.777   3.498
 3373SOL     OW13935   4.002   1.096   3.019
 3373SOL    HW113936   4.055   1.171   3.044
 3373SOL    HW213937   3.921   1.134   2.985
 3373SOL     MW13938   3.998   1.111   3.019
 3374SOL     OW13939   4.542   1.000   3.007
 3374SOL    HW113940   4.570   0.909   3.019
 3374SOL    HW213941   4.471   0.994   2.943
 3374SOL     MW13942   4.535   0.988   3.002
 3375SOL     OW13943   3.857   0.865   2.425
 3375SOL    HW113944   3.948   0.880   2.452
 3375SOL    HW213945   3.860   0.786   2.371
 3375SOL     MW13946   3.869   0.857   2.423
 3376SOL     OW13947   4.093   0.573   3.679
 3376SOL    HW113948   4.040   0.653   3.686
 3376SOL    HW213949   4.163   0.585   3.744
 3376SOL     MW13950   4.095   0.586   3.687
 3377SOL     OW13951   4.479   0.123   3.386
 3377SOL    HW113952   4.456   0.031   3.388
 3377SOL    HW213953   4.565   0.125   3.343
 3377SOL     MW13954   4.486   0.113   3.382
 3378SOL     OW13955   4.163   0.647   3.425
 3378SOL    HW113956   4.243   0.697   3.411
 3378SOL    HW213957   4.154   0.641   3.520
 3378SOL     MW13958   4.172   0.653   3.435
 3379SOL     OW13959   4.484   1.797   2.799
 3379SOL    HW113960   4.573   1.812   2.829
 3379SOL    HW213961   4.479   1.844   2.715
 3379SOL     MW13962   4.494   1.805   2.792
 3380SOL     OW13963   5.140   0.172   3.696
 3380SOL    HW113964   5.196   0.099   3.722
 3380SOL    HW213965   5.110   0.210   3.778
 3380SOL     MW13966   5.144   0.167   3.709
 3381SOL     OW13967   3.865   1.477   2.464
 3381SOL    HW113968   3.837   1.516   2.546
 3381SOL    HW213969   3.885   1.386   2.486
 3381SOL     MW13970   3.863   1.469   2.477
 3382SOL     OW13971   4.698   1.520   2.499
 3382SOL    HW113972   4.781   1.474   2.483
 3382SOL    HW213973   4.688   1.519   2.595
 3382SOL     MW13974   4.708   1.513   2.509
 3383SOL     OW13975   5.530   0.665   2.813
 3383SOL    HW113976   5.619   0.695   2.795
 3383SOL    HW213977   5.510   0.605   2.742
 3383SOL     MW13978   5.539   0.662   2.802
 3384SOL     OW13979   5.381   0.844   3.693
 3384SOL    HW113980   5.436   0.768   3.674
 3384SOL    HW213981   5.383   0.852   3.788
 3384SOL     MW13982   5.389   0.835   3.701
 3385SOL     OW13983   4.431   1.577   1.904
 3385SOL    HW113984   4.371   1.646   1.874
 3385SOL    HW213985   4.376   1.519   1.957
 3385SOL     MW13986   4.415   1.579   1.906
 3386SOL     OW13987   4.869   0.222   2.127
 3386SOL    HW113988   4.802   0.198   2.064
 3386SOL    HW213989   4.934   0.271   2.076
 3386SOL     MW13990   4.869   0.224   2.112
 3387SOL     OW13991   4.676   0.406   3.212
 3387SOL    HW113992   4.595   0.447   3.240
 3387SOL    HW213993   4.723   0.474   3.164
 3387SOL     MW13994   4.671   0.421   3.210
 3388SOL     OW13995   4.936   0.744   2.835
 3388SOL    HW113996   4.949   0.838   2.845
 3388SOL    HW213997   4.897   0.734   2.749
 3388SOL     MW13998   4.932   0.755   2.825
 3389SOL     OW13999   4.388   0.939   2.639
 3389SOL    HW114000   4.299   0.930   2.672
 3389SOL    HW214001   4.392   1.029   2.607
 3389SOL     MW14002   4.377   0.950   2.639
 3390SOL     OW14003   5.187   0.522   2.634
 3390SOL    HW114004   5.132   0.443   2.633
 3390SOL    HW214005   5.169   0.563   2.718
 3390SOL     MW14006   5.177   0.517   2.643
 3391SOL     OW14007   4.158   0.209   3.451
 3391SOL    HW114008   4.079   0.227   3.503
 3391SOL    HW214009   4.153   0.271   3.378
 3391SOL     MW14010   4.148   0.219   3.448
 3392SOL     OW14011   4.806   0.726   2.591
 3392SOL    HW114012   4.743   0.658   2.615
 3392SOL    HW214013   4.826   0.707   2.499
 3392SOL     MW14014   4.800   0.713   2.583
 3393SOL     OW14015   4.062   1.621   2.293
 3393SOL    HW114016   4.023   1.668   2.219
 3393SOL    HW214017   3.996   1.556   2.318
 3393SOL     MW14018   4.049   1.619   2.287
 3394SOL     OW14019   4.554   1.030   2.317
 3394SOL    HW114020   4.556   1.004   2.224
 3394SOL    HW214021   4.612   0.967   2.360
 3394SOL     MW14022   4.562   1.019   2.311
 3395SOL     OW14023   5.107   1.590   3.089
 3395SOL    HW114024   5.032   1.636   3.127
 3395SOL    HW214025   5.089   1.497   3.106
 3395SOL     MW14026   5.096   1.584   3.097
 3396SOL     OW14027   5.111   1.798   2.519
 3396SOL    HW114028   5.054   1.751   2.458
 3396SOL    HW214029   5.197   1.759   2.506
 3396SOL     MW14030   5.114   1.789   2.509
 3397SOL     OW14031   5.064   0.274   2.650
 3397SOL    HW114032   5.092   0.206   2.711
 3397SOL    HW214033   4.978   0.245   2.620
 3397SOL     MW14034   5.057   0.261   2.654
 3398SOL     OW14035   3.869   1.208   2.584
 3398SOL    HW114036   3.933   1.240   2.647
 3398SOL    HW214037   3.918   1.144   2.532
 3398SOL     MW14038   3.884   1.204   2.585
 3399SOL     OW14039   4.369   1.284   3.566
 3399SOL    HW114040   4.417   1.367   3.553
 3399SOL    HW214041   4.426   1.232   3.622
 3399SOL     MW14042   4.383   1.288   3.572
 3400SOL     OW14043   3.945   1.526   3.706
 3400SOL    HW114044   4.001   1.450   3.721
 3400SOL    HW214045   3.894   1.504   3.628
 3400SOL     MW14046   3.945   1.513   3.697
 3401SOL     OW14047   5.044   0.378   1.985
 3401SOL    HW114048   5.017   0.444   1.921
 3401SOL    HW214049   5.114   0.421   2.035
 3401SOL     MW14050   5.049   0.391   1.982
 3402SOL     OW14051   4.712   0.083   1.922
 3402SOL    HW114052   4.768   0.075   1.844
 3402SOL    HW214053   4.689  -0.007   1.944
 3402SOL     MW14054   4.717   0.070   1.915
 3403SOL     OW14055   5.217   0.934   2.127
 3403SOL    HW114056   5.184   1.023   2.117
 3403SOL    HW214057   5.182   0.905   2.212
 3403SOL     MW14058   5.207   0.943   2.138
 3404SOL     OW14059   4.830   1.363   3.315
 3404SOL    HW114060   4.741   1.369   3.283
 3404SOL    HW214061   4.874   1.442   3.283
 3404SOL     MW14062   4.825   1.373   3.307
 3405SOL     OW14063   4.123   0.031   3.657
 3405SOL    HW114064   4.051  -0.004   3.605
 3405SOL    HW214065   4.181   0.072   3.592
 3405SOL     MW14066   4.121   0.032   3.642
 3406SOL     OW14067   4.147   1.521   2.956
 3406SOL    HW114068   4.192   1.583   3.013
 3406SOL    HW214069   4.054   1.540   2.969
 3406SOL     MW14070   4.140   1.531   2.963
 3407SOL     OW14071   5.587   1.050   3.310
 3407SOL    HW114072   5.502   1.063   3.269
 3407SOL    HW214073   5.567   1.014   3.397
 3407SOL     MW14074   5.574   1.046   3.315
 3408SOL     OW14075   4.569   1.589   3.064
 3408SOL    HW114076   4.593   1.578   2.973
 3408SOL    HW214077   4.492   1.646   3.062
 3408SOL     MW14078   4.561   1.594   3.053
 3409SOL     OW14079   4.211   0.972   1.919
 3409SOL    HW114080   4.134   0.985   1.975
 3409SOL    HW214081   4.175   0.936   1.838
 3409SOL     MW14082   4.197   0.968   1.916
 3410SOL     OW14083   4.864   0.945   2.162
 3410SOL    HW114084   4.774   0.966   2.137
 3410SOL    HW214085   4.891   1.018   2.218
 3410SOL     MW14086   4.856   0.957   2.165
 3411SOL     OW14087   4.364   1.294   2.854
 3411SOL    HW114088   4.357   1.273   2.948
 3411SOL    HW214089   4.282   1.262   2.817
 3411SOL     MW14090   4.352   1.288   2.861
 3412SOL     OW14091   5.228   0.304   3.256
 3412SOL    HW114092   5.175   0.306   3.336
 3412SOL    HW214093   5.213   0.217   3.219
 3412SOL     MW14094   5.220   0.294   3.261
 3413SOL     OW14095   5.564   0.228   3.129
 3413SOL    HW114096   5.545   0.295   3.064
 3413SOL    HW214097   5.621   0.166   3.084
 3413SOL     MW14098   5.568   0.229   3.115
 3414SOL     OW14099   3.810   1.386   3.517
 3414SOL    HW114100   3.854   1.319   3.463
 3414SOL    HW214101   3.725   1.348   3.537
 3414SOL     MW14102   3.805   1.372   3.513
 3415SOL     OW14103   4.493   0.061   2.569
 3415SOL    HW114104   4.422   0.122   2.551
 3415SOL    HW214105   4.544   0.058   2.488
 3415SOL     MW14106   4.489   0.067   2.556
 3416SOL     OW14107   4.251   1.301   2.318
 3416SOL    HW114108   4.244   1.333   2.408
 3416SOL    HW214109   4.161   1.285   2.290
 3416SOL     MW14110   4.239   1.303   2.325
 3417SOL     OW14111   4.846   1.694   3.227
 3417SOL    HW114112   4.766   1.679   3.177
 3417SOL    HW214113   4.853   1.789   3.234
 3417SOL     MW14114   4.837   1.705   3.221
 3418SOL     OW14115   4.960   1.659   2.717
 3418SOL    HW114116   5.007   1.732   2.676
 3418SOL    HW214117   4.881   1.698   2.753
 3418SOL     MW14118   4.955   1.674   2.716
 3419SOL     OW14119   5.368   1.754   2.992
 3419SOL    HW114120   5.411   1.724   3.072
 3419SOL    HW214121   5.287   1.702   2.989
 3419SOL     MW14122   5.363   1.743   3.002
 3420SOL     OW14123   4.453   0.718   3.699
 3420SOL    HW114124   4.523   0.660   3.671
 3420SOL    HW214125   4.396   0.663   3.754
 3420SOL     MW14126   4.455   0.705   3.703
 3421SOL     OW14127   5.240   0.930   3.332
 3421SOL    HW114128   5.245   0.983   3.412
 3421SOL    HW214129   5.202   0.847   3.360
 3421SOL     MW14130   5.236   0.925   3.347
 3422SOL     OW14131   4.880   0.065   3.578
 3422SOL    HW114132   4.875  -0.028   3.559
 3422SOL    HW214133   4.963   0.076   3.624
 3422SOL     MW14134   4.888   0.054   3.582
 3423SOL     OW14135   4.254   0.585   2.032
 3423SOL    HW114136   4.220   0.641   2.102
 3423SOL    HW214137   4.325   0.535   2.072
 3423SOL     MW14138   4.260   0.586   2.046
 3424SOL     OW14139   5.350   1.336   2.854
 3424SOL    HW114140   5.385   1.318   2.767
 3424SOL    HW214141   5.255   1.337   2.841
 3424SOL     MW14142   5.342   1.333   2.841
 3425SOL     OW14143   4.779   0.984   3.223
 3425SOL    HW114144   4.822   1.019   3.301
 3425SOL    HW214145   4.762   1.061   3.169
 3425SOL     MW14146   4.782   0.999   3.226
 3426SOL     OW14147   5.310   0.471   2.096
 3426SOL    HW114148   5.302   0.542   2.033
 3426SOL    HW214149   5.328   0.515   2.179
 3426SOL     MW14150   5.311   0.485   2.098
 3427SOL     OW14151   4.170   0.126   2.525
 3427SOL    HW114152   4.220   0.169   2.456
 3427SOL    HW214153   4.085   0.170   2.525
 3427SOL     MW14154   4.167   0.139   2.516
 3428SOL     OW14155   3.929   1.188   3.385
 3428SOL    HW114156   3.957   1.141   3.463
 3428SOL    HW214157   3.850   1.143   3.356
 3428SOL     MW14158   3.922   1.177   3.391
 3429SOL     OW14159   4.437   0.515   3.352
 3429SOL    HW114160   4.409   0.603   3.376
 3429SOL    HW214161   4.406   0.459   3.423
 3429SOL     MW14162   4.429   0.518   3.364
 3430SOL     OW14163   4.979   0.733   2.071
 3430SOL    HW114164   5.026   0.751   1.990
 3430SOL    HW214165   4.945   0.817   2.099
 3430SOL     MW14166   4.981   0.747   2.064
 3431SOL     OW14167   4.092   0.911   2.565
 3431SOL    HW114168   4.150   0.967   2.513
 3431SOL    HW214169   4.136   0.826   2.567
 3431SOL     MW14170   4.105   0.908   2.558
 3432SOL     OW14171   5.232   0.263   2.402
 3432SOL    HW114172   5.154   0.213   2.427
 3432SOL    HW214173   5.203   0.354   2.402
 3432SOL     MW14174   5.218   0.267   2.405
 3433SOL     OW14175   4.818   0.225   2.561
 3433SOL    HW114176   4.838   0.300   2.505
 3433SOL    HW214177   4.798   0.264   2.646
 3433SOL     MW14178   4.819   0.241   2.565
 3434SOL     OW14179   4.714   1.475   1.893
 3434SOL    HW114180   4.741   1.553   1.845
 3434SOL    HW214181   4.621   1.490   1.912
 3434SOL     MW14182   4.705   1.488   1.889
 3435SOL     OW14183   5.578   0.998   3.580
 3435SOL    HW114184   5.491   0.978   3.616
 3435SOL    HW214185   5.632   0.924   3.605
 3435SOL     MW14186   5.573   0.987   3.588
 3436SOL     OW14187   3.799   1.511   2.737
 3436SOL    HW114188   3.831   1.515   2.828
 3436SOL    HW214189   3.704   1.519   2.745
 3436SOL     MW14190   3.791   1.514   2.750
 3437SOL     OW14191   3.754   0.637   2.284
 3437SOL    HW114192   3.694   0.609   2.354
 3437SOL    HW214193   3.828   0.577   2.290
 3437SOL     MW14194   3.756   0.626   2.293
 3438SOL     OW14195   5.322   1.849   3.718
 3438SOL    HW114196   5.367   1.773   3.683
 3438SOL    HW214197   5.360   1.862   3.805
 3438SOL     MW14198   5.332   1.842   3.724
 3439SOL     OW14199   4.922   1.368   2.444
 3439SOL    HW114200   4.945   1.319   2.522
 3439SOL    HW214201   5.003   1.410   2.416
 3439SOL     MW14202   4.935   1.368   2.451
 3440SOL     OW14203   4.180   0.376   3.173
 3440SOL    HW114204   4.213   0.457   3.213
 3440SOL    HW214205   4.153   0.402   3.085
 3440SOL     MW14206   4.179   0.390   3.167
 3441SOL     OW14207   4.134   0.343   2.909
 3441SOL    HW114208   4.164   0.257   2.880
 3441SOL    HW214209   4.039   0.336   2.912
 3441SOL     MW14210   4.126   0.332   2.907
 3442SOL     OW14211   4.963   0.552   3.600
 3442SOL    HW114212   5.015   0.487   3.553
 3442SOL    HW214213   4.921   0.603   3.530
 3442SOL     MW14214   4.964   0.549   3.583
 3443SOL     OW14215   5.062   0.347   3.461
 3443SOL    HW114216   4.969   0.331   3.448
 3443SOL    HW214217   5.088   0.285   3.529
 3443SOL     MW14218   5.052   0.337   3.468
 3444SOL     OW14219   4.277   0.121   2.800
 3444SOL    HW114220   4.287   0.030   2.826
 3444SOL    HW214221   4.233   0.117   2.715
 3444SOL     MW14222   4.273   0.109   2.792
 3445SOL     OW14223   4.371   1.736   3.346
 3445SOL    HW114224   4.288   1.721   3.391
 3445SOL    HW214225   4.430   1.669   3.381
 3445SOL     MW14226   4.369   1.726   3.356
 3446SOL     OW14227   5.428   0.443   2.971
 3446SOL    HW114228   5.361   0.476   3.031
 3446SOL    HW214229   5.471   0.521   2.937
 3446SOL     MW14230   5.426   0.458   2.975
 3447SOL     OW14231   5.606   1.163   2.941
 3447SOL    HW114232   5.599   1.103   2.866
 3447SOL    HW214233   5.532   1.223   2.930
 3447SOL     MW14234   5.596   1.163   2.930
 3448SOL     OW14235   4.988   1.025   2.859
 3448SOL    HW114236   5.002   0.997   2.950
 3448SOL    HW214237   5.074   1.056   2.831
 3448SOL     MW14238   5.001   1.026   2.868
 3449SOL     OW14239   5.071   0.520   3.138
 3449SOL    HW114240   5.092   0.521   3.045
 3449SOL    HW214241   5.116   0.442   3.171
 3449SOL     MW14242   5.078   0.510   3.130
 3450SOL     OW14243   5.564   0.651   3.680
 3450SOL    HW114244   5.601   0.596   3.749
 3450SOL    HW214245   5.589   0.608   3.598
 3450SOL     MW14246   5.571   0.639   3.679
 3451SOL     OW14247   5.111   0.949   3.731
 3451SOL    HW114248   5.177   0.897   3.685
 3451SOL    HW214249   5.131   0.936   3.824
 3451SOL     MW14250   5.122   0.940   3.738
 3452SOL     OW14251   5.062   0.035   2.080
 3452SOL    HW114252   5.136   0.079   2.123
 3452SOL    HW214253   4.986   0.089   2.102
 3452SOL     MW14254   5.062   0.047   2.088
 3453SOL     OW14255   5.122   0.810   2.358
 3453SOL    HW114256   5.037   0.780   2.328
 3453SOL    HW214257   5.114   0.817   2.453
 3453SOL     MW14258   5.110   0.808   2.367
 3454SOL     OW14259   4.198   1.273   3.089
 3454SOL    HW114260   4.210   1.300   3.180
 3454SOL    HW214261   4.179   1.354   3.042
 3454SOL     MW14262   4.197   1.288   3.094
 3455SOL     OW14263   4.482   0.253   2.912
 3455SOL    HW114264   4.455   0.255   3.003
 3455SOL    HW214265   4.412   0.205   2.867
 3455SOL     MW14266   4.470   0.249   2.919
 3456SOL     OW14267   4.336   1.745   3.074
 3456SOL    HW114268   4.388   1.822   3.051
 3456SOL    HW214269   4.345   1.737   3.169
 3456SOL     MW14270   4.345   1.752   3.085
 3457SOL     OW14271   5.238   1.330   3.306
 3457SOL    HW114272   5.223   1.259   3.369
 3457SOL    HW214273   5.284   1.288   3.234
 3457SOL     MW14274   5.244   1.314   3.306
 3458SOL     OW14275   4.312   1.061   3.423
 3458SOL    HW114276   4.349   1.066   3.335
 3458SOL    HW214277   4.351   1.134   3.470
 3458SOL     MW14278   4.322   1.071   3.418
 3459SOL     OW14279   4.492   1.104   3.235
 3459SOL    HW114280   4.551   1.050   3.288
 3459SOL    HW214281   4.507   1.076   3.145
 3459SOL     MW14282   4.502   1.093   3.231
 3460SOL     OW14283   4.495   0.476   2.084
 3460SOL    HW114284   4.568   0.525   2.047
 3460SOL    HW214285   4.511   0.385   2.058
 3460SOL     MW14286   4.507   0.471   2.077
 3461SOL     OW14287   5.303   1.593   3.407
 3461SOL    HW114288   5.345   1.578   3.492
 3461SOL    HW214289   5.294   1.506   3.369
 3461SOL     MW14290   5.307   1.581   3.414
 3462SOL     OW14291   4.963   0.072   2.998
 3462SOL    HW114292   5.018   0.081   2.920
 3462SOL    HW214293   5.018   0.106   3.069
 3462SOL     MW14294   4.977   0.077   2.997
 3463SOL     OW14295   3.970   0.985   2.182
 3463SOL    HW114296   3.907   1.001   2.111
 3463SOL    HW214297   3.917   0.948   2.253
 3463SOL     MW14298   3.955   0.982   2.182
 3464SOL     OW14299   4.326   1.339   2.041
 3464SOL    HW114300   4.341   1.315   2.133
 3464SOL    HW214301   4.234   1.317   2.025
 3464SOL     MW14302   4.316   1.332   2.051
 3465SOL     OW14303   4.865   1.570   2.193
 3465SOL    HW114304   4.873   1.488   2.144
 3465SOL    HW214305   4.784   1.609   2.160
 3465SOL     MW14306   4.855   1.565   2.183
 3466SOL     OW14307   4.124   1.728   2.762
 3466SOL    HW114308   4.128   1.639   2.797
 3466SOL    HW214309   4.150   1.719   2.671
 3466SOL     MW14310   4.127   1.716   2.754
 3467SOL     OW14311   4.741   1.206   3.005
 3467SOL    HW114312   4.673   1.140   3.021
 3467SOL    HW214313   4.759   1.200   2.912
 3467SOL     MW14314   4.734   1.197   2.996
 3468SOL     OW14315   3.830   1.481   3.256
 3468SOL    HW114316   3.820   1.439   3.342
 3468SOL    HW214317   3.751   1.534   3.246
 3468SOL     MW14318   3.819   1.482   3.267
 3469SOL     OW14319   4.734   0.345   2.826
 3469SOL    HW114320   4.664   0.297   2.871
 3469SOL    HW214321   4.766   0.408   2.890
 3469SOL     MW14322   4.729   0.347   2.840
 3470SOL     OW14323   4.385   0.781   3.446
 3470SOL    HW114324   4.378   0.876   3.434
 3470SOL    HW214325   4.394   0.770   3.541
 3470SOL     MW14326   4.386   0.793   3.456
 3471SOL     OW14327   4.106   1.296   3.704
 3471SOL    HW114328   4.178   1.298   3.641
 3471SOL    HW214329   4.076   1.205   3.703
 3471SOL     MW14330   4.111   1.285   3.696
 3472SOL     OW14331   5.190   0.059   3.171
 3472SOL    HW114332   5.261   0.005   3.135
 3472SOL    HW214333   5.189   0.038   3.264
 3472SOL     MW14334   5.199   0.050   3.179
 3473SOL     OW14335   5.390   1.589   3.655
 3473SOL    HW114336   5.363   1.586   3.746
 3473SOL    HW214337   5.486   1.593   3.658
 3473SOL     MW14338   5.400   1.589   3.667
 3474SOL     OW14339   4.201   0.451   2.639
 3474SOL    HW114340   4.272   0.399   2.602
 3474SOL    HW214341   4.187   0.416   2.726
 3474SOL     MW14342   4.209   0.440   2.646
 3475SOL     OW14343   3.756   1.786   3.711
 3475SOL    HW114344   3.806   1.764   3.633
 3475SOL    HW214345   3.764   1.881   3.719
 3475SOL     MW14346   3.764   1.795   3.702
 3476SOL     OW14347   4.517   1.544   2.715
 3476SOL    HW114348   4.445   1.481   2.728
 3476SOL    HW214349   4.478   1.629   2.733
 3476SOL     MW14350   4.501   1.547   2.718
 3477SOL     OW14351   4.837   0.392   2.363
 3477SOL    HW114352   4.859   0.329   2.295
 3477SOL    HW214353   4.742   0.384   2.374
 3477SOL     MW14354   4.827   0.383   2.355
 3478SOL     OW14355   3.922   0.082   2.295
 3478SOL    HW114356   3.993   0.103   2.234
 3478SOL    HW214357   3.876   0.010   2.253
 3478SOL     MW14358   3.926   0.076   2.281
 3479SOL     OW14359   3.753   0.549   3.438
 3479SOL    HW114360   3.817   0.615   3.413
 3479SOL    HW214361   3.672   0.576   3.395
 3479SOL     MW14362   3.751   0.561   3.430
 3480SOL     OW14363   5.491   1.456   2.395
 3480SOL    HW114364   5.461   1.389   2.456
 3480SOL    HW214365   5.585   1.462   2.409
 3480SOL     MW14366   5.499   1.448   2.405
 3481SOL     OW14367   5.047   1.133   2.325
 3481SOL    HW114368   5.019   1.219   2.358
 3481SOL    HW214369   5.075   1.149   2.235
 3481SOL     MW14370   5.047   1.147   2.317
 3482SOL     OW14371   4.709   0.053   2.378
 3482SOL    HW114372   4.746   0.112   2.443
 3482SOL    HW214373   4.686   0.109   2.304
 3482SOL     MW14374   4.710   0.068   2.377
 3483SOL     OW14375   5.562   0.935   2.800
 3483SOL    HW114376   5.553   0.967   2.711
 3483SOL    HW214377   5.515   0.851   2.800
 3483SOL     MW14378   5.555   0.928   2.790
 3484SOL     OW14379   3.938   0.775   3.379
 3484SOL    HW114380   3.959   0.844   3.317
 3484SOL    HW214381   4.018   0.722   3.384
 3484SOL     MW14382   3.951   0.776   3.373
 3485SOL     OW14383   5.474   0.866   2.501
 3485SOL    HW114384   5.568   0.855   2.489
 3485SOL    HW214385   5.450   0.938   2.442
 3485SOL     MW14386   5.484   0.874   2.492
 3486SOL     OW14387   3.923   0.790   3.646
 3486SOL    HW114388   3.849   0.734   3.672
 3486SOL    HW214389   3.918   0.793   3.551
 3486SOL     MW14390   3.912   0.783   3.636
 3487SOL     OW14391   4.089   0.077   3.096
 3487SOL    HW114392   4.132   0.161   3.116
 3487SOL    HW214393   4.162   0.015   3.089
 3487SOL     MW14394   4.104   0.080   3.097
 3488SOL     OW14395   4.130   0.744   2.274
 3488SOL    HW114396   4.130   0.839   2.259
 3488SOL    HW214397   4.207   0.728   2.328
 3488SOL     MW14398   4.140   0.755   2.279
 3489SOL     OW14399   4.906   0.603   3.338
 3489SOL    HW114400   4.942   0.576   3.254
 3489SOL    HW214401   4.819   0.637   3.317
 3489SOL     MW14402   4.900   0.604   3.325
 3490SOL     OW14403   3.889   0.475   2.563
 3490SOL    HW114404   3.951   0.482   2.636
 3490SOL    HW214405   3.889   0.382   2.540
 3490SOL     MW14406   3.897   0.464   2.570
 3491SOL     OW14407   5.436   1.815   2.095
 3491SOL    HW114408   5.503   1.848   2.035
 3491SOL    HW214409   5.393   1.894   2.129
 3491SOL     MW14410   5.438   1.830   2.091
 3492SOL     OW14411   4.571   0.736   3.047
 3492SOL    HW114412   4.529   0.654   3.023
 3492SOL    HW214413   4.572   0.735   3.143
 3492SOL     MW14414   4.564   0.725   3.056
 3493SOL     OW14415   5.242   1.869   3.446
 3493SOL    HW114416   5.245   1.775   3.429
 3493SOL    HW214417   5.265   1.877   3.538
 3493SOL     MW14418   5.245   1.857   3.456
 3494SOL     OW14419   4.375   0.206   3.152
 3494SOL    HW114420   4.306   0.269   3.173
 3494SOL    HW214421   4.402   0.170   3.237
 3494SOL     MW14422   4.369   0.209   3.165
 3495SOL     OW14423   3.758   1.047   2.021
 3495SOL    HW114424   3.727   1.112   2.084
 3495SOL    HW214425   3.707   0.969   2.040
 3495SOL     MW14426   3.748   1.044   2.031
 3496SOL     OW14427   5.170   0.059   2.769
 3496SOL    HW114428   5.258   0.068   2.806
 3496SOL    HW214429   5.180   0.000   2.695
 3496SOL     MW14430   5.184   0.053   2.763
 3497SOL     OW14431   5.202   0.798   2.613
 3497SOL    HW114432   5.282   0.813   2.562
 3497SOL    HW214433   5.195   0.703   2.619
 3497SOL     MW14434   5.211   0.787   2.608
 3498SOL     OW14435   4.342   1.847   1.963
 3498SOL    HW114436   4.247   1.847   1.955
 3498SOL    HW214437   4.358   1.793   2.041
 3498SOL     MW14438   4.332   1.841   1.972
 3499SOL     OW14439   4.652   0.724   3.310
 3499SOL    HW114440   4.721   0.791   3.307
 3499SOL    HW214441   4.585   0.762   3.366
 3499SOL     MW14442   4.653   0.737   3.317
 3500SOL     OW14443   4.070   1.024   3.558
 3500SOL    HW114444   4.024   0.940   3.560
 3500SOL    HW214445   4.127   1.018   3.482
 3500SOL     MW14446   4.072   1.012   3.550
 3501SOL     OW14447   5.187   0.667   1.879
 3501SOL    HW114448   5.115   0.643   1.821
 3501SOL    HW214449   5.253   0.704   1.821
 3501SOL     MW14450   5.186   0.669   1.864
 3502SOL     OW14451   4.321   1.399   2.559
 3502SOL    HW114452   4.386   1.332   2.580
 3502SOL    HW214453   4.373   1.476   2.536
 3502SOL     MW14454   4.336   1.401   2.558
 3503SOL     OW14455   4.582   0.564   2.689
 3503SOL    HW114456   4.522   0.582   2.761
 3503SOL    HW214457   4.616   0.476   2.708
 3503SOL     MW14458   4.578   0.554   2.702
 3504SOL     OW14459   5.523   0.063   3.358
 3504SOL    HW114460   5.444   0.109   3.386
 3504SOL    HW214461   5.558   0.117   3.287
 3504SOL     MW14462   5.517   0.076   3.352
 3505SOL     OW14463   4.807   1.147   2.708
 3505SOL    HW114464   4.899   1.128   2.726
 3505SOL    HW214465   4.780   1.077   2.648
 3505SOL     MW14466   4.815   1.135   2.702
 3506SOL     OW14467   4.600   0.967   2.063
 3506SOL    HW114468   4.586   0.879   2.028
 3506SOL    HW214469   4.551   1.024   2.004
 3506SOL     MW14470   4.592   0.962   2.051
 3507SOL     OW14471   5.081   1.385   2.804
 3507SOL    HW114472   5.054   1.469   2.769
 3507SOL    HW214473   5.041   1.380   2.891
 3507SOL     MW14474   5.074   1.394   2.810
 3508SOL     OW14475   5.000   1.333   3.072
 3508SOL    HW114476   5.011   1.300   3.161
 3508SOL    HW214477   4.919   1.292   3.041
 3508SOL     MW14478   4.990   1.325   3.078
 3509SOL     OW14479   4.013   0.691   2.842
 3509SOL    HW114480   3.963   0.690   2.923
 3509SOL    HW214481   4.033   0.783   2.826
 3509SOL     MW14482   4.009   0.703   2.850
 3510SOL     OW14483   5.080   1.455   3.604
 3510SOL    HW114484   5.080   1.549   3.620
 3510SOL    HW214485   5.125   1.445   3.520
 3510SOL     MW14486   5.086   1.465   3.595
 3511SOL     OW14487   5.319   0.173   2.165
 3511SOL    HW114488   5.312   0.177   2.260
 3511SOL    HW214489   5.331   0.264   2.138
 3511SOL     MW14490   5.320   0.186   2.173
 3512SOL     OW14491   4.608   0.736   2.279
 3512SOL    HW114492   4.588   0.722   2.186
 3512SOL    HW214493   4.701   0.715   2.286
 3512SOL     MW14494   4.618   0.731   2.268
 3513SOL     OW14495   3.935   0.359   3.583
 3513SOL    HW114496   3.892   0.418   3.520
 3513SOL    HW214497   4.003   0.414   3.623
 3513SOL     MW14498   3.939   0.374   3.580
 3514SOL     OW14499   5.047   0.979   3.128
 3514SOL    HW114500   5.110   0.976   3.201
 3514SOL    HW214501   4.963   0.997   3.170
 3514SOL     MW14502   5.043   0.981   3.143
 3515SOL     OW14503   4.591   1.694   2.317
 3515SOL    HW114504   4.649   1.765   2.344
 3515SOL    HW214505   4.614   1.622   2.375
 3515SOL     MW14506   4.602   1.694   2.328
 3516SOL     OW14507   5.386   0.156   2.907
 3516SOL    HW114508   5.431   0.074   2.926
 3516SOL    HW214509   5.406   0.212   2.983
 3516SOL     MW14510   5.396   0.152   2.919
 3517SOL     OW14511   3.834  -0.001   3.006
 3517SOL    HW114512   3.825   0.000   2.911
 3517SOL    HW214513   3.928   0.011   3.021
 3517SOL     MW14514   3.846   0.002   2.997
 3518SOL     OW14515   5.471   1.192   2.626
 3518SOL    HW114516   5.450   1.138   2.549
 3518SOL    HW214517   5.567   1.190   2.630
 3518SOL     MW14518   5.480   1.185   2.615
 3519SOL     OW14519   4.163   1.337   3.369
 3519SOL    HW114520   4.084   1.287   3.392
 3519SOL    HW214521   4.233   1.296   3.419
 3519SOL     MW14522   4.161   1.325   3.379
 3520SOL     OW14523   4.047   0.126   2.052
 3520SOL    HW114524   3.976   0.181   2.020
 3520SOL    HW214525   4.089   0.092   1.973
 3520SOL     MW14526   4.043   0.128   2.038
 3521SOL     OW14527   5.171   0.623   2.888
 3521SOL    HW114528   5.094   0.669   2.854
 3521SOL    HW214529   5.228   0.692   2.922
 3521SOL     MW14530   5.168   0.638   2.888
 3522SOL     OW14531   3.803   0.225   1.901
 3522SOL    HW114532   3.770   0.304   1.945
 3522SOL    HW214533   3.858   0.258   1.830
 3522SOL     MW14534   3.806   0.239   1.898
 3523SOL     OW14535   3.837   1.482   2.090
 3523SOL    HW114536   3.854   1.566   2.132
 3523SOL    HW214537   3.872   1.491   2.002
 3523SOL     MW14538   3.842   1.495   2.084
 3524SOL     OW14539   5.109   1.571   2.307
 3524SOL    HW114540   5.172   1.561   2.236
 3524SOL    HW214541   5.026   1.591   2.262
 3524SOL     MW14542   5.106   1.572   2.292
 3525SOL     OW14543   5.472   0.839   3.993
 3525SOL    HW114544   5.513   0.781   4.058
 3525SOL    HW214545   5.379   0.831   4.010
 3525SOL     MW14546   5.466   0.831   4.003
 3526SOL     OW14547   5.382   1.725   4.364
 3526SOL    HW114548   5.394   1.671   4.442
 3526SOL    HW214549   5.419   1.673   4.293
 3526SOL     MW14550   5.388   1.710   4.365
 3527SOL     OW14551   5.105   1.170   3.941
 3527SOL    HW114552   5.023   1.206   3.907
 3527SOL    HW214553   5.173   1.213   3.890
 3527SOL     MW14554   5.103   1.180   3.929
 3528SOL     OW14555   4.657   1.311   4.134
 3528SOL    HW114556   4.634   1.373   4.202
 3528SOL    HW214557   4.614   1.229   4.160
 3528SOL     MW14558   4.649   1.307   4.145
 3529SOL     OW14559   4.154   0.284   4.102
 3529SOL    HW114560   4.128   0.246   4.018
 3529SOL    HW214561   4.091   0.354   4.118
 3529SOL     MW14562   4.143   0.287   4.093
 3530SOL     OW14563   3.989   1.245   4.139
 3530SOL    HW114564   3.937   1.313   4.095
 3530SOL    HW214565   3.986   1.171   4.079
 3530SOL     MW14566   3.981   1.244   4.126
 3531SOL     OW14567   4.651   1.708   3.917
 3531SOL    HW114568   4.606   1.724   4.000
 3531SOL    HW214569   4.582   1.673   3.859
 3531SOL     MW14570   4.637   1.705   3.919
 3532SOL     OW14571   5.586   0.481   3.892
 3532SOL    HW114572   5.495   0.483   3.920
 3532SOL    HW214573   5.631   0.543   3.950
 3532SOL     MW14574   5.579   0.489   3.902
 3533SOL     OW14575   5.331   1.084   4.242
 3533SOL    HW114576   5.241   1.084   4.277
 3533SOL    HW214577   5.324   1.130   4.159
 3533SOL     MW14578   5.318   1.090   4.236
 3534SOL     OW14579   5.523   1.285   4.054
 3534SOL    HW114580   5.479   1.326   4.129
 3534SOL    HW214581   5.580   1.353   4.019
 3534SOL     MW14582   5.525   1.299   4.059
 3535SOL     OW14583   3.895   1.761   3.949
 3535SOL    HW114584   3.924   1.851   3.941
 3535SOL    HW214585   3.845   1.744   3.870
 3535SOL     MW14586   3.893   1.769   3.938
 3536SOL     OW14587   5.299   1.569   3.920
 3536SOL    HW114588   5.347   1.638   3.966
 3536SOL    HW214589   5.220   1.613   3.889
 3536SOL     MW14590   5.294   1.583   3.923
 3537SOL     OW14591   4.697   0.694   3.864
 3537SOL    HW114592   4.699   0.641   3.785
 3537SOL    HW214593   4.785   0.731   3.870
 3537SOL     MW14594   4.709   0.693   3.853
 3538SOL     OW14595   4.867   1.313   3.956
 3538SOL    HW114596   4.817   1.315   4.038
 3538SOL    HW214597   4.801   1.331   3.888
 3538SOL     MW14598   4.853   1.315   3.958
 3539SOL     OW14599   4.330   1.731   4.064
 3539SOL    HW114600   4.251   1.689   4.097
 3539SOL    HW214601   4.396   1.714   4.131
 3539SOL     MW14602   4.329   1.723   4.077
 3540SOL     OW14603   4.466   1.146   3.771
 3540SOL    HW114604   4.388   1.092   3.758
 3540SOL    HW214605   4.437   1.219   3.824
 3540SOL     MW14606   4.452   1.148   3.776
 3541SOL     OW14607   5.047   1.662   3.839
 3541SOL    HW114608   4.973   1.625   3.889
 3541SOL    HW214609   5.055   1.752   3.872
 3541SOL     MW14610   5.038   1.669   3.851
 3542SOL     OW14611   5.271   1.336   3.781
 3542SOL    HW114612   5.218   1.385   3.717
 3542SOL    HW214613   5.302   1.402   3.842
 3542SOL     MW14614   5.269   1.350   3.779
 3543SOL     OW14615   4.496   0.225   3.836
 3543SOL    HW114616   4.444   0.145   3.824
 3543SOL    HW214617   4.583   0.202   3.804
 3543SOL     MW14618   4.499   0.211   3.830
 3544SOL     OW14619   4.431   1.577   3.772
 3544SOL    HW114620   4.371   1.646   3.742
 3544SOL    HW214621   4.376   1.519   3.825
 3544SOL     MW14622   4.415   1.579   3.774
 3545SOL     OW14623   4.869   0.222   3.995
 3545SOL    HW114624   4.802   0.198   3.932
 3545SOL    HW214625   4.934   0.271   3.944
 3545SOL     MW14626   4.869   0.224   3.980
 3546SOL     OW14627   4.554   1.030   4.185
 3546SOL    HW114628   4.556   1.004   4.092
 3546SOL    HW214629   4.612   0.967   4.228
 3546SOL     MW14630   4.562   1.019   4.179
 3547SOL     OW14631   3.869   1.208   4.452
 3547SOL    HW114632   3.933   1.240   4.515
 3547SOL    HW214633   3.918   1.144   4.400
 3547SOL     MW14634   3.884   1.204   4.453
 3548SOL     OW14635   5.044   0.378   3.853
 3548SOL    HW114636   5.017   0.444   3.789
 3548SOL    HW214637   5.114   0.421   3.903
 3548SOL     MW14638   5.049   0.391   3.850
 3549SOL     OW14639   4.712   0.083   3.790
 3549SOL    HW114640   4.768   0.075   3.712
 3549SOL    HW214641   4.689  -0.007   3.812
 3549SOL     MW14642   4.717   0.070   3.783
 3550SOL     OW14643   5.217   0.934   3.995
 3550SOL    HW114644   5.184   1.023   3.985
 3550SOL    HW214645   5.182   0.905   4.080
 3550SOL     MW14646   5.207   0.943   4.006
 3551SOL     OW14647   4.211   0.972   3.787
 3551SOL    HW114648   4.134   0.985   3.843
 3551SOL    HW214649   4.175   0.936   3.706
 3551SOL     MW14650   4.197   0.968   3.784
 3552SOL     OW14651   4.254   0.585   3.900
 3552SOL    HW114652   4.220   0.641   3.970
 3552SOL    HW214653   4.325   0.535   3.940
 3552SOL     MW14654   4.260   0.586   3.914
 3553SOL     OW14655   5.310   0.471   3.964
 3553SOL    HW114656   5.302   0.542   3.901
 3553SOL    HW214657   5.328   0.515   4.047
 3553SOL     MW14658   5.311   0.485   3.966
 3554SOL     OW14659   4.979   0.733   3.939
 3554SOL    HW114660   5.026   0.751   3.858
 3554SOL    HW214661   4.945   0.817   3.967
 3554SOL     MW14662   4.981   0.747   3.932
 3555SOL     OW14663   4.714   1.475   3.761
 3555SOL    HW114664   4.741   1.553   3.713
 3555SOL    HW214665   4.621   1.490   3.780
 3555SOL     MW14666   4.705   1.488   3.757
 3556SOL     OW14667   5.062   0.035   3.948
 3556SOL    HW114668   5.136   0.079   3.991
 3556SOL    HW214669   4.986   0.089   3.970
 3556SOL     MW14670   5.062   0.047   3.956
 3557SOL     OW14671   4.495   0.476   3.952
 3557SOL    HW114672   4.568   0.525   3.915
 3557SOL    HW214673   4.511   0.385   3.926
 3557SOL     MW14674   4.507   0.471   3.945
 3558SOL     OW14675   4.326   1.339   3.909
 3558SOL    HW114676   4.341   1.315   4.001
 3558SOL    HW214677   4.234   1.317   3.893
 3558SOL     MW14678   4.316   1.332   3.919
 3559SOL     OW14679   4.865   1.570   4.061
 3559SOL    HW114680   4.873   1.488   4.012
 3559SOL    HW214681   4.784   1.609   4.028
 3559SOL     MW14682   4.855   1.565   4.051
 3560SOL     OW14683   3.922   0.082   4.163
 3560SOL    HW114684   3.993   0.103   4.102
 3560SOL    HW214685   3.876   0.010   4.121
 3560SOL     MW14686   3.926   0.076   4.149
 3561SOL     OW14687   5.047   1.133   4.193
 3561SOL    HW114688   5.019   1.219   4.226
 3561SOL    HW214689   5.075   1.149   4.103
 3561SOL     MW14690   5.047   1.147   4.185
 3562SOL     OW14691   5.436   1.815   3.963
 3562SOL    HW114692   5.503   1.848   3.903
 3562SOL    HW214693   5.393   1.894   3.997
 3562SOL     MW14694   5.438   1.830   3.959
 3563SOL     OW14695   3.758   1.047   3.889
 3563SOL    HW114696   3.727   1.112   3.952
 3563SOL    HW214697   3.707   0.969   3.908
 3563SOL     MW14698   3.748   1.044   3.899
 3564SOL     OW14699   4.342   1.847   3.831
 3564SOL    HW114700   4.247   1.847   3.823
 3564SOL    HW214701   4.358   1.793   3.909
 3564SOL     MW14702   4.332   1.841   3.840
 3565SOL     OW14703   5.187   0.667   3.747
 3565SOL    HW114704   5.115   0.643   3.689
 3565SOL    HW214705   5.253   0.704   3.689
 3565SOL     MW14706   5.186   0.669   3.732
 3566SOL     OW14707   4.321   1.399   4.427
 3566SOL    HW114708   4.386   1.332   4.448
 3566SOL    HW214709   4.373   1.476   4.404
 3566SOL     MW14710   4.336   1.401   4.426
 3567SOL     OW14711   4.600   0.967   3.931
 3567SOL    HW114712   4.586   0.879   3.896
 3567SOL    HW214713   4.551   1.024   3.872
 3567SOL     MW14714   4.592   0.962   3.919
 3568SOL     OW14715   5.319   0.173   4.033
 3568SOL    HW114716   5.312   0.177   4.128
 3568SOL    HW214717   5.331   0.264   4.006
 3568SOL     MW14718   5.320   0.186   4.041
 3569SOL     OW14719   4.608   0.736   4.147
 3569SOL    HW114720   4.588   0.722   4.054
 3569SOL    HW214721   4.701   0.715   4.154
 3569SOL     MW14722   4.618   0.731   4.136
 3570SOL     OW14723   4.591   1.694   4.185
 3570SOL    HW114724   4.649   1.765   4.212
 3570SOL    HW214725   4.614   1.622   4.243
 3570SOL     MW14726   4.602   1.694   4.196
 3571SOL     OW14727   4.047   0.126   3.920
 3571SOL    HW114728   3.976   0.181   3.888
 3571SOL    HW214729   4.089   0.092   3.841
 3571SOL     MW14730   4.043   0.128   3.906
 3572SOL     OW14731   3.803   0.225   3.769
 3572SOL    HW114732   3.770   0.304   3.813
 3572SOL    HW214733   3.858   0.258   3.698
 3572SOL     MW14734   3.806   0.239   3.766
 3573SOL     OW14735   3.837   1.482   3.958
 3573SOL    HW114736   3.854   1.566   4.000
 3573SOL    HW214737   3.872   1.491   3.870
 3573SOL     MW14738   3.842   1.495   3.952
 3574SOL     OW14739   5.109   1.571   4.175
 3574SOL    HW114740   5.172   1.561   4.104
 3574SOL    HW214741   5.026   1.591   4.130
 3574SOL     MW14742   5.106   1.572   4.160
 3575SOL     OW14743   5.338   2.639   1.252
 3575SOL    HW114744   5.293   2.706   1.303
 3575SOL    HW214745   5.426   2.675   1.238
 3575SOL     MW14746   5.344   2.652   1.256
 3576SOL     OW14747   4.266   2.890   0.486
 3576SOL    HW114748   4.356   2.865   0.470
 3576SOL    HW214749   4.262   2.983   0.463
 3576SOL     MW14750   4.278   2.899   0.481
 3577SOL     OW14751   5.382   3.593   0.628
 3577SOL    HW114752   5.394   3.539   0.706
 3577SOL    HW214753   5.419   3.541   0.557
 3577SOL     MW14754   5.388   3.578   0.629
 3578SOL     OW14755   4.761   3.478   1.629
 3578SOL    HW114756   4.802   3.514   1.550
 3578SOL    HW214757   4.796   3.389   1.636
 3578SOL     MW14758   4.772   3.471   1.620
 3579SOL     OW14759   5.318   3.033   1.233
 3579SOL    HW114760   5.239   2.998   1.191
 3579SOL    HW214761   5.345   3.105   1.177
 3579SOL     MW14762   5.311   3.038   1.220
 3580SOL     OW14763   4.550   2.346   0.499
 3580SOL    HW114764   4.525   2.434   0.527
 3580SOL    HW214765   4.547   2.349   0.403
 3580SOL     MW14766   4.546   2.358   0.491
 3581SOL     OW14767   3.992   2.374   0.427
 3581SOL    HW114768   4.024   2.462   0.409
 3581SOL    HW214769   3.980   2.372   0.522
 3581SOL     MW14770   3.995   2.386   0.439
 3582SOL     OW14771   4.070   2.787   1.328
 3582SOL    HW114772   4.133   2.734   1.279
 3582SOL    HW214773   4.051   2.861   1.271
 3582SOL     MW14774   4.076   2.789   1.315
 3583SOL     OW14775   4.391   2.129   0.514
 3583SOL    HW114776   4.449   2.205   0.516
 3583SOL    HW214777   4.326   2.150   0.447
 3583SOL     MW14778   4.390   2.141   0.505
 3584SOL     OW14779   4.478   3.056   0.689
 3584SOL    HW114780   4.558   3.059   0.741
 3584SOL    HW214781   4.506   3.023   0.603
 3584SOL     MW14782   4.492   3.052   0.684
 3585SOL     OW14783   4.503   3.397   1.592
 3585SOL    HW114784   4.587   3.423   1.631
 3585SOL    HW214785   4.527   3.341   1.518
 3585SOL     MW14786   4.517   3.393   1.587
 3586SOL     OW14787   4.255   2.560   0.680
 3586SOL    HW114788   4.240   2.480   0.731
 3586SOL    HW214789   4.337   2.595   0.714
 3586SOL     MW14790   4.263   2.552   0.692
 3587SOL     OW14791   4.592   3.246   1.365
 3587SOL    HW114792   4.556   3.312   1.305
 3587SOL    HW214793   4.520   3.184   1.378
 3587SOL     MW14794   4.578   3.246   1.359
 3588SOL     OW14795   4.397   2.386   1.057
 3588SOL    HW114796   4.303   2.382   1.075
 3588SOL    HW214797   4.427   2.295   1.066
 3588SOL     MW14798   4.388   2.374   1.060
 3589SOL     OW14799   4.143   2.800   0.961
 3589SOL    HW114800   4.098   2.807   0.877
 3589SOL    HW214801   4.123   2.883   1.005
 3589SOL     MW14802   4.135   2.812   0.955
 3590SOL     OW14803   3.840   3.646   0.836
 3590SOL    HW114804   3.929   3.638   0.871
 3590SOL    HW214805   3.804   3.558   0.841
 3590SOL     MW14806   3.847   3.633   0.841
 3591SOL     OW14807   4.104   3.173   0.871
 3591SOL    HW114808   4.080   3.226   0.947
 3591SOL    HW214809   4.160   3.231   0.819
 3591SOL     MW14810   4.108   3.188   0.874
 3592SOL     OW14811   4.666   2.817   0.681
 3592SOL    HW114812   4.580   2.804   0.721
 3592SOL    HW214813   4.719   2.744   0.713
 3592SOL     MW14814   4.662   2.806   0.690
 3593SOL     OW14815   4.074   3.469   1.466
 3593SOL    HW114816   3.982   3.445   1.451
 3593SOL    HW214817   4.118   3.386   1.483
 3593SOL     MW14818   4.068   3.454   1.465
 3594SOL     OW14819   4.657   3.179   0.398
 3594SOL    HW114820   4.634   3.241   0.466
 3594SOL    HW214821   4.614   3.097   0.424
 3594SOL     MW14822   4.649   3.175   0.409
 3595SOL     OW14823   5.530   2.180   0.854
 3595SOL    HW114824   5.467   2.160   0.923
 3595SOL    HW214825   5.520   2.109   0.791
 3595SOL     MW14826   5.520   2.167   0.855
 3596SOL     OW14827   5.331   2.952   0.506
 3596SOL    HW114828   5.241   2.952   0.541
 3596SOL    HW214829   5.324   2.998   0.423
 3596SOL     MW14830   5.318   2.958   0.500
 3597SOL     OW14831   5.131   2.587   1.578
 3597SOL    HW114832   5.200   2.525   1.555
 3597SOL    HW214833   5.056   2.561   1.525
 3597SOL     MW14834   5.131   2.574   1.569
 3598SOL     OW14835   3.872   3.467   1.130
 3598SOL    HW114836   3.855   3.413   1.207
 3598SOL    HW214837   3.860   3.557   1.160
 3598SOL     MW14838   3.869   3.471   1.144
 3599SOL     OW14839   4.867   2.974   1.570
 3599SOL    HW114840   4.852   3.067   1.555
 3599SOL    HW214841   4.962   2.964   1.570
 3599SOL     MW14842   4.876   2.984   1.567
 3600SOL     OW14843   4.663   2.398   1.771
 3600SOL    HW114844   4.753   2.399   1.738
 3600SOL    HW214845   4.622   2.323   1.729
 3600SOL     MW14846   4.669   2.388   1.762
 3601SOL     OW14847   5.238   2.930   0.898
 3601SOL    HW114848   5.241   2.864   0.829
 3601SOL    HW214849   5.323   2.973   0.894
 3601SOL     MW14850   5.250   2.926   0.889
 3602SOL     OW14851   4.858   2.533   0.467
 3602SOL    HW114852   4.884   2.557   0.378
 3602SOL    HW214853   4.840   2.440   0.463
 3602SOL     MW14854   4.860   2.525   0.454
 3603SOL     OW14855   4.443   2.202   1.721
 3603SOL    HW114856   4.453   2.128   1.661
 3603SOL    HW214857   4.479   2.171   1.804
 3603SOL     MW14858   4.449   2.188   1.723
 3604SOL     OW14859   4.179   3.569   0.636
 3604SOL    HW114860   4.211   3.657   0.614
 3604SOL    HW214861   4.132   3.541   0.558
 3604SOL     MW14862   4.178   3.577   0.623
 3605SOL     OW14863   5.563   1.931   0.685
 3605SOL    HW114864   5.617   1.882   0.747
 3605SOL    HW214865   5.506   1.865   0.646
 3605SOL     MW14866   5.563   1.915   0.687
 3606SOL     OW14867   4.682   1.884   1.098
 3606SOL    HW114868   4.641   1.962   1.060
 3606SOL    HW214869   4.776   1.902   1.093
 3606SOL     MW14870   4.688   1.896   1.093
 3607SOL     OW14871   5.299   3.437   0.184
 3607SOL    HW114872   5.347   3.506   0.230
 3607SOL    HW214873   5.220   3.481   0.153
 3607SOL     MW14874   5.294   3.451   0.187
 3608SOL     OW14875   5.311   2.488   0.464
 3608SOL    HW114876   5.350   2.488   0.551
 3608SOL    HW214877   5.252   2.564   0.464
 3608SOL     MW14878   5.308   2.499   0.475
 3609SOL     OW14879   4.628   2.855   1.593
 3609SOL    HW114880   4.605   2.835   1.683
 3609SOL    HW214881   4.713   2.899   1.598
 3609SOL     MW14882   4.635   2.858   1.605
 3610SOL     OW14883   4.708   1.992   1.353
 3610SOL    HW114884   4.714   1.954   1.266
 3610SOL    HW214885   4.697   2.086   1.338
 3610SOL     MW14886   4.709   2.000   1.341
 3611SOL     OW14887   4.797   2.481   1.187
 3611SOL    HW114888   4.872   2.510   1.134
 3611SOL    HW214889   4.729   2.546   1.171
 3611SOL     MW14890   4.798   2.493   1.177
 3612SOL     OW14891   5.347   2.449   1.464
 3612SOL    HW114892   5.328   2.358   1.443
 3612SOL    HW214893   5.325   2.498   1.385
 3612SOL     MW14894   5.342   2.442   1.451
 3613SOL     OW14895   5.489   3.543   1.368
 3613SOL    HW114896   5.417   3.505   1.419
 3613SOL    HW214897   5.506   3.628   1.409
 3613SOL     MW14898   5.483   3.548   1.380
 3614SOL     OW14899   4.794   2.187   1.570
 3614SOL    HW114900   4.760   2.226   1.489
 3614SOL    HW214901   4.772   2.095   1.563
 3614SOL     MW14902   4.787   2.180   1.560
 3615SOL     OW14903   5.203   3.001   1.646
 3615SOL    HW114904   5.285   3.042   1.676
 3615SOL    HW214905   5.166   2.963   1.726
 3615SOL     MW14906   5.209   3.002   1.661
 3616SOL     OW14907   5.498   2.374   0.630
 3616SOL    HW114908   5.587   2.343   0.647
 3616SOL    HW214909   5.441   2.314   0.678
 3616SOL     MW14910   5.501   2.362   0.639
 3617SOL     OW14911   3.924   2.088   0.659
 3617SOL    HW114912   3.915   2.028   0.585
 3617SOL    HW214913   3.857   2.059   0.722
 3617SOL     MW14914   3.914   2.075   0.657
 3618SOL     OW14915   3.871   2.261   1.022
 3618SOL    HW114916   3.843   2.352   1.031
 3618SOL    HW214917   3.808   2.222   0.961
 3618SOL     MW14918   3.858   2.267   1.016
 3619SOL     OW14919   4.330   3.599   0.328
 3619SOL    HW114920   4.251   3.557   0.361
 3619SOL    HW214921   4.396   3.582   0.395
 3619SOL     MW14922   4.329   3.591   0.341
 3620SOL     OW14923   5.458   3.119   1.725
 3620SOL    HW114924   5.508   3.045   1.757
 3620SOL    HW214925   5.404   3.146   1.800
 3620SOL     MW14926   5.458   3.113   1.738
 3621SOL     OW14927   5.592   2.754   1.227
 3621SOL    HW114928   5.608   2.792   1.140
 3621SOL    HW214929   5.626   2.820   1.288
 3621SOL     MW14930   5.599   2.767   1.223
 3622SOL     OW14931   5.384   3.463   0.896
 3622SOL    HW114932   5.413   3.530   0.957
 3622SOL    HW214933   5.365   3.387   0.951
 3622SOL     MW14934   5.386   3.463   0.911
 3623SOL     OW14935   3.855   2.536   1.192
 3623SOL    HW114936   3.917   2.566   1.258
 3623SOL    HW214937   3.789   2.605   1.186
 3623SOL     MW14938   3.854   2.549   1.199
 3624SOL     OW14939   3.950   3.645   1.644
 3624SOL    HW114940   3.924   3.713   1.582
 3624SOL    HW214941   3.998   3.582   1.592
 3624SOL     MW14942   3.952   3.645   1.630
 3625SOL     OW14943   4.002   2.964   1.151
 3625SOL    HW114944   4.055   3.039   1.176
 3625SOL    HW214945   3.921   3.002   1.117
 3625SOL     MW14946   3.998   2.979   1.151
 3626SOL     OW14947   4.542   2.868   1.139
 3626SOL    HW114948   4.570   2.777   1.151
 3626SOL    HW214949   4.471   2.862   1.075
 3626SOL     MW14950   4.535   2.856   1.134
 3627SOL     OW14951   3.857   2.733   0.557
 3627SOL    HW114952   3.948   2.748   0.584
 3627SOL    HW214953   3.860   2.654   0.503
 3627SOL     MW14954   3.869   2.725   0.555
 3628SOL     OW14955   4.093   2.441   1.811
 3628SOL    HW114956   4.040   2.521   1.818
 3628SOL    HW214957   4.163   2.453   1.876
 3628SOL     MW14958   4.095   2.454   1.819
 3629SOL     OW14959   4.479   1.991   1.518
 3629SOL    HW114960   4.456   1.899   1.520
 3629SOL    HW214961   4.565   1.993   1.475
 3629SOL     MW14962   4.486   1.981   1.514
 3630SOL     OW14963   4.163   2.515   1.557
 3630SOL    HW114964   4.243   2.565   1.543
 3630SOL    HW214965   4.154   2.509   1.652
 3630SOL     MW14966   4.172   2.521   1.567
 3631SOL     OW14967   4.484   3.665   0.931
 3631SOL    HW114968   4.573   3.680   0.961
 3631SOL    HW214969   4.479   3.712   0.847
 3631SOL     MW14970   4.494   3.673   0.924
 3632SOL     OW14971   5.140   2.040   1.828
 3632SOL    HW114972   5.196   1.967   1.854
 3632SOL    HW214973   5.110   2.078   1.910
 3632SOL     MW14974   5.144   2.035   1.841
 3633SOL     OW14975   3.865   3.345   0.596
 3633SOL    HW114976   3.837   3.384   0.678
 3633SOL    HW214977   3.885   3.254   0.618
 3633SOL     MW14978   3.863   3.337   0.609
 3634SOL     OW14979   4.698   3.388   0.631
 3634SOL    HW114980   4.781   3.342   0.615
 3634SOL    HW214981   4.688   3.387   0.727
 3634SOL     MW14982   4.708   3.381   0.641
 3635SOL     OW14983   5.530   2.533   0.945
 3635SOL    HW114984   5.619   2.563   0.927
 3635SOL    HW214985   5.510   2.473   0.874
 3635SOL     MW14986   5.539   2.530   0.934
 3636SOL     OW14987   5.381   2.712   1.825
 3636SOL    HW114988   5.436   2.636   1.806
 3636SOL    HW214989   5.383   2.720   1.920
 3636SOL     MW14990   5.389   2.703   1.833
 3637SOL     OW14991   4.676   2.274   1.344
 3637SOL    HW114992   4.595   2.315   1.372
 3637SOL    HW214993   4.723   2.342   1.296
 3637SOL     MW14994   4.671   2.289   1.342
 3638SOL     OW14995   4.936   2.612   0.967
 3638SOL    HW114996   4.949   2.706   0.977
 3638SOL    HW214997   4.897   2.602   0.881
 3638SOL     MW14998   4.932   2.623   0.957
 3639SOL     OW14999   4.388   2.807   0.771
 3639SOL    HW115000   4.299   2.798   0.804
 3639SOL    HW215001   4.392   2.897   0.739
 3639SOL     MW15002   4.377   2.818   0.771
 3640SOL     OW15003   5.187   2.390   0.766
 3640SOL    HW115004   5.132   2.311   0.765
 3640SOL    HW215005   5.169   2.431   0.850
 3640SOL     MW15006   5.177   2.385   0.775
 3641SOL     OW15007   4.158   2.077   1.583
 3641SOL    HW115008   4.079   2.095   1.635
 3641SOL    HW215009   4.153   2.139   1.510
 3641SOL     MW15010   4.148   2.087   1.580
 3642SOL     OW15011   4.806   2.594   0.723
 3642SOL    HW115012   4.743   2.526   0.747
 3642SOL    HW215013   4.826   2.575   0.631
 3642SOL     MW15014   4.800   2.581   0.715
 3643SOL     OW15015   4.554   2.898   0.449
 3643SOL    HW115016   4.556   2.872   0.356
 3643SOL    HW215017   4.612   2.835   0.492
 3643SOL     MW15018   4.562   2.887   0.443
 3644SOL     OW15019   5.107   3.458   1.221
 3644SOL    HW115020   5.032   3.504   1.259
 3644SOL    HW215021   5.089   3.365   1.238
 3644SOL     MW15022   5.096   3.452   1.229
 3645SOL     OW15023   5.111   3.666   0.651
 3645SOL    HW115024   5.054   3.619   0.590
 3645SOL    HW215025   5.197   3.627   0.638
 3645SOL     MW15026   5.114   3.657   0.641
 3646SOL     OW15027   5.064   2.142   0.782
 3646SOL    HW115028   5.092   2.074   0.843
 3646SOL    HW215029   4.978   2.113   0.752
 3646SOL     MW15030   5.057   2.129   0.786
 3647SOL     OW15031   3.869   3.076   0.716
 3647SOL    HW115032   3.933   3.108   0.779
 3647SOL    HW215033   3.918   3.012   0.664
 3647SOL     MW15034   3.884   3.072   0.717
 3648SOL     OW15035   4.369   3.152   1.698
 3648SOL    HW115036   4.417   3.235   1.685
 3648SOL    HW215037   4.426   3.100   1.754
 3648SOL     MW15038   4.383   3.156   1.704
 3649SOL     OW15039   3.945   3.394   1.838
 3649SOL    HW115040   4.001   3.318   1.853
 3649SOL    HW215041   3.894   3.372   1.760
 3649SOL     MW15042   3.945   3.381   1.829
 3650SOL     OW15043   4.712   1.951   0.054
 3650SOL    HW115044   4.768   1.943  -0.024
 3650SOL    HW215045   4.689   1.861   0.076
 3650SOL     MW15046   4.717   1.938   0.047
 3651SOL     OW15047   4.830   3.231   1.447
 3651SOL    HW115048   4.741   3.237   1.415
 3651SOL    HW215049   4.874   3.310   1.415
 3651SOL     MW15050   4.825   3.241   1.439
 3652SOL     OW15051   4.123   1.899   1.789
 3652SOL    HW115052   4.051   1.864   1.737
 3652SOL    HW215053   4.181   1.940   1.724
 3652SOL     MW15054   4.121   1.900   1.774
 3653SOL     OW15055   4.147   3.389   1.088
 3653SOL    HW115056   4.192   3.451   1.145
 3653SOL    HW215057   4.054   3.408   1.101
 3653SOL     MW15058   4.140   3.399   1.095
 3654SOL     OW15059   5.587   2.918   1.442
 3654SOL    HW115060   5.502   2.931   1.401
 3654SOL    HW215061   5.567   2.882   1.529
 3654SOL     MW15062   5.574   2.914   1.447
 3655SOL     OW15063   4.569   3.457   1.196
 3655SOL    HW115064   4.593   3.446   1.105
 3655SOL    HW215065   4.492   3.514   1.194
 3655SOL     MW15066   4.561   3.462   1.185
 3656SOL     OW15067   4.211   2.840   0.051
 3656SOL    HW115068   4.134   2.853   0.107
 3656SOL    HW215069   4.175   2.804  -0.030
 3656SOL     MW15070   4.197   2.836   0.048
 3657SOL     OW15071   4.364   3.162   0.986
 3657SOL    HW115072   4.357   3.141   1.080
 3657SOL    HW215073   4.282   3.130   0.949
 3657SOL     MW15074   4.352   3.156   0.993
 3658SOL     OW15075   5.228   2.172   1.388
 3658SOL    HW115076   5.175   2.174   1.468
 3658SOL    HW215077   5.213   2.085   1.351
 3658SOL     MW15078   5.220   2.162   1.393
 3659SOL     OW15079   5.564   2.096   1.261
 3659SOL    HW115080   5.545   2.163   1.196
 3659SOL    HW215081   5.621   2.034   1.216
 3659SOL     MW15082   5.568   2.097   1.247
 3660SOL     OW15083   3.810   3.254   1.649
 3660SOL    HW115084   3.854   3.187   1.595
 3660SOL    HW215085   3.725   3.216   1.669
 3660SOL     MW15086   3.805   3.240   1.645
 3661SOL     OW15087   4.493   1.929   0.701
 3661SOL    HW115088   4.422   1.990   0.683
 3661SOL    HW215089   4.544   1.926   0.620
 3661SOL     MW15090   4.489   1.935   0.688
 3662SOL     OW15091   4.251   3.169   0.450
 3662SOL    HW115092   4.244   3.201   0.540
 3662SOL    HW215093   4.161   3.153   0.422
 3662SOL     MW15094   4.239   3.171   0.457
 3663SOL     OW15095   4.846   3.562   1.359
 3663SOL    HW115096   4.766   3.547   1.309
 3663SOL    HW215097   4.853   3.657   1.366
 3663SOL     MW15098   4.837   3.573   1.353
 3664SOL     OW15099   4.960   3.527   0.849
 3664SOL    HW115100   5.007   3.600   0.808
 3664SOL    HW215101   4.881   3.566   0.885
 3664SOL     MW15102   4.955   3.542   0.848
 3665SOL     OW15103   5.368   3.622   1.124
 3665SOL    HW115104   5.411   3.592   1.204
 3665SOL    HW215105   5.287   3.570   1.121
 3665SOL     MW15106   5.363   3.611   1.134
 3666SOL     OW15107   4.453   2.586   1.831
 3666SOL    HW115108   4.523   2.528   1.803
 3666SOL    HW215109   4.396   2.531   1.886
 3666SOL     MW15110   4.455   2.573   1.835
 3667SOL     OW15111   5.240   2.798   1.464
 3667SOL    HW115112   5.245   2.851   1.544
 3667SOL    HW215113   5.202   2.715   1.492
 3667SOL     MW15114   5.236   2.793   1.479
 3668SOL     OW15115   4.880   1.933   1.710
 3668SOL    HW115116   4.875   1.840   1.691
 3668SOL    HW215117   4.963   1.944   1.756
 3668SOL     MW15118   4.888   1.922   1.714
 3669SOL     OW15119   5.350   3.204   0.986
 3669SOL    HW115120   5.385   3.186   0.899
 3669SOL    HW215121   5.255   3.205   0.973
 3669SOL     MW15122   5.342   3.201   0.973
 3670SOL     OW15123   4.779   2.852   1.355
 3670SOL    HW115124   4.822   2.887   1.433
 3670SOL    HW215125   4.762   2.929   1.301
 3670SOL     MW15126   4.782   2.867   1.358
 3671SOL     OW15127   4.170   1.994   0.657
 3671SOL    HW115128   4.220   2.037   0.588
 3671SOL    HW215129   4.085   2.038   0.657
 3671SOL     MW15130   4.167   2.007   0.648
 3672SOL     OW15131   3.929   3.056   1.517
 3672SOL    HW115132   3.957   3.009   1.595
 3672SOL    HW215133   3.850   3.011   1.488
 3672SOL     MW15134   3.922   3.045   1.523
 3673SOL     OW15135   4.437   2.383   1.484
 3673SOL    HW115136   4.409   2.471   1.508
 3673SOL    HW215137   4.406   2.327   1.555
 3673SOL     MW15138   4.429   2.386   1.496
 3674SOL     OW15139   4.979   2.601   0.203
 3674SOL    HW115140   5.026   2.619   0.122
 3674SOL    HW215141   4.945   2.685   0.231
 3674SOL     MW15142   4.981   2.615   0.196
 3675SOL     OW15143   4.092   2.779   0.697
 3675SOL    HW115144   4.150   2.835   0.645
 3675SOL    HW215145   4.136   2.694   0.699
 3675SOL     MW15146   4.105   2.776   0.690
 3676SOL     OW15147   5.232   2.131   0.534
 3676SOL    HW115148   5.154   2.081   0.559
 3676SOL    HW215149   5.203   2.222   0.534
 3676SOL     MW15150   5.218   2.135   0.537
 3677SOL     OW15151   4.818   2.093   0.693
 3677SOL    HW115152   4.838   2.168   0.637
 3677SOL    HW215153   4.798   2.132   0.778
 3677SOL     MW15154   4.819   2.109   0.697
 3678SOL     OW15155   4.714   3.343   0.025
 3678SOL    HW115156   4.741   3.421  -0.023
 3678SOL    HW215157   4.621   3.358   0.044
 3678SOL     MW15158   4.705   3.356   0.021
 3679SOL     OW15159   5.578   2.866   1.712
 3679SOL    HW115160   5.491   2.846   1.748
 3679SOL    HW215161   5.632   2.792   1.737
 3679SOL     MW15162   5.573   2.855   1.720
 3680SOL     OW15163   3.799   3.379   0.869
 3680SOL    HW115164   3.831   3.383   0.960
 3680SOL    HW215165   3.704   3.387   0.877
 3680SOL     MW15166   3.791   3.382   0.882
 3681SOL     OW15167   3.754   2.505   0.416
 3681SOL    HW115168   3.694   2.477   0.486
 3681SOL    HW215169   3.828   2.445   0.422
 3681SOL     MW15170   3.756   2.494   0.425
 3682SOL     OW15171   5.322   3.717   1.850
 3682SOL    HW115172   5.367   3.641   1.815
 3682SOL    HW215173   5.360   3.730   1.937
 3682SOL     MW15174   5.332   3.710   1.856
 3683SOL     OW15175   4.922   3.236   0.576
 3683SOL    HW115176   4.945   3.187   0.654
 3683SOL    HW215177   5.003   3.278   0.548
 3683SOL     MW15178   4.935   3.236   0.583
 3684SOL     OW15179   4.180   2.244   1.305
 3684SOL    HW115180   4.213   2.325   1.345
 3684SOL    HW215181   4.153   2.270   1.217
 3684SOL     MW15182   4.179   2.258   1.299
 3685SOL     OW15183   4.134   2.211   1.041
 3685SOL    HW115184   4.164   2.125   1.012
 3685SOL    HW215185   4.039   2.204   1.044
 3685SOL     MW15186   4.126   2.200   1.039
 3686SOL     OW15187   4.963   2.420   1.732
 3686SOL    HW115188   5.015   2.355   1.685
 3686SOL    HW215189   4.921   2.471   1.662
 3686SOL     MW15190   4.964   2.417   1.715
 3687SOL     OW15191   5.062   2.215   1.593
 3687SOL    HW115192   4.969   2.199   1.580
 3687SOL    HW215193   5.088   2.153   1.661
 3687SOL     MW15194   5.052   2.205   1.600
 3688SOL     OW15195   4.277   1.989   0.932
 3688SOL    HW115196   4.287   1.898   0.958
 3688SOL    HW215197   4.233   1.985   0.847
 3688SOL     MW15198   4.273   1.977   0.924
 3689SOL     OW15199   4.371   3.604   1.478
 3689SOL    HW115200   4.288   3.589   1.523
 3689SOL    HW215201   4.430   3.537   1.513
 3689SOL     MW15202   4.369   3.594   1.488
 3690SOL     OW15203   5.428   2.311   1.103
 3690SOL    HW115204   5.361   2.344   1.163
 3690SOL    HW215205   5.471   2.389   1.069
 3690SOL     MW15206   5.426   2.326   1.107
 3691SOL     OW15207   5.606   3.031   1.073
 3691SOL    HW115208   5.599   2.971   0.998
 3691SOL    HW215209   5.532   3.091   1.062
 3691SOL     MW15210   5.596   3.031   1.062
 3692SOL     OW15211   4.988   2.893   0.991
 3692SOL    HW115212   5.002   2.865   1.082
 3692SOL    HW215213   5.074   2.924   0.963
 3692SOL     MW15214   5.001   2.894   1.000
 3693SOL     OW15215   5.071   2.388   1.270
 3693SOL    HW115216   5.092   2.389   1.177
 3693SOL    HW215217   5.116   2.310   1.303
 3693SOL     MW15218   5.078   2.378   1.262
 3694SOL     OW15219   5.564   2.519   1.812
 3694SOL    HW115220   5.601   2.464   1.881
 3694SOL    HW215221   5.589   2.476   1.730
 3694SOL     MW15222   5.571   2.507   1.811
 3695SOL     OW15223   5.111   2.817   1.863
 3695SOL    HW115224   5.177   2.765   1.817
 3695SOL    HW215225   5.131   2.804   1.956
 3695SOL     MW15226   5.122   2.808   1.870
 3696SOL     OW15227   5.122   2.678   0.490
 3696SOL    HW115228   5.037   2.648   0.460
 3696SOL    HW215229   5.114   2.685   0.585
 3696SOL     MW15230   5.110   2.676   0.499
 3697SOL     OW15231   4.198   3.141   1.221
 3697SOL    HW115232   4.210   3.168   1.312
 3697SOL    HW215233   4.179   3.222   1.174
 3697SOL     MW15234   4.197   3.156   1.226
 3698SOL     OW15235   4.482   2.121   1.044
 3698SOL    HW115236   4.455   2.123   1.135
 3698SOL    HW215237   4.412   2.073   0.999
 3698SOL     MW15238   4.470   2.117   1.051
 3699SOL     OW15239   4.336   3.613   1.206
 3699SOL    HW115240   4.388   3.690   1.183
 3699SOL    HW215241   4.345   3.605   1.301
 3699SOL     MW15242   4.345   3.620   1.217
 3700SOL     OW15243   5.238   3.198   1.438
 3700SOL    HW115244   5.223   3.127   1.501
 3700SOL    HW215245   5.284   3.156   1.366
 3700SOL     MW15246   5.244   3.182   1.438
 3701SOL     OW15247   4.312   2.929   1.555
 3701SOL    HW115248   4.349   2.934   1.467
 3701SOL    HW215249   4.351   3.002   1.602
 3701SOL     MW15250   4.322   2.939   1.550
 3702SOL     OW15251   4.492   2.972   1.367
 3702SOL    HW115252   4.551   2.918   1.420
 3702SOL    HW215253   4.507   2.944   1.277
 3702SOL     MW15254   4.502   2.961   1.363
 3703SOL     OW15255   5.303   3.461   1.539
 3703SOL    HW115256   5.345   3.446   1.624
 3703SOL    HW215257   5.294   3.374   1.501
 3703SOL     MW15258   5.307   3.449   1.546
 3704SOL     OW15259   4.963   1.940   1.130
 3704SOL    HW115260   5.018   1.949   1.052
 3704SOL    HW215261   5.018   1.974   1.201
 3704SOL     MW15262   4.977   1.945   1.129
 3705SOL     OW15263   4.124   3.596   0.894
 3705SOL    HW115264   4.128   3.507   0.929
 3705SOL    HW215265   4.150   3.587   0.803
 3705SOL     MW15266   4.127   3.584   0.886
 3706SOL     OW15267   4.741   3.074   1.137
 3706SOL    HW115268   4.673   3.008   1.153
 3706SOL    HW215269   4.759   3.068   1.044
 3706SOL     MW15270   4.734   3.065   1.128
 3707SOL     OW15271   3.830   3.349   1.388
 3707SOL    HW115272   3.820   3.307   1.474
 3707SOL    HW215273   3.751   3.402   1.378
 3707SOL     MW15274   3.819   3.350   1.399
 3708SOL     OW15275   4.734   2.213   0.958
 3708SOL    HW115276   4.664   2.165   1.003
 3708SOL    HW215277   4.766   2.276   1.022
 3708SOL     MW15278   4.729   2.215   0.972
 3709SOL     OW15279   4.385   2.649   1.578
 3709SOL    HW115280   4.378   2.744   1.566
 3709SOL    HW215281   4.394   2.638   1.673
 3709SOL     MW15282   4.386   2.661   1.588
 3710SOL     OW15283   4.106   3.164   1.836
 3710SOL    HW115284   4.178   3.166   1.773
 3710SOL    HW215285   4.076   3.073   1.835
 3710SOL     MW15286   4.111   3.153   1.828
 3711SOL     OW15287   5.190   1.927   1.303
 3711SOL    HW115288   5.261   1.873   1.267
 3711SOL    HW215289   5.189   1.906   1.396
 3711SOL     MW15290   5.199   1.918   1.311
 3712SOL     OW15291   5.390   3.457   1.787
 3712SOL    HW115292   5.363   3.454   1.878
 3712SOL    HW215293   5.486   3.461   1.790
 3712SOL     MW15294   5.400   3.457   1.799
 3713SOL     OW15295   4.201   2.319   0.771
 3713SOL    HW115296   4.272   2.267   0.734
 3713SOL    HW215297   4.187   2.284   0.858
 3713SOL     MW15298   4.209   2.308   0.778
 3714SOL     OW15299   3.756   3.654   1.843
 3714SOL    HW115300   3.806   3.632   1.765
 3714SOL    HW215301   3.764   3.749   1.851
 3714SOL     MW15302   3.764   3.663   1.834
 3715SOL     OW15303   4.517   3.412   0.847
 3715SOL    HW115304   4.445   3.349   0.860
 3715SOL    HW215305   4.478   3.497   0.865
 3715SOL     MW15306   4.501   3.415   0.850
 3716SOL     OW15307   4.837   2.260   0.495
 3716SOL    HW115308   4.859   2.197   0.427
 3716SOL    HW215309   4.742   2.252   0.506
 3716SOL     MW15310   4.827   2.251   0.487
 3717SOL     OW15311   3.922   1.950   0.427
 3717SOL    HW115312   3.993   1.971   0.366
 3717SOL    HW215313   3.876   1.878   0.385
 3717SOL     MW15314   3.926   1.944   0.413
 3718SOL     OW15315   3.753   2.417   1.570
 3718SOL    HW115316   3.817   2.483   1.545
 3718SOL    HW215317   3.672   2.444   1.527
 3718SOL     MW15318   3.751   2.429   1.562
 3719SOL     OW15319   5.491   3.324   0.527
 3719SOL    HW115320   5.461   3.257   0.588
 3719SOL    HW215321   5.585   3.330   0.541
 3719SOL     MW15322   5.499   3.316   0.537
 3720SOL     OW15323   5.047   3.001   0.457
 3720SOL    HW115324   5.019   3.087   0.490
 3720SOL    HW215325   5.075   3.017   0.367
 3720SOL     MW15326   5.047   3.015   0.449
 3721SOL     OW15327   4.709   1.921   0.510
 3721SOL    HW115328   4.746   1.980   0.575
 3721SOL    HW215329   4.686   1.977   0.436
 3721SOL     MW15330   4.710   1.936   0.509
 3722SOL     OW15331   5.562   2.803   0.932
 3722SOL    HW115332   5.553   2.835   0.843
 3722SOL    HW215333   5.515   2.719   0.932
 3722SOL     MW15334   5.555   2.796   0.922
 3723SOL     OW15335   3.938   2.643   1.511
 3723SOL    HW115336   3.959   2.712   1.449
 3723SOL    HW215337   4.018   2.590   1.516
 3723SOL     MW15338   3.951   2.644   1.505
 3724SOL     OW15339   5.474   2.734   0.633
 3724SOL    HW115340   5.568   2.723   0.621
 3724SOL    HW215341   5.450   2.806   0.574
 3724SOL     MW15342   5.484   2.742   0.624
 3725SOL     OW15343   3.923   2.658   1.778
 3725SOL    HW115344   3.849   2.602   1.804
 3725SOL    HW215345   3.918   2.661   1.683
 3725SOL     MW15346   3.912   2.651   1.768
 3726SOL     OW15347   4.089   1.945   1.228
 3726SOL    HW115348   4.132   2.029   1.248
 3726SOL    HW215349   4.162   1.883   1.221
 3726SOL     MW15350   4.104   1.948   1.229
 3727SOL     OW15351   4.130   2.612   0.406
 3727SOL    HW115352   4.130   2.707   0.391
 3727SOL    HW215353   4.207   2.596   0.460
 3727SOL     MW15354   4.140   2.623   0.411
 3728SOL     OW15355   4.906   2.471   1.470
 3728SOL    HW115356   4.942   2.444   1.386
 3728SOL    HW215357   4.819   2.505   1.449
 3728SOL     MW15358   4.900   2.472   1.457
 3729SOL     OW15359   3.889   2.343   0.695
 3729SOL    HW115360   3.951   2.350   0.768
 3729SOL    HW215361   3.889   2.250   0.672
 3729SOL     MW15362   3.897   2.332   0.702
 3730SOL     OW15363   5.436   3.683   0.227
 3730SOL    HW115364   5.503   3.716   0.167
 3730SOL    HW215365   5.393   3.762   0.261
 3730SOL     MW15366   5.438   3.698   0.223
 3731SOL     OW15367   4.571   2.604   1.179
 3731SOL    HW115368   4.529   2.522   1.155
 3731SOL    HW215369   4.572   2.603   1.275
 3731SOL     MW15370   4.564   2.593   1.188
 3732SOL     OW15371   5.242   3.737   1.578
 3732SOL    HW115372   5.245   3.643   1.561
 3732SOL    HW215373   5.265   3.745   1.670
 3732SOL     MW15374   5.245   3.725   1.588
 3733SOL     OW15375   4.375   2.074   1.284
 3733SOL    HW115376   4.306   2.137   1.305
 3733SOL    HW215377   4.402   2.038   1.369
 3733SOL     MW15378   4.369   2.077   1.297
 3734SOL     OW15379   5.170   1.927   0.901
 3734SOL    HW115380   5.258   1.936   0.938
 3734SOL    HW215381   5.180   1.868   0.827
 3734SOL     MW15382   5.184   1.921   0.895
 3735SOL     OW15383   5.202   2.666   0.745
 3735SOL    HW115384   5.282   2.681   0.694
 3735SOL    HW215385   5.195   2.571   0.751
 3735SOL     MW15386   5.211   2.655   0.740
 3736SOL     OW15387   4.652   2.592   1.442
 3736SOL    HW115388   4.721   2.659   1.439
 3736SOL    HW215389   4.585   2.630   1.498
 3736SOL     MW15390   4.653   2.605   1.449
 3737SOL     OW15391   4.070   2.892   1.690
 3737SOL    HW115392   4.024   2.808   1.692
 3737SOL    HW215393   4.127   2.886   1.614
 3737SOL     MW15394   4.072   2.880   1.682
 3738SOL     OW15395   4.321   3.267   0.691
 3738SOL    HW115396   4.386   3.200   0.712
 3738SOL    HW215397   4.373   3.344   0.668
 3738SOL     MW15398   4.336   3.269   0.690
 3739SOL     OW15399   4.582   2.432   0.821
 3739SOL    HW115400   4.522   2.450   0.893
 3739SOL    HW215401   4.616   2.344   0.840
 3739SOL     MW15402   4.578   2.422   0.834
 3740SOL     OW15403   5.523   1.931   1.490
 3740SOL    HW115404   5.444   1.977   1.518
 3740SOL    HW215405   5.558   1.985   1.419
 3740SOL     MW15406   5.517   1.944   1.484
 3741SOL     OW15407   4.807   3.015   0.840
 3741SOL    HW115408   4.899   2.996   0.858
 3741SOL    HW215409   4.780   2.945   0.780
 3741SOL     MW15410   4.815   3.003   0.834
 3742SOL     OW15411   5.081   3.253   0.936
 3742SOL    HW115412   5.054   3.337   0.901
 3742SOL    HW215413   5.041   3.248   1.023
 3742SOL     MW15414   5.074   3.262   0.942
 3743SOL     OW15415   5.000   3.201   1.204
 3743SOL    HW115416   5.011   3.168   1.293
 3743SOL    HW215417   4.919   3.160   1.173
 3743SOL     MW15418   4.990   3.193   1.210
 3744SOL     OW15419   4.013   2.559   0.974
 3744SOL    HW115420   3.963   2.558   1.055
 3744SOL    HW215421   4.033   2.651   0.958
 3744SOL     MW15422   4.009   2.571   0.982
 3745SOL     OW15423   5.080   3.323   1.736
 3745SOL    HW115424   5.080   3.417   1.752
 3745SOL    HW215425   5.125   3.313   1.652
 3745SOL     MW15426   5.086   3.333   1.727
 3746SOL     OW15427   3.935   2.227   1.715
 3746SOL    HW115428   3.892   2.286   1.652
 3746SOL    HW215429   4.003   2.282   1.755
 3746SOL     MW15430   3.939   2.242   1.712
 3747SOL     OW15431   5.047   2.847   1.260
 3747SOL    HW115432   5.110   2.844   1.333
 3747SOL    HW215433   4.963   2.865   1.302
 3747SOL     MW15434   5.043   2.849   1.275
 3748SOL     OW15435   4.591   3.562   0.449
 3748SOL    HW115436   4.649   3.633   0.476
 3748SOL    HW215437   4.614   3.490   0.507
 3748SOL     MW15438   4.602   3.562   0.460
 3749SOL     OW15439   5.386   2.024   1.039
 3749SOL    HW115440   5.431   1.942   1.058
 3749SOL    HW215441   5.406   2.080   1.115
 3749SOL     MW15442   5.396   2.020   1.051
 3750SOL     OW15443   3.834   1.867   1.138
 3750SOL    HW115444   3.825   1.868   1.043
 3750SOL    HW215445   3.928   1.879   1.153
 3750SOL     MW15446   3.846   1.870   1.129
 3751SOL     OW15447   5.471   3.060   0.758
 3751SOL    HW115448   5.450   3.006   0.681
 3751SOL    HW215449   5.567   3.058   0.762
 3751SOL     MW15450   5.480   3.053   0.747
 3752SOL     OW15451   4.163   3.205   1.501
 3752SOL    HW115452   4.084   3.155   1.524
 3752SOL    HW215453   4.233   3.164   1.551
 3752SOL     MW15454   4.161   3.193   1.511
 3753SOL     OW15455   4.047   1.994   0.184
 3753SOL    HW115456   3.976   2.049   0.152
 3753SOL    HW215457   4.089   1.960   0.105
 3753SOL     MW15458   4.043   1.996   0.170
 3754SOL     OW15459   5.171   2.491   1.020
 3754SOL    HW115460   5.094   2.537   0.986
 3754SOL    HW215461   5.228   2.560   1.054
 3754SOL     MW15462   5.168   2.506   1.020
 3755SOL     OW15463   5.472   2.707   2.125
 3755SOL    HW115464   5.513   2.649   2.190
 3755SOL    HW215465   5.379   2.699   2.142
 3755SOL     MW15466   5.466   2.699   2.135
 3756SOL     OW15467   5.338   2.639   3.120
 3756SOL    HW115468   5.293   2.706   3.171
 3756SOL    HW215469   5.426   2.675   3.106
 3756SOL     MW15470   5.344   2.652   3.124
 3757SOL     OW15471   4.266   2.890   2.354
 3757SOL    HW115472   4.356   2.865   2.338
 3757SOL    HW215473   4.262   2.983   2.331
 3757SOL     MW15474   4.278   2.899   2.349
 3758SOL     OW15475   4.761   3.478   3.497
 3758SOL    HW115476   4.802   3.514   3.418
 3758SOL    HW215477   4.796   3.389   3.504
 3758SOL     MW15478   4.772   3.471   3.488
 3759SOL     OW15479   5.318   3.033   3.101
 3759SOL    HW115480   5.239   2.998   3.059
 3759SOL    HW215481   5.345   3.105   3.045
 3759SOL     MW15482   5.311   3.038   3.088
 3760SOL     OW15483   4.550   2.346   2.367
 3760SOL    HW115484   4.525   2.434   2.395
 3760SOL    HW215485   4.547   2.349   2.271
 3760SOL     MW15486   4.546   2.358   2.359
 3761SOL     OW15487   3.992   2.374   2.295
 3761SOL    HW115488   4.024   2.462   2.277
 3761SOL    HW215489   3.980   2.372   2.390
 3761SOL     MW15490   3.995   2.386   2.307
 3762SOL     OW15491   4.070   2.787   3.196
 3762SOL    HW115492   4.133   2.734   3.147
 3762SOL    HW215493   4.051   2.861   3.139
 3762SOL     MW15494   4.076   2.789   3.183
 3763SOL     OW15495   4.391   2.129   2.382
 3763SOL    HW115496   4.449   2.205   2.384
 3763SOL    HW215497   4.326   2.150   2.315
 3763SOL     MW15498   4.390   2.141   2.373
 3764SOL     OW15499   4.503   3.397   3.460
 3764SOL    HW115500   4.587   3.423   3.499
 3764SOL    HW215501   4.527   3.341   3.386
 3764SOL     MW15502   4.517   3.393   3.455
 3765SOL     OW15503   4.255   2.560   2.548
 3765SOL    HW115504   4.240   2.480   2.599
 3765SOL    HW215505   4.337   2.595   2.582
 3765SOL     MW15506   4.263   2.552   2.560
 3766SOL     OW15507   4.592   3.246   3.233
 3766SOL    HW115508   4.556   3.312   3.173
 3766SOL    HW215509   4.520   3.184   3.246
 3766SOL     MW15510   4.578   3.246   3.227
 3767SOL     OW15511   4.397   2.386   2.925
 3767SOL    HW115512   4.303   2.382   2.943
 3767SOL    HW215513   4.427   2.295   2.934
 3767SOL     MW15514   4.388   2.374   2.928
 3768SOL     OW15515   4.143   2.800   2.829
 3768SOL    HW115516   4.098   2.807   2.745
 3768SOL    HW215517   4.123   2.883   2.873
 3768SOL     MW15518   4.135   2.812   2.823
 3769SOL     OW15519   4.104   3.173   2.739
 3769SOL    HW115520   4.080   3.226   2.815
 3769SOL    HW215521   4.160   3.231   2.687
 3769SOL     MW15522   4.108   3.188   2.742
 3770SOL     OW15523   4.666   2.817   2.549
 3770SOL    HW115524   4.580   2.804   2.589
 3770SOL    HW215525   4.719   2.744   2.581
 3770SOL     MW15526   4.662   2.806   2.558
 3771SOL     OW15527   4.074   3.469   3.334
 3771SOL    HW115528   3.982   3.445   3.319
 3771SOL    HW215529   4.118   3.386   3.351
 3771SOL     MW15530   4.068   3.454   3.333
 3772SOL     OW15531   5.530   2.180   2.722
 3772SOL    HW115532   5.467   2.160   2.791
 3772SOL    HW215533   5.520   2.109   2.659
 3772SOL     MW15534   5.520   2.167   2.723
 3773SOL     OW15535   4.154   2.152   2.234
 3773SOL    HW115536   4.128   2.114   2.150
 3773SOL    HW215537   4.091   2.222   2.250
 3773SOL     MW15538   4.143   2.155   2.225
 3774SOL     OW15539   3.989   3.113   2.271
 3774SOL    HW115540   3.937   3.181   2.227
 3774SOL    HW215541   3.986   3.039   2.211
 3774SOL     MW15542   3.981   3.112   2.258
 3775SOL     OW15543   4.651   3.576   2.049
 3775SOL    HW115544   4.606   3.592   2.132
 3775SOL    HW215545   4.582   3.541   1.991
 3775SOL     MW15546   4.637   3.573   2.051
 3776SOL     OW15547   5.586   2.349   2.024
 3776SOL    HW115548   5.495   2.351   2.052
 3776SOL    HW215549   5.631   2.411   2.082
 3776SOL     MW15550   5.579   2.357   2.034
 3777SOL     OW15551   5.331   2.952   2.374
 3777SOL    HW115552   5.241   2.952   2.409
 3777SOL    HW215553   5.324   2.998   2.291
 3777SOL     MW15554   5.318   2.958   2.368
 3778SOL     OW15555   5.131   2.587   3.446
 3778SOL    HW115556   5.200   2.525   3.423
 3778SOL    HW215557   5.056   2.561   3.393
 3778SOL     MW15558   5.131   2.574   3.437
 3779SOL     OW15559   3.872   3.467   2.998
 3779SOL    HW115560   3.855   3.413   3.075
 3779SOL    HW215561   3.860   3.557   3.028
 3779SOL     MW15562   3.869   3.471   3.012
 3780SOL     OW15563   4.867   2.974   3.438
 3780SOL    HW115564   4.852   3.067   3.423
 3780SOL    HW215565   4.962   2.964   3.438
 3780SOL     MW15566   4.876   2.984   3.435
 3781SOL     OW15567   4.663   2.398   3.639
 3781SOL    HW115568   4.753   2.399   3.606
 3781SOL    HW215569   4.622   2.323   3.597
 3781SOL     MW15570   4.669   2.388   3.630
 3782SOL     OW15571   5.238   2.930   2.766
 3782SOL    HW115572   5.241   2.864   2.697
 3782SOL    HW215573   5.323   2.973   2.762
 3782SOL     MW15574   5.250   2.926   2.757
 3783SOL     OW15575   4.858   2.533   2.335
 3783SOL    HW115576   4.884   2.557   2.246
 3783SOL    HW215577   4.840   2.440   2.331
 3783SOL     MW15578   4.860   2.525   2.322
 3784SOL     OW15579   5.523   3.153   2.186
 3784SOL    HW115580   5.479   3.194   2.261
 3784SOL    HW215581   5.580   3.221   2.151
 3784SOL     MW15582   5.525   3.167   2.191
 3785SOL     OW15583   4.443   2.202   3.589
 3785SOL    HW115584   4.453   2.128   3.529
 3785SOL    HW215585   4.479   2.171   3.672
 3785SOL     MW15586   4.449   2.188   3.591
 3786SOL     OW15587   5.563   1.931   2.553
 3786SOL    HW115588   5.617   1.882   2.615
 3786SOL    HW215589   5.506   1.865   2.514
 3786SOL     MW15590   5.563   1.915   2.555
 3787SOL     OW15591   3.895   3.629   2.081
 3787SOL    HW115592   3.924   3.719   2.073
 3787SOL    HW215593   3.845   3.612   2.002
 3787SOL     MW15594   3.893   3.637   2.070
 3788SOL     OW15595   4.682   1.884   2.966
 3788SOL    HW115596   4.641   1.962   2.928
 3788SOL    HW215597   4.776   1.902   2.961
 3788SOL     MW15598   4.688   1.896   2.961
 3789SOL     OW15599   4.697   2.562   1.996
 3789SOL    HW115600   4.699   2.509   1.917
 3789SOL    HW215601   4.785   2.599   2.002
 3789SOL     MW15602   4.709   2.561   1.985
 3790SOL     OW15603   5.311   2.488   2.332
 3790SOL    HW115604   5.350   2.488   2.419
 3790SOL    HW215605   5.252   2.564   2.332
 3790SOL     MW15606   5.308   2.499   2.343
 3791SOL     OW15607   4.628   2.855   3.461
 3791SOL    HW115608   4.605   2.835   3.551
 3791SOL    HW215609   4.713   2.899   3.466
 3791SOL     MW15610   4.635   2.858   3.473
 3792SOL     OW15611   4.708   1.992   3.221
 3792SOL    HW115612   4.714   1.954   3.134
 3792SOL    HW215613   4.697   2.086   3.206
 3792SOL     MW15614   4.709   2.000   3.209
 3793SOL     OW15615   4.797   2.481   3.055
 3793SOL    HW115616   4.872   2.510   3.002
 3793SOL    HW215617   4.729   2.546   3.039
 3793SOL     MW15618   4.798   2.493   3.045
 3794SOL     OW15619   5.347   2.449   3.332
 3794SOL    HW115620   5.328   2.358   3.311
 3794SOL    HW215621   5.325   2.498   3.253
 3794SOL     MW15622   5.342   2.442   3.319
 3795SOL     OW15623   5.489   3.543   3.236
 3795SOL    HW115624   5.417   3.505   3.287
 3795SOL    HW215625   5.506   3.628   3.277
 3795SOL     MW15626   5.483   3.548   3.248
 3796SOL     OW15627   4.794   2.187   3.438
 3796SOL    HW115628   4.760   2.226   3.357
 3796SOL    HW215629   4.772   2.095   3.431
 3796SOL     MW15630   4.787   2.180   3.428
 3797SOL     OW15631   5.203   3.001   3.514
 3797SOL    HW115632   5.285   3.042   3.544
 3797SOL    HW215633   5.166   2.963   3.594
 3797SOL     MW15634   5.209   3.002   3.529
 3798SOL     OW15635   5.498   2.374   2.498
 3798SOL    HW115636   5.587   2.343   2.515
 3798SOL    HW215637   5.441   2.314   2.546
 3798SOL     MW15638   5.501   2.362   2.507
 3799SOL     OW15639   3.924   2.088   2.527
 3799SOL    HW115640   3.915   2.028   2.453
 3799SOL    HW215641   3.857   2.059   2.590
 3799SOL     MW15642   3.914   2.075   2.525
 3800SOL     OW15643   3.871   2.261   2.890
 3800SOL    HW115644   3.843   2.352   2.899
 3800SOL    HW215645   3.808   2.222   2.829
 3800SOL     MW15646   3.858   2.267   2.884
 3801SOL     OW15647   4.330   3.599   2.196
 3801SOL    HW115648   4.251   3.557   2.229
 3801SOL    HW215649   4.396   3.582   2.263
 3801SOL     MW15650   4.329   3.591   2.209
 3802SOL     OW15651   5.458   3.119   3.593
 3802SOL    HW115652   5.508   3.045   3.625
 3802SOL    HW215653   5.404   3.146   3.668
 3802SOL     MW15654   5.458   3.113   3.606
 3803SOL     OW15655   4.466   3.014   1.903
 3803SOL    HW115656   4.388   2.960   1.890
 3803SOL    HW215657   4.437   3.087   1.956
 3803SOL     MW15658   4.452   3.016   1.908
 3804SOL     OW15659   5.592   2.754   3.095
 3804SOL    HW115660   5.608   2.792   3.008
 3804SOL    HW215661   5.626   2.820   3.156
 3804SOL     MW15662   5.599   2.767   3.091
 3805SOL     OW15663   5.047   3.530   1.971
 3805SOL    HW115664   4.973   3.493   2.021
 3805SOL    HW215665   5.055   3.620   2.004
 3805SOL     MW15666   5.038   3.537   1.983
 3806SOL     OW15667   3.855   2.536   3.060
 3806SOL    HW115668   3.917   2.566   3.126
 3806SOL    HW215669   3.789   2.605   3.054
 3806SOL     MW15670   3.854   2.549   3.067
 3807SOL     OW15671   5.271   3.204   1.913
 3807SOL    HW115672   5.218   3.253   1.849
 3807SOL    HW215673   5.302   3.270   1.974
 3807SOL     MW15674   5.269   3.218   1.911
 3808SOL     OW15675   4.496   2.093   1.968
 3808SOL    HW115676   4.444   2.013   1.956
 3808SOL    HW215677   4.583   2.070   1.936
 3808SOL     MW15678   4.499   2.079   1.962
 3809SOL     OW15679   3.950   3.645   3.512
 3809SOL    HW115680   3.924   3.713   3.450
 3809SOL    HW215681   3.998   3.582   3.460
 3809SOL     MW15682   3.952   3.645   3.498
 3810SOL     OW15683   4.002   2.964   3.019
 3810SOL    HW115684   4.055   3.039   3.044
 3810SOL    HW215685   3.921   3.002   2.985
 3810SOL     MW15686   3.998   2.979   3.019
 3811SOL     OW15687   4.542   2.868   3.007
 3811SOL    HW115688   4.570   2.777   3.019
 3811SOL    HW215689   4.471   2.862   2.943
 3811SOL     MW15690   4.535   2.856   3.002
 3812SOL     OW15691   3.857   2.733   2.425
 3812SOL    HW115692   3.948   2.748   2.452
 3812SOL    HW215693   3.860   2.654   2.371
 3812SOL     MW15694   3.869   2.725   2.423
 3813SOL     OW15695   4.093   2.441   3.679
 3813SOL    HW115696   4.040   2.521   3.686
 3813SOL    HW215697   4.163   2.453   3.744
 3813SOL     MW15698   4.095   2.454   3.687
 3814SOL     OW15699   4.479   1.991   3.386
 3814SOL    HW115700   4.456   1.899   3.388
 3814SOL    HW215701   4.565   1.993   3.343
 3814SOL     MW15702   4.486   1.981   3.382
 3815SOL     OW15703   4.163   2.515   3.425
 3815SOL    HW115704   4.243   2.565   3.411
 3815SOL    HW215705   4.154   2.509   3.520
 3815SOL     MW15706   4.172   2.521   3.435
 3816SOL     OW15707   5.140   2.040   3.696
 3816SOL    HW115708   5.196   1.967   3.722
 3816SOL    HW215709   5.110   2.078   3.778
 3816SOL     MW15710   5.144   2.035   3.709
 3817SOL     OW15711   3.865   3.345   2.464
 3817SOL    HW115712   3.837   3.384   2.546
 3817SOL    HW215713   3.885   3.254   2.486
 3817SOL     MW15714   3.863   3.337   2.477
 3818SOL     OW15715   5.530   2.533   2.813
 3818SOL    HW115716   5.619   2.563   2.795
 3818SOL    HW215717   5.510   2.473   2.742
 3818SOL     MW15718   5.539   2.530   2.802
 3819SOL     OW15719   5.381   2.712   3.693
 3819SOL    HW115720   5.436   2.636   3.674
 3819SOL    HW215721   5.383   2.720   3.788
 3819SOL     MW15722   5.389   2.703   3.701
 3820SOL     OW15723   4.431   3.445   1.904
 3820SOL    HW115724   4.371   3.514   1.874
 3820SOL    HW215725   4.376   3.387   1.957
 3820SOL     MW15726   4.415   3.447   1.906
 3821SOL     OW15727   4.869   2.090   2.127
 3821SOL    HW115728   4.802   2.066   2.064
 3821SOL    HW215729   4.934   2.139   2.076
 3821SOL     MW15730   4.869   2.092   2.112
 3822SOL     OW15731   4.676   2.274   3.212
 3822SOL    HW115732   4.595   2.315   3.240
 3822SOL    HW215733   4.723   2.342   3.164
 3822SOL     MW15734   4.671   2.289   3.210
 3823SOL     OW15735   4.936   2.612   2.835
 3823SOL    HW115736   4.949   2.706   2.845
 3823SOL    HW215737   4.897   2.602   2.749
 3823SOL     MW15738   4.932   2.623   2.825
 3824SOL     OW15739   4.388   2.807   2.639
 3824SOL    HW115740   4.299   2.798   2.672
 3824SOL    HW215741   4.392   2.897   2.607
 3824SOL     MW15742   4.377   2.818   2.639
 3825SOL     OW15743   5.187   2.390   2.634
 3825SOL    HW115744   5.132   2.311   2.633
 3825SOL    HW215745   5.169   2.431   2.718
 3825SOL     MW15746   5.177   2.385   2.643
 3826SOL     OW15747   4.158   2.077   3.451
 3826SOL    HW115748   4.079   2.095   3.503
 3826SOL    HW215749   4.153   2.139   3.378
 3826SOL     MW15750   4.148   2.087   3.448
 3827SOL     OW15751   4.806   2.594   2.591
 3827SOL    HW115752   4.743   2.526   2.615
 3827SOL    HW215753   4.826   2.575   2.499
 3827SOL     MW15754   4.800   2.581   2.583
 3828SOL     OW15755   4.062   3.489   2.293
 3828SOL    HW115756   4.023   3.536   2.219
 3828SOL    HW215757   3.996   3.424   2.318
 3828SOL     MW15758   4.049   3.487   2.287
 3829SOL     OW15759   4.554   2.898   2.317
 3829SOL    HW115760   4.556   2.872   2.224
 3829SOL    HW215761   4.612   2.835   2.360
 3829SOL     MW15762   4.562   2.887   2.311
 3830SOL     OW15763   5.107   3.458   3.089
 3830SOL    HW115764   5.032   3.504   3.127
 3830SOL    HW215765   5.089   3.365   3.106
 3830SOL     MW15766   5.096   3.452   3.097
 3831SOL     OW15767   5.064   2.142   2.650
 3831SOL    HW115768   5.092   2.074   2.711
 3831SOL    HW215769   4.978   2.113   2.620
 3831SOL     MW15770   5.057   2.129   2.654
 3832SOL     OW15771   3.869   3.076   2.584
 3832SOL    HW115772   3.933   3.108   2.647
 3832SOL    HW215773   3.918   3.012   2.532
 3832SOL     MW15774   3.884   3.072   2.585
 3833SOL     OW15775   4.369   3.152   3.566
 3833SOL    HW115776   4.417   3.235   3.553
 3833SOL    HW215777   4.426   3.100   3.622
 3833SOL     MW15778   4.383   3.156   3.572
 3834SOL     OW15779   3.945   3.394   3.706
 3834SOL    HW115780   4.001   3.318   3.721
 3834SOL    HW215781   3.894   3.372   3.628
 3834SOL     MW15782   3.945   3.381   3.697
 3835SOL     OW15783   5.044   2.246   1.985
 3835SOL    HW115784   5.017   2.312   1.921
 3835SOL    HW215785   5.114   2.289   2.035
 3835SOL     MW15786   5.049   2.259   1.982
 3836SOL     OW15787   4.712   1.951   1.922
 3836SOL    HW115788   4.768   1.943   1.844
 3836SOL    HW215789   4.689   1.861   1.944
 3836SOL     MW15790   4.717   1.938   1.915
 3837SOL     OW15791   5.217   2.802   2.127
 3837SOL    HW115792   5.184   2.891   2.117
 3837SOL    HW215793   5.182   2.773   2.212
 3837SOL     MW15794   5.207   2.811   2.138
 3838SOL     OW15795   4.830   3.231   3.315
 3838SOL    HW115796   4.741   3.237   3.283
 3838SOL    HW215797   4.874   3.310   3.283
 3838SOL     MW15798   4.825   3.241   3.307
 3839SOL     OW15799   4.123   1.899   3.657
 3839SOL    HW115800   4.051   1.864   3.605
 3839SOL    HW215801   4.181   1.940   3.592
 3839SOL     MW15802   4.121   1.900   3.642
 3840SOL     OW15803   4.147   3.389   2.956
 3840SOL    HW115804   4.192   3.451   3.013
 3840SOL    HW215805   4.054   3.408   2.969
 3840SOL     MW15806   4.140   3.399   2.963
 3841SOL     OW15807   5.587   2.918   3.310
 3841SOL    HW115808   5.502   2.931   3.269
 3841SOL    HW215809   5.567   2.882   3.397
 3841SOL     MW15810   5.574   2.914   3.315
 3842SOL     OW15811   4.569   3.457   3.064
 3842SOL    HW115812   4.593   3.446   2.973
 3842SOL    HW215813   4.492   3.514   3.062
 3842SOL     MW15814   4.561   3.462   3.053
 3843SOL     OW15815   4.211   2.840   1.919
 3843SOL    HW115816   4.134   2.853   1.975
 3843SOL    HW215817   4.175   2.804   1.838
 3843SOL     MW15818   4.197   2.836   1.916
 3844SOL     OW15819   4.864   2.813   2.162
 3844SOL    HW115820   4.774   2.834   2.137
 3844SOL    HW215821   4.891   2.886   2.218
 3844SOL     MW15822   4.856   2.825   2.165
 3845SOL     OW15823   4.364   3.162   2.854
 3845SOL    HW115824   4.357   3.141   2.948
 3845SOL    HW215825   4.282   3.130   2.817
 3845SOL     MW15826   4.352   3.156   2.861
 3846SOL     OW15827   5.228   2.172   3.256
 3846SOL    HW115828   5.175   2.174   3.336
 3846SOL    HW215829   5.213   2.085   3.219
 3846SOL     MW15830   5.220   2.162   3.261
 3847SOL     OW15831   5.564   2.096   3.129
 3847SOL    HW115832   5.545   2.163   3.064
 3847SOL    HW215833   5.621   2.034   3.084
 3847SOL     MW15834   5.568   2.097   3.115
 3848SOL     OW15835   3.810   3.254   3.517
 3848SOL    HW115836   3.854   3.187   3.463
 3848SOL    HW215837   3.725   3.216   3.537
 3848SOL     MW15838   3.805   3.240   3.513
 3849SOL     OW15839   4.493   1.929   2.569
 3849SOL    HW115840   4.422   1.990   2.551
 3849SOL    HW215841   4.544   1.926   2.488
 3849SOL     MW15842   4.489   1.935   2.556
 3850SOL     OW15843   4.846   3.562   3.227
 3850SOL    HW115844   4.766   3.547   3.177
 3850SOL    HW215845   4.853   3.657   3.234
 3850SOL     MW15846   4.837   3.573   3.221
 3851SOL     OW15847   4.453   2.586   3.699
 3851SOL    HW115848   4.523   2.528   3.671
 3851SOL    HW215849   4.396   2.531   3.754
 3851SOL     MW15850   4.455   2.573   3.703
 3852SOL     OW15851   5.240   2.798   3.332
 3852SOL    HW115852   5.245   2.851   3.412
 3852SOL    HW215853   5.202   2.715   3.360
 3852SOL     MW15854   5.236   2.793   3.347
 3853SOL     OW15855   4.880   1.933   3.578
 3853SOL    HW115856   4.875   1.840   3.559
 3853SOL    HW215857   4.963   1.944   3.624
 3853SOL     MW15858   4.888   1.922   3.582
 3854SOL     OW15859   4.254   2.453   2.032
 3854SOL    HW115860   4.220   2.509   2.102
 3854SOL    HW215861   4.325   2.403   2.072
 3854SOL     MW15862   4.260   2.454   2.046
 3855SOL     OW15863   5.350   3.204   2.854
 3855SOL    HW115864   5.385   3.186   2.767
 3855SOL    HW215865   5.255   3.205   2.841
 3855SOL     MW15866   5.342   3.201   2.841
 3856SOL     OW15867   4.779   2.852   3.223
 3856SOL    HW115868   4.822   2.887   3.301
 3856SOL    HW215869   4.762   2.929   3.169
 3856SOL     MW15870   4.782   2.867   3.226
 3857SOL     OW15871   5.310   2.339   2.096
 3857SOL    HW115872   5.302   2.410   2.033
 3857SOL    HW215873   5.328   2.383   2.179
 3857SOL     MW15874   5.311   2.353   2.098
 3858SOL     OW15875   4.170   1.994   2.525
 3858SOL    HW115876   4.220   2.037   2.456
 3858SOL    HW215877   4.085   2.038   2.525
 3858SOL     MW15878   4.167   2.007   2.516
 3859SOL     OW15879   3.929   3.056   3.385
 3859SOL    HW115880   3.957   3.009   3.463
 3859SOL    HW215881   3.850   3.011   3.356
 3859SOL     MW15882   3.922   3.045   3.391
 3860SOL     OW15883   4.437   2.383   3.352
 3860SOL    HW115884   4.409   2.471   3.376
 3860SOL    HW215885   4.406   2.327   3.423
 3860SOL     MW15886   4.429   2.386   3.364
 3861SOL     OW15887   4.979   2.601   2.071
 3861SOL    HW115888   5.026   2.619   1.990
 3861SOL    HW215889   4.945   2.685   2.099
 3861SOL     MW15890   4.981   2.615   2.064
 3862SOL     OW15891   4.092   2.779   2.565
 3862SOL    HW115892   4.150   2.835   2.513
 3862SOL    HW215893   4.136   2.694   2.567
 3862SOL     MW15894   4.105   2.776   2.558
 3863SOL     OW15895   5.232   2.131   2.402
 3863SOL    HW115896   5.154   2.081   2.427
 3863SOL    HW215897   5.203   2.222   2.402
 3863SOL     MW15898   5.218   2.135   2.405
 3864SOL     OW15899   4.818   2.093   2.561
 3864SOL    HW115900   4.838   2.168   2.505
 3864SOL    HW215901   4.798   2.132   2.646
 3864SOL     MW15902   4.819   2.109   2.565
 3865SOL     OW15903   4.714   3.343   1.893
 3865SOL    HW115904   4.741   3.421   1.845
 3865SOL    HW215905   4.621   3.358   1.912
 3865SOL     MW15906   4.705   3.356   1.889
 3866SOL     OW15907   5.578   2.866   3.580
 3866SOL    HW115908   5.491   2.846   3.616
 3866SOL    HW215909   5.632   2.792   3.605
 3866SOL     MW15910   5.573   2.855   3.588
 3867SOL     OW15911   3.799   3.379   2.737
 3867SOL    HW115912   3.831   3.383   2.828
 3867SOL    HW215913   3.704   3.387   2.745
 3867SOL     MW15914   3.791   3.382   2.750
 3868SOL     OW15915   3.754   2.505   2.284
 3868SOL    HW115916   3.694   2.477   2.354
 3868SOL    HW215917   3.828   2.445   2.290
 3868SOL     MW15918   3.756   2.494   2.293
 3869SOL     OW15919   5.322   3.717   3.718
 3869SOL    HW115920   5.367   3.641   3.683
 3869SOL    HW215921   5.360   3.730   3.805
 3869SOL     MW15922   5.332   3.710   3.724
 3870SOL     OW15923   4.180   2.244   3.173
 3870SOL    HW115924   4.213   2.325   3.213
 3870SOL    HW215925   4.153   2.270   3.085
 3870SOL     MW15926   4.179   2.258   3.167
 3871SOL     OW15927   4.134   2.211   2.909
 3871SOL    HW115928   4.164   2.125   2.880
 3871SOL    HW215929   4.039   2.204   2.912
 3871SOL     MW15930   4.126   2.200   2.907
 3872SOL     OW15931   4.963   2.420   3.600
 3872SOL    HW115932   5.015   2.355   3.553
 3872SOL    HW215933   4.921   2.471   3.530
 3872SOL     MW15934   4.964   2.417   3.583
 3873SOL     OW15935   5.062   2.215   3.461
 3873SOL    HW115936   4.969   2.199   3.448
 3873SOL    HW215937   5.088   2.153   3.529
 3873SOL     MW15938   5.052   2.205   3.468
 3874SOL     OW15939   4.277   1.989   2.800
 3874SOL    HW115940   4.287   1.898   2.826
 3874SOL    HW215941   4.233   1.985   2.715
 3874SOL     MW15942   4.273   1.977   2.792
 3875SOL     OW15943   4.371   3.604   3.346
 3875SOL    HW115944   4.288   3.589   3.391
 3875SOL    HW215945   4.430   3.537   3.381
 3875SOL     MW15946   4.369   3.594   3.356
 3876SOL     OW15947   5.428   2.311   2.971
 3876SOL    HW115948   5.361   2.344   3.031
 3876SOL    HW215949   5.471   2.389   2.937
 3876SOL     MW15950   5.426   2.326   2.975
 3877SOL     OW15951   5.606   3.031   2.941
 3877SOL    HW115952   5.599   2.971   2.866
 3877SOL    HW215953   5.532   3.091   2.930
 3877SOL     MW15954   5.596   3.031   2.930
 3878SOL     OW15955   4.988   2.893   2.859
 3878SOL    HW115956   5.002   2.865   2.950
 3878SOL    HW215957   5.074   2.924   2.831
 3878SOL     MW15958   5.001   2.894   2.868
 3879SOL     OW15959   5.071   2.388   3.138
 3879SOL    HW115960   5.092   2.389   3.045
 3879SOL    HW215961   5.116   2.310   3.171
 3879SOL     MW15962   5.078   2.378   3.130
 3880SOL     OW15963   5.564   2.519   3.680
 3880SOL    HW115964   5.601   2.464   3.749
 3880SOL    HW215965   5.589   2.476   3.598
 3880SOL     MW15966   5.571   2.507   3.679
 3881SOL     OW15967   5.111   2.817   3.731
 3881SOL    HW115968   5.177   2.765   3.685
 3881SOL    HW215969   5.131   2.804   3.824
 3881SOL     MW15970   5.122   2.808   3.738
 3882SOL     OW15971   5.062   1.903   2.080
 3882SOL    HW115972   5.136   1.947   2.123
 3882SOL    HW215973   4.986   1.957   2.102
 3882SOL     MW15974   5.062   1.915   2.088
 3883SOL     OW15975   5.122   2.678   2.358
 3883SOL    HW115976   5.037   2.648   2.328
 3883SOL    HW215977   5.114   2.685   2.453
 3883SOL     MW15978   5.110   2.676   2.367
 3884SOL     OW15979   4.198   3.141   3.089
 3884SOL    HW115980   4.210   3.168   3.180
 3884SOL    HW215981   4.179   3.222   3.042
 3884SOL     MW15982   4.197   3.156   3.094
 3885SOL     OW15983   4.482   2.121   2.912
 3885SOL    HW115984   4.455   2.123   3.003
 3885SOL    HW215985   4.412   2.073   2.867
 3885SOL     MW15986   4.470   2.117   2.919
 3886SOL     OW15987   4.336   3.613   3.074
 3886SOL    HW115988   4.388   3.690   3.051
 3886SOL    HW215989   4.345   3.605   3.169
 3886SOL     MW15990   4.345   3.620   3.085
 3887SOL     OW15991   5.238   3.198   3.306
 3887SOL    HW115992   5.223   3.127   3.369
 3887SOL    HW215993   5.284   3.156   3.234
 3887SOL     MW15994   5.244   3.182   3.306
 3888SOL     OW15995   4.312   2.929   3.423
 3888SOL    HW115996   4.349   2.934   3.335
 3888SOL    HW215997   4.351   3.002   3.470
 3888SOL     MW15998   4.322   2.939   3.418
 3889SOL     OW15999   4.492   2.972   3.235
 3889SOL    HW116000   4.551   2.918   3.288
 3889SOL    HW216001   4.507   2.944   3.145
 3889SOL     MW16002   4.502   2.961   3.231
 3890SOL     OW16003   4.495   2.344   2.084
 3890SOL    HW116004   4.568   2.393   2.047
 3890SOL    HW216005   4.511   2.253   2.058
 3890SOL     MW16006   4.507   2.339   2.077
 3891SOL     OW16007   5.303   3.461   3.407
 3891SOL    HW116008   5.345   3.446   3.492
 3891SOL    HW216009   5.294   3.374   3.369
 3891SOL     MW16010   5.307   3.449   3.414
 3892SOL     OW16011   4.963   1.940   2.998
 3892SOL    HW116012   5.018   1.949   2.920
 3892SOL    HW216013   5.018   1.974   3.069
 3892SOL     MW16014   4.977   1.945   2.997
 3893SOL     OW16015   3.970   2.853   2.182
 3893SOL    HW116016   3.907   2.869   2.111
 3893SOL    HW216017   3.917   2.816   2.253
 3893SOL     MW16018   3.955   2.850   2.182
 3894SOL     OW16019   4.741   3.074   3.005
 3894SOL    HW116020   4.673   3.008   3.021
 3894SOL    HW216021   4.759   3.068   2.912
 3894SOL     MW16022   4.734   3.065   2.996
 3895SOL     OW16023   3.830   3.349   3.256
 3895SOL    HW116024   3.820   3.307   3.342
 3895SOL    HW216025   3.751   3.402   3.246
 3895SOL     MW16026   3.819   3.350   3.267
 3896SOL     OW16027   4.734   2.213   2.826
 3896SOL    HW116028   4.664   2.165   2.871
 3896SOL    HW216029   4.766   2.276   2.890
 3896SOL     MW16030   4.729   2.215   2.840
 3897SOL     OW16031   4.385   2.649   3.446
 3897SOL    HW116032   4.378   2.744   3.434
 3897SOL    HW216033   4.394   2.638   3.541
 3897SOL     MW16034   4.386   2.661   3.456
 3898SOL     OW16035   4.106   3.164   3.704
 3898SOL    HW116036   4.178   3.166   3.641
 3898SOL    HW216037   4.076   3.073   3.703
 3898SOL     MW16038   4.111   3.153   3.696
 3899SOL     OW16039   5.190   1.927   3.171
 3899SOL    HW116040   5.261   1.873   3.135
 3899SOL    HW216041   5.189   1.906   3.264
 3899SOL     MW16042   5.199   1.918   3.179
 3900SOL     OW16043   5.390   3.457   3.655
 3900SOL    HW116044   5.363   3.454   3.746
 3900SOL    HW216045   5.486   3.461   3.658
 3900SOL     MW16046   5.400   3.457   3.667
 3901SOL     OW16047   4.201   2.319   2.639
 3901SOL    HW116048   4.272   2.267   2.602
 3901SOL    HW216049   4.187   2.284   2.726
 3901SOL     MW16050   4.209   2.308   2.646
 3902SOL     OW16051   3.756   3.654   3.711
 3902SOL    HW116052   3.806   3.632   3.633
 3902SOL    HW216053   3.764   3.749   3.719
 3902SOL     MW16054   3.764   3.663   3.702
 3903SOL     OW16055   4.837   2.260   2.363
 3903SOL    HW116056   4.859   2.197   2.295
 3903SOL    HW216057   4.742   2.252   2.374
 3903SOL     MW16058   4.827   2.251   2.355
 3904SOL     OW16059   3.922   1.950   2.295
 3904SOL    HW116060   3.993   1.971   2.234
 3904SOL    HW216061   3.876   1.878   2.253
 3904SOL     MW16062   3.926   1.944   2.281
 3905SOL     OW16063   3.753   2.417   3.438
 3905SOL    HW116064   3.817   2.483   3.413
 3905SOL    HW216065   3.672   2.444   3.395
 3905SOL     MW16066   3.751   2.429   3.430
 3906SOL     OW16067   4.709   1.921   2.378
 3906SOL    HW116068   4.746   1.980   2.443
 3906SOL    HW216069   4.686   1.977   2.304
 3906SOL     MW16070   4.710   1.936   2.377
 3907SOL     OW16071   5.562   2.803   2.800
 3907SOL    HW116072   5.553   2.835   2.711
 3907SOL    HW216073   5.515   2.719   2.800
 3907SOL     MW16074   5.555   2.796   2.790
 3908SOL     OW16075   3.938   2.643   3.379
 3908SOL    HW116076   3.959   2.712   3.317
 3908SOL    HW216077   4.018   2.590   3.384
 3908SOL     MW16078   3.951   2.644   3.373
 3909SOL     OW16079   5.474   2.734   2.501
 3909SOL    HW116080   5.568   2.723   2.489
 3909SOL    HW216081   5.450   2.806   2.442
 3909SOL     MW16082   5.484   2.742   2.492
 3910SOL     OW16083   3.923   2.658   3.646
 3910SOL    HW116084   3.849   2.602   3.672
 3910SOL    HW216085   3.918   2.661   3.551
 3910SOL     MW16086   3.912   2.651   3.636
 3911SOL     OW16087   4.089   1.945   3.096
 3911SOL    HW116088   4.132   2.029   3.116
 3911SOL    HW216089   4.162   1.883   3.089
 3911SOL     MW16090   4.104   1.948   3.097
 3912SOL     OW16091   4.130   2.612   2.274
 3912SOL    HW116092   4.130   2.707   2.259
 3912SOL    HW216093   4.207   2.596   2.328
 3912SOL     MW16094   4.140   2.623   2.279
 3913SOL     OW16095   4.906   2.471   3.338
 3913SOL    HW116096   4.942   2.444   3.254
 3913SOL    HW216097   4.819   2.505   3.317
 3913SOL     MW16098   4.900   2.472   3.325
 3914SOL     OW16099   3.889   2.343   2.563
 3914SOL    HW116100   3.951   2.350   2.636
 3914SOL    HW216101   3.889   2.250   2.540
 3914SOL     MW16102   3.897   2.332   2.570
 3915SOL     OW16103   4.571   2.604   3.047
 3915SOL    HW116104   4.529   2.522   3.023
 3915SOL    HW216105   4.572   2.603   3.143
 3915SOL     MW16106   4.564   2.593   3.056
 3916SOL     OW16107   4.375   2.074   3.152
 3916SOL    HW116108   4.306   2.137   3.173
 3916SOL    HW216109   4.402   2.038   3.237
 3916SOL     MW16110   4.369   2.077   3.165
 3917SOL     OW16111   3.758   2.915   2.021
 3917SOL    HW116112   3.727   2.980   2.084
 3917SOL    HW216113   3.707   2.837   2.040
 3917SOL     MW16114   3.748   2.912   2.031
 3918SOL     OW16115   5.170   1.927   2.769
 3918SOL    HW116116   5.258   1.936   2.806
 3918SOL    HW216117   5.180   1.868   2.695
 3918SOL     MW16118   5.184   1.921   2.763
 3919SOL     OW16119   5.202   2.666   2.613
 3919SOL    HW116120   5.282   2.681   2.562
 3919SOL    HW216121   5.195   2.571   2.619
 3919SOL     MW16122   5.211   2.655   2.608
 3920SOL     OW16123   4.342   3.715   1.963
 3920SOL    HW116124   4.247   3.715   1.955
 3920SOL    HW216125   4.358   3.661   2.041
 3920SOL     MW16126   4.332   3.709   1.972
 3921SOL     OW16127   4.652   2.592   3.310
 3921SOL    HW116128   4.721   2.659   3.307
 3921SOL    HW216129   4.585   2.630   3.366
 3921SOL     MW16130   4.653   2.605   3.317
 3922SOL     OW16131   4.070   2.892   3.558
 3922SOL    HW116132   4.024   2.808   3.560
 3922SOL    HW216133   4.127   2.886   3.482
 3922SOL     MW16134   4.072   2.880   3.550
 3923SOL     OW16135   5.187   2.535   1.879
 3923SOL    HW116136   5.115   2.511   1.821
 3923SOL    HW216137   5.253   2.572   1.821
 3923SOL     MW16138   5.186   2.537   1.864
 3924SOL     OW16139   4.582   2.432   2.689
 3924SOL    HW116140   4.522   2.450   2.761
 3924SOL    HW216141   4.616   2.344   2.708
 3924SOL     MW16142   4.578   2.422   2.702
 3925SOL     OW16143   5.523   1.931   3.358
 3925SOL    HW116144   5.444   1.977   3.386
 3925SOL    HW216145   5.558   1.985   3.287
 3925SOL     MW16146   5.517   1.944   3.352
 3926SOL     OW16147   4.807   3.015   2.708
 3926SOL    HW116148   4.899   2.996   2.726
 3926SOL    HW216149   4.780   2.945   2.648
 3926SOL     MW16150   4.815   3.003   2.702
 3927SOL     OW16151   4.600   2.835   2.063
 3927SOL    HW116152   4.586   2.747   2.028
 3927SOL    HW216153   4.551   2.892   2.004
 3927SOL     MW16154   4.592   2.830   2.051
 3928SOL     OW16155   5.081   3.253   2.804
 3928SOL    HW116156   5.054   3.337   2.769
 3928SOL    HW216157   5.041   3.248   2.891
 3928SOL     MW16158   5.074   3.262   2.810
 3929SOL     OW16159   5.000   3.201   3.072
 3929SOL    HW116160   5.011   3.168   3.161
 3929SOL    HW216161   4.919   3.160   3.041
 3929SOL     MW16162   4.990   3.193   3.078
 3930SOL     OW16163   4.013   2.559   2.842
 3930SOL    HW116164   3.963   2.558   2.923
 3930SOL    HW216165   4.033   2.651   2.826
 3930SOL     MW16166   4.009   2.571   2.850
 3931SOL     OW16167   5.080   3.323   3.604
 3931SOL    HW116168   5.080   3.417   3.620
 3931SOL    HW216169   5.125   3.313   3.520
 3931SOL     MW16170   5.086   3.333   3.595
 3932SOL     OW16171   5.319   2.041   2.165
 3932SOL    HW116172   5.312   2.045   2.260
 3932SOL    HW216173   5.331   2.132   2.138
 3932SOL     MW16174   5.320   2.054   2.173
 3933SOL     OW16175   4.608   2.604   2.279
 3933SOL    HW116176   4.588   2.590   2.186
 3933SOL    HW216177   4.701   2.583   2.286
 3933SOL     MW16178   4.618   2.599   2.268
 3934SOL     OW16179   3.935   2.227   3.583
 3934SOL    HW116180   3.892   2.286   3.520
 3934SOL    HW216181   4.003   2.282   3.623
 3934SOL     MW16182   3.939   2.242   3.580
 3935SOL     OW16183   5.047   2.847   3.128
 3935SOL    HW116184   5.110   2.844   3.201
 3935SOL    HW216185   4.963   2.865   3.170
 3935SOL     MW16186   5.043   2.849   3.143
 3936SOL     OW16187   5.386   2.024   2.907
 3936SOL    HW116188   5.431   1.942   2.926
 3936SOL    HW216189   5.406   2.080   2.983
 3936SOL     MW16190   5.396   2.020   2.919
 3937SOL     OW16191   3.834   1.867   3.006
 3937SOL    HW116192   3.825   1.868   2.911
 3937SOL    HW216193   3.928   1.879   3.021
 3937SOL     MW16194   3.846   1.870   2.997
 3938SOL     OW16195   5.471   3.060   2.626
 3938SOL    HW116196   5.450   3.006   2.549
 3938SOL    HW216197   5.567   3.058   2.630
 3938SOL     MW16198   5.480   3.053   2.615
 3939SOL     OW16199   4.163   3.205   3.369
 3939SOL    HW116200   4.084   3.155   3.392
 3939SOL    HW216201   4.233   3.164   3.419
 3939SOL     MW16202   4.161   3.193   3.379
 3940SOL     OW16203   4.047   1.994   2.052
 3940SOL    HW116204   3.976   2.049   2.020
 3940SOL    HW216205   4.089   1.960   1.973
 3940SOL     MW16206   4.043   1.996   2.038
 3941SOL     OW16207   5.171   2.491   2.888
 3941SOL    HW116208   5.094   2.537   2.854
 3941SOL    HW216209   5.228   2.560   2.922
 3941SOL     MW16210   5.168   2.506   2.888
 3942SOL     OW16211   3.803   2.093   1.901
 3942SOL    HW116212   3.770   2.172   1.945
 3942SOL    HW216213   3.858   2.126   1.830
 3942SOL     MW16214   3.806   2.107   1.898
 3943SOL     OW16215   3.837   3.350   2.090
 3943SOL    HW116216   3.854   3.434   2.132
 3943SOL    HW216217   3.872   3.359   2.002
 3943SOL     MW16218   3.842   3.363   2.084
 3944SOL     OW16219   5.472   2.707   3.993
 3944SOL    HW116220   5.513   2.649   4.058
 3944SOL    HW216221   5.379   2.699   4.010
 3944SOL     MW16222   5.466   2.699   4.003
 3945SOL     OW16223   5.105   3.038   3.941
 3945SOL    HW116224   5.023   3.074   3.907
 3945SOL    HW216225   5.173   3.081   3.890
 3945SOL     MW16226   5.103   3.048   3.929
 3946SOL     OW16227   4.657   3.179   4.134
 3946SOL    HW116228   4.634   3.241   4.202
 3946SOL    HW216229   4.614   3.097   4.160
 3946SOL     MW16230   4.649   3.175   4.145
 3947SOL     OW16231   4.154   2.152   4.102
 3947SOL    HW116232   4.128   2.114   4.018
 3947SOL    HW216233   4.091   2.222   4.118
 3947SOL     MW16234   4.143   2.155   4.093
 3948SOL     OW16235   4.651   3.576   3.917
 3948SOL    HW116236   4.606   3.592   4.000
 3948SOL    HW216237   4.582   3.541   3.859
 3948SOL     MW16238   4.637   3.573   3.919
 3949SOL     OW16239   5.586   2.349   3.892
 3949SOL    HW116240   5.495   2.351   3.920
 3949SOL    HW216241   5.631   2.411   3.950
 3949SOL     MW16242   5.579   2.357   3.902
 3950SOL     OW16243   5.523   3.153   4.054
 3950SOL    HW116244   5.479   3.194   4.129
 3950SOL    HW216245   5.580   3.221   4.019
 3950SOL     MW16246   5.525   3.167   4.059
 3951SOL     OW16247   3.895   3.629   3.949
 3951SOL    HW116248   3.924   3.719   3.941
 3951SOL    HW216249   3.845   3.612   3.870
 3951SOL     MW16250   3.893   3.637   3.938
 3952SOL     OW16251   5.299   3.437   3.920
 3952SOL    HW116252   5.347   3.506   3.966
 3952SOL    HW216253   5.220   3.481   3.889
 3952SOL     MW16254   5.294   3.451   3.923
 3953SOL     OW16255   4.697   2.562   3.864
 3953SOL    HW116256   4.699   2.509   3.785
 3953SOL    HW216257   4.785   2.599   3.870
 3953SOL     MW16258   4.709   2.561   3.853
 3954SOL     OW16259   4.867   3.181   3.956
 3954SOL    HW116260   4.817   3.183   4.038
 3954SOL    HW216261   4.801   3.199   3.888
 3954SOL     MW16262   4.853   3.183   3.958
 3955SOL     OW16263   4.466   3.014   3.771
 3955SOL    HW116264   4.388   2.960   3.758
 3955SOL    HW216265   4.437   3.087   3.824
 3955SOL     MW16266   4.452   3.016   3.776
 3956SOL     OW16267   5.047   3.530   3.839
 3956SOL    HW116268   4.973   3.493   3.889
 3956SOL    HW216269   5.055   3.620   3.872
 3956SOL     MW16270   5.038   3.537   3.851
 3957SOL     OW16271   5.271   3.204   3.781
 3957SOL    HW116272   5.218   3.253   3.717
 3957SOL    HW216273   5.302   3.270   3.842
 3957SOL     MW16274   5.269   3.218   3.779
 3958SOL     OW16275   4.496   2.093   3.836
 3958SOL    HW116276   4.444   2.013   3.824
 3958SOL    HW216277   4.583   2.070   3.804
 3958SOL     MW16278   4.499   2.079   3.830
 3959SOL     OW16279   4.431   3.445   3.772
 3959SOL    HW116280   4.371   3.514   3.742
 3959SOL    HW216281   4.376   3.387   3.825
 3959SOL     MW16282   4.415   3.447   3.774
 3960SOL     OW16283   4.869   2.090   3.995
 3960SOL    HW116284   4.802   2.066   3.932
 3960SOL    HW216285   4.934   2.139   3.944
 3960SOL     MW16286   4.869   2.092   3.980
 3961SOL     OW16287   4.062   3.489   4.161
 3961SOL    HW116288   4.023   3.536   4.087
 3961SOL    HW216289   3.996   3.424   4.186
 3961SOL     MW16290   4.049   3.487   4.155
 3962SOL     OW16291   4.554   2.898   4.185
 3962SOL    HW116292   4.556   2.872   4.092
 3962SOL    HW216293   4.612   2.835   4.228
 3962SOL     MW16294   4.562   2.887   4.179
 3963SOL     OW16295   5.044   2.246   3.853
 3963SOL    HW116296   5.017   2.312   3.789
 3963SOL    HW216297   5.114   2.289   3.903
 3963SOL     MW16298   5.049   2.259   3.850
 3964SOL     OW16299   4.712   1.951   3.790
 3964SOL    HW116300   4.768   1.943   3.712
 3964SOL    HW216301   4.689   1.861   3.812
 3964SOL     MW16302   4.717   1.938   3.783
 3965SOL     OW16303   5.217   2.802   3.995
 3965SOL    HW116304   5.184   2.891   3.985
 3965SOL    HW216305   5.182   2.773   4.080
 3965SOL     MW16306   5.207   2.811   4.006
 3966SOL     OW16307   4.211   2.840   3.787
 3966SOL    HW116308   4.134   2.853   3.843
 3966SOL    HW216309   4.175   2.804   3.706
 3966SOL     MW16310   4.197   2.836   3.784
 3967SOL     OW16311   4.254   2.453   3.900
 3967SOL    HW116312   4.220   2.509   3.970
 3967SOL    HW216313   4.325   2.403   3.940
 3967SOL     MW16314   4.260   2.454   3.914
 3968SOL     OW16315   5.310   2.339   3.964
 3968SOL    HW116316   5.302   2.410   3.901
 3968SOL    HW216317   5.328   2.383   4.047
 3968SOL     MW16318   5.311   2.353   3.966
 3969SOL     OW16319   4.979   2.601   3.939
 3969SOL    HW116320   5.026   2.619   3.858
 3969SOL    HW216321   4.945   2.685   3.967
 3969SOL     MW16322   4.981   2.615   3.932
 3970SOL     OW16323   4.714   3.343   3.761
 3970SOL    HW116324   4.741   3.421   3.713
 3970SOL    HW216325   4.621   3.358   3.780
 3970SOL     MW16326   4.705   3.356   3.757
 3971SOL     OW16327   5.062   1.903   3.948
 3971SOL    HW116328   5.136   1.947   3.991
 3971SOL    HW216329   4.986   1.957   3.970
 3971SOL     MW16330   5.062   1.915   3.956
 3972SOL     OW16331   4.495   2.344   3.952
 3972SOL    HW116332   4.568   2.393   3.915
 3972SOL    HW216333   4.511   2.253   3.926
 3972SOL     MW16334   4.507   2.339   3.945
 3973SOL     OW16335   4.326   3.207   3.909
 3973SOL    HW116336   4.341   3.183   4.001
 3973SOL    HW216337   4.234   3.185   3.893
 3973SOL     MW16338   4.316   3.200   3.919
 3974SOL     OW16339   4.865   3.438   4.061
 3974SOL    HW116340   4.873   3.356   4.012
 3974SOL    HW216341   4.784   3.477   4.028
 3974SOL     MW16342   4.855   3.433   4.051
 3975SOL     OW16343   3.922   1.950   4.163
 3975SOL    HW116344   3.993   1.971   4.102
 3975SOL    HW216345   3.876   1.878   4.121
 3975SOL     MW16346   3.926   1.944   4.149
 3976SOL     OW16347   5.436   3.683   3.963
 3976SOL    HW116348   5.503   3.716   3.903
 3976SOL    HW216349   5.393   3.762   3.997
 3976SOL     MW16350   5.438   3.698   3.959
 3977SOL     OW16351   3.758   2.915   3.889
 3977SOL    HW116352   3.727   2.980   3.952
 3977SOL    HW216353   3.707   2.837   3.908
 3977SOL     MW16354   3.748   2.912   3.899
 3978SOL     OW16355   4.342   3.715   3.831
 3978SOL    HW116356   4.247   3.715   3.823
 3978SOL    HW216357   4.358   3.661   3.909
 3978SOL     MW16358   4.332   3.709   3.840
 3979SOL     OW16359   5.187   2.535   3.747
 3979SOL    HW116360   5.115   2.511   3.689
 3979SOL    HW216361   5.253   2.572   3.689
 3979SOL     MW16362   5.186   2.537   3.732
 3980SOL     OW16363   4.600   2.835   3.931
 3980SOL    HW116364   4.586   2.747   3.896
 3980SOL    HW216365   4.551   2.892   3.872
 3980SOL     MW16366   4.592   2.830   3.919
 3981SOL     OW16367   5.319   2.041   4.033
 3981SOL    HW116368   5.312   2.045   4.128
 3981SOL    HW216369   5.331   2.132   4.006
 3981SOL     MW16370   5.320   2.054   4.041
 3982SOL     OW16371   4.608   2.604   4.147
 3982SOL    HW116372   4.588   2.590   4.054
 3982SOL    HW216373   4.701   2.583   4.154
 3982SOL     MW16374   4.618   2.599   4.136
 3983SOL     OW16375   4.047   1.994   3.920
 3983SOL    HW116376   3.976   2.049   3.888
 3983SOL    HW216377   4.089   1.960   3.841
 3983SOL     MW16378   4.043   1.996   3.906
 3984SOL     OW16379   3.803   2.093   3.769
 3984SOL    HW116380   3.770   2.172   3.813
 3984SOL    HW216381   3.858   2.126   3.698
 3984SOL     MW16382   3.806   2.107   3.766
 3985SOL     OW16383   3.837   3.350   3.958
 3985SOL    HW116384   3.854   3.434   4.000
 3985SOL    HW216385   3.872   3.359   3.870
 3985SOL     MW16386   3.842   3.363   3.952
 3986SOL     OW16387   5.109   3.439   4.175
 3986SOL    HW116388   5.172   3.429   4.104
 3986SOL    HW216389   5.026   3.459   4.130
 3986SOL     MW16390   5.106   3.440   4.160
 3987SOL     OW16391   5.472   4.575   0.257
 3987SOL    HW116392   5.513   4.517   0.322
 3987SOL    HW216393   5.379   4.567   0.274
 3987SOL     MW16394   5.466   4.567   0.267
 3988SOL     OW16395   5.338   4.507   1.252
 3988SOL    HW116396   5.293   4.574   1.303
 3988SOL    HW216397   5.426   4.543   1.238
 3988SOL     MW16398   5.344   4.520   1.256
 3989SOL     OW16399   4.266   4.758   0.486
 3989SOL    HW116400   4.356   4.733   0.470
 3989SOL    HW216401   4.262   4.851   0.463
 3989SOL     MW16402   4.278   4.767   0.481
 3990SOL     OW16403   5.382   5.461   0.628
 3990SOL    HW116404   5.394   5.407   0.706
 3990SOL    HW216405   5.419   5.409   0.557
 3990SOL     MW16406   5.388   5.446   0.629
 3991SOL     OW16407   5.318   4.901   1.233
 3991SOL    HW116408   5.239   4.866   1.191
 3991SOL    HW216409   5.345   4.973   1.177
 3991SOL     MW16410   5.311   4.906   1.220
 3992SOL     OW16411   4.550   4.214   0.499
 3992SOL    HW116412   4.525   4.302   0.527
 3992SOL    HW216413   4.547   4.217   0.403
 3992SOL     MW16414   4.546   4.226   0.491
 3993SOL     OW16415   3.992   4.242   0.427
 3993SOL    HW116416   4.024   4.330   0.409
 3993SOL    HW216417   3.980   4.240   0.522
 3993SOL     MW16418   3.995   4.254   0.439
 3994SOL     OW16419   4.391   3.997   0.514
 3994SOL    HW116420   4.449   4.073   0.516
 3994SOL    HW216421   4.326   4.018   0.447
 3994SOL     MW16422   4.390   4.009   0.505
 3995SOL     OW16423   4.478   4.924   0.689
 3995SOL    HW116424   4.558   4.927   0.741
 3995SOL    HW216425   4.506   4.891   0.603
 3995SOL     MW16426   4.492   4.920   0.684
 3996SOL     OW16427   4.255   4.428   0.680
 3996SOL    HW116428   4.240   4.348   0.731
 3996SOL    HW216429   4.337   4.463   0.714
 3996SOL     MW16430   4.263   4.420   0.692
 3997SOL     OW16431   3.840   5.514   0.836
 3997SOL    HW116432   3.929   5.506   0.871
 3997SOL    HW216433   3.804   5.426   0.841
 3997SOL     MW16434   3.847   5.501   0.841
 3998SOL     OW16435   4.104   5.041   0.871
 3998SOL    HW116436   4.080   5.094   0.947
 3998SOL    HW216437   4.160   5.099   0.819
 3998SOL     MW16438   4.108   5.056   0.874
 3999SOL     OW16439   4.666   4.685   0.681
 3999SOL    HW116440   4.580   4.672   0.721
 3999SOL    HW216441   4.719   4.612   0.713
 3999SOL     MW16442   4.662   4.674   0.690
 4000SOL     OW16443   4.074   5.337   1.466
 4000SOL    HW116444   3.982   5.313   1.451
 4000SOL    HW216445   4.118   5.254   1.483
 4000SOL     MW16446   4.068   5.322   1.465
 4001SOL     OW16447   4.657   5.047   0.398
 4001SOL    HW116448   4.634   5.109   0.466
 4001SOL    HW216449   4.614   4.965   0.424
 4001SOL     MW16450   4.649   5.043   0.409
 4002SOL     OW16451   5.530   4.048   0.854
 4002SOL    HW116452   5.467   4.028   0.923
 4002SOL    HW216453   5.520   3.977   0.791
 4002SOL     MW16454   5.520   4.035   0.855
 4003SOL     OW16455   4.154   4.020   0.366
 4003SOL    HW116456   4.128   3.982   0.282
 4003SOL    HW216457   4.091   4.090   0.382
 4003SOL     MW16458   4.143   4.023   0.357
 4004SOL     OW16459   5.331   4.820   0.506
 4004SOL    HW116460   5.241   4.820   0.541
 4004SOL    HW216461   5.324   4.866   0.423
 4004SOL     MW16462   5.318   4.826   0.500
 4005SOL     OW16463   5.131   4.455   1.578
 4005SOL    HW116464   5.200   4.393   1.555
 4005SOL    HW216465   5.056   4.429   1.525
 4005SOL     MW16466   5.131   4.442   1.569
 4006SOL     OW16467   3.872   5.335   1.130
 4006SOL    HW116468   3.855   5.281   1.207
 4006SOL    HW216469   3.860   5.425   1.160
 4006SOL     MW16470   3.869   5.339   1.144
 4007SOL     OW16471   4.867   4.842   1.570
 4007SOL    HW116472   4.852   4.935   1.555
 4007SOL    HW216473   4.962   4.832   1.570
 4007SOL     MW16474   4.876   4.852   1.567
 4008SOL     OW16475   4.663   4.266   1.771
 4008SOL    HW116476   4.753   4.267   1.738
 4008SOL    HW216477   4.622   4.191   1.729
 4008SOL     MW16478   4.669   4.256   1.762
 4009SOL     OW16479   5.238   4.798   0.898
 4009SOL    HW116480   5.241   4.732   0.829
 4009SOL    HW216481   5.323   4.841   0.894
 4009SOL     MW16482   5.250   4.794   0.889
 4010SOL     OW16483   4.443   4.070   1.721
 4010SOL    HW116484   4.453   3.996   1.661
 4010SOL    HW216485   4.479   4.039   1.804
 4010SOL     MW16486   4.449   4.056   1.723
 4011SOL     OW16487   4.179   5.437   0.636
 4011SOL    HW116488   4.211   5.525   0.614
 4011SOL    HW216489   4.132   5.409   0.558
 4011SOL     MW16490   4.178   5.445   0.623
 4012SOL     OW16491   5.563   3.799   0.685
 4012SOL    HW116492   5.617   3.750   0.747
 4012SOL    HW216493   5.506   3.733   0.646
 4012SOL     MW16494   5.563   3.783   0.687
 4013SOL     OW16495   4.682   3.752   1.098
 4013SOL    HW116496   4.641   3.830   1.060
 4013SOL    HW216497   4.776   3.770   1.093
 4013SOL     MW16498   4.688   3.764   1.093
 4014SOL     OW16499   5.299   5.305   0.184
 4014SOL    HW116500   5.347   5.374   0.230
 4014SOL    HW216501   5.220   5.349   0.153
 4014SOL     MW16502   5.294   5.319   0.187
 4015SOL     OW16503   5.311   4.356   0.464
 4015SOL    HW116504   5.350   4.356   0.551
 4015SOL    HW216505   5.252   4.432   0.464
 4015SOL     MW16506   5.308   4.367   0.475
 4016SOL     OW16507   4.628   4.723   1.593
 4016SOL    HW116508   4.605   4.703   1.683
 4016SOL    HW216509   4.713   4.767   1.598
 4016SOL     MW16510   4.635   4.726   1.605
 4017SOL     OW16511   4.708   3.860   1.353
 4017SOL    HW116512   4.714   3.822   1.266
 4017SOL    HW216513   4.697   3.954   1.338
 4017SOL     MW16514   4.709   3.868   1.341
 4018SOL     OW16515   4.797   4.349   1.187
 4018SOL    HW116516   4.872   4.378   1.134
 4018SOL    HW216517   4.729   4.414   1.171
 4018SOL     MW16518   4.798   4.361   1.177
 4019SOL     OW16519   5.347   4.317   1.464
 4019SOL    HW116520   5.328   4.226   1.443
 4019SOL    HW216521   5.325   4.366   1.385
 4019SOL     MW16522   5.342   4.310   1.451
 4020SOL     OW16523   5.489   5.411   1.368
 4020SOL    HW116524   5.417   5.373   1.419
 4020SOL    HW216525   5.506   5.496   1.409
 4020SOL     MW16526   5.483   5.416   1.380
 4021SOL     OW16527   4.794   4.055   1.570
 4021SOL    HW116528   4.760   4.094   1.489
 4021SOL    HW216529   4.772   3.963   1.563
 4021SOL     MW16530   4.787   4.048   1.560
 4022SOL     OW16531   5.203   4.869   1.646
 4022SOL    HW116532   5.285   4.910   1.676
 4022SOL    HW216533   5.166   4.831   1.726
 4022SOL     MW16534   5.209   4.870   1.661
 4023SOL     OW16535   5.498   4.242   0.630
 4023SOL    HW116536   5.587   4.211   0.647
 4023SOL    HW216537   5.441   4.182   0.678
 4023SOL     MW16538   5.501   4.230   0.639
 4024SOL     OW16539   3.924   3.956   0.659
 4024SOL    HW116540   3.915   3.896   0.585
 4024SOL    HW216541   3.857   3.927   0.722
 4024SOL     MW16542   3.914   3.943   0.657
 4025SOL     OW16543   4.330   5.467   0.328
 4025SOL    HW116544   4.251   5.425   0.361
 4025SOL    HW216545   4.396   5.450   0.395
 4025SOL     MW16546   4.329   5.459   0.341
 4026SOL     OW16547   5.458   4.987   1.725
 4026SOL    HW116548   5.508   4.913   1.757
 4026SOL    HW216549   5.404   5.014   1.800
 4026SOL     MW16550   5.458   4.981   1.738
 4027SOL     OW16551   5.592   4.622   1.227
 4027SOL    HW116552   5.608   4.660   1.140
 4027SOL    HW216553   5.626   4.688   1.288
 4027SOL     MW16554   5.599   4.635   1.223
 4028SOL     OW16555   5.384   5.331   0.896
 4028SOL    HW116556   5.413   5.398   0.957
 4028SOL    HW216557   5.365   5.255   0.951
 4028SOL     MW16558   5.386   5.331   0.911
 4029SOL     OW16559   3.950   5.513   1.644
 4029SOL    HW116560   3.924   5.581   1.582
 4029SOL    HW216561   3.998   5.450   1.592
 4029SOL     MW16562   3.952   5.513   1.630
 4030SOL     OW16563   4.002   4.832   1.151
 4030SOL    HW116564   4.055   4.907   1.176
 4030SOL    HW216565   3.921   4.870   1.117
 4030SOL     MW16566   3.998   4.847   1.151
 4031SOL     OW16567   3.857   4.601   0.557
 4031SOL    HW116568   3.948   4.616   0.584
 4031SOL    HW216569   3.860   4.522   0.503
 4031SOL     MW16570   3.869   4.593   0.555
 4032SOL     OW16571   4.093   4.309   1.811
 4032SOL    HW116572   4.040   4.389   1.818
 4032SOL    HW216573   4.163   4.321   1.876
 4032SOL     MW16574   4.095   4.322   1.819
 4033SOL     OW16575   4.479   3.859   1.518
 4033SOL    HW116576   4.456   3.767   1.520
 4033SOL    HW216577   4.565   3.861   1.475
 4033SOL     MW16578   4.486   3.849   1.514
 4034SOL     OW16579   4.484   5.533   0.931
 4034SOL    HW116580   4.573   5.548   0.961
 4034SOL    HW216581   4.479   5.580   0.847
 4034SOL     MW16582   4.494   5.541   0.924
 4035SOL     OW16583   5.140   3.908   1.828
 4035SOL    HW116584   5.196   3.835   1.854
 4035SOL    HW216585   5.110   3.946   1.910
 4035SOL     MW16586   5.144   3.903   1.841
 4036SOL     OW16587   3.865   5.213   0.596
 4036SOL    HW116588   3.837   5.252   0.678
 4036SOL    HW216589   3.885   5.122   0.618
 4036SOL     MW16590   3.863   5.205   0.609
 4037SOL     OW16591   4.698   5.256   0.631
 4037SOL    HW116592   4.781   5.210   0.615
 4037SOL    HW216593   4.688   5.255   0.727
 4037SOL     MW16594   4.708   5.249   0.641
 4038SOL     OW16595   5.530   4.401   0.945
 4038SOL    HW116596   5.619   4.431   0.927
 4038SOL    HW216597   5.510   4.341   0.874
 4038SOL     MW16598   5.539   4.398   0.934
 4039SOL     OW16599   5.381   4.580   1.825
 4039SOL    HW116600   5.436   4.504   1.806
 4039SOL    HW216601   5.383   4.588   1.920
 4039SOL     MW16602   5.389   4.571   1.833
 4040SOL     OW16603   4.676   4.142   1.344
 4040SOL    HW116604   4.595   4.183   1.372
 4040SOL    HW216605   4.723   4.210   1.296
 4040SOL     MW16606   4.671   4.157   1.342
 4041SOL     OW16607   4.936   4.480   0.967
 4041SOL    HW116608   4.949   4.574   0.977
 4041SOL    HW216609   4.897   4.470   0.881
 4041SOL     MW16610   4.932   4.491   0.957
 4042SOL     OW16611   5.187   4.258   0.766
 4042SOL    HW116612   5.132   4.179   0.765
 4042SOL    HW216613   5.169   4.299   0.850
 4042SOL     MW16614   5.177   4.253   0.775
 4043SOL     OW16615   4.158   3.945   1.583
 4043SOL    HW116616   4.079   3.963   1.635
 4043SOL    HW216617   4.153   4.007   1.510
 4043SOL     MW16618   4.148   3.955   1.580
 4044SOL     OW16619   4.806   4.462   0.723
 4044SOL    HW116620   4.743   4.394   0.747
 4044SOL    HW216621   4.826   4.443   0.631
 4044SOL     MW16622   4.800   4.449   0.715
 4045SOL     OW16623   4.554   4.766   0.449
 4045SOL    HW116624   4.556   4.740   0.356
 4045SOL    HW216625   4.612   4.703   0.492
 4045SOL     MW16626   4.562   4.755   0.443
 4046SOL     OW16627   5.107   5.326   1.221
 4046SOL    HW116628   5.032   5.372   1.259
 4046SOL    HW216629   5.089   5.233   1.238
 4046SOL     MW16630   5.096   5.320   1.229
 4047SOL     OW16631   5.111   5.534   0.651
 4047SOL    HW116632   5.054   5.487   0.590
 4047SOL    HW216633   5.197   5.495   0.638
 4047SOL     MW16634   5.114   5.525   0.641
 4048SOL     OW16635   5.064   4.010   0.782
 4048SOL    HW116636   5.092   3.942   0.843
 4048SOL    HW216637   4.978   3.981   0.752
 4048SOL     MW16638   5.057   3.997   0.786
 4049SOL     OW16639   3.869   4.944   0.716
 4049SOL    HW116640   3.933   4.976   0.779
 4049SOL    HW216641   3.918   4.880   0.664
 4049SOL     MW16642   3.884   4.940   0.717
 4050SOL     OW16643   4.123   3.767   1.789
 4050SOL    HW116644   4.051   3.732   1.737
 4050SOL    HW216645   4.181   3.808   1.724
 4050SOL     MW16646   4.121   3.768   1.774
 4051SOL     OW16647   4.147   5.257   1.088
 4051SOL    HW116648   4.192   5.319   1.145
 4051SOL    HW216649   4.054   5.276   1.101
 4051SOL     MW16650   4.140   5.267   1.095
 4052SOL     OW16651   5.587   4.786   1.442
 4052SOL    HW116652   5.502   4.799   1.401
 4052SOL    HW216653   5.567   4.750   1.529
 4052SOL     MW16654   5.574   4.782   1.447
 4053SOL     OW16655   4.569   5.325   1.196
 4053SOL    HW116656   4.593   5.314   1.105
 4053SOL    HW216657   4.492   5.382   1.194
 4053SOL     MW16658   4.561   5.330   1.185
 4054SOL     OW16659   5.228   4.040   1.388
 4054SOL    HW116660   5.175   4.042   1.468
 4054SOL    HW216661   5.213   3.953   1.351
 4054SOL     MW16662   5.220   4.030   1.393
 4055SOL     OW16663   5.564   3.964   1.261
 4055SOL    HW116664   5.545   4.031   1.196
 4055SOL    HW216665   5.621   3.902   1.216
 4055SOL     MW16666   5.568   3.965   1.247
 4056SOL     OW16667   4.493   3.797   0.701
 4056SOL    HW116668   4.422   3.858   0.683
 4056SOL    HW216669   4.544   3.794   0.620
 4056SOL     MW16670   4.489   3.803   0.688
 4057SOL     OW16671   4.251   5.037   0.450
 4057SOL    HW116672   4.244   5.069   0.540
 4057SOL    HW216673   4.161   5.021   0.422
 4057SOL     MW16674   4.239   5.039   0.457
 4058SOL     OW16675   4.846   5.430   1.359
 4058SOL    HW116676   4.766   5.415   1.309
 4058SOL    HW216677   4.853   5.525   1.366
 4058SOL     MW16678   4.837   5.441   1.353
 4059SOL     OW16679   4.960   5.395   0.849
 4059SOL    HW116680   5.007   5.468   0.808
 4059SOL    HW216681   4.881   5.434   0.885
 4059SOL     MW16682   4.955   5.410   0.848
 4060SOL     OW16683   5.368   5.490   1.124
 4060SOL    HW116684   5.411   5.460   1.204
 4060SOL    HW216685   5.287   5.438   1.121
 4060SOL     MW16686   5.363   5.479   1.134
 4061SOL     OW16687   4.453   4.454   1.831
 4061SOL    HW116688   4.523   4.396   1.803
 4061SOL    HW216689   4.396   4.399   1.886
 4061SOL     MW16690   4.455   4.441   1.835
 4062SOL     OW16691   5.240   4.666   1.464
 4062SOL    HW116692   5.245   4.719   1.544
 4062SOL    HW216693   5.202   4.583   1.492
 4062SOL     MW16694   5.236   4.661   1.479
 4063SOL     OW16695   4.880   3.801   1.710
 4063SOL    HW116696   4.875   3.708   1.691
 4063SOL    HW216697   4.963   3.812   1.756
 4063SOL     MW16698   4.888   3.790   1.714
 4064SOL     OW16699   5.350   5.072   0.986
 4064SOL    HW116700   5.385   5.054   0.899
 4064SOL    HW216701   5.255   5.073   0.973
 4064SOL     MW16702   5.342   5.069   0.973
 4065SOL     OW16703   4.170   3.862   0.657
 4065SOL    HW116704   4.220   3.905   0.588
 4065SOL    HW216705   4.085   3.906   0.657
 4065SOL     MW16706   4.167   3.875   0.648
 4066SOL     OW16707   4.437   4.251   1.484
 4066SOL    HW116708   4.409   4.339   1.508
 4066SOL    HW216709   4.406   4.195   1.555
 4066SOL     MW16710   4.429   4.254   1.496
 4067SOL     OW16711   4.092   4.647   0.697
 4067SOL    HW116712   4.150   4.703   0.645
 4067SOL    HW216713   4.136   4.562   0.699
 4067SOL     MW16714   4.105   4.644   0.690
 4068SOL     OW16715   5.232   3.999   0.534
 4068SOL    HW116716   5.154   3.949   0.559
 4068SOL    HW216717   5.203   4.090   0.534
 4068SOL     MW16718   5.218   4.003   0.537
 4069SOL     OW16719   4.818   3.961   0.693
 4069SOL    HW116720   4.838   4.036   0.637
 4069SOL    HW216721   4.798   4.000   0.778
 4069SOL     MW16722   4.819   3.977   0.697
 4070SOL     OW16723   4.714   5.211   0.025
 4070SOL    HW116724   4.741   5.289  -0.023
 4070SOL    HW216725   4.621   5.226   0.044
 4070SOL     MW16726   4.705   5.224   0.021
 4071SOL     OW16727   5.578   4.734   1.712
 4071SOL    HW116728   5.491   4.714   1.748
 4071SOL    HW216729   5.632   4.660   1.737
 4071SOL     MW16730   5.573   4.723   1.720
 4072SOL     OW16731   3.799   5.247   0.869
 4072SOL    HW116732   3.831   5.251   0.960
 4072SOL    HW216733   3.704   5.255   0.877
 4072SOL     MW16734   3.791   5.250   0.882
 4073SOL     OW16735   3.754   4.373   0.416
 4073SOL    HW116736   3.694   4.345   0.486
 4073SOL    HW216737   3.828   4.313   0.422
 4073SOL     MW16738   3.756   4.362   0.425
 4074SOL     OW16739   5.322   5.585   1.850
 4074SOL    HW116740   5.367   5.509   1.815
 4074SOL    HW216741   5.360   5.598   1.937
 4074SOL     MW16742   5.332   5.578   1.856
 4075SOL     OW16743   4.922   5.104   0.576
 4075SOL    HW116744   4.945   5.055   0.654
 4075SOL    HW216745   5.003   5.146   0.548
 4075SOL     MW16746   4.935   5.104   0.583
 4076SOL     OW16747   4.180   4.112   1.305
 4076SOL    HW116748   4.213   4.193   1.345
 4076SOL    HW216749   4.153   4.138   1.217
 4076SOL     MW16750   4.179   4.126   1.299
 4077SOL     OW16751   4.963   4.288   1.732
 4077SOL    HW116752   5.015   4.223   1.685
 4077SOL    HW216753   4.921   4.339   1.662
 4077SOL     MW16754   4.964   4.285   1.715
 4078SOL     OW16755   5.062   4.083   1.593
 4078SOL    HW116756   4.969   4.067   1.580
 4078SOL    HW216757   5.088   4.021   1.661
 4078SOL     MW16758   5.052   4.073   1.600
 4079SOL     OW16759   4.371   5.472   1.478
 4079SOL    HW116760   4.288   5.457   1.523
 4079SOL    HW216761   4.430   5.405   1.513
 4079SOL     MW16762   4.369   5.462   1.488
 4080SOL     OW16763   5.428   4.179   1.103
 4080SOL    HW116764   5.361   4.212   1.163
 4080SOL    HW216765   5.471   4.257   1.069
 4080SOL     MW16766   5.426   4.194   1.107
 4081SOL     OW16767   5.606   4.899   1.073
 4081SOL    HW116768   5.599   4.839   0.998
 4081SOL    HW216769   5.532   4.959   1.062
 4081SOL     MW16770   5.596   4.899   1.062
 4082SOL     OW16771   4.988   4.761   0.991
 4082SOL    HW116772   5.002   4.733   1.082
 4082SOL    HW216773   5.074   4.792   0.963
 4082SOL     MW16774   5.001   4.762   1.000
 4083SOL     OW16775   5.071   4.256   1.270
 4083SOL    HW116776   5.092   4.257   1.177
 4083SOL    HW216777   5.116   4.178   1.303
 4083SOL     MW16778   5.078   4.246   1.262
 4084SOL     OW16779   5.564   4.387   1.812
 4084SOL    HW116780   5.601   4.332   1.881
 4084SOL    HW216781   5.589   4.344   1.730
 4084SOL     MW16782   5.571   4.375   1.811
 4085SOL     OW16783   5.111   4.685   1.863
 4085SOL    HW116784   5.177   4.633   1.817
 4085SOL    HW216785   5.131   4.672   1.956
 4085SOL     MW16786   5.122   4.676   1.870
 4086SOL     OW16787   5.122   4.546   0.490
 4086SOL    HW116788   5.037   4.516   0.460
 4086SOL    HW216789   5.114   4.553   0.585
 4086SOL     MW16790   5.110   4.544   0.499
 4087SOL     OW16791   4.482   3.989   1.044
 4087SOL    HW116792   4.455   3.991   1.135
 4087SOL    HW216793   4.412   3.941   0.999
 4087SOL     MW16794   4.470   3.985   1.051
 4088SOL     OW16795   4.336   5.481   1.206
 4088SOL    HW116796   4.388   5.558   1.183
 4088SOL    HW216797   4.345   5.473   1.301
 4088SOL     MW16798   4.345   5.488   1.217
 4089SOL     OW16799   5.238   5.066   1.438
 4089SOL    HW116800   5.223   4.995   1.501
 4089SOL    HW216801   5.284   5.024   1.366
 4089SOL     MW16802   5.244   5.050   1.438
 4090SOL     OW16803   5.303   5.329   1.539
 4090SOL    HW116804   5.345   5.314   1.624
 4090SOL    HW216805   5.294   5.242   1.501
 4090SOL     MW16806   5.307   5.317   1.546
 4091SOL     OW16807   4.963   3.808   1.130
 4091SOL    HW116808   5.018   3.817   1.052
 4091SOL    HW216809   5.018   3.842   1.201
 4091SOL     MW16810   4.977   3.813   1.129
 4092SOL     OW16811   3.970   4.721   0.314
 4092SOL    HW116812   3.907   4.737   0.243
 4092SOL    HW216813   3.917   4.684   0.385
 4092SOL     MW16814   3.955   4.718   0.314
 4093SOL     OW16815   4.124   5.464   0.894
 4093SOL    HW116816   4.128   5.375   0.929
 4093SOL    HW216817   4.150   5.455   0.803
 4093SOL     MW16818   4.127   5.452   0.886
 4094SOL     OW16819   3.830   5.217   1.388
 4094SOL    HW116820   3.820   5.175   1.474
 4094SOL    HW216821   3.751   5.270   1.378
 4094SOL     MW16822   3.819   5.218   1.399
 4095SOL     OW16823   4.734   4.081   0.958
 4095SOL    HW116824   4.664   4.033   1.003
 4095SOL    HW216825   4.766   4.144   1.022
 4095SOL     MW16826   4.729   4.083   0.972
 4096SOL     OW16827   5.190   3.795   1.303
 4096SOL    HW116828   5.261   3.741   1.267
 4096SOL    HW216829   5.189   3.774   1.396
 4096SOL     MW16830   5.199   3.786   1.311
 4097SOL     OW16831   5.390   5.325   1.787
 4097SOL    HW116832   5.363   5.322   1.878
 4097SOL    HW216833   5.486   5.329   1.790
 4097SOL     MW16834   5.400   5.325   1.799
 4098SOL     OW16835   4.517   5.280   0.847
 4098SOL    HW116836   4.445   5.217   0.860
 4098SOL    HW216837   4.478   5.365   0.865
 4098SOL     MW16838   4.501   5.283   0.850
 4099SOL     OW16839   4.837   4.128   0.495
 4099SOL    HW116840   4.859   4.065   0.427
 4099SOL    HW216841   4.742   4.120   0.506
 4099SOL     MW16842   4.827   4.119   0.487
 4100SOL     OW16843   3.922   3.818   0.427
 4100SOL    HW116844   3.993   3.839   0.366
 4100SOL    HW216845   3.876   3.746   0.385
 4100SOL     MW16846   3.926   3.812   0.413
 4101SOL     OW16847   5.491   5.192   0.527
 4101SOL    HW116848   5.461   5.125   0.588
 4101SOL    HW216849   5.585   5.198   0.541
 4101SOL     MW16850   5.499   5.184   0.537
 4102SOL     OW16851   5.047   4.869   0.457
 4102SOL    HW116852   5.019   4.955   0.490
 4102SOL    HW216853   5.075   4.885   0.367
 4102SOL     MW16854   5.047   4.883   0.449
 4103SOL     OW16855   4.709   3.789   0.510
 4103SOL    HW116856   4.746   3.848   0.575
 4103SOL    HW216857   4.686   3.845   0.436
 4103SOL     MW16858   4.710   3.804   0.509
 4104SOL     OW16859   5.562   4.671   0.932
 4104SOL    HW116860   5.553   4.703   0.843
 4104SOL    HW216861   5.515   4.587   0.932
 4104SOL     MW16862   5.555   4.664   0.922
 4105SOL     OW16863   5.474   4.602   0.633
 4105SOL    HW116864   5.568   4.591   0.621
 4105SOL    HW216865   5.450   4.674   0.574
 4105SOL     MW16866   5.484   4.610   0.624
 4106SOL     OW16867   4.130   4.480   0.406
 4106SOL    HW116868   4.130   4.575   0.391
 4106SOL    HW216869   4.207   4.464   0.460
 4106SOL     MW16870   4.140   4.491   0.411
 4107SOL     OW16871   4.906   4.339   1.470
 4107SOL    HW116872   4.942   4.312   1.386
 4107SOL    HW216873   4.819   4.373   1.449
 4107SOL     MW16874   4.900   4.340   1.457
 4108SOL     OW16875   5.436   5.551   0.227
 4108SOL    HW116876   5.503   5.584   0.167
 4108SOL    HW216877   5.393   5.630   0.261
 4108SOL     MW16878   5.438   5.566   0.223
 4109SOL     OW16879   4.571   4.472   1.179
 4109SOL    HW116880   4.529   4.390   1.155
 4109SOL    HW216881   4.572   4.471   1.275
 4109SOL     MW16882   4.564   4.461   1.188
 4110SOL     OW16883   5.242   5.605   1.578
 4110SOL    HW116884   5.245   5.511   1.561
 4110SOL    HW216885   5.265   5.613   1.670
 4110SOL     MW16886   5.245   5.593   1.588
 4111SOL     OW16887   4.375   3.942   1.284
 4111SOL    HW116888   4.306   4.005   1.305
 4111SOL    HW216889   4.402   3.906   1.369
 4111SOL     MW16890   4.369   3.945   1.297
 4112SOL     OW16891   5.170   3.795   0.901
 4112SOL    HW116892   5.258   3.804   0.938
 4112SOL    HW216893   5.180   3.736   0.827
 4112SOL     MW16894   5.184   3.789   0.895
 4113SOL     OW16895   5.202   4.534   0.745
 4113SOL    HW116896   5.282   4.549   0.694
 4113SOL    HW216897   5.195   4.439   0.751
 4113SOL     MW16898   5.211   4.523   0.740
 4114SOL     OW16899   4.652   4.460   1.442
 4114SOL    HW116900   4.721   4.527   1.439
 4114SOL    HW216901   4.585   4.498   1.498
 4114SOL     MW16902   4.653   4.473   1.449
 4115SOL     OW16903   4.321   5.135   0.691
 4115SOL    HW116904   4.386   5.068   0.712
 4115SOL    HW216905   4.373   5.212   0.668
 4115SOL     MW16906   4.336   5.137   0.690
 4116SOL     OW16907   4.582   4.300   0.821
 4116SOL    HW116908   4.522   4.318   0.893
 4116SOL    HW216909   4.616   4.212   0.840
 4116SOL     MW16910   4.578   4.290   0.834
 4117SOL     OW16911   5.523   3.799   1.490
 4117SOL    HW116912   5.444   3.845   1.518
 4117SOL    HW216913   5.558   3.853   1.419
 4117SOL     MW16914   5.517   3.812   1.484
 4118SOL     OW16915   4.807   4.883   0.840
 4118SOL    HW116916   4.899   4.864   0.858
 4118SOL    HW216917   4.780   4.813   0.780
 4118SOL     MW16918   4.815   4.871   0.834
 4119SOL     OW16919   5.081   5.121   0.936
 4119SOL    HW116920   5.054   5.205   0.901
 4119SOL    HW216921   5.041   5.116   1.023
 4119SOL     MW16922   5.074   5.130   0.942
 4120SOL     OW16923   4.608   4.472   0.411
 4120SOL    HW116924   4.588   4.458   0.318
 4120SOL    HW216925   4.701   4.451   0.418
 4120SOL     MW16926   4.618   4.467   0.400
 4121SOL     OW16927   3.935   4.095   1.715
 4121SOL    HW116928   3.892   4.154   1.652
 4121SOL    HW216929   4.003   4.150   1.755
 4121SOL     MW16930   3.939   4.110   1.712
 4122SOL     OW16931   5.047   4.715   1.260
 4122SOL    HW116932   5.110   4.712   1.333
 4122SOL    HW216933   4.963   4.733   1.302
 4122SOL     MW16934   5.043   4.717   1.275
 4123SOL     OW16935   4.591   5.430   0.449
 4123SOL    HW116936   4.649   5.501   0.476
 4123SOL    HW216937   4.614   5.358   0.507
 4123SOL     MW16938   4.602   5.430   0.460
 4124SOL     OW16939   5.386   3.892   1.039
 4124SOL    HW116940   5.431   3.810   1.058
 4124SOL    HW216941   5.406   3.948   1.115
 4124SOL     MW16942   5.396   3.888   1.051
 4125SOL     OW16943   5.471   4.928   0.758
 4125SOL    HW116944   5.450   4.874   0.681
 4125SOL    HW216945   5.567   4.926   0.762
 4125SOL     MW16946   5.480   4.921   0.747
 4126SOL     OW16947   4.047   3.862   0.184
 4126SOL    HW116948   3.976   3.917   0.152
 4126SOL    HW216949   4.089   3.828   0.105
 4126SOL     MW16950   4.043   3.864   0.170
 4127SOL     OW16951   5.171   4.359   1.020
 4127SOL    HW116952   5.094   4.405   0.986
 4127SOL    HW216953   5.228   4.428   1.054
 4127SOL     MW16954   5.168   4.374   1.020
 4128SOL     OW16955   5.472   4.575   2.125
 4128SOL    HW116956   5.513   4.517   2.190
 4128SOL    HW216957   5.379   4.567   2.142
 4128SOL     MW16958   5.466   4.567   2.135
 4129SOL     OW16959   5.338   4.507   3.120
 4129SOL    HW116960   5.293   4.574   3.171
 4129SOL    HW216961   5.426   4.543   3.106
 4129SOL     MW16962   5.344   4.520   3.124
 4130SOL     OW16963   5.382   5.461   2.496
 4130SOL    HW116964   5.394   5.407   2.574
 4130SOL    HW216965   5.419   5.409   2.425
 4130SOL     MW16966   5.388   5.446   2.497
 4131SOL     OW16967   4.761   5.346   3.497
 4131SOL    HW116968   4.802   5.382   3.418
 4131SOL    HW216969   4.796   5.257   3.504
 4131SOL     MW16970   4.772   5.339   3.488
 4132SOL     OW16971   5.318   4.901   3.101
 4132SOL    HW116972   5.239   4.866   3.059
 4132SOL    HW216973   5.345   4.973   3.045
 4132SOL     MW16974   5.311   4.906   3.088
 4133SOL     OW16975   4.070   4.655   3.196
 4133SOL    HW116976   4.133   4.602   3.147
 4133SOL    HW216977   4.051   4.729   3.139
 4133SOL     MW16978   4.076   4.657   3.183
 4134SOL     OW16979   4.478   4.924   2.557
 4134SOL    HW116980   4.558   4.927   2.609
 4134SOL    HW216981   4.506   4.891   2.471
 4134SOL     MW16982   4.492   4.920   2.552
 4135SOL     OW16983   4.503   5.265   3.460
 4135SOL    HW116984   4.587   5.291   3.499
 4135SOL    HW216985   4.527   5.209   3.386
 4135SOL     MW16986   4.517   5.261   3.455
 4136SOL     OW16987   4.592   5.114   3.233
 4136SOL    HW116988   4.556   5.180   3.173
 4136SOL    HW216989   4.520   5.052   3.246
 4136SOL     MW16990   4.578   5.114   3.227
 4137SOL     OW16991   3.840   5.514   2.704
 4137SOL    HW116992   3.929   5.506   2.739
 4137SOL    HW216993   3.804   5.426   2.709
 4137SOL     MW16994   3.847   5.501   2.709
 4138SOL     OW16995   4.104   5.041   2.739
 4138SOL    HW116996   4.080   5.094   2.815
 4138SOL    HW216997   4.160   5.099   2.687
 4138SOL     MW16998   4.108   5.056   2.742
 4139SOL     OW16999   4.074   5.337   3.334
 4139SOL    HW117000   3.982   5.313   3.319
 4139SOL    HW217001   4.118   5.254   3.351
 4139SOL     MW17002   4.068   5.322   3.333
 4140SOL     OW17003   4.154   4.020   2.234
 4140SOL    HW117004   4.128   3.982   2.150
 4140SOL    HW217005   4.091   4.090   2.250
 4140SOL     MW17006   4.143   4.023   2.225
 4141SOL     OW17007   4.651   5.444   2.049
 4141SOL    HW117008   4.606   5.460   2.132
 4141SOL    HW217009   4.582   5.409   1.991
 4141SOL     MW17010   4.637   5.441   2.051
 4142SOL     OW17011   5.586   4.217   2.024
 4142SOL    HW117012   5.495   4.219   2.052
 4142SOL    HW217013   5.631   4.279   2.082
 4142SOL     MW17014   5.579   4.225   2.034
 4143SOL     OW17015   5.331   4.820   2.374
 4143SOL    HW117016   5.241   4.820   2.409
 4143SOL    HW217017   5.324   4.866   2.291
 4143SOL     MW17018   5.318   4.826   2.368
 4144SOL     OW17019   5.131   4.455   3.446
 4144SOL    HW117020   5.200   4.393   3.423
 4144SOL    HW217021   5.056   4.429   3.393
 4144SOL     MW17022   5.131   4.442   3.437
 4145SOL     OW17023   3.872   5.335   2.998
 4145SOL    HW117024   3.855   5.281   3.075
 4145SOL    HW217025   3.860   5.425   3.028
 4145SOL     MW17026   3.869   5.339   3.012
 4146SOL     OW17027   4.867   4.842   3.438
 4146SOL    HW117028   4.852   4.935   3.423
 4146SOL    HW217029   4.962   4.832   3.438
 4146SOL     MW17030   4.876   4.852   3.435
 4147SOL     OW17031   4.663   4.266   3.639
 4147SOL    HW117032   4.753   4.267   3.606
 4147SOL    HW217033   4.622   4.191   3.597
 4147SOL     MW17034   4.669   4.256   3.630
 4148SOL     OW17035   5.523   5.021   2.186
 4148SOL    HW117036   5.479   5.062   2.261
 4148SOL    HW217037   5.580   5.089   2.151
 4148SOL     MW17038   5.525   5.035   2.191
 4149SOL     OW17039   4.443   4.070   3.589
 4149SOL    HW117040   4.453   3.996   3.529
 4149SOL    HW217041   4.479   4.039   3.672
 4149SOL     MW17042   4.449   4.056   3.591
 4150SOL     OW17043   4.179   5.437   2.504
 4150SOL    HW117044   4.211   5.525   2.482
 4150SOL    HW217045   4.132   5.409   2.426
 4150SOL     MW17046   4.178   5.445   2.491
 4151SOL     OW17047   3.895   5.497   2.081
 4151SOL    HW117048   3.924   5.587   2.073
 4151SOL    HW217049   3.845   5.480   2.002
 4151SOL     MW17050   3.893   5.505   2.070
 4152SOL     OW17051   4.682   3.752   2.966
 4152SOL    HW117052   4.641   3.830   2.928
 4152SOL    HW217053   4.776   3.770   2.961
 4152SOL     MW17054   4.688   3.764   2.961
 4153SOL     OW17055   5.299   5.305   2.052
 4153SOL    HW117056   5.347   5.374   2.098
 4153SOL    HW217057   5.220   5.349   2.021
 4153SOL     MW17058   5.294   5.319   2.055
 4154SOL     OW17059   4.628   4.723   3.461
 4154SOL    HW117060   4.605   4.703   3.551
 4154SOL    HW217061   4.713   4.767   3.466
 4154SOL     MW17062   4.635   4.726   3.473
 4155SOL     OW17063   4.708   3.860   3.221
 4155SOL    HW117064   4.714   3.822   3.134
 4155SOL    HW217065   4.697   3.954   3.206
 4155SOL     MW17066   4.709   3.868   3.209
 4156SOL     OW17067   4.797   4.349   3.055
 4156SOL    HW117068   4.872   4.378   3.002
 4156SOL    HW217069   4.729   4.414   3.039
 4156SOL     MW17070   4.798   4.361   3.045
 4157SOL     OW17071   5.347   4.317   3.332
 4157SOL    HW117072   5.328   4.226   3.311
 4157SOL    HW217073   5.325   4.366   3.253
 4157SOL     MW17074   5.342   4.310   3.319
 4158SOL     OW17075   5.489   5.411   3.236
 4158SOL    HW117076   5.417   5.373   3.287
 4158SOL    HW217077   5.506   5.496   3.277
 4158SOL     MW17078   5.483   5.416   3.248
 4159SOL     OW17079   4.794   4.055   3.438
 4159SOL    HW117080   4.760   4.094   3.357
 4159SOL    HW217081   4.772   3.963   3.431
 4159SOL     MW17082   4.787   4.048   3.428
 4160SOL     OW17083   5.203   4.869   3.514
 4160SOL    HW117084   5.285   4.910   3.544
 4160SOL    HW217085   5.166   4.831   3.594
 4160SOL     MW17086   5.209   4.870   3.529
 4161SOL     OW17087   3.924   3.956   2.527
 4161SOL    HW117088   3.915   3.896   2.453
 4161SOL    HW217089   3.857   3.927   2.590
 4161SOL     MW17090   3.914   3.943   2.525
 4162SOL     OW17091   4.330   5.467   2.196
 4162SOL    HW117092   4.251   5.425   2.229
 4162SOL    HW217093   4.396   5.450   2.263
 4162SOL     MW17094   4.329   5.459   2.209
 4163SOL     OW17095   5.458   4.987   3.593
 4163SOL    HW117096   5.508   4.913   3.625
 4163SOL    HW217097   5.404   5.014   3.668
 4163SOL     MW17098   5.458   4.981   3.606
 4164SOL     OW17099   5.592   4.622   3.095
 4164SOL    HW117100   5.608   4.660   3.008
 4164SOL    HW217101   5.626   4.688   3.156
 4164SOL     MW17102   5.599   4.635   3.091
 4165SOL     OW17103   5.384   5.331   2.764
 4165SOL    HW117104   5.413   5.398   2.825
 4165SOL    HW217105   5.365   5.255   2.819
 4165SOL     MW17106   5.386   5.331   2.779
 4166SOL     OW17107   3.855   4.404   3.060
 4166SOL    HW117108   3.917   4.434   3.126
 4166SOL    HW217109   3.789   4.473   3.054
 4166SOL     MW17110   3.854   4.417   3.067
 4167SOL     OW17111   5.271   5.072   1.913
 4167SOL    HW117112   5.218   5.121   1.849
 4167SOL    HW217113   5.302   5.138   1.974
 4167SOL     MW17114   5.269   5.086   1.911
 4168SOL     OW17115   4.496   3.961   1.968
 4168SOL    HW117116   4.444   3.881   1.956
 4168SOL    HW217117   4.583   3.938   1.936
 4168SOL     MW17118   4.499   3.947   1.962
 4169SOL     OW17119   3.950   5.513   3.512
 4169SOL    HW117120   3.924   5.581   3.450
 4169SOL    HW217121   3.998   5.450   3.460
 4169SOL     MW17122   3.952   5.513   3.498
 4170SOL     OW17123   4.002   4.832   3.019
 4170SOL    HW117124   4.055   4.907   3.044
 4170SOL    HW217125   3.921   4.870   2.985
 4170SOL     MW17126   3.998   4.847   3.019
 4171SOL     OW17127   4.542   4.736   3.007
 4171SOL    HW117128   4.570   4.645   3.019
 4171SOL    HW217129   4.471   4.730   2.943
 4171SOL     MW17130   4.535   4.724   3.002
 4172SOL     OW17131   3.857   4.601   2.425
 4172SOL    HW117132   3.948   4.616   2.452
 4172SOL    HW217133   3.860   4.522   2.371
 4172SOL     MW17134   3.869   4.593   2.423
 4173SOL     OW17135   4.093   4.309   3.679
 4173SOL    HW117136   4.040   4.389   3.686
 4173SOL    HW217137   4.163   4.321   3.744
 4173SOL     MW17138   4.095   4.322   3.687
 4174SOL     OW17139   4.479   3.859   3.386
 4174SOL    HW117140   4.456   3.767   3.388
 4174SOL    HW217141   4.565   3.861   3.343
 4174SOL     MW17142   4.486   3.849   3.382
 4175SOL     OW17143   4.163   4.383   3.425
 4175SOL    HW117144   4.243   4.433   3.411
 4175SOL    HW217145   4.154   4.377   3.520
 4175SOL     MW17146   4.172   4.389   3.435
 4176SOL     OW17147   4.484   5.533   2.799
 4176SOL    HW117148   4.573   5.548   2.829
 4176SOL    HW217149   4.479   5.580   2.715
 4176SOL     MW17150   4.494   5.541   2.792
 4177SOL     OW17151   5.140   3.908   3.696
 4177SOL    HW117152   5.196   3.835   3.722
 4177SOL    HW217153   5.110   3.946   3.778
 4177SOL     MW17154   5.144   3.903   3.709
 4178SOL     OW17155   5.530   4.401   2.813
 4178SOL    HW117156   5.619   4.431   2.795
 4178SOL    HW217157   5.510   4.341   2.742
 4178SOL     MW17158   5.539   4.398   2.802
 4179SOL     OW17159   5.381   4.580   3.693
 4179SOL    HW117160   5.436   4.504   3.674
 4179SOL    HW217161   5.383   4.588   3.788
 4179SOL     MW17162   5.389   4.571   3.701
 4180SOL     OW17163   4.431   5.313   1.904
 4180SOL    HW117164   4.371   5.382   1.874
 4180SOL    HW217165   4.376   5.255   1.957
 4180SOL     MW17166   4.415   5.315   1.906
 4181SOL     OW17167   4.676   4.142   3.212
 4181SOL    HW117168   4.595   4.183   3.240
 4181SOL    HW217169   4.723   4.210   3.164
 4181SOL     MW17170   4.671   4.157   3.210
 4182SOL     OW17171   4.158   3.945   3.451
 4182SOL    HW117172   4.079   3.963   3.503
 4182SOL    HW217173   4.153   4.007   3.378
 4182SOL     MW17174   4.148   3.955   3.448
 4183SOL     OW17175   4.062   5.357   2.293
 4183SOL    HW117176   4.023   5.404   2.219
 4183SOL    HW217177   3.996   5.292   2.318
 4183SOL     MW17178   4.049   5.355   2.287
 4184SOL     OW17179   5.107   5.326   3.089
 4184SOL    HW117180   5.032   5.372   3.127
 4184SOL    HW217181   5.089   5.233   3.106
 4184SOL     MW17182   5.096   5.320   3.097
 4185SOL     OW17183   5.111   5.534   2.519
 4185SOL    HW117184   5.054   5.487   2.458
 4185SOL    HW217185   5.197   5.495   2.506
 4185SOL     MW17186   5.114   5.525   2.509
 4186SOL     OW17187   4.369   5.020   3.566
 4186SOL    HW117188   4.417   5.103   3.553
 4186SOL    HW217189   4.426   4.968   3.622
 4186SOL     MW17190   4.383   5.024   3.572
 4187SOL     OW17191   3.945   5.262   3.706
 4187SOL    HW117192   4.001   5.186   3.721
 4187SOL    HW217193   3.894   5.240   3.628
 4187SOL     MW17194   3.945   5.249   3.697
 4188SOL     OW17195   5.044   4.114   1.985
 4188SOL    HW117196   5.017   4.180   1.921
 4188SOL    HW217197   5.114   4.157   2.035
 4188SOL     MW17198   5.049   4.127   1.982
 4189SOL     OW17199   4.712   3.819   1.922
 4189SOL    HW117200   4.768   3.811   1.844
 4189SOL    HW217201   4.689   3.729   1.944
 4189SOL     MW17202   4.717   3.806   1.915
 4190SOL     OW17203   5.217   4.670   2.127
 4190SOL    HW117204   5.184   4.759   2.117
 4190SOL    HW217205   5.182   4.641   2.212
 4190SOL     MW17206   5.207   4.679   2.138
 4191SOL     OW17207   4.830   5.099   3.315
 4191SOL    HW117208   4.741   5.105   3.283
 4191SOL    HW217209   4.874   5.178   3.283
 4191SOL     MW17210   4.825   5.109   3.307
 4192SOL     OW17211   4.123   3.767   3.657
 4192SOL    HW117212   4.051   3.732   3.605
 4192SOL    HW217213   4.181   3.808   3.592
 4192SOL     MW17214   4.121   3.768   3.642
 4193SOL     OW17215   4.147   5.257   2.956
 4193SOL    HW117216   4.192   5.319   3.013
 4193SOL    HW217217   4.054   5.276   2.969
 4193SOL     MW17218   4.140   5.267   2.963
 4194SOL     OW17219   5.587   4.786   3.310
 4194SOL    HW117220   5.502   4.799   3.269
 4194SOL    HW217221   5.567   4.750   3.397
 4194SOL     MW17222   5.574   4.782   3.315
 4195SOL     OW17223   4.569   5.325   3.064
 4195SOL    HW117224   4.593   5.314   2.973
 4195SOL    HW217225   4.492   5.382   3.062
 4195SOL     MW17226   4.561   5.330   3.053
 4196SOL     OW17227   4.364   5.030   2.854
 4196SOL    HW117228   4.357   5.009   2.948
 4196SOL    HW217229   4.282   4.998   2.817
 4196SOL     MW17230   4.352   5.024   2.861
 4197SOL     OW17231   5.564   3.964   3.129
 4197SOL    HW117232   5.545   4.031   3.064
 4197SOL    HW217233   5.621   3.902   3.084
 4197SOL     MW17234   5.568   3.965   3.115
 4198SOL     OW17235   3.810   5.122   3.517
 4198SOL    HW117236   3.854   5.055   3.463
 4198SOL    HW217237   3.725   5.084   3.537
 4198SOL     MW17238   3.805   5.108   3.513
 4199SOL     OW17239   4.251   5.037   2.318
 4199SOL    HW117240   4.244   5.069   2.408
 4199SOL    HW217241   4.161   5.021   2.290
 4199SOL     MW17242   4.239   5.039   2.325
 4200SOL     OW17243   4.846   5.430   3.227
 4200SOL    HW117244   4.766   5.415   3.177
 4200SOL    HW217245   4.853   5.525   3.234
 4200SOL     MW17246   4.837   5.441   3.221
 4201SOL     OW17247   4.960   5.395   2.717
 4201SOL    HW117248   5.007   5.468   2.676
 4201SOL    HW217249   4.881   5.434   2.753
 4201SOL     MW17250   4.955   5.410   2.716
 4202SOL     OW17251   5.368   5.490   2.992
 4202SOL    HW117252   5.411   5.460   3.072
 4202SOL    HW217253   5.287   5.438   2.989
 4202SOL     MW17254   5.363   5.479   3.002
 4203SOL     OW17255   4.453   4.454   3.699
 4203SOL    HW117256   4.523   4.396   3.671
 4203SOL    HW217257   4.396   4.399   3.754
 4203SOL     MW17258   4.455   4.441   3.703
 4204SOL     OW17259   5.240   4.666   3.332
 4204SOL    HW117260   5.245   4.719   3.412
 4204SOL    HW217261   5.202   4.583   3.360
 4204SOL     MW17262   5.236   4.661   3.347
 4205SOL     OW17263   4.880   3.801   3.578
 4205SOL    HW117264   4.875   3.708   3.559
 4205SOL    HW217265   4.963   3.812   3.624
 4205SOL     MW17266   4.888   3.790   3.582
 4206SOL     OW17267   5.350   5.072   2.854
 4206SOL    HW117268   5.385   5.054   2.767
 4206SOL    HW217269   5.255   5.073   2.841
 4206SOL     MW17270   5.342   5.069   2.841
 4207SOL     OW17271   4.779   4.720   3.223
 4207SOL    HW117272   4.822   4.755   3.301
 4207SOL    HW217273   4.762   4.797   3.169
 4207SOL     MW17274   4.782   4.735   3.226
 4208SOL     OW17275   5.310   4.207   2.096
 4208SOL    HW117276   5.302   4.278   2.033
 4208SOL    HW217277   5.328   4.251   2.179
 4208SOL     MW17278   5.311   4.221   2.098
 4209SOL     OW17279   3.929   4.924   3.385
 4209SOL    HW117280   3.957   4.877   3.463
 4209SOL    HW217281   3.850   4.879   3.356
 4209SOL     MW17282   3.922   4.913   3.391
 4210SOL     OW17283   4.437   4.251   3.352
 4210SOL    HW117284   4.409   4.339   3.376
 4210SOL    HW217285   4.406   4.195   3.423
 4210SOL     MW17286   4.429   4.254   3.364
 4211SOL     OW17287   5.578   4.734   3.580
 4211SOL    HW117288   5.491   4.714   3.616
 4211SOL    HW217289   5.632   4.660   3.605
 4211SOL     MW17290   5.573   4.723   3.588
 4212SOL     OW17291   3.799   5.247   2.737
 4212SOL    HW117292   3.831   5.251   2.828
 4212SOL    HW217293   3.704   5.255   2.745
 4212SOL     MW17294   3.791   5.250   2.750
 4213SOL     OW17295   3.754   4.373   2.284
 4213SOL    HW117296   3.694   4.345   2.354
 4213SOL    HW217297   3.828   4.313   2.290
 4213SOL     MW17298   3.756   4.362   2.293
 4214SOL     OW17299   5.322   5.585   3.718
 4214SOL    HW117300   5.367   5.509   3.683
 4214SOL    HW217301   5.360   5.598   3.805
 4214SOL     MW17302   5.332   5.578   3.724
 4215SOL     OW17303   4.180   4.112   3.173
 4215SOL    HW117304   4.213   4.193   3.213
 4215SOL    HW217305   4.153   4.138   3.085
 4215SOL     MW17306   4.179   4.126   3.167
 4216SOL     OW17307   4.963   4.288   3.600
 4216SOL    HW117308   5.015   4.223   3.553
 4216SOL    HW217309   4.921   4.339   3.530
 4216SOL     MW17310   4.964   4.285   3.583
 4217SOL     OW17311   5.062   4.083   3.461
 4217SOL    HW117312   4.969   4.067   3.448
 4217SOL    HW217313   5.088   4.021   3.529
 4217SOL     MW17314   5.052   4.073   3.468
 4218SOL     OW17315   4.371   5.472   3.346
 4218SOL    HW117316   4.288   5.457   3.391
 4218SOL    HW217317   4.430   5.405   3.381
 4218SOL     MW17318   4.369   5.462   3.356
 4219SOL     OW17319   5.606   4.899   2.941
 4219SOL    HW117320   5.599   4.839   2.866
 4219SOL    HW217321   5.532   4.959   2.930
 4219SOL     MW17322   5.596   4.899   2.930
 4220SOL     OW17323   5.071   4.256   3.138
 4220SOL    HW117324   5.092   4.257   3.045
 4220SOL    HW217325   5.116   4.178   3.171
 4220SOL     MW17326   5.078   4.246   3.130
 4221SOL     OW17327   5.564   4.387   3.680
 4221SOL    HW117328   5.601   4.332   3.749
 4221SOL    HW217329   5.589   4.344   3.598
 4221SOL     MW17330   5.571   4.375   3.679
 4222SOL     OW17331   5.111   4.685   3.731
 4222SOL    HW117332   5.177   4.633   3.685
 4222SOL    HW217333   5.131   4.672   3.824
 4222SOL     MW17334   5.122   4.676   3.738
 4223SOL     OW17335   4.198   5.009   3.089
 4223SOL    HW117336   4.210   5.036   3.180
 4223SOL    HW217337   4.179   5.090   3.042
 4223SOL     MW17338   4.197   5.024   3.094
 4224SOL     OW17339   4.482   3.989   2.912
 4224SOL    HW117340   4.455   3.991   3.003
 4224SOL    HW217341   4.412   3.941   2.867
 4224SOL     MW17342   4.470   3.985   2.919
 4225SOL     OW17343   4.336   5.481   3.074
 4225SOL    HW117344   4.388   5.558   3.051
 4225SOL    HW217345   4.345   5.473   3.169
 4225SOL     MW17346   4.345   5.488   3.085
 4226SOL     OW17347   5.238   5.066   3.306
 4226SOL    HW117348   5.223   4.995   3.369
 4226SOL    HW217349   5.284   5.024   3.234
 4226SOL     MW17350   5.244   5.050   3.306
 4227SOL     OW17351   4.312   4.797   3.423
 4227SOL    HW117352   4.349   4.802   3.335
 4227SOL    HW217353   4.351   4.870   3.470
 4227SOL     MW17354   4.322   4.807   3.418
 4228SOL     OW17355   4.492   4.840   3.235
 4228SOL    HW117356   4.551   4.786   3.288
 4228SOL    HW217357   4.507   4.812   3.145
 4228SOL     MW17358   4.502   4.829   3.231
 4229SOL     OW17359   5.303   5.329   3.407
 4229SOL    HW117360   5.345   5.314   3.492
 4229SOL    HW217361   5.294   5.242   3.369
 4229SOL     MW17362   5.307   5.317   3.414
 4230SOL     OW17363   4.963   3.808   2.998
 4230SOL    HW117364   5.018   3.817   2.920
 4230SOL    HW217365   5.018   3.842   3.069
 4230SOL     MW17366   4.977   3.813   2.997
 4231SOL     OW17367   4.124   5.464   2.762
 4231SOL    HW117368   4.128   5.375   2.797
 4231SOL    HW217369   4.150   5.455   2.671
 4231SOL     MW17370   4.127   5.452   2.754
 4232SOL     OW17371   4.741   4.942   3.005
 4232SOL    HW117372   4.673   4.876   3.021
 4232SOL    HW217373   4.759   4.936   2.912
 4232SOL     MW17374   4.734   4.933   2.996
 4233SOL     OW17375   3.830   5.217   3.256
 4233SOL    HW117376   3.820   5.175   3.342
 4233SOL    HW217377   3.751   5.270   3.246
 4233SOL     MW17378   3.819   5.218   3.267
 4234SOL     OW17379   4.734   4.081   2.826
 4234SOL    HW117380   4.664   4.033   2.871
 4234SOL    HW217381   4.766   4.144   2.890
 4234SOL     MW17382   4.729   4.083   2.840
 4235SOL     OW17383   4.385   4.517   3.446
 4235SOL    HW117384   4.378   4.612   3.434
 4235SOL    HW217385   4.394   4.506   3.541
 4235SOL     MW17386   4.386   4.529   3.456
 4236SOL     OW17387   4.106   5.032   3.704
 4236SOL    HW117388   4.178   5.034   3.641
 4236SOL    HW217389   4.076   4.941   3.703
 4236SOL     MW17390   4.111   5.021   3.696
 4237SOL     OW17391   5.390   5.325   3.655
 4237SOL    HW117392   5.363   5.322   3.746
 4237SOL    HW217393   5.486   5.329   3.658
 4237SOL     MW17394   5.400   5.325   3.667
 4238SOL     OW17395   3.756   5.522   3.711
 4238SOL    HW117396   3.806   5.500   3.633
 4238SOL    HW217397   3.764   5.617   3.719
 4238SOL     MW17398   3.764   5.531   3.702
 4239SOL     OW17399   4.517   5.280   2.715
 4239SOL    HW117400   4.445   5.217   2.728
 4239SOL    HW217401   4.478   5.365   2.733
 4239SOL     MW17402   4.501   5.283   2.718
 4240SOL     OW17403   3.922   3.818   2.295
 4240SOL    HW117404   3.993   3.839   2.234
 4240SOL    HW217405   3.876   3.746   2.253
 4240SOL     MW17406   3.926   3.812   2.281
 4241SOL     OW17407   3.753   4.285   3.438
 4241SOL    HW117408   3.817   4.351   3.413
 4241SOL    HW217409   3.672   4.312   3.395
 4241SOL     MW17410   3.751   4.297   3.430
 4242SOL     OW17411   5.491   5.192   2.395
 4242SOL    HW117412   5.461   5.125   2.456
 4242SOL    HW217413   5.585   5.198   2.409
 4242SOL     MW17414   5.499   5.184   2.405
 4243SOL     OW17415   3.938   4.511   3.379
 4243SOL    HW117416   3.959   4.580   3.317
 4243SOL    HW217417   4.018   4.458   3.384
 4243SOL     MW17418   3.951   4.512   3.373
 4244SOL     OW17419   3.923   4.526   3.646
 4244SOL    HW117420   3.849   4.470   3.672
 4244SOL    HW217421   3.918   4.529   3.551
 4244SOL     MW17422   3.912   4.519   3.636
 4245SOL     OW17423   4.089   3.813   3.096
 4245SOL    HW117424   4.132   3.897   3.116
 4245SOL    HW217425   4.162   3.751   3.089
 4245SOL     MW17426   4.104   3.816   3.097
 4246SOL     OW17427   4.906   4.339   3.338
 4246SOL    HW117428   4.942   4.312   3.254
 4246SOL    HW217429   4.819   4.373   3.317
 4246SOL     MW17430   4.900   4.340   3.325
 4247SOL     OW17431   5.436   5.551   2.095
 4247SOL    HW117432   5.503   5.584   2.035
 4247SOL    HW217433   5.393   5.630   2.129
 4247SOL     MW17434   5.438   5.566   2.091
 4248SOL     OW17435   4.571   4.472   3.047
 4248SOL    HW117436   4.529   4.390   3.023
 4248SOL    HW217437   4.572   4.471   3.143
 4248SOL     MW17438   4.564   4.461   3.056
 4249SOL     OW17439   5.242   5.605   3.446
 4249SOL    HW117440   5.245   5.511   3.429
 4249SOL    HW217441   5.265   5.613   3.538
 4249SOL     MW17442   5.245   5.593   3.456
 4250SOL     OW17443   4.375   3.942   3.152
 4250SOL    HW117444   4.306   4.005   3.173
 4250SOL    HW217445   4.402   3.906   3.237
 4250SOL     MW17446   4.369   3.945   3.165
 4251SOL     OW17447   4.342   5.583   1.963
 4251SOL    HW117448   4.247   5.583   1.955
 4251SOL    HW217449   4.358   5.529   2.041
 4251SOL     MW17450   4.332   5.577   1.972
 4252SOL     OW17451   4.652   4.460   3.310
 4252SOL    HW117452   4.721   4.527   3.307
 4252SOL    HW217453   4.585   4.498   3.366
 4252SOL     MW17454   4.653   4.473   3.317
 4253SOL     OW17455   4.070   4.760   3.558
 4253SOL    HW117456   4.024   4.676   3.560
 4253SOL    HW217457   4.127   4.754   3.482
 4253SOL     MW17458   4.072   4.748   3.550
 4254SOL     OW17459   5.187   4.403   1.879
 4254SOL    HW117460   5.115   4.379   1.821
 4254SOL    HW217461   5.253   4.440   1.821
 4254SOL     MW17462   5.186   4.405   1.864
 4255SOL     OW17463   4.321   5.135   2.559
 4255SOL    HW117464   4.386   5.068   2.580
 4255SOL    HW217465   4.373   5.212   2.536
 4255SOL     MW17466   4.336   5.137   2.558
 4256SOL     OW17467   4.582   4.300   2.689
 4256SOL    HW117468   4.522   4.318   2.761
 4256SOL    HW217469   4.616   4.212   2.708
 4256SOL     MW17470   4.578   4.290   2.702
 4257SOL     OW17471   5.523   3.799   3.358
 4257SOL    HW117472   5.444   3.845   3.386
 4257SOL    HW217473   5.558   3.853   3.287
 4257SOL     MW17474   5.517   3.812   3.352
 4258SOL     OW17475   5.081   5.121   2.804
 4258SOL    HW117476   5.054   5.205   2.769
 4258SOL    HW217477   5.041   5.116   2.891
 4258SOL     MW17478   5.074   5.130   2.810
 4259SOL     OW17479   5.000   5.069   3.072
 4259SOL    HW117480   5.011   5.036   3.161
 4259SOL    HW217481   4.919   5.028   3.041
 4259SOL     MW17482   4.990   5.061   3.078
 4260SOL     OW17483   5.080   5.191   3.604
 4260SOL    HW117484   5.080   5.285   3.620
 4260SOL    HW217485   5.125   5.181   3.520
 4260SOL     MW17486   5.086   5.201   3.595
 4261SOL     OW17487   3.935   4.095   3.583
 4261SOL    HW117488   3.892   4.154   3.520
 4261SOL    HW217489   4.003   4.150   3.623
 4261SOL     MW17490   3.939   4.110   3.580
 4262SOL     OW17491   5.047   4.715   3.128
 4262SOL    HW117492   5.110   4.712   3.201
 4262SOL    HW217493   4.963   4.733   3.170
 4262SOL     MW17494   5.043   4.717   3.143
 4263SOL     OW17495   4.591   5.430   2.317
 4263SOL    HW117496   4.649   5.501   2.344
 4263SOL    HW217497   4.614   5.358   2.375
 4263SOL     MW17498   4.602   5.430   2.328
 4264SOL     OW17499   3.834   3.735   3.006
 4264SOL    HW117500   3.825   3.736   2.911
 4264SOL    HW217501   3.928   3.747   3.021
 4264SOL     MW17502   3.846   3.738   2.997
 4265SOL     OW17503   5.471   4.928   2.626
 4265SOL    HW117504   5.450   4.874   2.549
 4265SOL    HW217505   5.567   4.926   2.630
 4265SOL     MW17506   5.480   4.921   2.615
 4266SOL     OW17507   4.163   5.073   3.369
 4266SOL    HW117508   4.084   5.023   3.392
 4266SOL    HW217509   4.233   5.032   3.419
 4266SOL     MW17510   4.161   5.061   3.379
 4267SOL     OW17511   4.047   3.862   2.052
 4267SOL    HW117512   3.976   3.917   2.020
 4267SOL    HW217513   4.089   3.828   1.973
 4267SOL     MW17514   4.043   3.864   2.038
 4268SOL     OW17515   3.803   3.961   1.901
 4268SOL    HW117516   3.770   4.040   1.945
 4268SOL    HW217517   3.858   3.994   1.830
 4268SOL     MW17518   3.806   3.975   1.898
 4269SOL     OW17519   5.109   5.307   2.307
 4269SOL    HW117520   5.172   5.297   2.236
 4269SOL    HW217521   5.026   5.327   2.262
 4269SOL     MW17522   5.106   5.308   2.292
 4270SOL     OW17523   5.105   4.906   3.941
 4270SOL    HW117524   5.023   4.942   3.907
 4270SOL    HW217525   5.173   4.949   3.890
 4270SOL     MW17526   5.103   4.916   3.929
 4271SOL     OW17527   4.657   5.047   4.134
 4271SOL    HW117528   4.634   5.109   4.202
 4271SOL    HW217529   4.614   4.965   4.160
 4271SOL     MW17530   4.649   5.043   4.145
 4272SOL     OW17531   4.154   4.020   4.102
 4272SOL    HW117532   4.128   3.982   4.018
 4272SOL    HW217533   4.091   4.090   4.118
 4272SOL     MW17534   4.143   4.023   4.093
 4273SOL     OW17535   4.651   5.444   3.917
 4273SOL    HW117536   4.606   5.460   4.000
 4273SOL    HW217537   4.582   5.409   3.859
 4273SOL     MW17538   4.637   5.441   3.919
 4274SOL     OW17539   5.586   4.217   3.892
 4274SOL    HW117540   5.495   4.219   3.920
 4274SOL    HW217541   5.631   4.279   3.950
 4274SOL     MW17542   5.579   4.225   3.902
 4275SOL     OW17543   5.523   5.021   4.054
 4275SOL    HW117544   5.479   5.062   4.129
 4275SOL    HW217545   5.580   5.089   4.019
 4275SOL     MW17546   5.525   5.035   4.059
 4276SOL     OW17547   3.895   5.497   3.949
 4276SOL    HW117548   3.924   5.587   3.941
 4276SOL    HW217549   3.845   5.480   3.870
 4276SOL     MW17550   3.893   5.505   3.938
 4277SOL     OW17551   5.299   5.305   3.920
 4277SOL    HW117552   5.347   5.374   3.966
 4277SOL    HW217553   5.220   5.349   3.889
 4277SOL     MW17554   5.294   5.319   3.923
 4278SOL     OW17555   4.697   4.430   3.864
 4278SOL    HW117556   4.699   4.377   3.785
 4278SOL    HW217557   4.785   4.467   3.870
 4278SOL     MW17558   4.709   4.429   3.853
 4279SOL     OW17559   4.867   5.049   3.956
 4279SOL    HW117560   4.817   5.051   4.038
 4279SOL    HW217561   4.801   5.067   3.888
 4279SOL     MW17562   4.853   5.051   3.958
 4280SOL     OW17563   4.466   4.882   3.771
 4280SOL    HW117564   4.388   4.828   3.758
 4280SOL    HW217565   4.437   4.955   3.824
 4280SOL     MW17566   4.452   4.884   3.776
 4281SOL     OW17567   5.047   5.398   3.839
 4281SOL    HW117568   4.973   5.361   3.889
 4281SOL    HW217569   5.055   5.488   3.872
 4281SOL     MW17570   5.038   5.405   3.851
 4282SOL     OW17571   5.271   5.072   3.781
 4282SOL    HW117572   5.218   5.121   3.717
 4282SOL    HW217573   5.302   5.138   3.842
 4282SOL     MW17574   5.269   5.086   3.779
 4283SOL     OW17575   4.496   3.961   3.836
 4283SOL    HW117576   4.444   3.881   3.824
 4283SOL    HW217577   4.583   3.938   3.804
 4283SOL     MW17578   4.499   3.947   3.830
 4284SOL     OW17579   4.431   5.313   3.772
 4284SOL    HW117580   4.371   5.382   3.742
 4284SOL    HW217581   4.376   5.255   3.825
 4284SOL     MW17582   4.415   5.315   3.774
 4285SOL     OW17583   4.869   3.958   3.995
 4285SOL    HW117584   4.802   3.934   3.932
 4285SOL    HW217585   4.934   4.007   3.944
 4285SOL     MW17586   4.869   3.960   3.980
 4286SOL     OW17587   4.062   5.357   4.161
 4286SOL    HW117588   4.023   5.404   4.087
 4286SOL    HW217589   3.996   5.292   4.186
 4286SOL     MW17590   4.049   5.355   4.155
 4287SOL     OW17591   4.554   4.766   4.185
 4287SOL    HW117592   4.556   4.740   4.092
 4287SOL    HW217593   4.612   4.703   4.228
 4287SOL     MW17594   4.562   4.755   4.179
 4288SOL     OW17595   5.044   4.114   3.853
 4288SOL    HW117596   5.017   4.180   3.789
 4288SOL    HW217597   5.114   4.157   3.903
 4288SOL     MW17598   5.049   4.127   3.850
 4289SOL     OW17599   4.712   3.819   3.790
 4289SOL    HW117600   4.768   3.811   3.712
 4289SOL    HW217601   4.689   3.729   3.812
 4289SOL     MW17602   4.717   3.806   3.783
 4290SOL     OW17603   5.217   4.670   3.995
 4290SOL    HW117604   5.184   4.759   3.985
 4290SOL    HW217605   5.182   4.641   4.080
 4290SOL     MW17606   5.207   4.679   4.006
 4291SOL     OW17607   4.211   4.708   3.787
 4291SOL    HW117608   4.134   4.721   3.843
 4291SOL    HW217609   4.175   4.672   3.706
 4291SOL     MW17610   4.197   4.704   3.784
 4292SOL     OW17611   4.864   4.681   4.030
 4292SOL    HW117612   4.774   4.702   4.005
 4292SOL    HW217613   4.891   4.754   4.086
 4292SOL     MW17614   4.856   4.693   4.033
 4293SOL     OW17615   4.254   4.321   3.900
 4293SOL    HW117616   4.220   4.377   3.970
 4293SOL    HW217617   4.325   4.271   3.940
 4293SOL     MW17618   4.260   4.322   3.914
 4294SOL     OW17619   5.310   4.207   3.964
 4294SOL    HW117620   5.302   4.278   3.901
 4294SOL    HW217621   5.328   4.251   4.047
 4294SOL     MW17622   5.311   4.221   3.966
 4295SOL     OW17623   4.979   4.469   3.939
 4295SOL    HW117624   5.026   4.487   3.858
 4295SOL    HW217625   4.945   4.553   3.967
 4295SOL     MW17626   4.981   4.483   3.932
 4296SOL     OW17627   4.714   5.211   3.761
 4296SOL    HW117628   4.741   5.289   3.713
 4296SOL    HW217629   4.621   5.226   3.780
 4296SOL     MW17630   4.705   5.224   3.757
 4297SOL     OW17631   5.062   3.771   3.948
 4297SOL    HW117632   5.136   3.815   3.991
 4297SOL    HW217633   4.986   3.825   3.970
 4297SOL     MW17634   5.062   3.783   3.956
 4298SOL     OW17635   5.122   4.546   4.226
 4298SOL    HW117636   5.037   4.516   4.196
 4298SOL    HW217637   5.114   4.553   4.321
 4298SOL     MW17638   5.110   4.544   4.235
 4299SOL     OW17639   4.495   4.212   3.952
 4299SOL    HW117640   4.568   4.261   3.915
 4299SOL    HW217641   4.511   4.121   3.926
 4299SOL     MW17642   4.507   4.207   3.945
 4300SOL     OW17643   3.970   4.721   4.050
 4300SOL    HW117644   3.907   4.737   3.979
 4300SOL    HW217645   3.917   4.684   4.121
 4300SOL     MW17646   3.955   4.718   4.050
 4301SOL     OW17647   4.326   5.075   3.909
 4301SOL    HW117648   4.341   5.051   4.001
 4301SOL    HW217649   4.234   5.053   3.893
 4301SOL     MW17650   4.316   5.068   3.919
 4302SOL     OW17651   4.865   5.306   4.061
 4302SOL    HW117652   4.873   5.224   4.012
 4302SOL    HW217653   4.784   5.345   4.028
 4302SOL     MW17654   4.855   5.301   4.051
 4303SOL     OW17655   3.922   3.818   4.163
 4303SOL    HW117656   3.993   3.839   4.102
 4303SOL    HW217657   3.876   3.746   4.121
 4303SOL     MW17658   3.926   3.812   4.149
 4304SOL     OW17659   4.130   4.480   4.142
 4304SOL    HW117660   4.130   4.575   4.127
 4304SOL    HW217661   4.207   4.464   4.196
 4304SOL     MW17662   4.140   4.491   4.147
 4305SOL     OW17663   5.436   5.551   3.963
 4305SOL    HW117664   5.503   5.584   3.903
 4305SOL    HW217665   5.393   5.630   3.997
 4305SOL     MW17666   5.438   5.566   3.959
 4306SOL     OW17667   3.758   4.783   3.889
 4306SOL    HW117668   3.727   4.848   3.952
 4306SOL    HW217669   3.707   4.705   3.908
 4306SOL     MW17670   3.748   4.780   3.899
 4307SOL     OW17671   4.342   5.583   3.831
 4307SOL    HW117672   4.247   5.583   3.823
 4307SOL    HW217673   4.358   5.529   3.909
 4307SOL     MW17674   4.332   5.577   3.840
 4308SOL     OW17675   5.187   4.403   3.747
 4308SOL    HW117676   5.115   4.379   3.689
 4308SOL    HW217677   5.253   4.440   3.689
 4308SOL     MW17678   5.186   4.405   3.732
 4309SOL     OW17679   4.600   4.703   3.931
 4309SOL    HW117680   4.586   4.615   3.896
 4309SOL    HW217681   4.551   4.760   3.872
 4309SOL     MW17682   4.592   4.698   3.919
 4310SOL     OW17683   4.608   4.472   4.147
 4310SOL    HW117684   4.588   4.458   4.054
 4310SOL    HW217685   4.701   4.451   4.154
 4310SOL     MW17686   4.618   4.467   4.136
 4311SOL     OW17687   4.047   3.862   3.920
 4311SOL    HW117688   3.976   3.917   3.888
 4311SOL    HW217689   4.089   3.828   3.841
 4311SOL     MW17690   4.043   3.864   3.906
 4312SOL     OW17691   3.803   3.961   3.769
 4312SOL    HW117692   3.770   4.040   3.813
 4312SOL    HW217693   3.858   3.994   3.698
 4312SOL     MW17694   3.806   3.975   3.766
 4313SOL     OW17695   3.837   5.218   3.958
 4313SOL    HW117696   3.854   5.302   4.000
 4313SOL    HW217697   3.872   5.227   3.870
 4313SOL     MW17698   3.842   5.231   3.952
 4314SOL     OW17699   5.109   5.307   4.175
 4314SOL    HW117700   5.172   5.297   4.104
 4314SOL    HW217701   5.026   5.327   4.130
 4314SOL     MW17702   5.106   5.308   4.160
 4315SOL     OW17703   4.391   5.866   0.514
 4315SOL    HW117704   4.449   5.942   0.516
 4315SOL    HW217705   4.326   5.887   0.447
 4315SOL     MW17706   4.390   5.878   0.505
 4316SOL     OW17707   4.663   6.135   1.771
 4316SOL    HW117708   4.753   6.136   1.738
 4316SOL    HW217709   4.622   6.060   1.729
 4316SOL     MW17710   4.669   6.125   1.762
 4317SOL     OW17711   4.443   5.939   1.721
 4317SOL    HW117712   4.453   5.865   1.661
 4317SOL    HW217713   4.479   5.908   1.804
 4317SOL     MW17714   4.449   5.925   1.723
 4318SOL     OW17715   5.563   5.668   0.685
 4318SOL    HW117716   5.617   5.619   0.747
 4318SOL    HW217717   5.506   5.602   0.646
 4318SOL     MW17718   5.563   5.652   0.687
 4319SOL     OW17719   4.682   5.621   1.098
 4319SOL    HW117720   4.641   5.699   1.060
 4319SOL    HW217721   4.776   5.639   1.093
 4319SOL     MW17722   4.688   5.633   1.093
 4320SOL     OW17723   4.708   5.729   1.353
 4320SOL    HW117724   4.714   5.691   1.266
 4320SOL    HW217725   4.697   5.823   1.338
 4320SOL     MW17726   4.709   5.737   1.341
 4321SOL     OW17727   3.924   5.825   0.659
 4321SOL    HW117728   3.915   5.765   0.585
 4321SOL    HW217729   3.857   5.796   0.722
 4321SOL     MW17730   3.914   5.812   0.657
 4322SOL     OW17731   4.479   5.728   1.518
 4322SOL    HW117732   4.456   5.636   1.520
 4322SOL    HW217733   4.565   5.730   1.475
 4322SOL     MW17734   4.486   5.718   1.514
 4323SOL     OW17735   5.140   5.777   1.828
 4323SOL    HW117736   5.196   5.704   1.854
 4323SOL    HW217737   5.110   5.815   1.910
 4323SOL     MW17738   5.144   5.772   1.841
 4324SOL     OW17739   4.123   5.636   1.789
 4324SOL    HW117740   4.051   5.601   1.737
 4324SOL    HW217741   4.181   5.677   1.724
 4324SOL     MW17742   4.121   5.637   1.774
 4325SOL     OW17743   4.493   5.666   0.701
 4325SOL    HW117744   4.422   5.727   0.683
 4325SOL    HW217745   4.544   5.663   0.620
 4325SOL     MW17746   4.489   5.672   0.688
 4326SOL     OW17747   4.880   5.670   1.710
 4326SOL    HW117748   4.875   5.577   1.691
 4326SOL    HW217749   4.963   5.681   1.756
 4326SOL     MW17750   4.888   5.659   1.714
 4327SOL     OW17751   4.170   5.731   0.657
 4327SOL    HW117752   4.220   5.774   0.588
 4327SOL    HW217753   4.085   5.775   0.657
 4327SOL     MW17754   4.167   5.744   0.648
 4328SOL     OW17755   5.232   5.868   0.534
 4328SOL    HW117756   5.154   5.818   0.559
 4328SOL    HW217757   5.203   5.959   0.534
 4328SOL     MW17758   5.218   5.872   0.537
 4329SOL     OW17759   4.818   5.830   0.693
 4329SOL    HW117760   4.838   5.905   0.637
 4329SOL    HW217761   4.798   5.869   0.778
 4329SOL     MW17762   4.819   5.846   0.697
 4330SOL     OW17763   4.134   5.948   1.041
 4330SOL    HW117764   4.164   5.862   1.012
 4330SOL    HW217765   4.039   5.941   1.044
 4330SOL     MW17766   4.126   5.937   1.039
 4331SOL     OW17767   5.062   5.952   1.593
 4331SOL    HW117768   4.969   5.936   1.580
 4331SOL    HW217769   5.088   5.890   1.661
 4331SOL     MW17770   5.052   5.942   1.600
 4332SOL     OW17771   4.277   5.726   0.932
 4332SOL    HW117772   4.287   5.635   0.958
 4332SOL    HW217773   4.233   5.722   0.847
 4332SOL     MW17774   4.273   5.714   0.924
 4333SOL     OW17775   4.482   5.858   1.044
 4333SOL    HW117776   4.455   5.860   1.135
 4333SOL    HW217777   4.412   5.810   0.999
 4333SOL     MW17778   4.470   5.854   1.051
 4334SOL     OW17779   4.963   5.677   1.130
 4334SOL    HW117780   5.018   5.686   1.052
 4334SOL    HW217781   5.018   5.711   1.201
 4334SOL     MW17782   4.977   5.682   1.129
 4335SOL     OW17783   5.190   5.664   1.303
 4335SOL    HW117784   5.261   5.610   1.267
 4335SOL    HW217785   5.189   5.643   1.396
 4335SOL     MW17786   5.199   5.655   1.311
 4336SOL     OW17787   3.922   5.687   0.427
 4336SOL    HW117788   3.993   5.708   0.366
 4336SOL    HW217789   3.876   5.615   0.385
 4336SOL     MW17790   3.926   5.681   0.413
 4337SOL     OW17791   4.709   5.658   0.510
 4337SOL    HW117792   4.746   5.717   0.575
 4337SOL    HW217793   4.686   5.714   0.436
 4337SOL     MW17794   4.710   5.673   0.509
 4338SOL     OW17795   4.375   5.811   1.284
 4338SOL    HW117796   4.306   5.874   1.305
 4338SOL    HW217797   4.402   5.775   1.369
 4338SOL     MW17798   4.369   5.814   1.297
 4339SOL     OW17799   5.170   5.664   0.901
 4339SOL    HW117800   5.258   5.673   0.938
 4339SOL    HW217801   5.180   5.605   0.827
 4339SOL     MW17802   5.184   5.658   0.895
 4340SOL     OW17803   4.582   6.169   0.821
 4340SOL    HW117804   4.522   6.187   0.893
 4340SOL    HW217805   4.616   6.081   0.840
 4340SOL     MW17806   4.578   6.159   0.834
 4341SOL     OW17807   5.523   5.668   1.490
 4341SOL    HW117808   5.444   5.714   1.518
 4341SOL    HW217809   5.558   5.722   1.419
 4341SOL     MW17810   5.517   5.681   1.484
 4342SOL     OW17811   5.386   5.761   1.039
 4342SOL    HW117812   5.431   5.679   1.058
 4342SOL    HW217813   5.406   5.817   1.115
 4342SOL     MW17814   5.396   5.757   1.051
 4343SOL     OW17815   3.834   5.604   1.138
 4343SOL    HW117816   3.825   5.605   1.043
 4343SOL    HW217817   3.928   5.616   1.153
 4343SOL     MW17818   3.846   5.607   1.129
 4344SOL     OW17819   4.047   5.731   0.184
 4344SOL    HW117820   3.976   5.786   0.152
 4344SOL    HW217821   4.089   5.697   0.105
 4344SOL     MW17822   4.043   5.733   0.170
 4345SOL     OW17823   4.391   5.866   2.382
 4345SOL    HW117824   4.449   5.942   2.384
 4345SOL    HW217825   4.326   5.887   2.315
 4345SOL     MW17826   4.390   5.878   2.373
 4346SOL     OW17827   4.663   6.135   3.639
 4346SOL    HW117828   4.753   6.136   3.606
 4346SOL    HW217829   4.622   6.060   3.597
 4346SOL     MW17830   4.669   6.125   3.630
 4347SOL     OW17831   4.443   5.939   3.589
 4347SOL    HW117832   4.453   5.865   3.529
 4347SOL    HW217833   4.479   5.908   3.672
 4347SOL     MW17834   4.449   5.925   3.591
 4348SOL     OW17835   5.563   5.668   2.553
 4348SOL    HW117836   5.617   5.619   2.615
 4348SOL    HW217837   5.506   5.602   2.514
 4348SOL     MW17838   5.563   5.652   2.555
 4349SOL     OW17839   4.682   5.621   2.966
 4349SOL    HW117840   4.641   5.699   2.928
 4349SOL    HW217841   4.776   5.639   2.961
 4349SOL     MW17842   4.688   5.633   2.961
 4350SOL     OW17843   4.708   5.729   3.221
 4350SOL    HW117844   4.714   5.691   3.134
 4350SOL    HW217845   4.697   5.823   3.206
 4350SOL     MW17846   4.709   5.737   3.209
 4351SOL     OW17847   3.924   5.825   2.527
 4351SOL    HW117848   3.915   5.765   2.453
 4351SOL    HW217849   3.857   5.796   2.590
 4351SOL     MW17850   3.914   5.812   2.525
 4352SOL     OW17851   4.479   5.728   3.386
 4352SOL    HW117852   4.456   5.636   3.388
 4352SOL    HW217853   4.565   5.730   3.343
 4352SOL     MW17854   4.486   5.718   3.382
 4353SOL     OW17855   5.140   5.777   3.696
 4353SOL    HW117856   5.196   5.704   3.722
 4353SOL    HW217857   5.110   5.815   3.778
 4353SOL     MW17858   5.144   5.772   3.709
 4354SOL     OW17859   4.712   5.688   1.922
 4354SOL    HW117860   4.768   5.680   1.844
 4354SOL    HW217861   4.689   5.598   1.944
 4354SOL     MW17862   4.717   5.675   1.915
 4355SOL     OW17863   4.123   5.636   3.657
 4355SOL    HW117864   4.051   5.601   3.605
 4355SOL    HW217865   4.181   5.677   3.592
 4355SOL     MW17866   4.121   5.637   3.642
 4356SOL     OW17867   4.493   5.666   2.569
 4356SOL    HW117868   4.422   5.727   2.551
 4356SOL    HW217869   4.544   5.663   2.488
 4356SOL     MW17870   4.489   5.672   2.556
 4357SOL     OW17871   4.880   5.670   3.578
 4357SOL    HW117872   4.875   5.577   3.559
 4357SOL    HW217873   4.963   5.681   3.624
 4357SOL     MW17874   4.888   5.659   3.582
 4358SOL     OW17875   4.170   5.731   2.525
 4358SOL    HW117876   4.220   5.774   2.456
 4358SOL    HW217877   4.085   5.775   2.525
 4358SOL     MW17878   4.167   5.744   2.516
 4359SOL     OW17879   5.232   5.868   2.402
 4359SOL    HW117880   5.154   5.818   2.427
 4359SOL    HW217881   5.203   5.959   2.402
 4359SOL     MW17882   5.218   5.872   2.405
 4360SOL     OW17883   4.818   5.830   2.561
 4360SOL    HW117884   4.838   5.905   2.505
 4360SOL    HW217885   4.798   5.869   2.646
 4360SOL     MW17886   4.819   5.846   2.565
 4361SOL     OW17887   4.134   5.948   2.909
 4361SOL    HW117888   4.164   5.862   2.880
 4361SOL    HW217889   4.039   5.941   2.912
 4361SOL     MW17890   4.126   5.937   2.907
 4362SOL     OW17891   5.062   5.952   3.461
 4362SOL    HW117892   4.969   5.936   3.448
 4362SOL    HW217893   5.088   5.890   3.529
 4362SOL     MW17894   5.052   5.942   3.468
 4363SOL     OW17895   4.277   5.726   2.800
 4363SOL    HW117896   4.287   5.635   2.826
 4363SOL    HW217897   4.233   5.722   2.715
 4363SOL     MW17898   4.273   5.714   2.792
 4364SOL     OW17899   5.062   5.640   2.080
 4364SOL    HW117900   5.136   5.684   2.123
 4364SOL    HW217901   4.986   5.694   2.102
 4364SOL     MW17902   5.062   5.652   2.088
 4365SOL     OW17903   4.482   5.858   2.912
 4365SOL    HW117904   4.455   5.860   3.003
 4365SOL    HW217905   4.412   5.810   2.867
 4365SOL     MW17906   4.470   5.854   2.919
 4366SOL     OW17907   4.963   5.677   2.998
 4366SOL    HW117908   5.018   5.686   2.920
 4366SOL    HW217909   5.018   5.711   3.069
 4366SOL     MW17910   4.977   5.682   2.997
 4367SOL     OW17911   5.190   5.664   3.171
 4367SOL    HW117912   5.261   5.610   3.135
 4367SOL    HW217913   5.189   5.643   3.264
 4367SOL     MW17914   5.199   5.655   3.179
 4368SOL     OW17915   3.922   5.687   2.295
 4368SOL    HW117916   3.993   5.708   2.234
 4368SOL    HW217917   3.876   5.615   2.253
 4368SOL     MW17918   3.926   5.681   2.281
 4369SOL     OW17919   4.709   5.658   2.378
 4369SOL    HW117920   4.746   5.717   2.443
 4369SOL    HW217921   4.686   5.714   2.304
 4369SOL     MW17922   4.710   5.673   2.377
 4370SOL     OW17923   4.375   5.811   3.152
 4370SOL    HW117924   4.306   5.874   3.173
 4370SOL    HW217925   4.402   5.775   3.237
 4370SOL     MW17926   4.369   5.814   3.165
 4371SOL     OW17927   5.170   5.664   2.769
 4371SOL    HW117928   5.258   5.673   2.806
 4371SOL    HW217929   5.180   5.605   2.695
 4371SOL     MW17930   5.184   5.658   2.763
 4372SOL     OW17931   4.582   6.169   2.689
 4372SOL    HW117932   4.522   6.187   2.761
 4372SOL    HW217933   4.616   6.081   2.708
 4372SOL     MW17934   4.578   6.159   2.702
 4373SOL     OW17935   5.523   5.668   3.358
 4373SOL    HW117936   5.444   5.714   3.386
 4373SOL    HW217937   5.558   5.722   3.287
 4373SOL     MW17938   5.517   5.681   3.352
 4374SOL     OW17939   5.319   5.778   2.165
 4374SOL    HW117940   5.312   5.782   2.260
 4374SOL    HW217941   5.331   5.869   2.138
 4374SOL     MW17942   5.320   5.791   2.173
 4375SOL     OW17943   5.386   5.761   2.907
 4375SOL    HW117944   5.431   5.679   2.926
 4375SOL    HW217945   5.406   5.817   2.983
 4375SOL     MW17946   5.396   5.757   2.919
 4376SOL     OW17947   3.834   5.604   3.006
 4376SOL    HW117948   3.825   5.605   2.911
 4376SOL    HW217949   3.928   5.616   3.021
 4376SOL     MW17950   3.846   5.607   2.997
 4377SOL     OW17951   4.047   5.731   2.052
 4377SOL    HW117952   3.976   5.786   2.020
 4377SOL    HW217953   4.089   5.697   1.973
 4377SOL     MW17954   4.043   5.733   2.038
 4378SOL     OW17955   3.803   5.830   1.901
 4378SOL    HW117956   3.770   5.909   1.945
 4378SOL    HW217957   3.858   5.863   1.830
 4378SOL     MW17958   3.806   5.844   1.898
 4379SOL     OW17959   4.712   5.688   3.790
 4379SOL    HW117960   4.768   5.680   3.712
 4379SOL    HW217961   4.689   5.598   3.812
 4379SOL     MW17962   4.717   5.675   3.783
 4380SOL     OW17963   5.062   5.640   3.948
 4380SOL    HW117964   5.136   5.684   3.991
 4380SOL    HW217965   4.986   5.694   3.970
 4380SOL     MW17966   5.062   5.652   3.956
 4381SOL     OW17967   3.922   5.687   4.163
 4381SOL    HW117968   3.993   5.708   4.102
 4381SOL    HW217969   3.876   5.615   4.121
 4381SOL     MW17970   3.926   5.681   4.149
 4382SOL     OW17971   4.047   5.731   3.920
 4382SOL    HW117972   3.976   5.786   3.888
 4382SOL    HW217973   4.089   5.697   3.841
 4382SOL     MW17974   4.043   5.733   3.906
 4383SOL     OW17975   3.803   5.830   3.769
 4383SOL    HW117976   3.770   5.909   3.813
 4383SOL    HW217977   3.858   5.863   3.698
 4383SOL     MW17978   3.806   5.844   3.766
 4384SOL     OW17979   5.939   0.919   1.328
 4384SOL    HW117980   6.002   0.866   1.279
 4384SOL    HW217981   5.920   0.993   1.271
 4384SOL     MW17982   5.945   0.921   1.315
 4385SOL     OW17983   6.012   0.932   0.961
 4385SOL    HW117984   5.967   0.939   0.877
 4385SOL    HW217985   5.992   1.015   1.005
 4385SOL     MW17986   6.004   0.944   0.955
 4386SOL     OW17987   5.709   1.778   0.836
 4386SOL    HW117988   5.798   1.770   0.871
 4386SOL    HW217989   5.673   1.690   0.841
 4386SOL     MW17990   5.716   1.765   0.841
 4387SOL     OW17991   6.023   0.284   0.366
 4387SOL    HW117992   5.997   0.246   0.282
 4387SOL    HW217993   5.960   0.354   0.382
 4387SOL     MW17994   6.012   0.287   0.357
 4388SOL     OW17995   5.858   1.245   0.403
 4388SOL    HW117996   5.806   1.313   0.359
 4388SOL    HW217997   5.855   1.171   0.343
 4388SOL     MW17998   5.850   1.244   0.390
 4389SOL     OW17999   5.741   1.599   1.130
 4389SOL    HW118000   5.724   1.545   1.207
 4389SOL    HW218001   5.729   1.689   1.160
 4389SOL     MW18002   5.738   1.603   1.144
 4390SOL     OW18003   6.048   1.701   0.636
 4390SOL    HW118004   6.080   1.789   0.614
 4390SOL    HW218005   6.001   1.673   0.558
 4390SOL     MW18006   6.047   1.709   0.623
 4391SOL     OW18007   5.793   0.220   0.659
 4391SOL    HW118008   5.784   0.160   0.585
 4391SOL    HW218009   5.726   0.191   0.722
 4391SOL     MW18010   5.783   0.207   0.657
 4392SOL     OW18011   5.740   0.393   1.022
 4392SOL    HW118012   5.712   0.484   1.031
 4392SOL    HW218013   5.677   0.354   0.961
 4392SOL     MW18014   5.727   0.399   1.016
 4393SOL     OW18015   5.724   0.668   1.192
 4393SOL    HW118016   5.786   0.698   1.258
 4393SOL    HW218017   5.658   0.737   1.186
 4393SOL     MW18018   5.723   0.681   1.199
 4394SOL     OW18019   5.819   1.777   1.644
 4394SOL    HW118020   5.793   1.845   1.582
 4394SOL    HW218021   5.867   1.714   1.592
 4394SOL     MW18022   5.821   1.777   1.630
 4395SOL     OW18023   5.871   1.096   1.151
 4395SOL    HW118024   5.924   1.171   1.176
 4395SOL    HW218025   5.790   1.134   1.117
 4395SOL     MW18026   5.867   1.111   1.151
 4396SOL     OW18027   5.726   0.865   0.557
 4396SOL    HW118028   5.817   0.880   0.584
 4396SOL    HW218029   5.729   0.786   0.503
 4396SOL     MW18030   5.738   0.857   0.555
 4397SOL     OW18031   5.734   1.477   0.596
 4397SOL    HW118032   5.706   1.516   0.678
 4397SOL    HW218033   5.754   1.386   0.618
 4397SOL     MW18034   5.732   1.469   0.609
 4398SOL     OW18035   6.027   0.209   1.583
 4398SOL    HW118036   5.948   0.227   1.635
 4398SOL    HW218037   6.022   0.271   1.510
 4398SOL     MW18038   6.017   0.219   1.580
 4399SOL     OW18039   5.931   1.621   0.425
 4399SOL    HW118040   5.892   1.668   0.351
 4399SOL    HW218041   5.865   1.556   0.450
 4399SOL     MW18042   5.918   1.619   0.419
 4400SOL     OW18043   5.738   1.208   0.716
 4400SOL    HW118044   5.802   1.240   0.779
 4400SOL    HW218045   5.787   1.144   0.664
 4400SOL     MW18046   5.753   1.204   0.717
 4401SOL     OW18047   5.814   1.526   1.838
 4401SOL    HW118048   5.870   1.450   1.853
 4401SOL    HW218049   5.763   1.504   1.760
 4401SOL     MW18050   5.814   1.513   1.829
 4402SOL     OW18051   5.679   1.386   1.649
 4402SOL    HW118052   5.723   1.319   1.595
 4402SOL    HW218053   5.594   1.348   1.669
 4402SOL     MW18054   5.674   1.372   1.645
 4403SOL     OW18055   6.123   0.585   0.164
 4403SOL    HW118056   6.089   0.641   0.234
 4403SOL    HW218057   6.194   0.535   0.204
 4403SOL     MW18058   6.129   0.586   0.178
 4404SOL     OW18059   5.798   1.188   1.517
 4404SOL    HW118060   5.826   1.141   1.595
 4404SOL    HW218061   5.719   1.143   1.488
 4404SOL     MW18062   5.791   1.177   1.523
 4405SOL     OW18063   5.668   1.511   0.869
 4405SOL    HW118064   5.700   1.515   0.960
 4405SOL    HW218065   5.573   1.519   0.877
 4405SOL     MW18066   5.660   1.514   0.882
 4406SOL     OW18067   5.623   0.637   0.416
 4406SOL    HW118068   5.563   0.609   0.486
 4406SOL    HW218069   5.697   0.577   0.422
 4406SOL     MW18070   5.625   0.626   0.425
 4407SOL     OW18071   6.049   0.376   1.305
 4407SOL    HW118072   6.082   0.457   1.345
 4407SOL    HW218073   6.022   0.402   1.217
 4407SOL     MW18074   6.048   0.390   1.299
 4408SOL     OW18075   6.067   1.273   1.221
 4408SOL    HW118076   6.079   1.300   1.312
 4408SOL    HW218077   6.048   1.354   1.174
 4408SOL     MW18078   6.066   1.288   1.226
 4409SOL     OW18079   6.195   1.339   0.173
 4409SOL    HW118080   6.210   1.315   0.265
 4409SOL    HW218081   6.103   1.317   0.157
 4409SOL     MW18082   6.185   1.332   0.183
 4410SOL     OW18083   5.699   1.481   1.388
 4410SOL    HW118084   5.689   1.439   1.474
 4410SOL    HW218085   5.620   1.534   1.378
 4410SOL     MW18086   5.688   1.482   1.399
 4411SOL     OW18087   5.975   1.296   1.836
 4411SOL    HW118088   6.047   1.298   1.773
 4411SOL    HW218089   5.945   1.205   1.835
 4411SOL     MW18090   5.980   1.285   1.828
 4412SOL     OW18091   5.625   1.786   1.843
 4412SOL    HW118092   5.675   1.764   1.765
 4412SOL    HW218093   5.633   1.881   1.851
 4412SOL     MW18094   5.633   1.795   1.834
 4413SOL     OW18095   5.791   0.082   0.427
 4413SOL    HW118096   5.862   0.103   0.366
 4413SOL    HW218097   5.745   0.010   0.385
 4413SOL     MW18098   5.795   0.076   0.413
 4414SOL     OW18099   5.792   0.790   1.778
 4414SOL    HW118100   5.718   0.734   1.804
 4414SOL    HW218101   5.787   0.793   1.683
 4414SOL     MW18102   5.781   0.783   1.768
 4415SOL     OW18103   5.758   0.475   0.695
 4415SOL    HW118104   5.820   0.482   0.768
 4415SOL    HW218105   5.758   0.382   0.672
 4415SOL     MW18106   5.766   0.464   0.702
 4416SOL     OW18107   5.939   1.024   1.690
 4416SOL    HW118108   5.893   0.940   1.692
 4416SOL    HW218109   5.996   1.018   1.614
 4416SOL     MW18110   5.941   1.012   1.682
 4417SOL     OW18111   5.882   0.691   0.974
 4417SOL    HW118112   5.832   0.690   1.055
 4417SOL    HW218113   5.902   0.783   0.958
 4417SOL     MW18114   5.878   0.703   0.982
 4418SOL     OW18115   5.804   0.359   1.715
 4418SOL    HW118116   5.761   0.418   1.652
 4418SOL    HW218117   5.872   0.414   1.755
 4418SOL     MW18118   5.808   0.374   1.712
 4419SOL     OW18119   5.703  -0.001   1.138
 4419SOL    HW118120   5.694   0.000   1.043
 4419SOL    HW218121   5.797   0.011   1.153
 4419SOL     MW18122   5.715   0.002   1.129
 4420SOL     OW18123   5.706   1.482   0.222
 4420SOL    HW118124   5.723   1.566   0.264
 4420SOL    HW218125   5.741   1.491   0.134
 4420SOL     MW18126   5.711   1.495   0.216
 4421SOL     OW18127   5.939   0.919   3.196
 4421SOL    HW118128   6.002   0.866   3.147
 4421SOL    HW218129   5.920   0.993   3.139
 4421SOL     MW18130   5.945   0.921   3.183
 4422SOL     OW18131   6.012   0.932   2.829
 4422SOL    HW118132   5.967   0.939   2.745
 4422SOL    HW218133   5.992   1.015   2.873
 4422SOL     MW18134   6.004   0.944   2.823
 4423SOL     OW18135   5.709   1.778   2.704
 4423SOL    HW118136   5.798   1.770   2.739
 4423SOL    HW218137   5.673   1.690   2.709
 4423SOL     MW18138   5.716   1.765   2.709
 4424SOL     OW18139   6.023   0.284   2.234
 4424SOL    HW118140   5.997   0.246   2.150
 4424SOL    HW218141   5.960   0.354   2.250
 4424SOL     MW18142   6.012   0.287   2.225
 4425SOL     OW18143   5.858   1.245   2.271
 4425SOL    HW118144   5.806   1.313   2.227
 4425SOL    HW218145   5.855   1.171   2.211
 4425SOL     MW18146   5.850   1.244   2.258
 4426SOL     OW18147   5.741   1.599   2.998
 4426SOL    HW118148   5.724   1.545   3.075
 4426SOL    HW218149   5.729   1.689   3.028
 4426SOL     MW18150   5.738   1.603   3.012
 4427SOL     OW18151   6.048   1.701   2.504
 4427SOL    HW118152   6.080   1.789   2.482
 4427SOL    HW218153   6.001   1.673   2.426
 4427SOL     MW18154   6.047   1.709   2.491
 4428SOL     OW18155   5.764   1.761   2.081
 4428SOL    HW118156   5.793   1.851   2.073
 4428SOL    HW218157   5.714   1.744   2.002
 4428SOL     MW18158   5.762   1.769   2.070
 4429SOL     OW18159   5.793   0.220   2.527
 4429SOL    HW118160   5.784   0.160   2.453
 4429SOL    HW218161   5.726   0.191   2.590
 4429SOL     MW18162   5.783   0.207   2.525
 4430SOL     OW18163   5.740   0.393   2.890
 4430SOL    HW118164   5.712   0.484   2.899
 4430SOL    HW218165   5.677   0.354   2.829
 4430SOL     MW18166   5.727   0.399   2.884
 4431SOL     OW18167   5.724   0.668   3.060
 4431SOL    HW118168   5.786   0.698   3.126
 4431SOL    HW218169   5.658   0.737   3.054
 4431SOL     MW18170   5.723   0.681   3.067
 4432SOL     OW18171   5.819   1.777   3.512
 4432SOL    HW118172   5.793   1.845   3.450
 4432SOL    HW218173   5.867   1.714   3.460
 4432SOL     MW18174   5.821   1.777   3.498
 4433SOL     OW18175   5.871   1.096   3.019
 4433SOL    HW118176   5.924   1.171   3.044
 4433SOL    HW218177   5.790   1.134   2.985
 4433SOL     MW18178   5.867   1.111   3.019
 4434SOL     OW18179   5.726   0.865   2.425
 4434SOL    HW118180   5.817   0.880   2.452
 4434SOL    HW218181   5.729   0.786   2.371
 4434SOL     MW18182   5.738   0.857   2.423
 4435SOL     OW18183   5.734   1.477   2.464
 4435SOL    HW118184   5.706   1.516   2.546
 4435SOL    HW218185   5.754   1.386   2.486
 4435SOL     MW18186   5.732   1.469   2.477
 4436SOL     OW18187   6.027   0.209   3.451
 4436SOL    HW118188   5.948   0.227   3.503
 4436SOL    HW218189   6.022   0.271   3.378
 4436SOL     MW18190   6.017   0.219   3.448
 4437SOL     OW18191   5.931   1.621   2.293
 4437SOL    HW118192   5.892   1.668   2.219
 4437SOL    HW218193   5.865   1.556   2.318
 4437SOL     MW18194   5.918   1.619   2.287
 4438SOL     OW18195   5.738   1.208   2.584
 4438SOL    HW118196   5.802   1.240   2.647
 4438SOL    HW218197   5.787   1.144   2.532
 4438SOL     MW18198   5.753   1.204   2.585
 4439SOL     OW18199   5.814   1.526   3.706
 4439SOL    HW118200   5.870   1.450   3.721
 4439SOL    HW218201   5.763   1.504   3.628
 4439SOL     MW18202   5.814   1.513   3.697
 4440SOL     OW18203   5.679   1.386   3.517
 4440SOL    HW118204   5.723   1.319   3.463
 4440SOL    HW218205   5.594   1.348   3.537
 4440SOL     MW18206   5.674   1.372   3.513
 4441SOL     OW18207   6.123   0.585   2.032
 4441SOL    HW118208   6.089   0.641   2.102
 4441SOL    HW218209   6.194   0.535   2.072
 4441SOL     MW18210   6.129   0.586   2.046
 4442SOL     OW18211   5.798   1.188   3.385
 4442SOL    HW118212   5.826   1.141   3.463
 4442SOL    HW218213   5.719   1.143   3.356
 4442SOL     MW18214   5.791   1.177   3.391
 4443SOL     OW18215   5.668   1.511   2.737
 4443SOL    HW118216   5.700   1.515   2.828
 4443SOL    HW218217   5.573   1.519   2.745
 4443SOL     MW18218   5.660   1.514   2.750
 4444SOL     OW18219   5.623   0.637   2.284
 4444SOL    HW118220   5.563   0.609   2.354
 4444SOL    HW218221   5.697   0.577   2.290
 4444SOL     MW18222   5.625   0.626   2.293
 4445SOL     OW18223   6.049   0.376   3.173
 4445SOL    HW118224   6.082   0.457   3.213
 4445SOL    HW218225   6.022   0.402   3.085
 4445SOL     MW18226   6.048   0.390   3.167
 4446SOL     OW18227   6.067   1.273   3.089
 4446SOL    HW118228   6.079   1.300   3.180
 4446SOL    HW218229   6.048   1.354   3.042
 4446SOL     MW18230   6.066   1.288   3.094
 4447SOL     OW18231   6.195   1.339   2.041
 4447SOL    HW118232   6.210   1.315   2.133
 4447SOL    HW218233   6.103   1.317   2.025
 4447SOL     MW18234   6.185   1.332   2.051
 4448SOL     OW18235   5.699   1.481   3.256
 4448SOL    HW118236   5.689   1.439   3.342
 4448SOL    HW218237   5.620   1.534   3.246
 4448SOL     MW18238   5.688   1.482   3.267
 4449SOL     OW18239   5.975   1.296   3.704
 4449SOL    HW118240   6.047   1.298   3.641
 4449SOL    HW218241   5.945   1.205   3.703
 4449SOL     MW18242   5.980   1.285   3.696
 4450SOL     OW18243   5.625   1.786   3.711
 4450SOL    HW118244   5.675   1.764   3.633
 4450SOL    HW218245   5.633   1.881   3.719
 4450SOL     MW18246   5.633   1.795   3.702
 4451SOL     OW18247   5.791   0.082   2.295
 4451SOL    HW118248   5.862   0.103   2.234
 4451SOL    HW218249   5.745   0.010   2.253
 4451SOL     MW18250   5.795   0.076   2.281
 4452SOL     OW18251   5.792   0.790   3.646
 4452SOL    HW118252   5.718   0.734   3.672
 4452SOL    HW218253   5.787   0.793   3.551
 4452SOL     MW18254   5.781   0.783   3.636
 4453SOL     OW18255   5.758   0.475   2.563
 4453SOL    HW118256   5.820   0.482   2.636
 4453SOL    HW218257   5.758   0.382   2.540
 4453SOL     MW18258   5.766   0.464   2.570
 4454SOL     OW18259   5.627   1.047   2.021
 4454SOL    HW118260   5.596   1.112   2.084
 4454SOL    HW218261   5.576   0.969   2.040
 4454SOL     MW18262   5.617   1.044   2.031
 4455SOL     OW18263   5.939   1.024   3.558
 4455SOL    HW118264   5.893   0.940   3.560
 4455SOL    HW218265   5.996   1.018   3.482
 4455SOL     MW18266   5.941   1.012   3.550
 4456SOL     OW18267   5.882   0.691   2.842
 4456SOL    HW118268   5.832   0.690   2.923
 4456SOL    HW218269   5.902   0.783   2.826
 4456SOL     MW18270   5.878   0.703   2.850
 4457SOL     OW18271   5.804   0.359   3.583
 4457SOL    HW118272   5.761   0.418   3.520
 4457SOL    HW218273   5.872   0.414   3.623
 4457SOL     MW18274   5.808   0.374   3.580
 4458SOL     OW18275   5.703  -0.001   3.006
 4458SOL    HW118276   5.694   0.000   2.911
 4458SOL    HW218277   5.797   0.011   3.021
 4458SOL     MW18278   5.715   0.002   2.997
 4459SOL     OW18279   5.672   0.225   1.901
 4459SOL    HW118280   5.639   0.304   1.945
 4459SOL    HW218281   5.727   0.258   1.830
 4459SOL     MW18282   5.675   0.239   1.898
 4460SOL     OW18283   5.706   1.482   2.090
 4460SOL    HW118284   5.723   1.566   2.132
 4460SOL    HW218285   5.741   1.491   2.002
 4460SOL     MW18286   5.711   1.495   2.084
 4461SOL     OW18287   6.023   0.284   4.102
 4461SOL    HW118288   5.997   0.246   4.018
 4461SOL    HW218289   5.960   0.354   4.118
 4461SOL     MW18290   6.012   0.287   4.093
 4462SOL     OW18291   5.858   1.245   4.139
 4462SOL    HW118292   5.806   1.313   4.095
 4462SOL    HW218293   5.855   1.171   4.079
 4462SOL     MW18294   5.850   1.244   4.126
 4463SOL     OW18295   5.764   1.761   3.949
 4463SOL    HW118296   5.793   1.851   3.941
 4463SOL    HW218297   5.714   1.744   3.870
 4463SOL     MW18298   5.762   1.769   3.938
 4464SOL     OW18299   5.738   1.208   4.452
 4464SOL    HW118300   5.802   1.240   4.515
 4464SOL    HW218301   5.787   1.144   4.400
 4464SOL     MW18302   5.753   1.204   4.453
 4465SOL     OW18303   6.123   0.585   3.900
 4465SOL    HW118304   6.089   0.641   3.970
 4465SOL    HW218305   6.194   0.535   3.940
 4465SOL     MW18306   6.129   0.586   3.914
 4466SOL     OW18307   6.195   1.339   3.909
 4466SOL    HW118308   6.210   1.315   4.001
 4466SOL    HW218309   6.103   1.317   3.893
 4466SOL     MW18310   6.185   1.332   3.919
 4467SOL     OW18311   5.791   0.082   4.163
 4467SOL    HW118312   5.862   0.103   4.102
 4467SOL    HW218313   5.745   0.010   4.121
 4467SOL     MW18314   5.795   0.076   4.149
 4468SOL     OW18315   5.758   0.475   4.431
 4468SOL    HW118316   5.820   0.482   4.504
 4468SOL    HW218317   5.758   0.382   4.408
 4468SOL     MW18318   5.766   0.464   4.438
 4469SOL     OW18319   5.627   1.047   3.889
 4469SOL    HW118320   5.596   1.112   3.952
 4469SOL    HW218321   5.576   0.969   3.908
 4469SOL     MW18322   5.617   1.044   3.899
 4470SOL     OW18323   5.672   0.225   3.769
 4470SOL    HW118324   5.639   0.304   3.813
 4470SOL    HW218325   5.727   0.258   3.698
 4470SOL     MW18326   5.675   0.239   3.766
 4471SOL     OW18327   5.706   1.482   3.958
 4471SOL    HW118328   5.723   1.566   4.000
 4471SOL    HW218329   5.741   1.491   3.870
 4471SOL     MW18330   5.711   1.495   3.952
 4472SOL     OW18331   5.939   2.787   1.328
 4472SOL    HW118332   6.002   2.734   1.279
 4472SOL    HW218333   5.920   2.861   1.271
 4472SOL     MW18334   5.945   2.789   1.315
 4473SOL     OW18335   6.012   2.800   0.961
 4473SOL    HW118336   5.967   2.807   0.877
 4473SOL    HW218337   5.992   2.883   1.005
 4473SOL     MW18338   6.004   2.812   0.955
 4474SOL     OW18339   5.709   3.646   0.836
 4474SOL    HW118340   5.798   3.638   0.871
 4474SOL    HW218341   5.673   3.558   0.841
 4474SOL     MW18342   5.716   3.633   0.841
 4475SOL     OW18343   6.023   2.152   0.366
 4475SOL    HW118344   5.997   2.114   0.282
 4475SOL    HW218345   5.960   2.222   0.382
 4475SOL     MW18346   6.012   2.155   0.357
 4476SOL     OW18347   5.858   3.113   0.403
 4476SOL    HW118348   5.806   3.181   0.359
 4476SOL    HW218349   5.855   3.039   0.343
 4476SOL     MW18350   5.850   3.112   0.390
 4477SOL     OW18351   5.741   3.467   1.130
 4477SOL    HW118352   5.724   3.413   1.207
 4477SOL    HW218353   5.729   3.557   1.160
 4477SOL     MW18354   5.738   3.471   1.144
 4478SOL     OW18355   6.048   3.569   0.636
 4478SOL    HW118356   6.080   3.657   0.614
 4478SOL    HW218357   6.001   3.541   0.558
 4478SOL     MW18358   6.047   3.577   0.623
 4479SOL     OW18359   5.764   3.629   0.213
 4479SOL    HW118360   5.793   3.719   0.205
 4479SOL    HW218361   5.714   3.612   0.134
 4479SOL     MW18362   5.762   3.637   0.202
 4480SOL     OW18363   5.793   2.088   0.659
 4480SOL    HW118364   5.784   2.028   0.585
 4480SOL    HW218365   5.726   2.059   0.722
 4480SOL     MW18366   5.783   2.075   0.657
 4481SOL     OW18367   5.740   2.261   1.022
 4481SOL    HW118368   5.712   2.352   1.031
 4481SOL    HW218369   5.677   2.222   0.961
 4481SOL     MW18370   5.727   2.267   1.016
 4482SOL     OW18371   5.724   2.536   1.192
 4482SOL    HW118372   5.786   2.566   1.258
 4482SOL    HW218373   5.658   2.605   1.186
 4482SOL     MW18374   5.723   2.549   1.199
 4483SOL     OW18375   5.819   3.645   1.644
 4483SOL    HW118376   5.793   3.713   1.582
 4483SOL    HW218377   5.867   3.582   1.592
 4483SOL     MW18378   5.821   3.645   1.630
 4484SOL     OW18379   5.871   2.964   1.151
 4484SOL    HW118380   5.924   3.039   1.176
 4484SOL    HW218381   5.790   3.002   1.117
 4484SOL     MW18382   5.867   2.979   1.151
 4485SOL     OW18383   5.726   2.733   0.557
 4485SOL    HW118384   5.817   2.748   0.584
 4485SOL    HW218385   5.729   2.654   0.503
 4485SOL     MW18386   5.738   2.725   0.555
 4486SOL     OW18387   5.734   3.345   0.596
 4486SOL    HW118388   5.706   3.384   0.678
 4486SOL    HW218389   5.754   3.254   0.618
 4486SOL     MW18390   5.732   3.337   0.609
 4487SOL     OW18391   6.027   2.077   1.583
 4487SOL    HW118392   5.948   2.095   1.635
 4487SOL    HW218393   6.022   2.139   1.510
 4487SOL     MW18394   6.017   2.087   1.580
 4488SOL     OW18395   5.931   3.489   0.425
 4488SOL    HW118396   5.892   3.536   0.351
 4488SOL    HW218397   5.865   3.424   0.450
 4488SOL     MW18398   5.918   3.487   0.419
 4489SOL     OW18399   5.738   3.076   0.716
 4489SOL    HW118400   5.802   3.108   0.779
 4489SOL    HW218401   5.787   3.012   0.664
 4489SOL     MW18402   5.753   3.072   0.717
 4490SOL     OW18403   5.814   3.394   1.838
 4490SOL    HW118404   5.870   3.318   1.853
 4490SOL    HW218405   5.763   3.372   1.760
 4490SOL     MW18406   5.814   3.381   1.829
 4491SOL     OW18407   5.679   3.254   1.649
 4491SOL    HW118408   5.723   3.187   1.595
 4491SOL    HW218409   5.594   3.216   1.669
 4491SOL     MW18410   5.674   3.240   1.645
 4492SOL     OW18411   6.123   2.453   0.164
 4492SOL    HW118412   6.089   2.509   0.234
 4492SOL    HW218413   6.194   2.403   0.204
 4492SOL     MW18414   6.129   2.454   0.178
 4493SOL     OW18415   5.798   3.056   1.517
 4493SOL    HW118416   5.826   3.009   1.595
 4493SOL    HW218417   5.719   3.011   1.488
 4493SOL     MW18418   5.791   3.045   1.523
 4494SOL     OW18419   5.668   3.379   0.869
 4494SOL    HW118420   5.700   3.383   0.960
 4494SOL    HW218421   5.573   3.387   0.877
 4494SOL     MW18422   5.660   3.382   0.882
 4495SOL     OW18423   5.623   2.505   0.416
 4495SOL    HW118424   5.563   2.477   0.486
 4495SOL    HW218425   5.697   2.445   0.422
 4495SOL     MW18426   5.625   2.494   0.425
 4496SOL     OW18427   6.049   2.244   1.305
 4496SOL    HW118428   6.082   2.325   1.345
 4496SOL    HW218429   6.022   2.270   1.217
 4496SOL     MW18430   6.048   2.258   1.299
 4497SOL     OW18431   6.146   1.989   0.932
 4497SOL    HW118432   6.156   1.898   0.958
 4497SOL    HW218433   6.102   1.985   0.847
 4497SOL     MW18434   6.142   1.977   0.924
 4498SOL     OW18435   6.067   3.141   1.221
 4498SOL    HW118436   6.079   3.168   1.312
 4498SOL    HW218437   6.048   3.222   1.174
 4498SOL     MW18438   6.066   3.156   1.226
 4499SOL     OW18439   6.195   3.207   0.173
 4499SOL    HW118440   6.210   3.183   0.265
 4499SOL    HW218441   6.103   3.185   0.157
 4499SOL     MW18442   6.185   3.200   0.183
 4500SOL     OW18443   5.699   3.349   1.388
 4500SOL    HW118444   5.689   3.307   1.474
 4500SOL    HW218445   5.620   3.402   1.378
 4500SOL     MW18446   5.688   3.350   1.399
 4501SOL     OW18447   5.975   3.164   1.836
 4501SOL    HW118448   6.047   3.166   1.773
 4501SOL    HW218449   5.945   3.073   1.835
 4501SOL     MW18450   5.980   3.153   1.828
 4502SOL     OW18451   5.625   3.654   1.843
 4502SOL    HW118452   5.675   3.632   1.765
 4502SOL    HW218453   5.633   3.749   1.851
 4502SOL     MW18454   5.633   3.663   1.834
 4503SOL     OW18455   5.791   1.950   0.427
 4503SOL    HW118456   5.862   1.971   0.366
 4503SOL    HW218457   5.745   1.878   0.385
 4503SOL     MW18458   5.795   1.944   0.413
 4504SOL     OW18459   5.792   2.658   1.778
 4504SOL    HW118460   5.718   2.602   1.804
 4504SOL    HW218461   5.787   2.661   1.683
 4504SOL     MW18462   5.781   2.651   1.768
 4505SOL     OW18463   5.758   2.343   0.695
 4505SOL    HW118464   5.820   2.350   0.768
 4505SOL    HW218465   5.758   2.250   0.672
 4505SOL     MW18466   5.766   2.332   0.702
 4506SOL     OW18467   5.939   2.892   1.690
 4506SOL    HW118468   5.893   2.808   1.692
 4506SOL    HW218469   5.996   2.886   1.614
 4506SOL     MW18470   5.941   2.880   1.682
 4507SOL     OW18471   5.882   2.559   0.974
 4507SOL    HW118472   5.832   2.558   1.055
 4507SOL    HW218473   5.902   2.651   0.958
 4507SOL     MW18474   5.878   2.571   0.982
 4508SOL     OW18475   5.804   2.227   1.715
 4508SOL    HW118476   5.761   2.286   1.652
 4508SOL    HW218477   5.872   2.282   1.755
 4508SOL     MW18478   5.808   2.242   1.712
 4509SOL     OW18479   5.703   1.867   1.138
 4509SOL    HW118480   5.694   1.868   1.043
 4509SOL    HW218481   5.797   1.879   1.153
 4509SOL     MW18482   5.715   1.870   1.129
 4510SOL     OW18483   5.939   2.787   3.196
 4510SOL    HW118484   6.002   2.734   3.147
 4510SOL    HW218485   5.920   2.861   3.139
 4510SOL     MW18486   5.945   2.789   3.183
 4511SOL     OW18487   6.012   2.800   2.829
 4511SOL    HW118488   5.967   2.807   2.745
 4511SOL    HW218489   5.992   2.883   2.873
 4511SOL     MW18490   6.004   2.812   2.823
 4512SOL     OW18491   6.023   2.152   2.234
 4512SOL    HW118492   5.997   2.114   2.150
 4512SOL    HW218493   5.960   2.222   2.250
 4512SOL     MW18494   6.012   2.155   2.225
 4513SOL     OW18495   5.858   3.113   2.271
 4513SOL    HW118496   5.806   3.181   2.227
 4513SOL    HW218497   5.855   3.039   2.211
 4513SOL     MW18498   5.850   3.112   2.258
 4514SOL     OW18499   5.741   3.467   2.998
 4514SOL    HW118500   5.724   3.413   3.075
 4514SOL    HW218501   5.729   3.557   3.028
 4514SOL     MW18502   5.738   3.471   3.012
 4515SOL     OW18503   6.048   3.569   2.504
 4515SOL    HW118504   6.080   3.657   2.482
 4515SOL    HW218505   6.001   3.541   2.426
 4515SOL     MW18506   6.047   3.577   2.491
 4516SOL     OW18507   5.764   3.629   2.081
 4516SOL    HW118508   5.793   3.719   2.073
 4516SOL    HW218509   5.714   3.612   2.002
 4516SOL     MW18510   5.762   3.637   2.070
 4517SOL     OW18511   5.793   2.088   2.527
 4517SOL    HW118512   5.784   2.028   2.453
 4517SOL    HW218513   5.726   2.059   2.590
 4517SOL     MW18514   5.783   2.075   2.525
 4518SOL     OW18515   5.740   2.261   2.890
 4518SOL    HW118516   5.712   2.352   2.899
 4518SOL    HW218517   5.677   2.222   2.829
 4518SOL     MW18518   5.727   2.267   2.884
 4519SOL     OW18519   5.724   2.536   3.060
 4519SOL    HW118520   5.786   2.566   3.126
 4519SOL    HW218521   5.658   2.605   3.054
 4519SOL     MW18522   5.723   2.549   3.067
 4520SOL     OW18523   5.819   3.645   3.512
 4520SOL    HW118524   5.793   3.713   3.450
 4520SOL    HW218525   5.867   3.582   3.460
 4520SOL     MW18526   5.821   3.645   3.498
 4521SOL     OW18527   5.871   2.964   3.019
 4521SOL    HW118528   5.924   3.039   3.044
 4521SOL    HW218529   5.790   3.002   2.985
 4521SOL     MW18530   5.867   2.979   3.019
 4522SOL     OW18531   5.726   2.733   2.425
 4522SOL    HW118532   5.817   2.748   2.452
 4522SOL    HW218533   5.729   2.654   2.371
 4522SOL     MW18534   5.738   2.725   2.423
 4523SOL     OW18535   6.027   2.077   3.451
 4523SOL    HW118536   5.948   2.095   3.503
 4523SOL    HW218537   6.022   2.139   3.378
 4523SOL     MW18538   6.017   2.087   3.448
 4524SOL     OW18539   5.931   3.489   2.293
 4524SOL    HW118540   5.892   3.536   2.219
 4524SOL    HW218541   5.865   3.424   2.318
 4524SOL     MW18542   5.918   3.487   2.287
 4525SOL     OW18543   5.738   3.076   2.584
 4525SOL    HW118544   5.802   3.108   2.647
 4525SOL    HW218545   5.787   3.012   2.532
 4525SOL     MW18546   5.753   3.072   2.585
 4526SOL     OW18547   5.814   3.394   3.706
 4526SOL    HW118548   5.870   3.318   3.721
 4526SOL    HW218549   5.763   3.372   3.628
 4526SOL     MW18550   5.814   3.381   3.697
 4527SOL     OW18551   5.679   3.254   3.517
 4527SOL    HW118552   5.723   3.187   3.463
 4527SOL    HW218553   5.594   3.216   3.537
 4527SOL     MW18554   5.674   3.240   3.513
 4528SOL     OW18555   6.123   2.453   2.032
 4528SOL    HW118556   6.089   2.509   2.102
 4528SOL    HW218557   6.194   2.403   2.072
 4528SOL     MW18558   6.129   2.454   2.046
 4529SOL     OW18559   5.798   3.056   3.385
 4529SOL    HW118560   5.826   3.009   3.463
 4529SOL    HW218561   5.719   3.011   3.356
 4529SOL     MW18562   5.791   3.045   3.391
 4530SOL     OW18563   5.623   2.505   2.284
 4530SOL    HW118564   5.563   2.477   2.354
 4530SOL    HW218565   5.697   2.445   2.290
 4530SOL     MW18566   5.625   2.494   2.293
 4531SOL     OW18567   6.049   2.244   3.173
 4531SOL    HW118568   6.082   2.325   3.213
 4531SOL    HW218569   6.022   2.270   3.085
 4531SOL     MW18570   6.048   2.258   3.167
 4532SOL     OW18571   6.146   1.989   2.800
 4532SOL    HW118572   6.156   1.898   2.826
 4532SOL    HW218573   6.102   1.985   2.715
 4532SOL     MW18574   6.142   1.977   2.792
 4533SOL     OW18575   6.067   3.141   3.089
 4533SOL    HW118576   6.079   3.168   3.180
 4533SOL    HW218577   6.048   3.222   3.042
 4533SOL     MW18578   6.066   3.156   3.094
 4534SOL     OW18579   6.195   3.207   2.041
 4534SOL    HW118580   6.210   3.183   2.133
 4534SOL    HW218581   6.103   3.185   2.025
 4534SOL     MW18582   6.185   3.200   2.051
 4535SOL     OW18583   5.699   3.349   3.256
 4535SOL    HW118584   5.689   3.307   3.342
 4535SOL    HW218585   5.620   3.402   3.246
 4535SOL     MW18586   5.688   3.350   3.267
 4536SOL     OW18587   5.975   3.164   3.704
 4536SOL    HW118588   6.047   3.166   3.641
 4536SOL    HW218589   5.945   3.073   3.703
 4536SOL     MW18590   5.980   3.153   3.696
 4537SOL     OW18591   5.625   3.654   3.711
 4537SOL    HW118592   5.675   3.632   3.633
 4537SOL    HW218593   5.633   3.749   3.719
 4537SOL     MW18594   5.633   3.663   3.702
 4538SOL     OW18595   5.791   1.950   2.295
 4538SOL    HW118596   5.862   1.971   2.234
 4538SOL    HW218597   5.745   1.878   2.253
 4538SOL     MW18598   5.795   1.944   2.281
 4539SOL     OW18599   5.792   2.658   3.646
 4539SOL    HW118600   5.718   2.602   3.672
 4539SOL    HW218601   5.787   2.661   3.551
 4539SOL     MW18602   5.781   2.651   3.636
 4540SOL     OW18603   5.758   2.343   2.563
 4540SOL    HW118604   5.820   2.350   2.636
 4540SOL    HW218605   5.758   2.250   2.540
 4540SOL     MW18606   5.766   2.332   2.570
 4541SOL     OW18607   5.627   2.915   2.021
 4541SOL    HW118608   5.596   2.980   2.084
 4541SOL    HW218609   5.576   2.837   2.040
 4541SOL     MW18610   5.617   2.912   2.031
 4542SOL     OW18611   5.939   2.892   3.558
 4542SOL    HW118612   5.893   2.808   3.560
 4542SOL    HW218613   5.996   2.886   3.482
 4542SOL     MW18614   5.941   2.880   3.550
 4543SOL     OW18615   5.882   2.559   2.842
 4543SOL    HW118616   5.832   2.558   2.923
 4543SOL    HW218617   5.902   2.651   2.826
 4543SOL     MW18618   5.878   2.571   2.850
 4544SOL     OW18619   5.804   2.227   3.583
 4544SOL    HW118620   5.761   2.286   3.520
 4544SOL    HW218621   5.872   2.282   3.623
 4544SOL     MW18622   5.808   2.242   3.580
 4545SOL     OW18623   5.703   1.867   3.006
 4545SOL    HW118624   5.694   1.868   2.911
 4545SOL    HW218625   5.797   1.879   3.021
 4545SOL     MW18626   5.715   1.870   2.997
 4546SOL     OW18627   5.672   2.093   1.901
 4546SOL    HW118628   5.639   2.172   1.945
 4546SOL    HW218629   5.727   2.126   1.830
 4546SOL     MW18630   5.675   2.107   1.898
 4547SOL     OW18631   5.706   3.350   2.090
 4547SOL    HW118632   5.723   3.434   2.132
 4547SOL    HW218633   5.741   3.359   2.002
 4547SOL     MW18634   5.711   3.363   2.084
 4548SOL     OW18635   6.023   2.152   4.102
 4548SOL    HW118636   5.997   2.114   4.018
 4548SOL    HW218637   5.960   2.222   4.118
 4548SOL     MW18638   6.012   2.155   4.093
 4549SOL     OW18639   5.764   3.629   3.949
 4549SOL    HW118640   5.793   3.719   3.941
 4549SOL    HW218641   5.714   3.612   3.870
 4549SOL     MW18642   5.762   3.637   3.938
 4550SOL     OW18643   5.931   3.489   4.161
 4550SOL    HW118644   5.892   3.536   4.087
 4550SOL    HW218645   5.865   3.424   4.186
 4550SOL     MW18646   5.918   3.487   4.155
 4551SOL     OW18647   6.123   2.453   3.900
 4551SOL    HW118648   6.089   2.509   3.970
 4551SOL    HW218649   6.194   2.403   3.940
 4551SOL     MW18650   6.129   2.454   3.914
 4552SOL     OW18651   6.195   3.207   3.909
 4552SOL    HW118652   6.210   3.183   4.001
 4552SOL    HW218653   6.103   3.185   3.893
 4552SOL     MW18654   6.185   3.200   3.919
 4553SOL     OW18655   5.791   1.950   4.163
 4553SOL    HW118656   5.862   1.971   4.102
 4553SOL    HW218657   5.745   1.878   4.121
 4553SOL     MW18658   5.795   1.944   4.149
 4554SOL     OW18659   5.758   2.343   4.431
 4554SOL    HW118660   5.820   2.350   4.504
 4554SOL    HW218661   5.758   2.250   4.408
 4554SOL     MW18662   5.766   2.332   4.438
 4555SOL     OW18663   5.627   2.915   3.889
 4555SOL    HW118664   5.596   2.980   3.952
 4555SOL    HW218665   5.576   2.837   3.908
 4555SOL     MW18666   5.617   2.912   3.899
 4556SOL     OW18667   5.672   2.093   3.769
 4556SOL    HW118668   5.639   2.172   3.813
 4556SOL    HW218669   5.727   2.126   3.698
 4556SOL     MW18670   5.675   2.107   3.766
 4557SOL     OW18671   5.706   3.350   3.958
 4557SOL    HW118672   5.723   3.434   4.000
 4557SOL    HW218673   5.741   3.359   3.870
 4557SOL     MW18674   5.711   3.363   3.952
 4558SOL     OW18675   5.939   4.655   1.328
 4558SOL    HW118676   6.002   4.602   1.279
 4558SOL    HW218677   5.920   4.729   1.271
 4558SOL     MW18678   5.945   4.657   1.315
 4559SOL     OW18679   6.012   4.668   0.961
 4559SOL    HW118680   5.967   4.675   0.877
 4559SOL    HW218681   5.992   4.751   1.005
 4559SOL     MW18682   6.004   4.680   0.955
 4560SOL     OW18683   5.709   5.514   0.836
 4560SOL    HW118684   5.798   5.506   0.871
 4560SOL    HW218685   5.673   5.426   0.841
 4560SOL     MW18686   5.716   5.501   0.841
 4561SOL     OW18687   6.023   4.020   0.366
 4561SOL    HW118688   5.997   3.982   0.282
 4561SOL    HW218689   5.960   4.090   0.382
 4561SOL     MW18690   6.012   4.023   0.357
 4562SOL     OW18691   5.858   4.981   0.403
 4562SOL    HW118692   5.806   5.049   0.359
 4562SOL    HW218693   5.855   4.907   0.343
 4562SOL     MW18694   5.850   4.980   0.390
 4563SOL     OW18695   5.741   5.335   1.130
 4563SOL    HW118696   5.724   5.281   1.207
 4563SOL    HW218697   5.729   5.425   1.160
 4563SOL     MW18698   5.738   5.339   1.144
 4564SOL     OW18699   6.048   5.437   0.636
 4564SOL    HW118700   6.080   5.525   0.614
 4564SOL    HW218701   6.001   5.409   0.558
 4564SOL     MW18702   6.047   5.445   0.623
 4565SOL     OW18703   5.764   5.497   0.213
 4565SOL    HW118704   5.793   5.587   0.205
 4565SOL    HW218705   5.714   5.480   0.134
 4565SOL     MW18706   5.762   5.505   0.202
 4566SOL     OW18707   5.793   3.956   0.659
 4566SOL    HW118708   5.784   3.896   0.585
 4566SOL    HW218709   5.726   3.927   0.722
 4566SOL     MW18710   5.783   3.943   0.657
 4567SOL     OW18711   5.740   4.129   1.022
 4567SOL    HW118712   5.712   4.220   1.031
 4567SOL    HW218713   5.677   4.090   0.961
 4567SOL     MW18714   5.727   4.135   1.016
 4568SOL     OW18715   5.724   4.404   1.192
 4568SOL    HW118716   5.786   4.434   1.258
 4568SOL    HW218717   5.658   4.473   1.186
 4568SOL     MW18718   5.723   4.417   1.199
 4569SOL     OW18719   5.819   5.513   1.644
 4569SOL    HW118720   5.793   5.581   1.582
 4569SOL    HW218721   5.867   5.450   1.592
 4569SOL     MW18722   5.821   5.513   1.630
 4570SOL     OW18723   5.871   4.832   1.151
 4570SOL    HW118724   5.924   4.907   1.176
 4570SOL    HW218725   5.790   4.870   1.117
 4570SOL     MW18726   5.867   4.847   1.151
 4571SOL     OW18727   5.726   4.601   0.557
 4571SOL    HW118728   5.817   4.616   0.584
 4571SOL    HW218729   5.729   4.522   0.503
 4571SOL     MW18730   5.738   4.593   0.555
 4572SOL     OW18731   5.734   5.213   0.596
 4572SOL    HW118732   5.706   5.252   0.678
 4572SOL    HW218733   5.754   5.122   0.618
 4572SOL     MW18734   5.732   5.205   0.609
 4573SOL     OW18735   6.027   3.945   1.583
 4573SOL    HW118736   5.948   3.963   1.635
 4573SOL    HW218737   6.022   4.007   1.510
 4573SOL     MW18738   6.017   3.955   1.580
 4574SOL     OW18739   5.931   5.357   0.425
 4574SOL    HW118740   5.892   5.404   0.351
 4574SOL    HW218741   5.865   5.292   0.450
 4574SOL     MW18742   5.918   5.355   0.419
 4575SOL     OW18743   5.738   4.944   0.716
 4575SOL    HW118744   5.802   4.976   0.779
 4575SOL    HW218745   5.787   4.880   0.664
 4575SOL     MW18746   5.753   4.940   0.717
 4576SOL     OW18747   5.814   5.262   1.838
 4576SOL    HW118748   5.870   5.186   1.853
 4576SOL    HW218749   5.763   5.240   1.760
 4576SOL     MW18750   5.814   5.249   1.829
 4577SOL     OW18751   5.679   5.122   1.649
 4577SOL    HW118752   5.723   5.055   1.595
 4577SOL    HW218753   5.594   5.084   1.669
 4577SOL     MW18754   5.674   5.108   1.645
 4578SOL     OW18755   5.798   4.924   1.517
 4578SOL    HW118756   5.826   4.877   1.595
 4578SOL    HW218757   5.719   4.879   1.488
 4578SOL     MW18758   5.791   4.913   1.523
 4579SOL     OW18759   5.668   5.247   0.869
 4579SOL    HW118760   5.700   5.251   0.960
 4579SOL    HW218761   5.573   5.255   0.877
 4579SOL     MW18762   5.660   5.250   0.882
 4580SOL     OW18763   5.623   4.373   0.416
 4580SOL    HW118764   5.563   4.345   0.486
 4580SOL    HW218765   5.697   4.313   0.422
 4580SOL     MW18766   5.625   4.362   0.425
 4581SOL     OW18767   6.049   4.112   1.305
 4581SOL    HW118768   6.082   4.193   1.345
 4581SOL    HW218769   6.022   4.138   1.217
 4581SOL     MW18770   6.048   4.126   1.299
 4582SOL     OW18771   6.146   3.857   0.932
 4582SOL    HW118772   6.156   3.766   0.958
 4582SOL    HW218773   6.102   3.853   0.847
 4582SOL     MW18774   6.142   3.845   0.924
 4583SOL     OW18775   6.067   5.009   1.221
 4583SOL    HW118776   6.079   5.036   1.312
 4583SOL    HW218777   6.048   5.090   1.174
 4583SOL     MW18778   6.066   5.024   1.226
 4584SOL     OW18779   6.195   5.075   0.173
 4584SOL    HW118780   6.210   5.051   0.265
 4584SOL    HW218781   6.103   5.053   0.157
 4584SOL     MW18782   6.185   5.068   0.183
 4585SOL     OW18783   5.699   5.217   1.388
 4585SOL    HW118784   5.689   5.175   1.474
 4585SOL    HW218785   5.620   5.270   1.378
 4585SOL     MW18786   5.688   5.218   1.399
 4586SOL     OW18787   5.975   5.032   1.836
 4586SOL    HW118788   6.047   5.034   1.773
 4586SOL    HW218789   5.945   4.941   1.835
 4586SOL     MW18790   5.980   5.021   1.828
 4587SOL     OW18791   5.625   5.522   1.843
 4587SOL    HW118792   5.675   5.500   1.765
 4587SOL    HW218793   5.633   5.617   1.851
 4587SOL     MW18794   5.633   5.531   1.834
 4588SOL     OW18795   5.791   3.818   0.427
 4588SOL    HW118796   5.862   3.839   0.366
 4588SOL    HW218797   5.745   3.746   0.385
 4588SOL     MW18798   5.795   3.812   0.413
 4589SOL     OW18799   5.792   4.526   1.778
 4589SOL    HW118800   5.718   4.470   1.804
 4589SOL    HW218801   5.787   4.529   1.683
 4589SOL     MW18802   5.781   4.519   1.768
 4590SOL     OW18803   5.758   4.211   0.695
 4590SOL    HW118804   5.820   4.218   0.768
 4590SOL    HW218805   5.758   4.118   0.672
 4590SOL     MW18806   5.766   4.200   0.702
 4591SOL     OW18807   5.939   4.760   1.690
 4591SOL    HW118808   5.893   4.676   1.692
 4591SOL    HW218809   5.996   4.754   1.614
 4591SOL     MW18810   5.941   4.748   1.682
 4592SOL     OW18811   5.882   4.427   0.974
 4592SOL    HW118812   5.832   4.426   1.055
 4592SOL    HW218813   5.902   4.519   0.958
 4592SOL     MW18814   5.878   4.439   0.982
 4593SOL     OW18815   5.804   4.095   1.715
 4593SOL    HW118816   5.761   4.154   1.652
 4593SOL    HW218817   5.872   4.150   1.755
 4593SOL     MW18818   5.808   4.110   1.712
 4594SOL     OW18819   5.703   3.735   1.138
 4594SOL    HW118820   5.694   3.736   1.043
 4594SOL    HW218821   5.797   3.747   1.153
 4594SOL     MW18822   5.715   3.738   1.129
 4595SOL     OW18823   5.939   4.655   3.196
 4595SOL    HW118824   6.002   4.602   3.147
 4595SOL    HW218825   5.920   4.729   3.139
 4595SOL     MW18826   5.945   4.657   3.183
 4596SOL     OW18827   6.012   4.668   2.829
 4596SOL    HW118828   5.967   4.675   2.745
 4596SOL    HW218829   5.992   4.751   2.873
 4596SOL     MW18830   6.004   4.680   2.823
 4597SOL     OW18831   5.709   5.514   2.704
 4597SOL    HW118832   5.798   5.506   2.739
 4597SOL    HW218833   5.673   5.426   2.709
 4597SOL     MW18834   5.716   5.501   2.709
 4598SOL     OW18835   6.023   4.020   2.234
 4598SOL    HW118836   5.997   3.982   2.150
 4598SOL    HW218837   5.960   4.090   2.250
 4598SOL     MW18838   6.012   4.023   2.225
 4599SOL     OW18839   5.858   4.981   2.271
 4599SOL    HW118840   5.806   5.049   2.227
 4599SOL    HW218841   5.855   4.907   2.211
 4599SOL     MW18842   5.850   4.980   2.258
 4600SOL     OW18843   5.741   5.335   2.998
 4600SOL    HW118844   5.724   5.281   3.075
 4600SOL    HW218845   5.729   5.425   3.028
 4600SOL     MW18846   5.738   5.339   3.012
 4601SOL     OW18847   6.048   5.437   2.504
 4601SOL    HW118848   6.080   5.525   2.482
 4601SOL    HW218849   6.001   5.409   2.426
 4601SOL     MW18850   6.047   5.445   2.491
 4602SOL     OW18851   5.764   5.497   2.081
 4602SOL    HW118852   5.793   5.587   2.073
 4602SOL    HW218853   5.714   5.480   2.002
 4602SOL     MW18854   5.762   5.505   2.070
 4603SOL     OW18855   5.793   3.956   2.527
 4603SOL    HW118856   5.784   3.896   2.453
 4603SOL    HW218857   5.726   3.927   2.590
 4603SOL     MW18858   5.783   3.943   2.525
 4604SOL     OW18859   5.724   4.404   3.060
 4604SOL    HW118860   5.786   4.434   3.126
 4604SOL    HW218861   5.658   4.473   3.054
 4604SOL     MW18862   5.723   4.417   3.067
 4605SOL     OW18863   5.819   5.513   3.512
 4605SOL    HW118864   5.793   5.581   3.450
 4605SOL    HW218865   5.867   5.450   3.460
 4605SOL     MW18866   5.821   5.513   3.498
 4606SOL     OW18867   5.871   4.832   3.019
 4606SOL    HW118868   5.924   4.907   3.044
 4606SOL    HW218869   5.790   4.870   2.985
 4606SOL     MW18870   5.867   4.847   3.019
 4607SOL     OW18871   5.726   4.601   2.425
 4607SOL    HW118872   5.817   4.616   2.452
 4607SOL    HW218873   5.729   4.522   2.371
 4607SOL     MW18874   5.738   4.593   2.423
 4608SOL     OW18875   5.734   5.213   2.464
 4608SOL    HW118876   5.706   5.252   2.546
 4608SOL    HW218877   5.754   5.122   2.486
 4608SOL     MW18878   5.732   5.205   2.477
 4609SOL     OW18879   6.027   3.945   3.451
 4609SOL    HW118880   5.948   3.963   3.503
 4609SOL    HW218881   6.022   4.007   3.378
 4609SOL     MW18882   6.017   3.955   3.448
 4610SOL     OW18883   5.931   5.357   2.293
 4610SOL    HW118884   5.892   5.404   2.219
 4610SOL    HW218885   5.865   5.292   2.318
 4610SOL     MW18886   5.918   5.355   2.287
 4611SOL     OW18887   5.738   4.944   2.584
 4611SOL    HW118888   5.802   4.976   2.647
 4611SOL    HW218889   5.787   4.880   2.532
 4611SOL     MW18890   5.753   4.940   2.585
 4612SOL     OW18891   5.814   5.262   3.706
 4612SOL    HW118892   5.870   5.186   3.721
 4612SOL    HW218893   5.763   5.240   3.628
 4612SOL     MW18894   5.814   5.249   3.697
 4613SOL     OW18895   5.679   5.122   3.517
 4613SOL    HW118896   5.723   5.055   3.463
 4613SOL    HW218897   5.594   5.084   3.537
 4613SOL     MW18898   5.674   5.108   3.513
 4614SOL     OW18899   6.123   4.321   2.032
 4614SOL    HW118900   6.089   4.377   2.102
 4614SOL    HW218901   6.194   4.271   2.072
 4614SOL     MW18902   6.129   4.322   2.046
 4615SOL     OW18903   5.798   4.924   3.385
 4615SOL    HW118904   5.826   4.877   3.463
 4615SOL    HW218905   5.719   4.879   3.356
 4615SOL     MW18906   5.791   4.913   3.391
 4616SOL     OW18907   5.668   5.247   2.737
 4616SOL    HW118908   5.700   5.251   2.828
 4616SOL    HW218909   5.573   5.255   2.745
 4616SOL     MW18910   5.660   5.250   2.750
 4617SOL     OW18911   5.623   4.373   2.284
 4617SOL    HW118912   5.563   4.345   2.354
 4617SOL    HW218913   5.697   4.313   2.290
 4617SOL     MW18914   5.625   4.362   2.293
 4618SOL     OW18915   6.049   4.112   3.173
 4618SOL    HW118916   6.082   4.193   3.213
 4618SOL    HW218917   6.022   4.138   3.085
 4618SOL     MW18918   6.048   4.126   3.167
 4619SOL     OW18919   6.146   3.857   2.800
 4619SOL    HW118920   6.156   3.766   2.826
 4619SOL    HW218921   6.102   3.853   2.715
 4619SOL     MW18922   6.142   3.845   2.792
 4620SOL     OW18923   6.067   5.009   3.089
 4620SOL    HW118924   6.079   5.036   3.180
 4620SOL    HW218925   6.048   5.090   3.042
 4620SOL     MW18926   6.066   5.024   3.094
 4621SOL     OW18927   6.195   5.075   2.041
 4621SOL    HW118928   6.210   5.051   2.133
 4621SOL    HW218929   6.103   5.053   2.025
 4621SOL     MW18930   6.185   5.068   2.051
 4622SOL     OW18931   5.699   5.217   3.256
 4622SOL    HW118932   5.689   5.175   3.342
 4622SOL    HW218933   5.620   5.270   3.246
 4622SOL     MW18934   5.688   5.218   3.267
 4623SOL     OW18935   5.975   5.032   3.704
 4623SOL    HW118936   6.047   5.034   3.641
 4623SOL    HW218937   5.945   4.941   3.703
 4623SOL     MW18938   5.980   5.021   3.696
 4624SOL     OW18939   5.625   5.522   3.711
 4624SOL    HW118940   5.675   5.500   3.633
 4624SOL    HW218941   5.633   5.617   3.719
 4624SOL     MW18942   5.633   5.531   3.702
 4625SOL     OW18943   5.791   3.818   2.295
 4625SOL    HW118944   5.862   3.839   2.234
 4625SOL    HW218945   5.745   3.746   2.253
 4625SOL     MW18946   5.795   3.812   2.281
 4626SOL     OW18947   5.792   4.526   3.646
 4626SOL    HW118948   5.718   4.470   3.672
 4626SOL    HW218949   5.787   4.529   3.551
 4626SOL     MW18950   5.781   4.519   3.636
 4627SOL     OW18951   5.758   4.211   2.563
 4627SOL    HW118952   5.820   4.218   2.636
 4627SOL    HW218953   5.758   4.118   2.540
 4627SOL     MW18954   5.766   4.200   2.570
 4628SOL     OW18955   5.627   4.783   2.021
 4628SOL    HW118956   5.596   4.848   2.084
 4628SOL    HW218957   5.576   4.705   2.040
 4628SOL     MW18958   5.617   4.780   2.031
 4629SOL     OW18959   5.939   4.760   3.558
 4629SOL    HW118960   5.893   4.676   3.560
 4629SOL    HW218961   5.996   4.754   3.482
 4629SOL     MW18962   5.941   4.748   3.550
 4630SOL     OW18963   5.882   4.427   2.842
 4630SOL    HW118964   5.832   4.426   2.923
 4630SOL    HW218965   5.902   4.519   2.826
 4630SOL     MW18966   5.878   4.439   2.850
 4631SOL     OW18967   5.804   4.095   3.583
 4631SOL    HW118968   5.761   4.154   3.520
 4631SOL    HW218969   5.872   4.150   3.623
 4631SOL     MW18970   5.808   4.110   3.580
 4632SOL     OW18971   5.703   3.735   3.006
 4632SOL    HW118972   5.694   3.736   2.911
 4632SOL    HW218973   5.797   3.747   3.021
 4632SOL     MW18974   5.715   3.738   2.997
 4633SOL     OW18975   5.672   3.961   1.901
 4633SOL    HW118976   5.639   4.040   1.945
 4633SOL    HW218977   5.727   3.994   1.830
 4633SOL     MW18978   5.675   3.975   1.898
 4634SOL     OW18979   5.706   5.218   2.090
 4634SOL    HW118980   5.723   5.302   2.132
 4634SOL    HW218981   5.741   5.227   2.002
 4634SOL     MW18982   5.711   5.231   2.084
 4635SOL     OW18983   6.023   4.020   4.102
 4635SOL    HW118984   5.997   3.982   4.018
 4635SOL    HW218985   5.960   4.090   4.118
 4635SOL     MW18986   6.012   4.023   4.093
 4636SOL     OW18987   5.764   5.497   3.949
 4636SOL    HW118988   5.793   5.587   3.941
 4636SOL    HW218989   5.714   5.480   3.870
 4636SOL     MW18990   5.762   5.505   3.938
 4637SOL     OW18991   5.931   5.357   4.161
 4637SOL    HW118992   5.892   5.404   4.087
 4637SOL    HW218993   5.865   5.292   4.186
 4637SOL     MW18994   5.918   5.355   4.155
 4638SOL     OW18995   6.123   4.321   3.900
 4638SOL    HW118996   6.089   4.377   3.970
 4638SOL    HW218997   6.194   4.271   3.940
 4638SOL     MW18998   6.129   4.322   3.914
 4639SOL     OW18999   5.623   4.373   4.152
 4639SOL    HW119000   5.563   4.345   4.222
 4639SOL    HW219001   5.697   4.313   4.158
 4639SOL     MW19002   5.625   4.362   4.161
 4640SOL     OW19003   6.195   5.075   3.909
 4640SOL    HW119004   6.210   5.051   4.001
 4640SOL    HW219005   6.103   5.053   3.893
 4640SOL     MW19006   6.185   5.068   3.919
 4641SOL     OW19007   5.791   3.818   4.163
 4641SOL    HW119008   5.862   3.839   4.102
 4641SOL    HW219009   5.745   3.746   4.121
 4641SOL     MW19010   5.795   3.812   4.149
 4642SOL     OW19011   5.627   4.783   3.889
 4642SOL    HW119012   5.596   4.848   3.952
 4642SOL    HW219013   5.576   4.705   3.908
 4642SOL     MW19014   5.617   4.780   3.899
 4643SOL     OW19015   5.672   3.961   3.769
 4643SOL    HW119016   5.639   4.040   3.813
 4643SOL    HW219017   5.727   3.994   3.698
 4643SOL     MW19018   5.675   3.975   3.766
 4644SOL     OW19019   5.706   5.218   3.958
 4644SOL    HW119020   5.723   5.302   4.000
 4644SOL    HW219021   5.741   5.227   3.870
 4644SOL     MW19022   5.711   5.231   3.952
 4645SOL     OW19023   5.793   5.825   0.659
 4645SOL    HW119024   5.784   5.765   0.585
 4645SOL    HW219025   5.726   5.796   0.722
 4645SOL     MW19026   5.783   5.812   0.657
 4646SOL     OW19027   6.027   5.814   1.583
 4646SOL    HW119028   5.948   5.832   1.635
 4646SOL    HW219029   6.022   5.876   1.510
 4646SOL     MW19030   6.017   5.824   1.580
 4647SOL     OW19031   6.049   5.981   1.305
 4647SOL    HW119032   6.082   6.062   1.345
 4647SOL    HW219033   6.022   6.007   1.217
 4647SOL     MW19034   6.048   5.995   1.299
 4648SOL     OW19035   6.146   5.726   0.932
 4648SOL    HW119036   6.156   5.635   0.958
 4648SOL    HW219037   6.102   5.722   0.847
 4648SOL     MW19038   6.142   5.714   0.924
 4649SOL     OW19039   5.791   5.687   0.427
 4649SOL    HW119040   5.862   5.708   0.366
 4649SOL    HW219041   5.745   5.615   0.385
 4649SOL     MW19042   5.795   5.681   0.413
 4650SOL     OW19043   5.804   5.964   1.715
 4650SOL    HW119044   5.761   6.023   1.652
 4650SOL    HW219045   5.872   6.019   1.755
 4650SOL     MW19046   5.808   5.979   1.712
 4651SOL     OW19047   5.703   5.604   1.138
 4651SOL    HW119048   5.694   5.605   1.043
 4651SOL    HW219049   5.797   5.616   1.153
 4651SOL     MW19050   5.715   5.607   1.129
 4652SOL     OW19051   5.793   5.825   2.527
 4652SOL    HW119052   5.784   5.765   2.453
 4652SOL    HW219053   5.726   5.796   2.590
 4652SOL     MW19054   5.783   5.812   2.525
 4653SOL     OW19055   6.027   5.814   3.451
 4653SOL    HW119056   5.948   5.832   3.503
 4653SOL    HW219057   6.022   5.876   3.378
 4653SOL     MW19058   6.017   5.824   3.448
 4654SOL     OW19059   6.049   5.981   3.173
 4654SOL    HW119060   6.082   6.062   3.213
 4654SOL    HW219061   6.022   6.007   3.085
 4654SOL     MW19062   6.048   5.995   3.167
 4655SOL     OW19063   6.146   5.726   2.800
 4655SOL    HW119064   6.156   5.635   2.826
 4655SOL    HW219065   6.102   5.722   2.715
 4655SOL     MW19066   6.142   5.714   2.792
 4656SOL     OW19067   5.791   5.687   2.295
 4656SOL    HW119068   5.862   5.708   2.234
 4656SOL    HW219069   5.745   5.615   2.253
 4656SOL     MW19070   5.795   5.681   2.281
 4657SOL     OW19071   5.804   5.964   3.583
 4657SOL    HW119072   5.761   6.023   3.520
 4657SOL    HW219073   5.872   6.019   3.623
 4657SOL     MW19074   5.808   5.979   3.580
 4658SOL     OW19075   5.703   5.604   3.006
 4658SOL    HW119076   5.694   5.605   2.911
 4658SOL    HW219077   5.797   5.616   3.021
 4658SOL     MW19078   5.715   5.607   2.997
 4659SOL     OW19079   5.672   5.830   1.901
 4659SOL    HW119080   5.639   5.909   1.945
 4659SOL    HW219081   5.727   5.863   1.830
 4659SOL     MW19082   5.675   5.844   1.898
 4660SOL     OW19083   5.791   5.687   4.163
 4660SOL    HW119084   5.862   5.708   4.102
 4660SOL    HW219085   5.745   5.615   4.121
 4660SOL     MW19086   5.795   5.681   4.149
 4661SOL     OW19087   5.672   5.830   3.769
 4661SOL    HW119088   5.639   5.909   3.813
 4661SOL    HW219089   5.727   5.863   3.698
 4661SOL     MW19090   5.675   5.844   3.766
   5.87690   5.87690   4.15559   0.00000   0.00000   0.00000   0.00000   2.93845   2.93845
