exampleRNA-OH in water
19027
    1A5    HO5'    1   3.624   3.668   1.198
    1A5     O5'    2   3.591   3.742   1.148
    1A5     C5'    3   3.636   3.736   1.013
    1A5     H5'    4   3.567   3.676   0.955
    1A5    H5''    5   3.734   3.689   1.009
    1A5     C4'    6   3.647   3.876   0.949
    1A5     H4'    7   3.655   3.863   0.841
    1A5     O4'    8   3.532   3.956   0.977
    1A5     C1'    9   3.572   4.092   0.997
    1A5     H1'   10   3.516   4.159   0.932
    1A5      N9   11   3.550   4.135   1.138
    1A5      C8   12   3.533   4.057   1.251
    1A5      H8   13   3.539   3.950   1.249
    1A5      N7   14   3.504   4.124   1.359
    1A5      C5   15   3.507   4.257   1.317
    1A5      C6   16   3.484   4.383   1.379
    1A5      N6   17   3.451   4.399   1.506
    1A5     H61   18   3.439   4.491   1.544
    1A5     H62   19   3.457   4.319   1.567
    1A5      N1   20   3.489   4.497   1.309
    1A5      C2   21   3.521   4.488   1.180
    1A5      H2   22   3.526   4.582   1.126
    1A5      N3   23   3.542   4.379   1.108
    1A5      C4   24   3.536   4.265   1.183
    1A5     C3'   25   3.768   3.957   0.995
    1A5     H3'   26   3.777   3.947   1.103
    1A5     C2'   27   3.720   4.097   0.958
    1A5     H2'   28   3.773   4.174   1.014
    1A5     O2'   29   3.729   4.119   0.817
    1A5    HO2'   30   3.810   4.076   0.788
    1A5     O3'   31   3.890   3.923   0.929
    2G        P   32   4.031   3.968   0.992
    2G      OP1   33   4.138   3.913   0.906
    2G      OP2   34   4.027   3.935   1.135
    2G      O5'   35   4.031   4.127   0.978
    2G      C5'   36   4.055   4.191   0.854
    2G      H5'   37   3.984   4.156   0.779
    2G     H5''   38   4.156   4.169   0.819
    2G      C4'   39   4.040   4.343   0.867
    2G      H4'   40   4.047   4.389   0.768
    2G      O4'   41   3.913   4.378   0.923
    2G      C1'   42   3.931   4.487   1.014
    2G      H1'   43   3.868   4.571   0.986
    2G       N9   44   3.895   4.447   1.152
    2G       C8   45   3.887   4.323   1.211
    2G       H8   46   3.910   4.232   1.158
    2G       N7   47   3.846   4.324   1.335
    2G       C5   48   3.830   4.461   1.363
    2G       C6   49   3.788   4.530   1.482
    2G       O6   50   3.749   4.485   1.590
    2G       N1   51   3.792   4.668   1.468
    2G       H1   52   3.771   4.723   1.550
    2G       C2   53   3.831   4.732   1.356
    2G       N2   54   3.839   4.862   1.360
    2G      H21   55   3.820   4.912   1.446
    2G      H22   56   3.873   4.908   1.277
    2G       N3   57   3.868   4.672   1.243
    2G       C4   58   3.864   4.536   1.253
    2G      C3'   59   4.148   4.405   0.955
    2G      H3'   60   4.171   4.338   1.038
    2G      C2'   61   4.077   4.530   1.008
    2G      H2'   62   4.114   4.555   1.108
    2G      O2'   63   4.090   4.642   0.922
    2G     HO2'   64   4.178   4.678   0.940
    2G      O3'   65   4.263   4.436   0.879
    3C        P   66   4.402   4.467   0.950
    3C      OP1   67   4.499   4.490   0.841
    3C      OP2   68   4.429   4.361   1.047
    3C      O5'   69   4.379   4.603   1.029
    3C      C5'   70   4.407   4.729   0.971
    3C      H5'   71   4.348   4.742   0.881
    3C     H5''   72   4.513   4.734   0.945
    3C      C4'   73   4.376   4.844   1.068
    3C      H4'   74   4.382   4.938   1.013
    3C      O4'   75   4.245   4.831   1.123
    3C      C1'   76   4.245   4.886   1.255
    3C      H1'   77   4.176   4.970   1.261
    3C       N1   78   4.206   4.783   1.357
    3C       C6   79   4.226   4.649   1.334
    3C       H6   80   4.275   4.616   1.244
    3C       C5   81   4.185   4.558   1.425
    3C       H5   82   4.200   4.452   1.407
    3C       C4   83   4.125   4.606   1.544
    3C       N4   84   4.082   4.520   1.631
    3C      H41   85   4.103   4.422   1.620
    3C      H42   86   4.040   4.552   1.717
    3C       N3   87   4.107   4.734   1.569
    3C       C2   88   4.149   4.825   1.478
    3C       O2   89   4.137   4.945   1.506
    3C      C3'   90   4.473   4.854   1.187
    3C      H3'   91   4.493   4.755   1.228
    3C      C2'   92   4.386   4.937   1.281
    3C      H2'   93   4.415   4.923   1.385
    3C      O2'   94   4.390   5.075   1.248
    3C     HO2'   95   4.480   5.093   1.219
    3C      O3'   96   4.593   4.922   1.151
    4G        P   97   4.725   4.918   1.241
    4G      OP1   98   4.825   5.006   1.178
    4G      OP2   99   4.764   4.779   1.274
    4G      O5'  100   4.682   4.983   1.380
    4G      C5'  101   4.688   5.123   1.400
    4G      H5'  102   4.629   5.174   1.324
    4G     H5''  103   4.792   5.156   1.390
    4G      C4'  104   4.637   5.163   1.538
    4G      H4'  105   4.641   5.272   1.546
    4G      O4'  106   4.502   5.121   1.561
    4G      C1'  107   4.487   5.084   1.698
    4G      H1'  108   4.405   5.139   1.744
    4G       N9  109   4.458   4.939   1.714
    4G       C8  110   4.481   4.835   1.628
    4G       H8  111   4.531   4.848   1.533
    4G       N7  112   4.437   4.720   1.670
    4G       C5  113   4.386   4.748   1.797
    4G       C6  114   4.326   4.662   1.896
    4G       O6  115   4.297   4.543   1.890
    4G       N1  116   4.299   4.728   2.015
    4G       H1  117   4.264   4.673   2.092
    4G       C2  118   4.323   4.859   2.035
    4G       N2  119   4.300   4.904   2.155
    4G      H21  120   4.266   4.840   2.226
    4G      H22  121   4.316   5.002   2.175
    4G       N3  122   4.373   4.944   1.945
    4G       C4  123   4.403   4.881   1.827
    4G      C3'  124   4.719   5.105   1.653
    4G      H3'  125   4.739   5.000   1.633
    4G      C2'  126   4.619   5.118   1.767
    4G      H2'  127   4.641   5.048   1.848
    4G      O2'  128   4.614   5.251   1.814
    4G     HO2'  129   4.706   5.279   1.817
    4G      O3'  130   4.839   5.177   1.681
    5C        P  131   4.959   5.104   1.758
    5C      OP1  132   5.075   5.194   1.767
    5C      OP2  133   4.978   4.969   1.701
    5C      O5'  134   4.903   5.089   1.906
    5C      C5'  135   4.895   5.200   1.993
    5C      H5'  136   4.835   5.279   1.949
    5C     H5''  137   4.996   5.240   2.011
    5C      C4'  138   4.834   5.160   2.128
    5C      H4'  139   4.823   5.250   2.189
    5C      O4'  140   4.706   5.100   2.114
    5C      C1'  141   4.691   4.999   2.213
    5C      H1'  142   4.604   5.022   2.274
    5C       N1  143   4.671   4.864   2.153
    5C       C6  144   4.709   4.834   2.024
    5C       H6  145   4.759   4.909   1.964
    5C       C5  146   4.684   4.712   1.971
    5C       H5  147   4.712   4.689   1.870
    5C       C4  148   4.619   4.616   2.054
    5C       N4  149   4.592   4.499   2.006
    5C      H41  150   4.622   4.472   1.913
    5C      H42  151   4.549   4.429   2.065
    5C       N3  152   4.583   4.643   2.178
    5C       C2  153   4.608   4.765   2.230
    5C       O2  154   4.576   4.788   2.347
    5C      C3'  155   4.921   5.061   2.205
    5C      H3'  156   4.959   4.984   2.137
    5C      C2'  157   4.817   5.003   2.301
    5C      H2'  158   4.846   4.903   2.334
    5C      O2'  159   4.794   5.089   2.412
    5C     HO2'  160   4.880   5.109   2.448
    5C      O3'  161   5.026   5.128   2.274
    6U        P  162   5.164   5.056   2.306
    6U      OP1  163   5.248   5.158   2.371
    6U      OP2  164   5.212   4.992   2.182
    6U      O5'  165   5.126   4.942   2.412
    6U      C5'  166   5.109   4.973   2.550
    6U      H5'  167   5.043   5.059   2.560
    6U     H5''  168   5.205   4.999   2.593
    6U      C4'  169   5.048   4.858   2.633
    6U      H4'  170   5.027   4.895   2.733
    6U      O4'  171   4.925   4.814   2.574
    6U      C1'  172   4.907   4.676   2.603
    6U      H1'  173   4.817   4.664   2.664
    6U       N1  174   4.888   4.591   2.482
    6U       C6  175   4.925   4.632   2.356
    6U       H6  176   4.976   4.727   2.343
    6U       C5  177   4.900   4.554   2.248
    6U       H5  178   4.929   4.586   2.149
    6U       C4  179   4.836   4.425   2.261
    6U       O4  180   4.815   4.346   2.170
    6U       N3  181   4.805   4.390   2.389
    6U       H3  182   4.765   4.298   2.402
    6U       C2  183   4.830   4.465   2.501
    6U       O2  184   4.804   4.420   2.613
    6U      C3'  185   5.135   4.733   2.647
    6U      H3'  186   5.176   4.708   2.550
    6U      C2'  187   5.028   4.630   2.685
    6U      H2'  188   5.061   4.530   2.656
    6U      O2'  189   4.989   4.632   2.823
    6U     HO2'  190   4.951   4.546   2.841
    6U      O3'  191   5.237   4.741   2.747
    7U        P  192   5.372   4.659   2.729
    7U      OP1  193   5.454   4.675   2.851
    7U      OP2  194   5.431   4.700   2.599
    7U      O5'  195   5.330   4.506   2.719
    7U      C5'  196   5.297   4.432   2.836
    7U      H5'  197   5.219   4.485   2.891
    7U     H5''  198   5.384   4.423   2.900
    7U      C4'  199   5.246   4.291   2.803
    7U      H4'  200   5.221   4.240   2.896
    7U      O4'  201   5.128   4.296   2.723
    7U      C1'  202   5.127   4.183   2.636
    7U      H1'  203   5.037   4.125   2.655
    7U       N1  204   5.127   4.225   2.493
    7U       C6  205   5.187   4.342   2.450
    7U       H6  206   5.233   4.408   2.522
    7U       C5  207   5.188   4.375   2.318
    7U       H5  208   5.235   4.466   2.285
    7U       C4  209   5.127   4.290   2.218
    7U       O4  210   5.129   4.310   2.097
    7U       N3  211   5.066   4.178   2.268
    7U       H3  212   5.024   4.114   2.202
    7U       C2  213   5.068   4.138   2.400
    7U       O2  214   5.025   4.028   2.431
    7U      C3'  215   5.347   4.204   2.728
    7U      H3'  216   5.393   4.261   2.648
    7U      C2'  217   5.251   4.098   2.670
    7U      H2'  218   5.293   4.051   2.582
    7U      O2'  219   5.214   4.001   2.768
    7U     HO2'  220   5.138   3.951   2.737
    7U      O3'  221   5.445   4.153   2.818
    8U        P  222   5.587   4.100   2.771
    8U      OP1  223   5.685   4.174   2.854
    8U      OP2  224   5.599   4.109   2.624
    8U      O5'  225   5.592   3.945   2.812
    8U      C5'  226   5.527   3.846   2.733
    8U      H5'  227   5.572   3.845   2.633
    8U     H5''  228   5.422   3.873   2.721
    8U      C4'  229   5.537   3.704   2.790
    8U      H4'  230   5.637   3.665   2.768
    8U      O4'  231   5.516   3.705   2.931
    8U      C1'  232   5.386   3.653   2.960
    8U      H1'  233   5.399   3.554   3.004
    8U       N1  234   5.313   3.741   3.054
    8U       C6  235   5.322   3.878   3.045
    8U       H6  236   5.376   3.923   2.963
    8U       C5  237   5.265   3.958   3.139
    8U       H5  238   5.273   4.065   3.130
    8U       C4  239   5.193   3.902   3.251
    8U       O4  240   5.142   3.969   3.340
    8U       N3  241   5.184   3.765   3.251
    8U       H3  242   5.133   3.722   3.327
    8U       C2  243   5.237   3.682   3.155
    8U       O2  244   5.214   3.561   3.162
    8U      C3'  245   5.431   3.609   2.732
    8U      H3'  246   5.404   3.636   2.630
    8U      C2'  247   5.313   3.635   2.827
    8U      H2'  248   5.263   3.728   2.799
    8U      O2'  249   5.220   3.527   2.832
    8U     HO2'  250   5.130   3.560   2.823
    8U      O3'  251   5.472   3.474   2.742
    9C        P  252   5.550   3.402   2.624
    9C      OP1  253   5.559   3.258   2.658
    9C      OP2  254   5.673   3.479   2.599
    9C      O5'  255   5.452   3.420   2.500
    9C      C5'  256   5.321   3.366   2.501
    9C      H5'  257   5.271   3.390   2.595
    9C     H5''  258   5.326   3.258   2.491
    9C      C4'  259   5.238   3.425   2.387
    9C      H4'  260   5.137   3.385   2.392
    9C      O4'  261   5.235   3.567   2.401
    9C      C1'  262   5.263   3.625   2.276
    9C      H1'  263   5.172   3.629   2.217
    9C       N1  264   5.321   3.761   2.292
    9C       C6  265   5.436   3.780   2.364
    9C       H6  266   5.485   3.695   2.409
    9C       C5  267   5.486   3.905   2.378
    9C       H5  268   5.577   3.922   2.435
    9C       C4  269   5.417   4.011   2.315
    9C       N4  270   5.457   4.134   2.330
    9C      H41  271   5.406   4.206   2.282
    9C      H42  272   5.534   4.152   2.393
    9C       N3  273   5.310   3.994   2.242
    9C       C2  274   5.258   3.869   2.230
    9C       O2  275   5.155   3.855   2.164
    9C      C3'  276   5.299   3.393   2.249
    9C      H3'  277   5.378   3.318   2.255
    9C      C2'  278   5.358   3.528   2.206
    9C      H2'  279   5.460   3.537   2.245
    9C      O2'  280   5.352   3.546   2.066
    9C     HO2'  281   5.280   3.489   2.038
    9C      O3'  282   5.200   3.357   2.154
   10G        P  283   5.149   3.208   2.137
   10G      OP1  284   5.265   3.117   2.150
   10G      OP2  285   5.073   3.206   2.011
   10G      O5'  286   5.051   3.178   2.256
   10G      C5'  287   4.922   3.237   2.264
   10G      H5'  288   4.859   3.204   2.181
   10G     H5''  289   4.930   3.346   2.261
   10G      C4'  290   4.857   3.196   2.396
   10G      H4'  291   4.849   3.087   2.398
   10G      O4'  292   4.941   3.237   2.504
   10G      C1'  293   4.859   3.271   2.614
   10G      H1'  294   4.883   3.203   2.696
   10G       N9  295   4.882   3.409   2.665
   10G       C8  296   4.903   3.444   2.796
   10G       H8  297   4.892   3.373   2.877
   10G       N7  298   4.937   3.569   2.814
   10G       C5  299   4.938   3.621   2.685
   10G       C6  300   4.971   3.753   2.638
   10G       O6  301   5.003   3.852   2.704
   10G       N1  302   4.968   3.765   2.501
   10G       H1  303   4.986   3.857   2.463
   10G       C2  304   4.936   3.664   2.418
   10G       N2  305   4.943   3.690   2.290
   10G      H21  306   4.906   3.621   2.226
   10G      H22  307   4.977   3.779   2.256
   10G       N3  308   4.901   3.541   2.456
   10G       C4  309   4.905   3.525   2.592
   10G      C3'  310   4.717   3.254   2.420
   10G      H3'  311   4.713   3.357   2.387
   10G      C2'  312   4.715   3.247   2.574
   10G      H2'  313   4.649   3.323   2.616
   10G      O2'  314   4.677   3.118   2.619
   10G     HO2'  315   4.621   3.081   2.550
   10G      O3'  316   4.609   3.175   2.369
   11A        P  317   4.481   3.242   2.300
   11A      OP1  318   4.365   3.151   2.315
   11A      OP2  319   4.519   3.284   2.164
   11A      O5'  320   4.449   3.373   2.387
   11A      C5'  321   4.392   3.359   2.517
   11A      H5'  322   4.435   3.272   2.567
   11A     H5''  323   4.285   3.341   2.507
   11A      C4'  324   4.414   3.481   2.607
   11A      H4'  325   4.395   3.451   2.710
   11A      O4'  326   4.548   3.532   2.600
   11A      C1'  327   4.545   3.673   2.615
   11A      H1'  328   4.610   3.705   2.697
   11A       N9  329   4.589   3.739   2.490
   11A       C8  330   4.592   3.689   2.362
   11A       H8  331   4.563   3.588   2.338
   11A       N7  332   4.637   3.773   2.273
   11A       C5  333   4.660   3.890   2.348
   11A       C6  334   4.704   4.022   2.319
   11A       N6  335   4.740   4.066   2.200
   11A      H61  336   4.757   4.164   2.187
   11A      H62  337   4.730   4.004   2.121
   11A       N1  338   4.716   4.113   2.416
   11A       C2  339   4.686   4.076   2.540
   11A       H2  340   4.697   4.152   2.616
   11A       N3  341   4.643   3.958   2.582
   11A       C4  342   4.631   3.869   2.480
   11A      C3'  343   4.323   3.600   2.577
   11A      H3'  344   4.317   3.617   2.470
   11A      C2'  345   4.401   3.711   2.647
   11A      H2'  346   4.375   3.809   2.605
   11A      O2'  347   4.380   3.708   2.787
   11A     HO2'  348   4.285   3.692   2.795
   11A      O3'  349   4.195   3.581   2.636
   12G        P  350   4.070   3.666   2.589
   12G      OP1  351   3.954   3.616   2.666
   12G      OP2  352   4.063   3.663   2.442
   12G      O5'  353   4.103   3.814   2.637
   12G      C5'  354   4.084   3.850   2.773
   12G      H5'  355   4.131   3.775   2.836
   12G     H5''  356   3.978   3.852   2.795
   12G      C4'  357   4.144   3.987   2.807
   12G      H4'  358   4.143   3.997   2.916
   12G      O4'  359   4.278   4.001   2.762
   12G      C1'  360   4.297   4.135   2.718
   12G      H1'  361   4.379   4.182   2.772
   12G       N9  362   4.326   4.140   2.573
   12G       C8  363   4.304   4.045   2.476
   12G       H8  364   4.258   3.950   2.496
   12G       N7  365   4.344   4.081   2.357
   12G       C5  366   4.393   4.211   2.375
   12G       C6  367   4.447   4.307   2.283
   12G       O6  368   4.468   4.299   2.162
   12G       N1  369   4.477   4.428   2.342
   12G       H1  370   4.510   4.501   2.280
   12G       C2  371   4.459   4.454   2.473
   12G       N2  372   4.488   4.575   2.515
   12G      H21  373   4.518   4.645   2.449
   12G      H22  374   4.475   4.594   2.613
   12G       N3  375   4.415   4.368   2.563
   12G       C4  376   4.381   4.247   2.507
   12G      C3'  377   4.063   4.103   2.750
   12G      H3'  378   4.028   4.079   2.650
   12G      C2'  379   4.169   4.213   2.748
   12G      H2'  380   4.147   4.288   2.672
   12G      O2'  381   4.180   4.273   2.877
   12G     HO2'  382   4.093   4.261   2.915
   12G      O3'  383   3.960   4.136   2.841
   13C        P  384   3.824   4.201   2.792
   13C      OP1  385   3.743   4.211   2.915
   13C      OP2  386   3.775   4.124   2.676
   13C      O5'  387   3.868   4.348   2.744
   13C      C5'  388   3.886   4.451   2.838
   13C      H5'  389   3.953   4.416   2.916
   13C     H5''  390   3.789   4.473   2.883
   13C      C4'  391   3.944   4.581   2.781
   13C      H4'  392   3.961   4.649   2.864
   13C      O4'  393   4.069   4.562   2.717
   13C      C1'  394   4.084   4.658   2.613
   13C      H1'  395   4.173   4.718   2.632
   13C       N1  396   4.099   4.592   2.480
   13C       C6  397   4.057   4.463   2.458
   13C       H6  398   4.007   4.408   2.537
   13C       C5  399   4.081   4.403   2.339
   13C       H5  400   4.049   4.301   2.324
   13C       C4  401   4.147   4.478   2.239
   13C       N4  402   4.171   4.421   2.124
   13C      H41  403   4.141   4.326   2.111
   13C      H42  404   4.224   4.469   2.053
   13C       N3  405   4.188   4.603   2.257
   13C       C2  406   4.162   4.662   2.376
   13C       O2  407   4.195   4.781   2.390
   13C      C3'  408   3.853   4.656   2.683
   13C      H3'  409   3.811   4.588   2.610
   13C      C2'  410   3.959   4.748   2.620
   13C      H2'  411   3.928   4.781   2.521
   13C      O2'  412   3.988   4.861   2.704
   13C     HO2'  413   4.040   4.924   2.654
   13C      O3'  414   3.753   4.730   2.753
   14G        P  415   3.630   4.800   2.678
   14G      OP1  416   3.575   4.892   2.780
   14G      OP2  417   3.544   4.696   2.621
   14G      O5'  418   3.687   4.890   2.558
   14G      C5'  419   3.723   5.025   2.581
   14G      H5'  420   3.794   5.030   2.663
   14G     H5''  421   3.634   5.082   2.608
   14G      C4'  422   3.790   5.091   2.460
   14G      H4'  423   3.824   5.190   2.491
   14G      O4'  424   3.902   5.017   2.416
   14G      C1'  425   3.914   5.033   2.275
   14G      H1'  426   4.011   5.075   2.248
   14G       N9  427   3.903   4.903   2.205
   14G       C8  428   3.858   4.782   2.251
   14G       H8  429   3.812   4.769   2.348
   14G       N7  430   3.876   4.683   2.168
   14G       C5  431   3.933   4.744   2.055
   14G       C6  432   3.974   4.691   1.928
   14G       O6  433   3.974   4.576   1.886
   14G       N1  434   4.019   4.789   1.841
   14G       H1  435   4.045   4.760   1.748
   14G       C2  436   4.027   4.920   1.872
   14G       N2  437   4.068   5.001   1.778
   14G      H21  438   4.091   4.965   1.687
   14G      H22  439   4.077   5.099   1.801
   14G       N3  440   3.994   4.973   1.989
   14G       C4  441   3.946   4.880   2.077
   14G      C3'  442   3.698   5.111   2.340
   14G      H3'  443   3.638   5.022   2.323
   14G      C2'  444   3.804   5.129   2.231
   14G      H2'  445   3.765   5.104   2.132
   14G      O2'  446   3.859   5.261   2.232
   14G     HO2'  447   3.784   5.319   2.241
   14G      O3'  448   3.619   5.229   2.355
   15C        P  449   3.479   5.248   2.282
   15C      OP1  450   3.433   5.382   2.324
   15C      OP2  451   3.394   5.130   2.310
   15C      O5'  452   3.515   5.252   2.126
   15C      C5'  453   3.565   5.372   2.069
   15C      H5'  454   3.641   5.414   2.135
   15C     H5''  455   3.484   5.444   2.062
   15C      C4'  456   3.628   5.359   1.929
   15C      H4'  457   3.673   5.454   1.903
   15C      O4'  458   3.728   5.258   1.922
   15C      C1'  459   3.726   5.199   1.792
   15C      H1'  460   3.823   5.212   1.745
   15C       N1  461   3.696   5.052   1.798
   15C       C6  462   3.640   4.993   1.908
   15C       H6  463   3.607   5.055   1.991
   15C       C5  464   3.627   4.859   1.915
   15C       H5  465   3.585   4.812   2.002
   15C       C4  466   3.671   4.783   1.803
   15C       N4  467   3.663   4.653   1.805
   15C      H41  468   3.626   4.606   1.886
   15C      H42  469   3.700   4.600   1.728
   15C       N3  470   3.720   4.838   1.693
   15C       C2  471   3.732   4.973   1.688
   15C       O2  472   3.774   5.023   1.584
   15C      C3'  473   3.527   5.325   1.820
   15C      H3'  474   3.464   5.244   1.855
   15C      C2'  475   3.621   5.275   1.710
   15C      H2'  476   3.568   5.209   1.642
   15C      O2'  477   3.684   5.382   1.640
   15C     HO2'  478   3.617   5.450   1.632
   15C      O3'  479   3.450   5.438   1.780
   16U3       P  480   3.301   5.420   1.728
   16U3     OP1  481   3.244   5.555   1.704
   16U3     OP2  482   3.231   5.329   1.821
   16U3     O5'  483   3.324   5.347   1.588
   16U3     C5'  484   3.374   5.419   1.477
   16U3     H5'  485   3.465   5.473   1.505
   16U3    H5''  486   3.300   5.492   1.444
   16U3     C4'  487   3.407   5.326   1.360
   16U3     H4'  488   3.446   5.388   1.278
   16U3     O4'  489   3.507   5.230   1.392
   16U3     C1'  490   3.482   5.110   1.318
   16U3     H1'  491   3.567   5.089   1.253
   16U3      N1  492   3.462   4.994   1.409
   16U3      C6  493   3.408   5.008   1.535
   16U3      H6  494   3.385   5.107   1.573
   16U3      C5  495   3.384   4.899   1.613
   16U3      H5  496   3.343   4.912   1.712
   16U3      C4  497   3.409   4.765   1.566
   16U3      O4  498   3.381   4.662   1.625
   16U3      N3  499   3.465   4.759   1.440
   16U3      H3  500   3.486   4.667   1.403
   16U3      C2  501   3.490   4.867   1.358
   16U3      O2  502   3.533   4.848   1.245
   16U3     C3'  503   3.287   5.247   1.309
   16U3     H3'  504   3.233   5.204   1.393
   16U3     C2'  505   3.358   5.134   1.231
   16U3     H2'  506   3.296   5.045   1.226
   16U3     O2'  507   3.399   5.175   1.101
   16U3    HO2'  508   3.328   5.154   1.039
   16U3     O3'  509   3.199   5.322   1.227
   16U3    HO3'  510   3.139   5.260   1.186
   17SOL      O  511   1.732   0.874   0.220
   17SOL     H1  512   1.765   0.818   0.290
   17SOL     H2  513   1.639   0.885   0.240
   17SOL    EPW  514   1.726   0.869   0.230
   18SOL      O  515   1.606   0.697   1.295
   18SOL     H1  516   1.577   0.635   1.228
   18SOL     H2  517   1.676   0.747   1.253
   18SOL    EPW  518   1.610   0.696   1.283
   19SOL      O  519   0.528   1.005   0.472
   19SOL     H1  520   0.623   1.001   0.483
   19SOL     H2  521   0.511   1.093   0.439
   19SOL    EPW  522   0.536   1.014   0.469
   20SOL      O  523   1.666   1.706   0.704
   20SOL     H1  524   1.664   1.668   0.791
   20SOL     H2  525   1.690   1.633   0.646
   20SOL    EPW  526   1.668   1.694   0.707
   21SOL      O  527   1.033   1.586   1.595
   21SOL     H1  528   1.031   1.639   1.516
   21SOL     H2  529   1.067   1.501   1.565
   21SOL    EPW  530   1.037   1.582   1.583
   22SOL      O  531   1.616   1.228   1.251
   22SOL     H1  532   1.547   1.164   1.234
   22SOL     H2  533   1.637   1.263   1.164
   22SOL    EPW  534   1.611   1.225   1.240
   23SOL      O  535   0.817   0.488   0.424
   23SOL     H1  536   0.829   0.579   0.450
   23SOL     H2  537   0.785   0.492   0.334
   23SOL    EPW  538   0.815   0.498   0.417
   24SOL      O  539   0.269   0.509   0.468
   24SOL     H1  540   0.328   0.581   0.449
   24SOL     H2  541   0.257   0.512   0.563
   24SOL    EPW  542   0.274   0.517   0.476
   25SOL      O  543   0.361   0.906   1.294
   25SOL     H1  544   0.324   0.834   1.243
   25SOL     H2  545   0.375   0.976   1.230
   25SOL    EPW  546   0.359   0.905   1.282
   26SOL      O  547   0.697   0.238   0.422
   26SOL     H1  548   0.744   0.319   0.442
   26SOL     H2  549   0.605   0.261   0.428
   26SOL    EPW  550   0.692   0.249   0.425
   27SOL      O  551   0.728   1.241   0.687
   27SOL     H1  552   0.813   1.272   0.716
   27SOL     H2  553   0.747   1.181   0.615
   27SOL    EPW  554   0.739   1.238   0.682
   28SOL      O  555   0.753   1.506   1.587
   28SOL     H1  556   0.837   1.541   1.618
   28SOL     H2  557   0.775   1.461   1.506
   28SOL    EPW  558   0.765   1.505   1.582
   29SOL      O  559   0.534   0.691   0.691
   29SOL     H1  560   0.504   0.615   0.740
   29SOL     H2  561   0.630   0.690   0.700
   29SOL    EPW  562   0.541   0.683   0.697
   30SOL      O  563   0.836   1.379   1.364
   30SOL     H1  564   0.826   1.431   1.284
   30SOL     H2  565   0.789   1.298   1.346
   30SOL    EPW  566   0.830   1.376   1.354
   31SOL      O  567   0.680   0.559   1.031
   31SOL     H1  568   0.601   0.562   0.977
   31SOL     H2  569   0.699   0.465   1.039
   31SOL    EPW  570   0.674   0.549   1.026
   32SOL      O  571   0.434   0.952   0.926
   32SOL     H1  572   0.391   0.970   0.842
   32SOL     H2  573   0.400   1.020   0.984
   32SOL    EPW  574   0.426   0.961   0.923
   33SOL      O  575   0.086   1.764   0.792
   33SOL     H1  576   0.134   1.766   0.709
   33SOL     H2  577   0.111   1.681   0.832
   33SOL    EPW  578   0.094   1.755   0.788
   34SOL      O  579   1.347   1.196   0.222
   34SOL     H1  580   1.255   1.216   0.210
   34SOL     H2  581   1.393   1.252   0.159
   34SOL    EPW  582   1.342   1.204   0.214
   35SOL      O  583   0.363   1.315   0.848
   35SOL     H1  584   0.305   1.386   0.876
   35SOL     H2  585   0.403   1.348   0.767
   35SOL    EPW  586   0.361   1.326   0.842
   36SOL      O  587   0.925   0.985   0.719
   36SOL     H1  588   0.848   0.981   0.776
   36SOL     H2  589   0.965   0.899   0.727
   36SOL    EPW  590   0.921   0.976   0.726
   37SOL      O  591   0.344   1.629   1.506
   37SOL     H1  592   0.267   1.633   1.449
   37SOL     H2  593   0.371   1.537   1.501
   37SOL    EPW  594   0.339   1.619   1.499
   38SOL      O  595   0.914   1.309   0.403
   38SOL     H1  596   0.918   1.361   0.483
   38SOL     H2  597   0.871   1.227   0.431
   38SOL    EPW  598   0.909   1.306   0.415
   39SOL      O  599   1.797   0.306   0.822
   39SOL     H1  600   1.730   0.283   0.886
   39SOL     H2  601   1.803   0.229   0.765
   39SOL    EPW  602   1.790   0.296   0.822
   40SOL      O  603   0.434   0.283   0.435
   40SOL     H1  604   0.410   0.235   0.355
   40SOL     H2  605   0.383   0.364   0.430
   40SOL    EPW  606   0.426   0.287   0.426
   41SOL      O  607   0.241   1.207   0.324
   41SOL     H1  608   0.152   1.235   0.346
   41SOL     H2  609   0.231   1.115   0.298
   41SOL    EPW  610   0.230   1.200   0.324
   42SOL      O  611   0.952   1.678   0.203
   42SOL     H1  612   0.929   1.677   0.296
   42SOL     H2  613   0.884   1.625   0.161
   42SOL    EPW  614   0.942   1.672   0.209
   43SOL      O  615   1.806   0.450   0.220
   43SOL     H1  616   1.710   0.456   0.210
   43SOL     H2  617   1.837   0.536   0.195
   43SOL    EPW  618   1.799   0.460   0.216
   44SOL      O  619   1.612   1.134   0.526
   44SOL     H1  620   1.516   1.138   0.520
   44SOL     H2  621   1.643   1.183   0.450
   44SOL    EPW  622   1.605   1.140   0.518
   45SOL      O  623   1.450   0.758   1.618
   45SOL     H1  624   1.511   0.690   1.591
   45SOL     H2  625   1.369   0.739   1.571
   45SOL    EPW  626   1.448   0.749   1.610
   46SOL      O  627   0.182   1.598   1.146
   46SOL     H1  628   0.145   1.582   1.232
   46SOL     H2  629   0.166   1.691   1.130
   46SOL    EPW  630   0.176   1.607   1.153
   47SOL      O  631   1.146   1.114   1.548
   47SOL     H1  632   1.126   1.205   1.524
   47SOL     H2  633   1.233   1.118   1.588
   47SOL    EPW  634   1.153   1.124   1.550
   48SOL      O  635   0.947   0.543   1.791
   48SOL     H1  636   1.038   0.553   1.762
   48SOL     H2  637   0.922   0.455   1.762
   48SOL    EPW  638   0.954   0.535   1.785
   49SOL      O  639   1.520   1.046   0.846
   49SOL     H1  640   1.520   0.957   0.812
   49SOL     H2  641   1.600   1.085   0.812
   49SOL    EPW  642   1.529   1.041   0.839
   50SOL      O  643   1.154   0.654   0.503
   50SOL     H1  644   1.166   0.685   0.413
   50SOL     H2  645   1.139   0.560   0.494
   50SOL    EPW  646   1.154   0.648   0.492
   51SOL      O  647   1.778   1.314   0.366
   51SOL     H1  648   1.759   1.378   0.434
   51SOL     H2  649   1.803   1.367   0.290
   51SOL    EPW  650   1.779   1.327   0.365
   52SOL      O  651   0.632   0.362   1.673
   52SOL     H1  652   0.558   0.313   1.638
   52SOL     H2  653   0.650   0.321   1.757
   52SOL    EPW  654   0.626   0.352   1.678
   53SOL      O  655   0.476   1.706   0.626
   53SOL     H1  656   0.487   1.799   0.645
   53SOL     H2  657   0.384   1.697   0.603
   53SOL    EPW  658   0.467   1.715   0.626
   54SOL      O  659   1.832   0.089   0.662
   54SOL     H1  660   1.891   0.013   0.660
   54SOL     H2  661   1.756   0.062   0.610
   54SOL    EPW  662   1.831   0.078   0.656
   55SOL      O  663   0.224   1.815   0.158
   55SOL     H1  664   0.286   1.883   0.130
   55SOL     H2  665   0.162   1.809   0.086
   55SOL    EPW  666   0.224   1.822   0.147
   56SOL      O  667   1.055   0.110   0.949
   56SOL     H1  668   1.006   0.099   0.867
   56SOL     H2  669   1.045   0.203   0.970
   56SOL    EPW  670   1.048   0.119   0.942
   57SOL      O  671   1.558   1.647   0.332
   57SOL     H1  672   1.630   1.709   0.319
   57SOL     H2  673   1.512   1.646   0.248
   57SOL    EPW  674   1.561   1.654   0.321
   58SOL      O  675   0.985   0.612   0.106
   58SOL     H1  676   0.955   0.693   0.065
   58SOL     H2  677   1.049   0.641   0.171
   58SOL    EPW  678   0.989   0.624   0.109
   59SOL      O  679   1.601   0.563   0.486
   59SOL     H1  680   1.647   0.561   0.570
   59SOL     H2  681   1.536   0.633   0.495
   59SOL    EPW  682   1.599   0.570   0.496
   60SOL      O  683   0.894   1.003   1.566
   60SOL     H1  684   0.862   1.001   1.656
   60SOL     H2  685   0.982   1.041   1.573
   60SOL    EPW  686   0.900   1.007   1.577
   61SOL      O  687   1.040   0.033   1.240
   61SOL     H1  688   0.944   0.025   1.240
   61SOL     H2  689   1.058   0.097   1.309
   61SOL    EPW  690   1.031   0.039   1.247
   62SOL      O  691   1.046   0.604   1.148
   62SOL     H1  692   1.112   0.654   1.099
   62SOL     H2  693   0.969   0.660   1.148
   62SOL    EPW  694   1.045   0.615   1.142
   63SOL      O  695   1.627   0.565   1.527
   63SOL     H1  696   1.593   0.476   1.511
   63SOL     H2  697   1.623   0.607   1.441
   63SOL    EPW  698   1.623   0.560   1.516
   64SOL      O  699   1.722   1.678   1.358
   64SOL     H1  700   1.666   1.645   1.429
   64SOL     H2  701   1.757   1.761   1.392
   64SOL    EPW  702   1.720   1.684   1.369
   65SOL      O  703   1.082   0.204   1.446
   65SOL     H1  704   1.065   0.292   1.411
   65SOL     H2  705   0.997   0.175   1.479
   65SOL    EPW  706   1.071   0.211   1.446
   66SOL      O  707   1.432   1.155   1.631
   66SOL     H1  708   1.511   1.200   1.663
   66SOL     H2  709   1.411   1.091   1.700
   66SOL    EPW  710   1.438   1.153   1.642
   67SOL      O  711   1.799   0.550   0.691
   67SOL     H1  712   1.889   0.538   0.660
   67SOL     H2  713   1.778   0.468   0.736
   67SOL    EPW  714   1.806   0.540   0.693
   68SOL      O  715   0.165   0.208   0.710
   68SOL     H1  716   0.181   0.153   0.632
   68SOL     H2  717   0.070   0.219   0.712
   68SOL    EPW  718   0.157   0.203   0.702
   69SOL      O  719   1.087   1.283   0.199
   69SOL     H1  720   1.024   1.291   0.271
   69SOL     H2  721   1.038   1.304   0.120
   69SOL    EPW  722   1.075   1.286   0.199
   70SOL      O  723   0.093   0.443   1.011
   70SOL     H1  724   0.069   0.531   0.983
   70SOL     H2  725   0.013   0.392   1.001
   70SOL    EPW  726   0.082   0.447   1.007
   71SOL      O  727   0.625   1.722   0.387
   71SOL     H1  728   0.572   1.716   0.467
   71SOL     H2  729   0.715   1.709   0.417
   71SOL    EPW  730   0.629   1.720   0.399
   72SOL      O  731   1.666   1.264   1.723
   72SOL     H1  732   1.707   1.180   1.740
   72SOL     H2  733   1.631   1.292   1.808
   72SOL    EPW  734   1.666   1.258   1.734
   73SOL      O  735   0.625   1.081   0.128
   73SOL     H1  736   0.541   1.052   0.091
   73SOL     H2  737   0.617   1.176   0.134
   73SOL    EPW  738   0.615   1.088   0.124
   74SOL      O  739   1.821   0.857   1.205
   74SOL     H1  740   1.813   0.891   1.117
   74SOL     H2  741   1.825   0.934   1.261
   74SOL    EPW  742   1.821   0.869   1.202
   75SOL      O  743   1.668   1.592   0.952
   75SOL     H1  744   1.619   1.636   1.021
   75SOL     H2  745   1.658   1.499   0.969
   75SOL    EPW  746   1.662   1.587   0.961
   76SOL      O  747   1.386   1.680   0.114
   76SOL     H1  748   1.321   1.623   0.154
   76SOL     H2  749   1.359   1.769   0.139
   76SOL    EPW  750   1.376   1.684   0.121
   77SOL      O  751   0.196   0.704   1.190
   77SOL     H1  752   0.193   0.618   1.234
   77SOL     H2  753   0.105   0.734   1.191
   77SOL    EPW  754   0.186   0.698   1.195
   78SOL      O  755   1.427   1.372   0.024
   78SOL     H1  756   4.390   4.255   4.105
   78SOL     H2  757   1.503   1.429   0.037
   78SOL    EPW  758   1.438   1.372   0.018
   79SOL      O  759   0.713   0.213   0.149
   79SOL     H1  760   0.709   0.217   0.245
   79SOL     H2  761   0.787   0.154   0.131
   79SOL    EPW  762   0.720   0.207   0.158
   80SOL      O  763   0.209   1.802   1.682
   80SOL     H1  764   0.164   1.861   1.622
   80SOL     H2  765   0.250   1.737   1.625
   80SOL    EPW  766   0.208   1.801   1.669
   81SOL      O  767   0.357   1.131   1.131
   81SOL     H1  768   0.428   1.191   1.155
   81SOL     H2  769   0.277   1.179   1.149
   81SOL    EPW  770   0.356   1.142   1.135
   82SOL      O  771   0.785   1.017   1.130
   82SOL     H1  772   0.799   0.923   1.142
   82SOL     H2  773   0.752   1.026   1.041
   82SOL    EPW  774   0.783   1.008   1.122
   83SOL      O  775   0.118   0.879   0.492
   83SOL     H1  776   0.193   0.881   0.551
   83SOL     H2  777   0.086   0.789   0.496
   83SOL    EPW  778   0.122   0.870   0.499
   84SOL      O  779   0.393   0.566   1.784
   84SOL     H1  780   0.341   0.645   1.796
   84SOL     H2  781   0.461   0.572   1.851
   84SOL    EPW  782   0.395   0.575   1.792
   85SOL      O  783   0.817   0.146   1.492
   85SOL     H1  784   0.773   0.062   1.479
   85SOL     H2  785   0.775   0.205   1.430
   85SOL    EPW  786   0.808   0.144   1.484
   86SOL      O  787   0.405   0.639   1.519
   86SOL     H1  788   0.481   0.697   1.515
   86SOL     H2  789   0.409   0.601   1.607
   86SOL    EPW  790   0.413   0.641   1.528
   87SOL      O  791   0.769   1.786   0.887
   87SOL     H1  792   0.835   1.823   0.944
   87SOL     H2  793   0.776   1.836   0.806
   87SOL    EPW  794   0.776   1.795   0.884
   88SOL      O  795   1.282   0.128   1.874
   88SOL     H1  796   1.285   0.085   1.960
   88SOL     H2  797   1.283   0.222   1.895
   88SOL    EPW  798   1.283   0.134   1.886
   89SOL      O  799   0.164   1.394   0.629
   89SOL     H1  800   0.141   1.437   0.711
   89SOL     H2  801   0.154   1.301   0.647
   89SOL    EPW  802   0.161   1.389   0.640
   90SOL      O  803   0.951   1.465   0.635
   90SOL     H1  804   1.043   1.438   0.638
   90SOL     H2  805   0.928   1.482   0.726
   90SOL    EPW  806   0.958   1.464   0.645
   91SOL      O  807   1.884   0.661   0.930
   91SOL     H1  808   1.980   0.658   0.922
   91SOL     H2  809   1.853   0.624   0.847
   91SOL    EPW  810   1.891   0.656   0.920
   92SOL      O  811   1.665   0.794   1.886
   92SOL     H1  812   1.741   0.741   1.862
   92SOL     H2  813   1.683   0.822   1.976
   92SOL    EPW  814   1.675   0.792   1.893
   93SOL      O  815   0.760   1.545   0.064
   93SOL     H1  816   0.706   1.625   0.065
   93SOL     H2  817   0.702   1.477   0.100
   93SOL    EPW  818   0.748   1.546   0.068
   94SOL      O  819   1.111   0.204   0.237
   94SOL     H1  820   1.055   0.161   0.173
   94SOL     H2  821   1.173   0.256   0.185
   94SOL    EPW  822   1.112   0.205   0.225
   95SOL      O  823   0.980   0.443   1.368
   95SOL     H1  824   0.902   0.487   1.400
   95SOL     H2  825   1.016   0.502   1.302
   95SOL    EPW  826   0.975   0.454   1.364
   96SOL      O  827   1.174   0.782   0.984
   96SOL     H1  828   1.217   0.867   0.978
   96SOL     H2  829   1.135   0.769   0.897
   96SOL    EPW  830   1.174   0.790   0.974
   97SOL      O  831   0.696   1.026   0.872
   97SOL     H1  832   0.606   0.995   0.887
   97SOL     H2  833   0.686   1.110   0.828
   97SOL    EPW  834   0.685   1.031   0.869
   98SOL      O  835   1.490   0.529   0.809
   98SOL     H1  836   1.434   0.461   0.773
   98SOL     H2  837   1.498   0.508   0.902
   98SOL    EPW  838   1.485   0.520   0.815
   99SOL      O  839   0.419   0.230   1.548
   99SOL     H1  840   0.326   0.225   1.572
   99SOL     H2  841   0.421   0.294   1.476
   99SOL    EPW  842   0.409   0.236   1.542
  100SOL      O  843   1.038   0.740   0.744
  100SOL     H1  844   0.959   0.687   0.752
  100SOL     H2  845   1.082   0.705   0.666
  100SOL    EPW  846   1.034   0.730   0.736
  101SOL      O  847   0.218   1.502   0.384
  101SOL     H1  848   0.260   1.583   0.414
  101SOL     H2  849   0.208   1.449   0.463
  101SOL    EPW  850   0.221   1.505   0.395
  102SOL      O  851   0.805   1.065   0.484
  102SOL     H1  852   0.824   1.018   0.403
  102SOL     H2  853   0.857   1.020   0.550
  102SOL    EPW  854   0.813   1.055   0.482
  103SOL      O  855   1.308   1.610   1.243
  103SOL     H1  856   1.224   1.643   1.274
  103SOL     H2  857   1.300   1.515   1.246
  103SOL    EPW  858   1.298   1.604   1.246
  104SOL      O  859   1.397   1.747   0.708
  104SOL     H1  860   1.361   1.717   0.625
  104SOL     H2  861   1.492   1.734   0.699
  104SOL    EPW  862   1.404   1.742   0.698
  105SOL      O  863   1.346   0.304   0.708
  105SOL     H1  864   1.375   0.238   0.771
  105SOL     H2  865   1.252   0.287   0.697
  105SOL    EPW  866   1.339   0.295   0.713
  106SOL      O  867   0.171   1.135   0.752
  106SOL     H1  868   0.238   1.189   0.794
  106SOL     H2  869   0.221   1.070   0.703
  106SOL    EPW  870   0.184   1.134   0.751
  107SOL      O  871   0.599   1.299   1.693
  107SOL     H1  872   0.657   1.371   1.669
  107SOL     H2  873   0.637   1.263   1.773
  107SOL    EPW  874   0.609   1.303   1.699
  108SOL      O  875   0.192   1.530   1.861
  108SOL     H1  876   0.259   1.466   1.836
  108SOL     H2  877   0.125   1.522   1.793
  108SOL    EPW  878   0.192   1.522   1.851
  109SOL      O  879   1.291   0.363   0.101
  109SOL     H1  880   1.270   0.437   0.045
  109SOL     H2  881   1.373   0.387   0.144
  109SOL    EPW  882   1.297   0.373   0.100
  110SOL      O  883   0.934   0.062   0.077
  110SOL     H1  884   3.861   3.015   4.139
  110SOL     H2  885   0.951   5.845   0.085
  110SOL    EPW  886   0.935   0.054   0.068
  111SOL      O  887   1.459   0.923   0.255
  111SOL     H1  888   1.417   1.009   0.249
  111SOL     H2  889   1.434   0.890   0.341
  111SOL    EPW  890   1.452   0.928   0.263
  112SOL      O  891   1.092   1.358   1.454
  112SOL     H1  892   1.003   1.363   1.418
  112SOL     H2  893   1.148   1.355   1.377
  112SOL    EPW  894   1.088   1.358   1.442
  113SOL      O  895   0.359   5.870   1.710
  113SOL     H1  896   0.285   5.859   1.650
  113SOL     H2  897   0.407   0.068   1.676
  113SOL    EPW  898   0.357   5.877   1.700
  114SOL      O  899   0.452   1.576   1.113
  114SOL     H1  900   0.503   1.645   1.157
  114SOL     H2  901   0.362   1.593   1.137
  114SOL    EPW  902   0.448   1.585   1.120
  115SOL      O  903   1.808   1.071   1.386
  115SOL     H1  904   1.769   1.138   1.330
  115SOL     H2  905   1.734   1.028   1.428
  115SOL    EPW  906   1.796   1.074   1.384
  116SOL      O  907   0.842   1.582   1.172
  116SOL     H1  908   0.850   1.559   1.079
  116SOL     H2  909   0.768   1.642   1.176
  116SOL    EPW  910   0.835   1.586   1.162
  117SOL      O  911   0.374   1.010   0.028
  117SOL     H1  912   0.317   0.976   0.097
  117SOL     H2  913   3.292   3.894   4.108
  117SOL    EPW  914   0.365   1.001   0.027
  118SOL      O  915   1.148   0.983   0.360
  118SOL     H1  916   1.107   1.050   0.306
  118SOL     H2  917   1.204   1.031   0.421
  118SOL    EPW  918   1.150   0.995   0.361
  119SOL      O  919   0.626   1.352   0.956
  119SOL     H1  920   0.614   1.336   1.049
  119SOL     H2  921   0.539   1.337   0.918
  119SOL    EPW  922   0.615   1.349   0.962
  120SOL      O  923   1.505   0.317   1.489
  120SOL     H1  924   1.428   0.300   1.542
  120SOL     H2  925   1.498   0.256   1.416
  120SOL    EPW  926   1.496   0.309   1.487
  121SOL      O  927   1.833   0.213   1.255
  121SOL     H1  928   1.831   0.303   1.222
  121SOL     H2  929   1.876   0.162   1.186
  121SOL    EPW  930   1.837   0.217   1.244
  122SOL      O  931   0.079   1.424   1.623
  122SOL     H1  932   0.117   1.341   1.593
  122SOL     H2  933   5.862   1.408   1.626
  122SOL    EPW  934   0.073   1.414   1.620
  123SOL      O  935   0.827   0.041   0.751
  123SOL     H1  936   0.753   0.040   0.812
  123SOL     H2  937   0.788   0.019   0.666
  123SOL    EPW  938   0.815   0.039   0.748
  124SOL      O  939   0.491   1.271   0.407
  124SOL     H1  940   0.493   1.324   0.486
  124SOL     H2  941   0.398   1.261   0.387
  124SOL    EPW  942   0.482   1.275   0.413
  125SOL      O  943   1.048   1.689   1.336
  125SOL     H1  944   0.984   1.649   1.277
  125SOL     H2  945   1.026   1.782   1.336
  125SOL    EPW  946   1.039   1.694   1.330
  126SOL      O  947   1.263   1.552   0.848
  126SOL     H1  948   1.312   1.621   0.804
  126SOL     H2  949   1.195   1.599   0.897
  126SOL    EPW  950   1.261   1.564   0.849
  127SOL      O  951   1.542   1.729   1.160
  127SOL     H1  952   1.604   1.703   1.227
  127SOL     H2  953   1.462   1.682   1.181
  127SOL    EPW  954   1.540   1.721   1.169
  128SOL      O  955   0.758   0.758   1.823
  128SOL     H1  956   0.819   0.686   1.805
  128SOL     H2  957   0.690   0.719   1.878
  128SOL    EPW  958   0.757   0.746   1.827
  129SOL      O  959   1.550   0.979   1.459
  129SOL     H1  960   1.511   1.038   1.522
  129SOL     H2  961   1.529   0.891   1.491
  129SOL    EPW  962   1.544   0.976   1.469
  130SOL      O  963   1.078   0.026   1.729
  130SOL     H1  964   1.075   5.808   1.731
  130SOL     H2  965   1.155   0.049   1.781
  130SOL    EPW  966   1.086   0.019   1.735
  131SOL      O  967   0.472   0.561   0.214
  131SOL     H1  968   0.480   0.625   0.284
  131SOL     H2  969   0.563   0.543   0.187
  131SOL    EPW  970   0.483   0.566   0.219
  132SOL      O  971   1.660   1.322   0.994
  132SOL     H1  972   1.680   1.292   0.905
  132SOL     H2  973   1.565   1.332   0.996
  132SOL    EPW  974   1.652   1.320   0.985
  133SOL      O  975   1.122   0.980   1.308
  133SOL     H1  976   1.124   1.030   1.390
  133SOL     H2  977   1.080   1.039   1.246
  133SOL    EPW  978   1.118   0.991   1.310
  134SOL      O  979   1.531   0.482   0.223
  134SOL     H1  980   1.499   0.559   0.177
  134SOL     H2  981   1.545   0.511   0.313
  134SOL    EPW  982   1.529   0.493   0.228
  135SOL      O  983   0.439   0.226   0.706
  135SOL     H1  984   0.445   0.239   0.611
  135SOL     H2  985   0.345   0.217   0.723
  135SOL    EPW  986   0.430   0.227   0.697
  136SOL      O  987   0.214   1.205   1.518
  136SOL     H1  988   0.252   1.153   1.589
  136SOL     H2  989   0.170   1.141   1.462
  136SOL    EPW  990   0.214   1.193   1.520
  137SOL      O  991   0.720   0.520   1.464
  137SOL     H1  992   0.704   0.611   1.489
  137SOL     H2  993   0.696   0.469   1.541
  137SOL    EPW  994   0.716   0.524   1.475
  138SOL      O  995   1.184   0.733   0.250
  138SOL     H1  996   1.270   0.721   0.208
  138SOL     H2  997   1.182   0.826   0.273
  138SOL    EPW  998   1.193   0.742   0.248
  139SOL      O  999   0.346   0.926   0.660
  139SOL     H1 1000   0.407   0.962   0.596
  139SOL     H2 1001   0.383   0.841   0.683
  139SOL    EPW 1002   0.356   0.921   0.655
  140SOL      O 1003   1.520   0.294   0.494
  140SOL     H1 1004   1.454   0.295   0.563
  140SOL     H2 1005   1.555   0.383   0.494
  140SOL    EPW 1006   1.517   0.304   0.501
  141SOL      O 1007   1.076   0.243   0.653
  141SOL     H1 1008   1.084   0.300   0.576
  141SOL     H2 1009   1.003   0.282   0.703
  141SOL    EPW 1010   1.069   0.254   0.650
  142SOL      O 1011   3.903   4.311   4.125
  142SOL     H1 1012   3.975   4.365   4.093
  142SOL     H2 1013   3.834   4.375   4.148
  142SOL    EPW 1014   3.903   4.324   4.124
  143SOL      O 1015   1.783   1.030   1.787
  143SOL     H1 1016   1.734   0.950   1.802
  143SOL     H2 1017   1.815   1.055   1.873
  143SOL    EPW 1018   1.781   1.024   1.798
  144SOL      O 1019   0.107   1.502   0.895
  144SOL     H1 1020   0.132   1.537   0.981
  144SOL     H2 1021   0.012   1.491   0.900
  144SOL    EPW 1022   0.100   1.504   0.905
  145SOL      O 1023   0.017   0.627   0.487
  145SOL     H1 1024   5.862   0.589   0.569
  145SOL     H2 1025   0.098   0.579   0.469
  145SOL    EPW 1026   0.023   0.617   0.494
  146SOL      O 1027   1.570   1.871   1.836
  146SOL     H1 1028   1.601   1.783   1.813
  146SOL     H2 1029   1.604   1.886   1.924
  146SOL    EPW 1030   1.577   1.863   1.843
  147SOL      O 1031   1.221   1.393   0.616
  147SOL     H1 1032   1.240   1.416   0.707
  147SOL     H2 1033   1.262   1.463   0.565
  147SOL    EPW 1034   1.228   1.403   0.620
  148SOL      O 1035   0.399   0.422   1.350
  148SOL     H1 1036   0.412   0.506   1.396
  148SOL     H2 1037   0.414   0.443   1.258
  148SOL    EPW 1038   0.402   0.434   1.345
  149SOL      O 1039   0.362   0.421   1.072
  149SOL     H1 1040   0.374   0.327   1.084
  149SOL     H2 1041   0.272   0.429   1.039
  149SOL    EPW 1042   0.354   0.412   1.070
  150SOL      O 1043   1.223   0.530   1.739
  150SOL     H1 1044   1.239   0.445   1.700
  150SOL     H2 1045   1.217   0.590   1.665
  150SOL    EPW 1046   1.224   0.528   1.727
  151SOL      O 1047   1.274   0.285   1.630
  151SOL     H1 1048   1.210   0.262   1.562
  151SOL     H2 1049   1.296   0.201   1.672
  151SOL    EPW 1050   1.269   0.273   1.627
  152SOL      O 1051   0.592   0.091   0.892
  152SOL     H1 1052   0.533   0.094   0.967
  152SOL     H2 1053   0.543   0.131   0.820
  152SOL    EPW 1054   0.581   0.095   0.892
  153SOL      O 1055   0.607   1.725   1.504
  153SOL     H1 1056   0.514   1.702   1.515
  153SOL     H2 1057   0.654   1.649   1.540
  153SOL    EPW 1058   0.602   1.714   1.509
  154SOL      O 1059   1.824   0.472   1.131
  154SOL     H1 1060   1.729   0.461   1.127
  154SOL     H2 1061   1.842   0.546   1.073
  154SOL    EPW 1062   1.816   0.479   1.124
  155SOL      O 1063   1.907   1.165   1.057
  155SOL     H1 1064   1.885   1.085   1.007
  155SOL     H2 1065   1.834   1.225   1.039
  155SOL    EPW 1066   1.897   1.163   1.050
  156SOL      O 1067   1.292   1.036   0.988
  156SOL     H1 1068   1.327   1.036   1.077
  156SOL     H2 1069   1.370   1.044   0.932
  156SOL    EPW 1070   1.304   1.037   0.991
  157SOL      O 1071   1.325   0.486   1.358
  157SOL     H1 1072   1.355   0.487   1.267
  157SOL     H2 1073   1.391   0.433   1.404
  157SOL    EPW 1074   1.335   0.480   1.353
  158SOL      O 1075   1.886   0.644   1.846
  158SOL     H1 1076   1.871   0.570   1.905
  158SOL     H2 1077   1.882   0.606   1.759
  158SOL    EPW 1078   1.884   0.632   1.843
  159SOL      O 1079   1.385   0.958   1.807
  159SOL     H1 1080   1.414   0.883   1.756
  159SOL     H2 1081   1.414   0.939   1.896
  159SOL    EPW 1082   1.391   0.948   1.811
  160SOL      O 1083   1.311   0.033   0.324
  160SOL     H1 1084   1.391   0.074   0.291
  160SOL     H2 1085   1.241   0.092   0.295
  160SOL    EPW 1086   1.312   0.044   0.317
  161SOL      O 1087   1.412   0.769   0.494
  161SOL     H1 1088   1.326   0.730   0.510
  161SOL     H2 1089   1.444   0.792   0.580
  161SOL    EPW 1090   1.406   0.767   0.505
  162SOL      O 1091   0.525   1.336   1.214
  162SOL     H1 1092   0.502   1.341   1.307
  162SOL     H2 1093   0.498   1.421   1.179
  162SOL    EPW 1094   0.519   1.346   1.220
  163SOL      O 1095   0.739   0.289   1.041
  163SOL     H1 1096   0.720   0.277   1.134
  163SOL     H2 1097   0.683   0.225   0.997
  163SOL    EPW 1098   0.731   0.281   1.046
  164SOL      O 1099   0.620   1.755   1.235
  164SOL     H1 1100   0.630   1.850   1.227
  164SOL     H2 1101   0.619   1.739   1.329
  164SOL    EPW 1102   0.621   1.764   1.244
  165SOL      O 1103   1.483   1.367   1.451
  165SOL     H1 1104   1.450   1.294   1.504
  165SOL     H2 1105   1.533   1.324   1.382
  165SOL    EPW 1106   1.485   1.354   1.449
  166SOL      O 1107   0.559   1.045   1.572
  166SOL     H1 1108   0.596   1.064   1.486
  166SOL     H2 1109   0.576   1.123   1.624
  166SOL    EPW 1110   0.565   1.055   1.569
  167SOL      O 1111   0.729   1.123   1.374
  167SOL     H1 1112   0.794   1.080   1.429
  167SOL     H2 1113   0.740   1.082   1.288
  167SOL    EPW 1114   0.737   1.114   1.370
  168SOL      O 1115   0.741   0.492   0.165
  168SOL     H1 1116   0.825   0.526   0.134
  168SOL     H2 1117   0.742   0.399   0.141
  168SOL    EPW 1118   0.750   0.486   0.159
  169SOL      O 1119   1.561   1.599   1.564
  169SOL     H1 1120   1.610   1.578   1.644
  169SOL     H2 1121   1.538   1.514   1.527
  169SOL    EPW 1122   1.564   1.588   1.569
  170SOL      O 1123   1.283   0.118   1.122
  170SOL     H1 1124   1.336   0.158   1.054
  170SOL     H2 1125   1.334   0.128   1.202
  170SOL    EPW 1126   1.294   0.123   1.123
  171SOL      O 1127   0.194   0.955   0.236
  171SOL     H1 1128   0.109   0.981   0.200
  171SOL     H2 1129   0.173   0.918   0.322
  171SOL    EPW 1130   0.183   0.954   0.241
  172SOL      O 1131   0.581   1.354   0.159
  172SOL     H1 1132   0.569   1.337   0.253
  172SOL     H2 1133   0.493   1.347   0.122
  172SOL    EPW 1134   0.570   1.351   0.165
  173SOL      O 1135   1.186   1.541   0.244
  173SOL     H1 1136   1.162   1.450   0.230
  173SOL     H2 1137   1.104   1.590   0.228
  173SOL    EPW 1138   1.174   1.537   0.241
  174SOL      O 1139   0.379   1.716   0.889
  174SOL     H1 1140   0.421   1.662   0.956
  174SOL     H2 1141   0.428   1.698   0.809
  174SOL    EPW 1142   0.389   1.708   0.888
  175SOL      O 1143   1.014   1.165   1.133
  175SOL     H1 1144   0.929   1.121   1.135
  175SOL     H2 1145   1.035   1.170   1.040
  175SOL    EPW 1146   1.007   1.161   1.123
  176SOL      O 1147   0.086   1.565   1.396
  176SOL     H1 1148   0.093   1.520   1.480
  176SOL     H2 1149   5.870   1.585   1.387
  176SOL    EPW 1150   0.077   1.562   1.404
  177SOL      O 1151   1.008   0.355   1.035
  177SOL     H1 1152   0.918   0.346   1.064
  177SOL     H2 1153   1.036   0.441   1.068
  177SOL    EPW 1154   1.002   0.364   1.042
  178SOL      O 1155   0.643   0.776   1.571
  178SOL     H1 1156   0.619   0.868   1.562
  178SOL     H2 1157   0.681   0.769   1.658
  178SOL    EPW 1158   0.644   0.785   1.579
  179SOL      O 1159   0.341   1.304   1.805
  179SOL     H1 1160   0.429   1.312   1.769
  179SOL     H2 1161   0.355   1.300   1.900
  179SOL    EPW 1162   0.352   1.305   1.812
  180SOL      O 1163   1.431   0.077   1.350
  180SOL     H1 1164   1.471   5.874   1.317
  180SOL     H2 1165   1.391   0.052   1.433
  180SOL    EPW 1166   1.431   0.066   1.355
  181SOL      O 1167   1.692   1.627   1.816
  181SOL     H1 1168   1.658   1.599   1.901
  181SOL     H2 1169   1.773   1.673   1.836
  181SOL    EPW 1170   1.697   1.629   1.827
  182SOL      O 1171   0.494   0.462   0.839
  182SOL     H1 1172   0.482   0.381   0.789
  182SOL     H2 1173   0.443   0.449   0.918
  182SOL    EPW 1174   0.487   0.452   0.842
  183SOL      O 1175   0.080   1.804   1.934
  183SOL     H1 1176   0.116   1.766   1.854
  183SOL     H2 1177   0.076   1.898   1.917
  183SOL    EPW 1178   0.084   1.810   1.924
  184SOL      O 1179   0.838   1.519   0.893
  184SOL     H1 1180   0.762   1.463   0.909
  184SOL     H2 1181   0.801   1.607   0.882
  184SOL    EPW 1182   0.826   1.523   0.894
  185SOL      O 1183   1.074   0.399   0.435
  185SOL     H1 1184   1.089   0.342   0.359
  185SOL     H2 1185   0.983   0.428   0.426
  185SOL    EPW 1186   1.065   0.396   0.426
  186SOL      O 1187   0.222   0.046   0.487
  186SOL     H1 1188   0.205   0.120   0.429
  186SOL     H2 1189   0.223   5.847   0.430
  186SOL    EPW 1190   0.221   0.046   0.475
  187SOL      O 1191   5.830   0.578   1.444
  187SOL     H1 1192   0.022   0.634   1.481
  187SOL     H2 1193   0.001   0.513   1.391
  187SOL    EPW 1194   5.843   0.577   1.442
  188SOL      O 1195   1.759   1.475   0.588
  188SOL     H1 1196   1.738   1.403   0.648
  188SOL     H2 1197   1.852   1.490   0.600
  188SOL    EPW 1198   1.766   1.468   0.595
  189SOL      O 1199   1.334   1.160   0.492
  189SOL     H1 1200   1.293   1.233   0.538
  189SOL     H2 1201   1.341   1.191   0.401
  189SOL    EPW 1202   1.330   1.171   0.487
  190SOL      O 1203   0.996   0.053   0.464
  190SOL     H1 1204   1.017   0.117   0.532
  190SOL     H2 1205   1.032   0.090   0.384
  190SOL    EPW 1206   1.002   0.064   0.463
  191SOL      O 1207   1.835   0.927   0.933
  191SOL     H1 1208   1.806   0.945   0.844
  191SOL     H2 1209   1.855   0.834   0.934
  191SOL    EPW 1210   1.834   0.919   0.924
  192SOL      O 1211   0.146   0.745   1.533
  192SOL     H1 1212   0.136   0.824   1.479
  192SOL     H2 1213   0.236   0.716   1.517
  192SOL    EPW 1214   0.155   0.751   1.525
  193SOL      O 1215   1.760   0.946   0.668
  193SOL     H1 1216   1.844   0.938   0.623
  193SOL     H2 1217   1.704   0.995   0.607
  193SOL    EPW 1218   1.763   0.951   0.657
  194SOL      O 1219   0.227   0.775   1.803
  194SOL     H1 1220   0.192   0.740   1.885
  194SOL     H2 1221   0.165   0.747   1.736
  194SOL    EPW 1222   0.217   0.769   1.805
  195SOL      O 1223   0.416   5.873   1.402
  195SOL     H1 1224   0.423   0.077   1.452
  195SOL     H2 1225   0.410   0.025   1.311
  195SOL    EPW 1226   0.416   0.008   1.398
  196SOL      O 1227   0.450   0.725   0.434
  196SOL     H1 1228   0.470   0.817   0.417
  196SOL     H2 1229   0.491   0.707   0.519
  196SOL    EPW 1230   0.456   0.733   0.441
  197SOL      O 1231   1.208   0.677   1.513
  197SOL     H1 1232   1.240   0.614   1.448
  197SOL     H2 1233   1.123   0.705   1.480
  197SOL    EPW 1234   1.202   0.673   1.503
  198SOL      O 1235   0.207   0.532   0.731
  198SOL     H1 1236   0.244   0.589   0.799
  198SOL     H2 1237   0.199   0.447   0.775
  198SOL    EPW 1238   0.210   0.529   0.743
  199SOL      O 1239   1.740   1.850   0.250
  199SOL     H1 1240   1.713   1.824   0.161
  199SOL     H2 1241   1.682   1.924   0.271
  199SOL    EPW 1242   1.731   1.855   0.242
  200SOL      O 1243   0.818   0.752   1.175
  200SOL     H1 1244   0.759   0.684   1.143
  200SOL     H2 1245   0.828   0.733   1.268
  200SOL    EPW 1246   0.813   0.742   1.182
  201SOL      O 1247   1.542   1.876   1.553
  201SOL     H1 1248   1.535   1.780   1.553
  201SOL     H2 1249   1.543   1.900   1.645
  201SOL    EPW 1250   1.541   1.868   1.562
  202SOL      O 1251   0.675   0.287   1.305
  202SOL     H1 1252   0.583   0.266   1.288
  202SOL     H2 1253   0.672   0.374   1.344
  202SOL    EPW 1254   0.665   0.294   1.307
  203SOL      O 1255   5.820   1.052   0.178
  203SOL     H1 1256   5.777   1.103   0.110
  203SOL     H2 1257   5.758   0.981   0.197
  203SOL    EPW 1258   5.808   1.050   0.173
  204SOL      O 1259   1.417   0.102   0.879
  204SOL     H1 1260   1.504   0.114   0.916
  204SOL     H2 1261   1.416   0.012   0.847
  204SOL    EPW 1262   1.426   0.094   0.880
  205SOL      O 1263   1.529   0.793   0.736
  205SOL     H1 1264   1.623   0.802   0.721
  205SOL     H2 1265   1.518   0.705   0.772
  205SOL    EPW 1266   1.538   0.785   0.739
  206SOL      O 1267   0.605   1.771   0.115
  206SOL     H1 1268   0.525   1.729   0.082
  206SOL     H2 1269   0.604   1.755   0.209
  206SOL    EPW 1270   0.596   1.765   0.122
  207SOL      O 1271   0.965   0.778   1.419
  207SOL     H1 1272   1.019   0.830   1.360
  207SOL     H2 1273   0.927   0.841   1.480
  207SOL    EPW 1274   0.967   0.790   1.419
  208SOL      O 1275   0.309   1.007   1.686
  208SOL     H1 1276   0.293   0.920   1.720
  208SOL     H2 1277   0.391   1.000   1.637
  208SOL    EPW 1278   0.316   0.997   1.684
  209SOL      O 1279   1.415   0.694   0.098
  209SOL     H1 1280   1.358   0.693   0.022
  209SOL     H2 1281   1.435   0.786   0.113
  209SOL    EPW 1282   1.411   0.703   0.092
  210SOL      O 1283   0.515   1.410   0.642
  210SOL     H1 1284   0.597   1.365   0.661
  210SOL     H2 1285   0.539   1.503   0.638
  210SOL    EPW 1286   0.526   1.415   0.644
  211SOL      O 1287   0.799   0.603   0.777
  211SOL     H1 1288   0.771   0.602   0.868
  211SOL     H2 1289   0.806   0.511   0.752
  211SOL    EPW 1290   0.797   0.593   0.784
  212SOL      O 1291   1.767   0.064   1.475
  212SOL     H1 1292   1.689   0.111   1.504
  212SOL     H2 1293   1.798   0.114   1.399
  212SOL    EPW 1294   1.762   0.075   1.470
  213SOL      O 1295   1.076   1.164   0.869
  213SOL     H1 1296   1.158   1.120   0.893
  213SOL     H2 1297   1.031   1.101   0.812
  213SOL    EPW 1298   1.080   1.153   0.866
  214SOL      O 1299   0.826   0.934   0.235
  214SOL     H1 1300   0.866   0.899   0.155
  214SOL     H2 1301   0.751   0.985   0.205
  214SOL    EPW 1302   0.822   0.935   0.223
  215SOL      O 1303   1.401   1.385   1.014
  215SOL     H1 1304   1.353   1.442   0.954
  215SOL     H2 1305   1.336   1.356   1.078
  215SOL    EPW 1306   1.389   1.388   1.015
  216SOL      O 1307   1.234   1.309   1.222
  216SOL     H1 1308   1.290   1.235   1.243
  216SOL     H2 1309   1.155   1.269   1.184
  216SOL    EPW 1310   1.231   1.297   1.220
  217SOL      O 1311   0.304   0.702   0.933
  217SOL     H1 1312   0.265   0.701   1.020
  217SOL     H2 1313   0.357   0.782   0.931
  217SOL    EPW 1314   0.306   0.710   0.942
  218SOL      O 1315   1.378   1.484   1.774
  218SOL     H1 1316   1.351   1.562   1.823
  218SOL     H2 1317   1.395   1.516   1.686
  218SOL    EPW 1318   1.377   1.496   1.770
  219SOL      O 1319   1.529   0.171   0.236
  219SOL     H1 1320   1.532   0.237   0.305
  219SOL     H2 1321   1.571   0.213   0.161
  219SOL    EPW 1322   1.534   0.183   0.235
  220SOL      O 1323   0.874   0.755   0.445
  220SOL     H1 1324   0.858   0.808   0.367
  220SOL     H2 1325   0.968   0.763   0.461
  220SOL    EPW 1326   0.882   0.761   0.439
  221SOL      O 1327   0.158   0.432   1.746
  221SOL     H1 1328   0.171   0.363   1.682
  221SOL     H2 1329   0.244   0.471   1.759
  221SOL    EPW 1330   0.168   0.429   1.741
  222SOL      O 1331   1.376   1.062   1.259
  222SOL     H1 1332   1.437   1.018   1.318
  222SOL     H2 1333   1.292   1.017   1.274
  222SOL    EPW 1334   1.373   1.052   1.267
  223SOL      O 1335   0.890   1.684   0.467
  223SOL     H1 1336   0.939   1.759   0.501
  223SOL     H2 1337   0.913   1.612   0.527
  223SOL    EPW 1338   0.898   1.684   0.477
  224SOL      O 1339   1.658   0.132   1.007
  224SOL     H1 1340   1.745   0.097   1.026
  224SOL     H2 1341   1.643   0.198   1.075
  224SOL    EPW 1342   1.666   0.135   1.016
  225SOL      O 1343   0.122   0.005   1.096
  225SOL     H1 1344   0.100   0.019   1.003
  225SOL     H2 1345   0.215   0.026   1.102
  225SOL    EPW 1346   0.129   0.009   1.086
  226SOL      O 1347   1.730   1.249   0.743
  226SOL     H1 1348   1.691   1.206   0.666
  226SOL     H2 1349   1.823   1.227   0.737
  226SOL    EPW 1350   1.736   1.242   0.734
  227SOL      O 1351   0.432   1.368   1.473
  227SOL     H1 1352   0.356   1.310   1.484
  227SOL     H2 1353   0.491   1.341   1.544
  227SOL    EPW 1354   0.430   1.359   1.482
  228SOL      O 1355   0.405   0.140   0.193
  228SOL     H1 1356   0.334   0.178   0.141
  228SOL     H2 1357   0.485   0.168   0.150
  228SOL    EPW 1358   0.406   0.147   0.183
  229SOL      O 1359   0.152   0.213   0.069
  229SOL     H1 1360   0.061   0.235   0.051
  229SOL     H2 1361   0.202   0.278   0.020
  229SOL    EPW 1362   0.148   0.223   0.062
  230SOL      O 1363   0.130   1.479   0.125
  230SOL     H1 1364   0.165   1.486   0.214
  230SOL     H2 1365   0.185   1.412   0.083
  230SOL    EPW 1366   0.140   1.472   0.130
  231SOL      O 1367   1.328   1.604   0.474
  231SOL     H1 1368   1.415   1.614   0.436
  231SOL     H2 1369   1.270   1.588   0.399
  231SOL    EPW 1370   1.331   1.603   0.462
  232SOL      O 1371   1.701   0.889   2.142
  232SOL     H1 1372   1.707   0.863   2.234
  232SOL     H2 1373   1.609   0.914   2.131
  232SOL    EPW 1374   1.692   0.889   2.151
  233SOL      O 1375   1.627   0.749   3.134
  233SOL     H1 1376   1.585   0.811   3.193
  233SOL     H2 1377   1.714   0.787   3.119
  233SOL    EPW 1378   1.632   0.760   3.138
  234SOL      O 1379   0.580   0.997   2.385
  234SOL     H1 1380   0.666   0.985   2.345
  234SOL     H2 1381   0.561   1.090   2.373
  234SOL    EPW 1382   0.587   1.005   2.380
  235SOL      O 1383   1.668   1.706   2.564
  235SOL     H1 1384   1.672   1.654   2.645
  235SOL     H2 1385   1.686   1.643   2.494
  235SOL    EPW 1386   1.670   1.694   2.565
  236SOL      O 1387   0.986   1.676   3.533
  236SOL     H1 1388   1.020   1.664   3.444
  236SOL     H2 1389   1.026   1.606   3.584
  236SOL    EPW 1390   0.994   1.667   3.529
  237SOL      O 1391   1.604   1.182   3.071
  237SOL     H1 1392   1.528   1.125   3.078
  237SOL     H2 1393   1.594   1.224   2.986
  237SOL    EPW 1394   1.595   1.180   3.062
  238SOL      O 1395   0.819   0.504   2.331
  238SOL     H1 1396   0.834   0.599   2.333
  238SOL     H2 1397   0.785   0.488   2.243
  238SOL    EPW 1398   0.817   0.513   2.322
  239SOL      O 1399   0.314   0.550   2.268
  239SOL     H1 1400   0.365   0.630   2.279
  239SOL     H2 1401   0.263   0.543   2.349
  239SOL    EPW 1402   0.314   0.558   2.278
  240SOL      O 1403   0.315   0.984   3.205
  240SOL     H1 1404   0.292   0.910   3.261
  240SOL     H2 1405   0.295   1.061   3.258
  240SOL    EPW 1406   0.310   0.984   3.217
  241SOL      O 1407   0.704   0.273   2.398
  241SOL     H1 1408   0.750   0.353   2.373
  241SOL     H2 1409   0.615   0.284   2.365
  241SOL    EPW 1410   0.699   0.283   2.392
  242SOL      O 1411   0.949   1.144   2.503
  242SOL     H1 1412   0.952   1.238   2.488
  242SOL     H2 1413   0.926   1.108   2.417
  242SOL    EPW 1414   0.947   1.150   2.492
  243SOL      O 1415   0.778   1.484   3.508
  243SOL     H1 1416   0.833   1.561   3.521
  243SOL     H2 1417   0.794   1.459   3.417
  243SOL    EPW 1418   0.786   1.489   3.499
  244SOL      O 1419   0.507   0.701   2.652
  244SOL     H1 1420   0.470   0.612   2.652
  244SOL     H2 1421   0.601   0.688   2.659
  244SOL    EPW 1422   0.513   0.690   2.653
  245SOL      O 1423   0.833   1.396   3.252
  245SOL     H1 1424   0.812   1.463   3.187
  245SOL     H2 1425   0.775   1.323   3.230
  245SOL    EPW 1426   0.824   1.395   3.242
  246SOL      O 1427   0.657   0.526   2.940
  246SOL     H1 1428   0.564   0.504   2.938
  246SOL     H2 1429   0.701   0.441   2.942
  246SOL    EPW 1430   0.652   0.514   2.940
  247SOL      O 1431   0.305   1.035   2.793
  247SOL     H1 1432   0.329   0.992   2.710
  247SOL     H2 1433   0.388   1.060   2.832
  247SOL    EPW 1434   0.316   1.033   2.788
  248SOL      O 1435   0.083   1.701   2.702
  248SOL     H1 1436   0.133   1.776   2.734
  248SOL     H2 1437   0.119   1.684   2.614
  248SOL    EPW 1438   0.092   1.707   2.696
  249SOL      O 1439   1.357   1.205   2.116
  249SOL     H1 1440   1.271   1.232   2.083
  249SOL     H2 1441   1.419   1.250   2.059
  249SOL    EPW 1442   1.355   1.213   2.106
  250SOL      O 1443   0.456   1.347   2.760
  250SOL     H1 1444   0.440   1.421   2.819
  250SOL     H2 1445   0.491   1.387   2.680
  250SOL    EPW 1446   0.458   1.359   2.758
  251SOL      O 1447   0.919   0.839   2.676
  251SOL     H1 1448   0.852   0.905   2.658
  251SOL     H2 1449   0.872   0.757   2.683
  251SOL    EPW 1450   0.907   0.837   2.675
  252SOL      O 1451   0.377   1.631   3.291
  252SOL     H1 1452   0.310   1.680   3.339
  252SOL     H2 1453   0.382   1.547   3.335
  252SOL    EPW 1454   0.371   1.627   3.300
  253SOL      O 1455   0.907   1.288   2.218
  253SOL     H1 1456   0.912   1.345   2.294
  253SOL     H2 1457   0.850   1.216   2.245
  253SOL    EPW 1458   0.902   1.286   2.229
  254SOL      O 1459   1.770   0.251   2.706
  254SOL     H1 1460   1.721   0.214   2.779
  254SOL     H2 1461   1.784   0.178   2.646
  254SOL    EPW 1462   1.766   0.239   2.707
  255SOL      O 1463   0.454   0.316   2.295
  255SOL     H1 1464   0.430   0.264   2.218
  255SOL     H2 1465   0.409   0.399   2.282
  255SOL    EPW 1466   0.447   0.319   2.286
  256SOL      O 1467   0.320   1.173   2.296
  256SOL     H1 1468   0.260   1.226   2.348
  256SOL     H2 1469   0.269   1.097   2.270
  256SOL    EPW 1470   0.308   1.171   2.299
  257SOL      O 1471   0.948   1.700   2.074
  257SOL     H1 1472   0.915   1.699   2.164
  257SOL     H2 1473   0.881   1.654   2.024
  257SOL    EPW 1474   0.938   1.695   2.079
  258SOL      O 1475   1.820   0.452   2.035
  258SOL     H1 1476   1.724   0.453   2.040
  258SOL     H2 1477   1.848   0.496   2.115
  258SOL    EPW 1478   1.813   0.457   2.044
  259SOL      O 1479   1.636   1.131   2.368
  259SOL     H1 1480   1.543   1.152   2.375
  259SOL     H2 1481   1.668   1.188   2.298
  259SOL    EPW 1482   1.629   1.140   2.361
  260SOL      O 1483   1.440   0.706   3.447
  260SOL     H1 1484   1.494   0.630   3.425
  260SOL     H2 1485   1.352   0.684   3.416
  260SOL    EPW 1486   1.436   0.696   3.441
  261SOL      O 1487   0.178   1.616   3.025
  261SOL     H1 1488   0.146   1.593   3.112
  261SOL     H2 1489   0.156   1.708   3.015
  261SOL    EPW 1490   0.172   1.623   3.033
  262SOL      O 1491   1.127   1.159   3.441
  262SOL     H1 1492   1.129   1.250   3.412
  262SOL     H2 1493   1.186   1.156   3.516
  262SOL    EPW 1494   1.134   1.168   3.446
  263SOL      O 1495   0.939   0.529   3.712
  263SOL     H1 1496   1.027   0.549   3.681
  263SOL     H2 1497   0.919   0.444   3.672
  263SOL    EPW 1498   0.946   0.522   3.704
  264SOL      O 1499   1.448   1.028   2.708
  264SOL     H1 1500   1.478   0.956   2.652
  264SOL     H2 1501   1.527   1.064   2.747
  264SOL    EPW 1502   1.459   1.024   2.706
  265SOL      O 1503   1.178   0.689   2.352
  265SOL     H1 1504   1.189   0.713   2.260
  265SOL     H2 1505   1.154   0.596   2.350
  265SOL    EPW 1506   1.177   0.682   2.342
  266SOL      O 1507   1.767   1.321   2.199
  266SOL     H1 1508   1.739   1.383   2.266
  266SOL     H2 1509   1.845   1.362   2.161
  266SOL    EPW 1510   1.773   1.332   2.202
  267SOL      O 1511   0.621   0.374   3.565
  267SOL     H1 1512   0.544   0.327   3.532
  267SOL     H2 1513   0.641   0.330   3.648
  267SOL    EPW 1514   0.615   0.364   3.570
  268SOL      O 1515   0.473   1.710   2.508
  268SOL     H1 1516   0.473   1.805   2.511
  268SOL     H2 1517   0.440   1.689   2.421
  268SOL    EPW 1518   0.470   1.718   2.499
  269SOL      O 1519   1.802   0.040   2.532
  269SOL     H1 1520   1.827   5.825   2.544
  269SOL     H2 1521   1.711   0.035   2.501
  269SOL    EPW 1522   1.795   0.029   2.530
  270SOL      O 1523   0.299   1.813   2.090
  270SOL     H1 1524   0.328   1.899   2.062
  270SOL     H2 1525   0.223   1.794   2.035
  270SOL    EPW 1526   0.294   1.820   2.081
  271SOL      O 1527   1.021   0.026   2.959
  271SOL     H1 1528   0.933   0.048   2.929
  271SOL     H2 1529   1.073   0.105   2.941
  271SOL    EPW 1530   1.017   0.037   2.954
  272SOL      O 1531   1.557   1.596   2.070
  272SOL     H1 1532   1.605   1.676   2.093
  272SOL     H2 1533   1.477   1.628   2.029
  272SOL    EPW 1534   1.554   1.608   2.068
  273SOL      O 1535   0.975   0.620   2.049
  273SOL     H1 1536   0.967   0.598   1.957
  273SOL     H2 1537   1.064   0.655   2.058
  273SOL    EPW 1538   0.984   0.621   2.040
  274SOL      O 1539   1.616   0.533   2.351
  274SOL     H1 1540   1.650   0.531   2.441
  274SOL     H2 1541   1.557   0.608   2.349
  274SOL    EPW 1542   1.613   0.541   2.360
  275SOL      O 1543   0.875   1.044   3.430
  275SOL     H1 1544   0.835   1.031   3.516
  275SOL     H2 1545   0.959   1.087   3.449
  275SOL    EPW 1546   0.880   1.048   3.441
  276SOL      O 1547   0.974   0.081   3.221
  276SOL     H1 1548   0.995   0.053   3.132
  276SOL     H2 1549   0.958   0.175   3.213
  276SOL    EPW 1550   0.975   0.088   3.210
  277SOL      O 1551   1.048   0.720   2.897
  277SOL     H1 1552   1.067   0.627   2.907
  277SOL     H2 1553   0.966   0.733   2.946
  277SOL    EPW 1554   1.041   0.711   2.903
  278SOL      O 1555   1.642   0.545   3.315
  278SOL     H1 1556   1.587   0.475   3.281
  278SOL     H2 1557   1.634   0.615   3.250
  278SOL    EPW 1558   1.635   0.545   3.304
  279SOL      O 1559   1.727   1.677   3.227
  279SOL     H1 1560   1.665   1.651   3.296
  279SOL     H2 1561   1.763   1.760   3.259
  279SOL    EPW 1562   1.724   1.683   3.238
  280SOL      O 1563   1.111   0.301   3.405
  280SOL     H1 1564   1.056   0.324   3.331
  280SOL     H2 1565   1.108   0.205   3.409
  280SOL    EPW 1566   1.105   0.293   3.397
  281SOL      O 1567   1.495   1.151   3.456
  281SOL     H1 1568   1.566   1.198   3.500
  281SOL     H2 1569   1.445   1.112   3.528
  281SOL    EPW 1570   1.497   1.152   3.469
  282SOL      O 1571   1.759   0.505   2.587
  282SOL     H1 1572   1.851   0.502   2.562
  282SOL     H2 1573   1.744   0.420   2.631
  282SOL    EPW 1574   1.767   0.495   2.589
  283SOL      O 1575   0.135   0.222   2.525
  283SOL     H1 1576   0.157   0.173   2.445
  283SOL     H2 1577   0.041   0.209   2.536
  283SOL    EPW 1578   0.128   0.216   2.518
  284SOL      O 1579   1.104   1.278   2.032
  284SOL     H1 1580   1.032   1.279   2.094
  284SOL     H2 1581   1.069   1.321   1.954
  284SOL    EPW 1582   1.093   1.282   2.030
  285SOL      O 1583   0.111   0.389   2.930
  285SOL     H1 1584   0.109   0.484   2.942
  285SOL     H2 1585   0.025   0.368   2.893
  285SOL    EPW 1586   0.102   0.397   2.927
  286SOL      O 1587   0.636   1.735   2.183
  286SOL     H1 1588   0.563   1.681   2.213
  286SOL     H2 1589   0.704   1.721   2.248
  286SOL    EPW 1590   0.635   1.728   2.193
  287SOL      O 1591   1.694   1.276   3.585
  287SOL     H1 1592   1.730   1.192   3.615
  287SOL     H2 1593   1.639   1.305   3.658
  287SOL    EPW 1594   1.692   1.270   3.596
  288SOL      O 1595   0.665   1.172   1.925
  288SOL     H1 1596   0.582   1.125   1.934
  288SOL     H2 1597   0.657   1.246   1.986
  288SOL    EPW 1598   0.655   1.175   1.933
  289SOL      O 1599   1.865   0.881   3.120
  289SOL     H1 1600   1.866   0.956   3.061
  289SOL     H2 1601   1.873   0.919   3.207
  289SOL    EPW 1602   1.866   0.893   3.123
  290SOL      O 1603   1.691   1.537   2.779
  290SOL     H1 1604   1.666   1.592   2.853
  290SOL     H2 1605   1.650   1.452   2.797
  290SOL    EPW 1606   1.684   1.534   2.789
  291SOL      O 1607   1.326   1.683   1.957
  291SOL     H1 1608   1.261   1.634   2.007
  291SOL     H2 1609   1.326   1.770   1.997
  291SOL    EPW 1610   1.319   1.687   1.966
  292SOL      O 1611   0.150   0.644   3.016
  292SOL     H1 1612   0.167   0.591   3.094
  292SOL     H2 1613   0.075   0.698   3.040
  292SOL    EPW 1614   0.144   0.644   3.027
  293SOL      O 1615   1.527   1.342   1.951
  293SOL     H1 1616   1.469   1.383   1.887
  293SOL     H2 1617   1.556   1.414   2.007
  293SOL    EPW 1618   1.524   1.354   1.950
  294SOL      O 1619   0.725   0.236   1.904
  294SOL     H1 1620   0.707   0.142   1.909
  294SOL     H2 1621   0.805   0.242   1.852
  294SOL    EPW 1622   0.732   0.226   1.899
  295SOL      O 1623   0.203   1.796   3.445
  295SOL     H1 1624   0.178   1.880   3.407
  295SOL     H2 1625   0.276   1.817   3.504
  295SOL    EPW 1626   0.208   1.807   3.448
  296SOL      O 1627   0.207   1.238   2.973
  296SOL     H1 1628   0.292   1.259   3.011
  296SOL     H2 1629   0.146   1.299   3.015
  296SOL    EPW 1630   0.209   1.246   2.982
  297SOL      O 1631   0.776   1.020   2.987
  297SOL     H1 1632   0.764   0.925   2.998
  297SOL     H2 1633   0.696   1.050   2.946
  297SOL    EPW 1634   0.767   1.013   2.984
  298SOL      O 1635   0.115   0.837   2.429
  298SOL     H1 1636   0.191   0.838   2.488
  298SOL     H2 1637   0.094   0.745   2.419
  298SOL    EPW 1638   0.121   0.828   2.435
  299SOL      O 1639   0.360   0.586   3.636
  299SOL     H1 1640   0.293   0.650   3.659
  299SOL     H2 1641   0.420   0.587   3.711
  299SOL    EPW 1642   0.359   0.593   3.647
  300SOL      O 1643   0.776   0.137   3.409
  300SOL     H1 1644   0.754   0.075   3.478
  300SOL     H2 1645   0.846   0.094   3.360
  300SOL    EPW 1646   0.781   0.126   3.411
  301SOL      O 1647   0.447   0.620   3.378
  301SOL     H1 1648   0.525   0.674   3.382
  301SOL     H2 1649   0.430   0.596   3.469
  301SOL    EPW 1650   0.453   0.623   3.388
  302SOL      O 1651   0.836   1.752   2.716
  302SOL     H1 1652   0.877   1.790   2.794
  302SOL     H2 1653   0.808   1.828   2.665
  302SOL    EPW 1654   0.838   1.764   2.719
  303SOL      O 1655   1.280   0.210   3.694
  303SOL     H1 1656   1.319   0.147   3.755
  303SOL     H2 1657   1.265   0.288   3.748
  303SOL    EPW 1658   1.282   0.211   3.706
  304SOL      O 1659   0.167   1.346   2.446
  304SOL     H1 1660   0.180   1.441   2.456
  304SOL     H2 1661   0.090   1.339   2.389
  304SOL    EPW 1662   0.160   1.356   2.441
  305SOL      O 1663   0.954   1.420   2.461
  305SOL     H1 1664   1.048   1.431   2.475
  305SOL     H2 1665   0.915   1.446   2.545
  305SOL    EPW 1666   0.960   1.424   2.472
  306SOL      O 1667   1.806   0.687   2.790
  306SOL     H1 1668   1.901   0.698   2.782
  306SOL     H2 1669   1.783   0.625   2.721
  306SOL    EPW 1670   1.813   0.682   2.782
  307SOL      O 1671   1.611   0.844   3.721
  307SOL     H1 1672   1.672   0.780   3.685
  307SOL     H2 1673   1.637   0.854   3.813
  307SOL    EPW 1674   1.620   0.838   3.727
  308SOL      O 1675   0.762   1.563   1.929
  308SOL     H1 1676   0.712   1.643   1.912
  308SOL     H2 1677   0.707   1.512   1.988
  308SOL    EPW 1678   0.751   1.566   1.933
  309SOL      O 1679   1.102   0.250   2.146
  309SOL     H1 1680   1.051   0.190   2.091
  309SOL     H2 1681   1.153   0.302   2.083
  309SOL    EPW 1682   1.102   0.250   2.133
  310SOL      O 1683   0.942   0.356   3.203
  310SOL     H1 1684   0.873   0.408   3.244
  310SOL     H2 1685   0.971   0.409   3.129
  310SOL    EPW 1686   0.938   0.368   3.200
  311SOL      O 1687   0.732   1.023   2.622
  311SOL     H1 1688   0.665   1.011   2.554
  311SOL     H2 1689   0.792   1.087   2.586
  311SOL    EPW 1690   0.731   1.028   2.611
  312SOL      O 1691   1.410   0.580   2.691
  312SOL     H1 1692   1.397   0.486   2.678
  312SOL     H2 1693   1.430   0.590   2.784
  312SOL    EPW 1694   1.411   0.571   2.699
  313SOL      O 1695   0.405   0.239   3.453
  313SOL     H1 1696   0.310   0.225   3.461
  313SOL     H2 1697   0.416   0.280   3.368
  313SOL    EPW 1698   0.396   0.242   3.445
  314SOL      O 1699   1.188   0.730   2.638
  314SOL     H1 1700   1.261   0.672   2.658
  314SOL     H2 1701   1.177   0.724   2.543
  314SOL    EPW 1702   1.194   0.723   2.630
  315SOL      O 1703   0.396   1.621   2.253
  315SOL     H1 1704   0.371   1.690   2.191
  315SOL     H2 1705   0.324   1.558   2.249
  315SOL    EPW 1706   0.386   1.622   2.246
  316SOL      O 1707   0.831   1.009   2.277
  316SOL     H1 1708   0.822   1.010   2.182
  316SOL     H2 1709   0.866   0.922   2.297
  316SOL    EPW 1710   0.834   1.000   2.269
  317SOL      O 1711   1.347   1.637   2.979
  317SOL     H1 1712   1.294   1.715   2.995
  317SOL     H2 1713   1.312   1.571   3.039
  317SOL    EPW 1714   1.338   1.638   2.987
  318SOL      O 1715   1.404   1.760   2.573
  318SOL     H1 1716   1.369   1.758   2.483
  318SOL     H2 1717   1.498   1.745   2.563
  318SOL    EPW 1718   1.410   1.758   2.562
  319SOL      O 1719   1.362   0.316   2.632
  319SOL     H1 1720   1.380   0.239   2.685
  319SOL     H2 1721   1.267   0.313   2.618
  319SOL    EPW 1722   1.353   0.308   2.636
  320SOL      O 1723   0.103   1.221   2.695
  320SOL     H1 1724   0.074   1.307   2.727
  320SOL     H2 1725   0.149   1.240   2.614
  320SOL    EPW 1726   0.105   1.232   2.690
  321SOL      O 1727   0.605   1.274   3.570
  321SOL     H1 1728   0.663   1.349   3.560
  321SOL     H2 1729   0.638   1.227   3.646
  321SOL    EPW 1730   0.614   1.277   3.577
  322SOL      O 1731   0.196   1.530   3.684
  322SOL     H1 1732   0.276   1.477   3.685
  322SOL     H2 1733   0.148   1.499   3.608
  322SOL    EPW 1734   0.200   1.521   3.676
  323SOL      O 1735   1.273   0.385   1.976
  323SOL     H1 1736   1.252   0.445   1.904
  323SOL     H2 1737   1.359   0.414   2.007
  323SOL    EPW 1738   1.280   0.395   1.971
  324SOL      O 1739   0.987   0.060   1.993
  324SOL     H1 1740   0.995   0.064   1.898
  324SOL     H2 1741   0.968   5.845   2.012
  324SOL    EPW 1742   0.986   0.050   1.985
  325SOL      O 1743   1.445   0.946   2.089
  325SOL     H1 1744   1.407   1.034   2.099
  325SOL     H2 1745   1.400   0.893   2.154
  325SOL    EPW 1746   1.436   0.950   2.097
  326SOL      O 1747   1.099   1.399   3.298
  326SOL     H1 1748   1.005   1.387   3.282
  326SOL     H2 1749   1.110   1.494   3.303
  326SOL    EPW 1750   1.090   1.408   3.297
  327SOL      O 1751   0.382   5.868   3.580
  327SOL     H1 1752   0.303   5.841   3.534
  327SOL     H2 1753   0.410   0.071   3.536
  327SOL    EPW 1754   0.377   5.874   3.570
  328SOL      O 1755   0.431   1.553   2.960
  328SOL     H1 1756   0.485   1.611   3.014
  328SOL     H2 1757   0.341   1.574   2.986
  328SOL    EPW 1758   0.428   1.562   2.969
  329SOL      O 1759   1.853   1.031   3.355
  329SOL     H1 1760   1.776   1.080   3.327
  329SOL     H2 1761   1.839   1.017   3.449
  329SOL    EPW 1762   1.843   1.035   3.362
  330SOL      O 1763   0.833   1.630   3.096
  330SOL     H1 1764   0.871   1.695   3.037
  330SOL     H2 1765   0.745   1.662   3.113
  330SOL    EPW 1766   0.828   1.641   3.091
  331SOL      O 1767   0.430   1.037   1.935
  331SOL     H1 1768   0.381   0.971   1.983
  331SOL     H2 1769   0.383   1.046   1.852
  331SOL    EPW 1770   0.420   1.031   1.931
  332SOL      O 1771   1.094   0.988   2.053
  332SOL     H1 1772   1.002   0.977   2.030
  332SOL     H2 1773   1.113   1.080   2.033
  332SOL    EPW 1774   1.086   0.997   2.048
  333SOL      O 1775   0.536   1.132   2.906
  333SOL     H1 1776   0.515   1.175   2.989
  333SOL     H2 1777   0.526   1.201   2.841
  333SOL    EPW 1778   0.533   1.144   2.908
  334SOL      O 1779   1.462   0.359   3.231
  334SOL     H1 1780   1.430   0.356   3.321
  334SOL     H2 1781   1.451   0.270   3.199
  334SOL    EPW 1782   1.457   0.349   3.237
  335SOL      O 1783   1.792   0.239   3.112
  335SOL     H1 1784   1.801   0.328   3.079
  335SOL     H2 1785   1.867   0.192   3.075
  335SOL    EPW 1786   1.801   0.243   3.105
  336SOL      O 1787   0.086   1.409   3.470
  336SOL     H1 1788   0.127   1.326   3.447
  336SOL     H2 1789   5.870   1.387   3.481
  336SOL    EPW 1790   0.080   1.398   3.469
  337SOL      O 1791   0.832   0.017   2.588
  337SOL     H1 1792   0.760   0.070   2.623
  337SOL     H2 1793   0.804   5.803   2.602
  337SOL    EPW 1794   0.821   0.013   2.593
  338SOL      O 1795   0.575   1.271   2.346
  338SOL     H1 1796   0.576   1.338   2.414
  338SOL     H2 1797   0.482   1.258   2.326
  338SOL    EPW 1798   0.565   1.276   2.351
  339SOL      O 1799   1.054   1.672   3.266
  339SOL     H1 1800   0.976   1.652   3.214
  339SOL     H2 1801   1.062   1.767   3.262
  339SOL    EPW 1802   1.046   1.680   3.260
  340SOL      O 1803   1.307   1.553   2.723
  340SOL     H1 1804   1.338   1.625   2.668
  340SOL     H2 1805   1.315   1.586   2.812
  340SOL    EPW 1806   1.311   1.564   2.727
  341SOL      O 1807   1.615   1.692   2.982
  341SOL     H1 1808   1.651   1.682   3.070
  341SOL     H2 1809   1.521   1.673   2.992
  341SOL    EPW 1810   1.609   1.689   2.992
  342SOL      O 1811   0.736   0.712   3.654
  342SOL     H1 1812   0.800   0.642   3.664
  342SOL     H2 1813   0.672   0.696   3.724
  342SOL    EPW 1814   0.736   0.703   3.663
  343SOL      O 1815   1.510   0.924   3.307
  343SOL     H1 1816   1.508   1.003   3.361
  343SOL     H2 1817   1.483   0.854   3.367
  343SOL    EPW 1818   1.507   0.925   3.319
  344SOL      O 1819   1.133   0.049   3.517
  344SOL     H1 1820   1.125   5.837   3.551
  344SOL     H2 1821   1.174   0.098   3.589
  344SOL    EPW 1822   1.137   0.045   3.528
  345SOL      O 1823   0.568   0.646   1.991
  345SOL     H1 1824   0.528   0.690   2.066
  345SOL     H2 1825   0.618   0.574   2.030
  345SOL    EPW 1826   0.569   0.643   2.003
  346SOL      O 1827   1.581   1.283   2.819
  346SOL     H1 1828   1.620   1.271   2.732
  346SOL     H2 1829   1.487   1.287   2.803
  346SOL    EPW 1830   1.575   1.282   2.808
  347SOL      O 1831   1.093   1.019   3.208
  347SOL     H1 1832   1.113   1.059   3.293
  347SOL     H2 1833   1.028   1.078   3.169
  347SOL    EPW 1834   1.088   1.030   3.213
  348SOL      O 1835   1.540   0.462   2.070
  348SOL     H1 1836   1.511   0.536   2.016
  348SOL     H2 1837   1.546   0.498   2.159
  348SOL    EPW 1838   1.538   0.474   2.074
  349SOL      O 1839   0.412   0.224   2.551
  349SOL     H1 1840   0.424   0.244   2.458
  349SOL     H2 1841   0.319   0.203   2.559
  349SOL    EPW 1842   0.403   0.224   2.542
  350SOL      O 1843   0.215   1.175   3.382
  350SOL     H1 1844   0.233   1.117   3.455
  350SOL     H2 1845   0.125   1.154   3.356
  350SOL    EPW 1846   0.207   1.167   3.387
  351SOL      O 1847   0.743   0.494   3.342
  351SOL     H1 1848   0.730   0.587   3.358
  351SOL     H2 1849   0.709   0.451   3.420
  351SOL    EPW 1850   0.738   0.499   3.352
  352SOL      O 1851   1.216   0.747   2.089
  352SOL     H1 1852   1.286   0.729   2.027
  352SOL     H2 1853   1.184   0.833   2.066
  352SOL    EPW 1854   1.220   0.754   2.080
  353SOL      O 1855   0.366   0.910   2.554
  353SOL     H1 1856   0.423   0.953   2.490
  353SOL     H2 1857   0.418   0.835   2.585
  353SOL    EPW 1858   0.378   0.906   2.550
  354SOL      O 1859   1.497   0.285   2.399
  354SOL     H1 1860   1.444   0.298   2.477
  354SOL     H2 1861   1.540   0.369   2.384
  354SOL    EPW 1862   1.496   0.295   2.405
  355SOL      O 1863   1.097   0.315   2.582
  355SOL     H1 1864   1.093   0.354   2.494
  355SOL     H2 1865   1.006   0.320   2.613
  355SOL    EPW 1866   1.087   0.320   2.576
  356SOL      O 1867   0.994   1.443   1.842
  356SOL     H1 1868   1.023   1.497   1.768
  356SOL     H2 1869   0.909   1.480   1.867
  356SOL    EPW 1870   0.988   1.452   1.837
  357SOL      O 1871   1.794   1.025   3.626
  357SOL     H1 1872   1.724   0.963   3.647
  357SOL     H2 1873   1.833   1.047   3.711
  357SOL    EPW 1874   1.791   1.021   3.637
  358SOL      O 1875   0.017   1.451   2.790
  358SOL     H1 1876   0.059   1.535   2.776
  358SOL     H2 1877   5.800   1.469   2.784
  358SOL    EPW 1878   0.011   1.462   2.788
  359SOL      O 1879   5.840   0.621   2.314
  359SOL     H1 1880   5.815   0.577   2.396
  359SOL     H2 1881   5.871   0.550   2.258
  359SOL    EPW 1882   5.841   0.608   2.317
  360SOL      O 1883   1.562   1.870   3.695
  360SOL     H1 1884   1.600   1.785   3.677
  360SOL     H2 1885   1.591   1.891   3.784
  360SOL    EPW 1886   1.569   1.863   3.703
  361SOL      O 1887   1.230   1.425   2.489
  361SOL     H1 1888   1.253   1.464   2.573
  361SOL     H2 1889   1.275   1.479   2.425
  361SOL    EPW 1890   1.237   1.435   2.491
  362SOL      O 1891   0.422   0.394   3.225
  362SOL     H1 1892   0.442   0.478   3.266
  362SOL     H2 1893   0.422   0.412   3.131
  362SOL    EPW 1894   0.424   0.405   3.220
  363SOL      O 1895   0.391   0.395   2.944
  363SOL     H1 1896   0.408   0.302   2.927
  363SOL     H2 1897   0.295   0.402   2.940
  363SOL    EPW 1898   0.382   0.386   2.941
  364SOL      O 1899   1.196   0.568   3.604
  364SOL     H1 1900   1.253   0.496   3.580
  364SOL     H2 1901   1.174   0.611   3.521
  364SOL    EPW 1902   1.200   0.565   3.593
  365SOL      O 1903   1.355   0.373   3.482
  365SOL     H1 1904   1.269   0.353   3.446
  365SOL     H2 1905   1.368   0.309   3.551
  365SOL    EPW 1906   1.347   0.364   3.485
  366SOL      O 1907   0.627   0.166   2.713
  366SOL     H1 1908   0.599   0.081   2.748
  366SOL     H2 1909   0.559   0.190   2.651
  366SOL    EPW 1910   0.617   0.159   2.710
  367SOL      O 1911   0.648   1.753   3.478
  367SOL     H1 1912   0.569   1.790   3.518
  367SOL     H2 1913   0.659   1.668   3.521
  367SOL    EPW 1914   0.641   1.748   3.486
  368SOL      O 1915   1.771   0.494   2.987
  368SOL     H1 1916   1.696   0.516   3.042
  368SOL     H2 1917   1.782   0.570   2.930
  368SOL    EPW 1918   1.764   0.505   2.987
  369SOL      O 1919   1.861   1.100   2.961
  369SOL     H1 1920   1.826   1.061   2.882
  369SOL     H2 1921   1.785   1.142   3.003
  369SOL    EPW 1922   1.849   1.100   2.957
  370SOL      O 1923   1.280   0.895   2.862
  370SOL     H1 1924   1.291   0.928   2.951
  370SOL     H2 1925   1.343   0.943   2.810
  370SOL    EPW 1926   1.288   0.903   2.866
  371SOL      O 1927   1.287   0.544   3.127
  371SOL     H1 1928   1.340   0.587   3.060
  371SOL     H2 1929   1.342   0.471   3.157
  371SOL    EPW 1930   1.299   0.541   3.123
  372SOL      O 1931   1.818   0.678   3.655
  372SOL     H1 1932   1.817   0.619   3.731
  372SOL     H2 1933   1.830   0.619   3.580
  372SOL    EPW 1934   1.819   0.665   3.655
  373SOL      O 1935   1.379   1.028   3.666
  373SOL     H1 1936   1.444   0.965   3.695
  373SOL     H2 1937   1.353   1.075   3.745
  373SOL    EPW 1938   1.383   1.026   3.678
  374SOL      O 1939   1.288   0.047   2.134
  374SOL     H1 1940   1.370   0.095   2.144
  374SOL     H2 1941   1.220   0.110   2.158
  374SOL    EPW 1942   1.289   0.059   2.138
  375SOL      O 1943   1.447   0.744   2.323
  375SOL     H1 1944   1.355   0.718   2.333
  375SOL     H2 1945   1.469   0.784   2.407
  375SOL    EPW 1946   1.439   0.745   2.333
  376SOL      O 1947   0.442   1.313   3.092
  376SOL     H1 1948   0.443   1.327   3.187
  376SOL     H2 1949   0.444   1.400   3.054
  376SOL    EPW 1950   0.442   1.323   3.098
  377SOL      O 1951   0.782   0.282   2.941
  377SOL     H1 1952   0.761   0.266   3.034
  377SOL     H2 1953   0.745   0.207   2.895
  377SOL    EPW 1954   0.776   0.272   2.946
  378SOL      O 1955   0.577   1.720   3.125
  378SOL     H1 1956   0.590   1.814   3.132
  378SOL     H2 1957   0.513   1.699   3.194
  378SOL    EPW 1958   0.571   1.728   3.133
  379SOL      O 1959   1.512   1.355   3.273
  379SOL     H1 1960   1.491   1.288   3.338
  379SOL     H2 1961   1.561   1.307   3.206
  379SOL    EPW 1962   1.515   1.342   3.272
  380SOL      O 1963   0.560   1.038   3.426
  380SOL     H1 1964   0.582   1.069   3.338
  380SOL     H2 1965   0.581   1.112   3.483
  380SOL    EPW 1966   0.564   1.049   3.422
  381SOL      O 1967   0.720   1.144   3.225
  381SOL     H1 1968   0.777   1.107   3.292
  381SOL     H2 1969   0.741   1.095   3.146
  381SOL    EPW 1970   0.728   1.135   3.224
  382SOL      O 1971   0.744   0.454   2.077
  382SOL     H1 1972   0.829   0.489   2.050
  382SOL     H2 1973   0.734   0.373   2.026
  382SOL    EPW 1974   0.752   0.449   2.069
  383SOL      O 1975   1.550   1.596   3.420
  383SOL     H1 1976   1.605   1.585   3.498
  383SOL     H2 1977   1.543   1.508   3.383
  383SOL    EPW 1978   1.555   1.586   3.425
  384SOL      O 1979   1.217   0.222   2.959
  384SOL     H1 1980   1.271   0.185   2.890
  384SOL     H2 1981   1.257   0.192   3.040
  384SOL    EPW 1982   1.227   0.215   2.960
  385SOL      O 1983   0.205   0.928   2.193
  385SOL     H1 1984   0.135   0.980   2.153
  385SOL     H2 1985   0.167   0.898   2.276
  385SOL    EPW 1986   0.193   0.930   2.198
  386SOL      O 1987   0.616   1.386   2.088
  386SOL     H1 1988   0.632   1.362   2.179
  386SOL     H2 1989   0.521   1.385   2.080
  386SOL    EPW 1990   0.608   1.383   2.097
  387SOL      O 1991   1.163   1.539   2.117
  387SOL     H1 1992   1.141   1.453   2.083
  387SOL     H2 1993   1.084   1.592   2.101
  387SOL    EPW 1994   1.152   1.536   2.111
  388SOL      O 1995   0.419   1.759   2.780
  388SOL     H1 1996   0.424   1.682   2.837
  388SOL     H2 1997   0.442   1.726   2.693
  388SOL    EPW 1998   0.422   1.747   2.777
  389SOL      O 1999   1.022   1.018   2.878
  389SOL     H1 2000   0.934   1.024   2.914
  389SOL     H2 2001   1.055   1.108   2.879
  389SOL    EPW 2002   1.016   1.028   2.882
  390SOL      O 2003   0.044   1.570   3.262
  390SOL     H1 2004   0.071   1.521   3.339
  390SOL     H2 2005   5.869   1.643   3.297
  390SOL    EPW 2006   0.041   1.573   3.274
  391SOL      O 2007   1.028   0.439   2.946
  391SOL     H1 2008   0.954   0.383   2.924
  391SOL     H2 2009   1.102   0.379   2.951
  391SOL    EPW 2010   1.028   0.426   2.945
  392SOL      O 2011   0.674   0.777   3.403
  392SOL     H1 2012   0.638   0.866   3.406
  392SOL     H2 2013   0.696   0.757   3.494
  392SOL    EPW 2014   0.673   0.785   3.413
  393SOL      O 2015   0.353   1.289   3.691
  393SOL     H1 2016   0.440   1.291   3.651
  393SOL     H2 2017   0.369   1.306   3.783
  393SOL    EPW 2018   0.364   1.291   3.696
  394SOL      O 2019   1.396   0.102   3.156
  394SOL     H1 2020   1.439   0.029   3.111
  394SOL     H2 2021   1.385   0.072   3.246
  394SOL    EPW 2022   1.399   0.091   3.160
  395SOL      O 2023   1.683   1.626   3.660
  395SOL     H1 2024   1.652   1.599   3.747
  395SOL     H2 2025   1.763   1.676   3.678
  395SOL    EPW 2026   1.688   1.629   3.671
  396SOL      O 2027   0.394   0.460   2.678
  396SOL     H1 2028   0.408   0.378   2.632
  396SOL     H2 2029   0.392   0.436   2.771
  396SOL    EPW 2030   0.395   0.449   2.683
  397SOL      O 2031   0.028   1.781   3.749
  397SOL     H1 2032   0.081   1.727   3.690
  397SOL     H2 2033   0.046   1.871   3.722
  397SOL    EPW 2034   0.035   1.785   3.740
  398SOL      O 2035   0.813   1.488   2.688
  398SOL     H1 2036   0.795   1.460   2.778
  398SOL     H2 2037   0.821   1.583   2.695
  398SOL    EPW 2038   0.812   1.495   2.699
  399SOL      O 2039   1.080   0.437   2.340
  399SOL     H1 2040   1.093   0.372   2.272
  399SOL     H2 2041   0.987   0.458   2.337
  399SOL    EPW 2042   1.072   0.433   2.333
  400SOL      O 2043   0.194   0.095   2.295
  400SOL     H1 2044   0.251   0.126   2.224
  400SOL     H2 2045   0.196   5.877   2.288
  400SOL    EPW 2046   0.200   0.088   2.287
  401SOL      O 2047   0.003   0.642   3.349
  401SOL     H1 2048   0.078   0.698   3.369
  401SOL     H2 2049   0.041   0.565   3.307
  401SOL    EPW 2050   0.015   0.640   3.346
  402SOL      O 2051   1.739   1.485   2.418
  402SOL     H1 2052   1.722   1.419   2.485
  402SOL     H2 2053   1.832   1.505   2.428
  402SOL    EPW 2054   1.747   1.480   2.426
  403SOL      O 2055   1.370   1.199   2.392
  403SOL     H1 2056   1.324   1.274   2.429
  403SOL     H2 2057   1.355   1.206   2.297
  403SOL    EPW 2058   1.364   1.208   2.385
  404SOL      O 2059   0.985   0.031   2.362
  404SOL     H1 2060   0.924   0.041   2.435
  404SOL     H2 2061   0.979   0.114   2.314
  404SOL    EPW 2062   0.978   0.041   2.364
  405SOL      O 2063   1.748   0.956   2.755
  405SOL     H1 2064   1.765   0.959   2.661
  405SOL     H2 2065   1.762   0.864   2.779
  405SOL    EPW 2066   1.751   0.946   2.748
  406SOL      O 2067   0.234   0.786   3.377
  406SOL     H1 2068   0.255   0.840   3.454
  406SOL     H2 2069   0.306   0.723   3.372
  406SOL    EPW 2070   0.244   0.785   3.385
  407SOL      O 2071   1.756   0.911   2.478
  407SOL     H1 2072   1.838   0.897   2.431
  407SOL     H2 2073   1.718   0.988   2.436
  407SOL    EPW 2074   1.761   0.918   2.468
  408SOL      O 2075   0.151   0.751   3.695
  408SOL     H1 2076   0.146   0.708   3.781
  408SOL     H2 2077   0.061   0.748   3.662
  408SOL    EPW 2078   0.141   0.746   3.701
  409SOL      O 2079   0.456   0.050   3.135
  409SOL     H1 2080   0.526   0.113   3.155
  409SOL     H2 2081   0.430   0.071   3.046
  409SOL    EPW 2082   0.461   0.059   3.128
  410SOL      O 2083   0.449   0.795   2.224
  410SOL     H1 2084   0.368   0.842   2.204
  410SOL     H2 2085   0.500   0.857   2.276
  410SOL    EPW 2086   0.446   0.807   2.227
  411SOL      O 2087   1.178   0.664   3.346
  411SOL     H1 2088   1.208   0.619   3.267
  411SOL     H2 2089   1.093   0.700   3.322
  411SOL    EPW 2090   1.172   0.663   3.335
  412SOL      O 2091   0.178   0.494   2.510
  412SOL     H1 2092   0.243   0.501   2.580
  412SOL     H2 2093   0.162   0.400   2.500
  412SOL    EPW 2094   0.183   0.485   2.516
  413SOL      O 2095   1.685   1.839   2.092
  413SOL     H1 2096   1.778   1.857   2.083
  413SOL     H2 2097   1.648   1.919   2.130
  413SOL    EPW 2098   1.691   1.849   2.095
  414SOL      O 2099   0.811   0.749   3.025
  414SOL     H1 2100   0.754   0.673   3.018
  414SOL     H2 2101   0.843   0.747   3.116
  414SOL    EPW 2102   0.809   0.741   3.034
  415SOL      O 2103   1.558   1.879   3.408
  415SOL     H1 2104   1.539   1.785   3.412
  415SOL     H2 2105   1.551   1.908   3.499
  415SOL    EPW 2106   1.555   1.872   3.418
  416SOL      O 2107   0.652   0.232   3.185
  416SOL     H1 2108   0.599   0.307   3.214
  416SOL     H2 2109   0.694   0.200   3.265
  416SOL    EPW 2110   0.651   0.237   3.197
  417SOL      O 2111   0.013   1.095   2.104
  417SOL     H1 2112   0.037   1.138   2.022
  417SOL     H2 2113   5.795   1.082   2.097
  417SOL    EPW 2114   0.006   1.098   2.094
  418SOL      O 2115   1.400   0.097   2.789
  418SOL     H1 2116   1.483   0.107   2.836
  418SOL     H2 2117   1.395   0.003   2.771
  418SOL    EPW 2118   1.409   0.088   2.792
  419SOL      O 2119   1.518   0.807   2.573
  419SOL     H1 2120   1.612   0.818   2.561
  419SOL     H2 2121   1.508   0.723   2.618
  419SOL    EPW 2122   1.527   0.799   2.576
  420SOL      O 2123   0.639   1.811   1.918
  420SOL     H1 2124   0.555   1.835   1.879
  420SOL     H2 2125   0.619   1.796   2.010
  420SOL    EPW 2126   0.628   1.812   1.924
  421SOL      O 2127   0.939   0.788   3.267
  421SOL     H1 2128   0.988   0.870   3.257
  421SOL     H2 2129   0.871   0.809   3.330
  421SOL    EPW 2130   0.937   0.799   3.273
  422SOL      O 2131   0.327   0.978   3.555
  422SOL     H1 2132   0.354   0.973   3.647
  422SOL     H2 2133   0.408   0.995   3.507
  422SOL    EPW 2134   0.339   0.979   3.560
  423SOL      O 2135   1.427   0.658   1.917
  423SOL     H1 2136   1.386   0.639   1.833
  423SOL     H2 2137   1.504   0.710   1.894
  423SOL    EPW 2138   1.431   0.662   1.906
  424SOL      O 2139   0.580   1.460   2.545
  424SOL     H1 2140   0.664   1.474   2.590
  424SOL     H2 2141   0.547   1.548   2.529
  424SOL    EPW 2142   0.586   1.471   2.548
  425SOL      O 2143   0.770   0.615   2.704
  425SOL     H1 2144   0.732   0.593   2.789
  425SOL     H2 2145   0.794   0.531   2.666
  425SOL    EPW 2146   0.768   0.604   2.709
  426SOL      O 2147   1.846   0.037   3.309
  426SOL     H1 2148   1.843   0.072   3.398
  426SOL     H2 2149   1.810   0.108   3.254
  426SOL    EPW 2150   1.842   0.049   3.312
  427SOL      O 2151   1.154   1.014   2.630
  427SOL     H1 2152   1.238   1.056   2.614
  427SOL     H2 2153   1.091   1.065   2.580
  427SOL    EPW 2154   1.157   1.024   2.623
  428SOL      O 2155   0.825   0.967   2.002
  428SOL     H1 2156   0.803   0.894   1.943
  428SOL     H2 2157   0.774   1.040   1.969
  428SOL    EPW 2158   0.817   0.967   1.992
  429SOL      O 2159   1.303   1.303   2.845
  429SOL     H1 2160   1.294   1.386   2.797
  429SOL     H2 2161   1.299   1.329   2.937
  429SOL    EPW 2162   1.301   1.315   2.850
  430SOL      O 2163   1.294   1.394   3.109
  430SOL     H1 2164   1.371   1.384   3.165
  430SOL     H2 2165   1.220   1.390   3.169
  430SOL    EPW 2166   1.294   1.392   3.121
  431SOL      O 2167   0.214   0.733   2.765
  431SOL     H1 2168   0.200   0.703   2.854
  431SOL     H2 2169   0.309   0.726   2.752
  431SOL    EPW 2170   0.223   0.729   2.773
  432SOL      O 2171   1.352   1.517   3.609
  432SOL     H1 2172   1.328   1.584   3.674
  432SOL     H2 2173   1.402   1.565   3.543
  432SOL    EPW 2174   1.355   1.530   3.609
  433SOL      O 2175   1.526   0.180   2.147
  433SOL     H1 2176   1.518   0.215   2.236
  433SOL     H2 2177   1.541   0.257   2.092
  433SOL    EPW 2178   1.527   0.192   2.151
  434SOL      O 2179   0.918   0.754   2.293
  434SOL     H1 2180   0.921   0.725   2.201
  434SOL     H2 2181   1.007   0.741   2.325
  434SOL    EPW 2182   0.928   0.750   2.286
  435SOL      O 2183   0.134   0.423   3.603
  435SOL     H1 2184   0.147   0.364   3.529
  435SOL     H2 2185   0.217   0.469   3.612
  435SOL    EPW 2186   0.144   0.421   3.596
  436SOL      O 2187   1.345   0.996   3.104
  436SOL     H1 2188   1.399   0.965   3.177
  436SOL     H2 2189   1.259   1.010   3.142
  436SOL    EPW 2190   1.342   0.994   3.116
  437SOL      O 2191   0.869   1.684   2.335
  437SOL     H1 2192   0.916   1.758   2.374
  437SOL     H2 2193   0.899   1.608   2.385
  437SOL    EPW 2194   0.877   1.684   2.345
  438SOL      O 2195   1.643   0.123   2.913
  438SOL     H1 2196   1.676   0.034   2.927
  438SOL     H2 2197   1.673   0.172   2.990
  438SOL    EPW 2198   1.649   0.119   2.923
  439SOL      O 2199   0.102   5.835   2.985
  439SOL     H1 2200   0.155   5.825   2.905
  439SOL     H2 2201   0.087   5.746   3.015
  439SOL    EPW 2202   0.106   5.825   2.979
  440SOL      O 2203   1.728   1.264   2.585
  440SOL     H1 2204   1.694   1.213   2.512
  440SOL     H2 2205   1.823   1.250   2.582
  440SOL    EPW 2206   1.735   1.257   2.577
  441SOL      O 2207   0.426   1.357   3.361
  441SOL     H1 2208   0.351   1.301   3.379
  441SOL     H2 2209   0.488   1.337   3.431
  441SOL    EPW 2210   0.425   1.349   3.371
  442SOL      O 2211   0.343   0.180   2.084
  442SOL     H1 2212   0.271   0.214   2.031
  442SOL     H2 2213   0.356   0.091   2.050
  442SOL    EPW 2214   0.337   0.174   2.074
  443SOL      O 2215   1.444   0.678   2.945
  443SOL     H1 2216   1.396   0.758   2.924
  443SOL     H2 2217   1.513   0.707   3.004
  443SOL    EPW 2218   1.446   0.690   2.949
  444SOL      O 2219   0.106   0.262   1.948
  444SOL     H1 2220   0.010   0.266   1.950
  444SOL     H2 2221   0.131   0.325   1.881
  444SOL    EPW 2222   0.098   0.269   1.941
  445SOL      O 2223   0.153   1.511   2.134
  445SOL     H1 2224   0.076   1.553   2.172
  445SOL     H2 2225   0.148   1.532   2.041
  445SOL    EPW 2226   0.144   1.518   2.128
  446SOL      O 2227   1.360   1.577   2.303
  446SOL     H1 2228   1.440   1.578   2.250
  446SOL     H2 2229   1.289   1.572   2.239
  446SOL    EPW 2230   1.361   1.577   2.290
  447SOL      O 2231   1.708   0.863   3.977
  447SOL     H1 2232   1.754   0.794   4.025
  447SOL     H2 2233   1.634   0.886   4.033
  447SOL    EPW 2234   1.705   0.858   3.988
  448SOL      O 2235   3.467   3.946   0.033
  448SOL     H1 2236   3.563   3.942   0.031
  448SOL     H2 2237   3.448   4.040   0.027
  448SOL    EPW 2238   3.476   3.956   0.032
  449SOL      O 2239   4.552   4.678   0.240
  449SOL     H1 2240   4.567   4.590   0.276
  449SOL     H2 2241   4.545   4.664   0.146
  449SOL    EPW 2242   4.553   4.667   0.234
  450SOL      O 2243   3.756   3.395   0.039
  450SOL     H1 2244   3.770   3.489   0.053
  450SOL     H2 2245   0.783   0.451   4.106
  450SOL    EPW 2246   3.754   3.405   0.031
  451SOL      O 2247   3.282   3.467   0.010
  451SOL     H1 2248   0.389   0.606   4.135
  451SOL     H2 2249   3.313   3.455   0.100
  451SOL    EPW 2250   3.290   3.474   0.017
  452SOL      O 2251   3.564   3.244   0.173
  452SOL     H1 2252   3.635   3.304   0.152
  452SOL     H2 2253   3.516   3.234   0.091
  452SOL    EPW 2254   3.566   3.249   0.162
  453SOL      O 2255   3.745   4.095   0.268
  453SOL     H1 2256   3.830   4.128   0.294
  453SOL     H2 2257   3.741   4.006   0.304
  453SOL    EPW 2258   3.753   4.089   0.275
  454SOL      O 2259   1.314   1.190   3.880
  454SOL     H1 2260   1.231   1.238   3.887
  454SOL     H2 2261   1.376   1.255   3.848
  454SOL    EPW 2262   1.312   1.202   3.878
  455SOL      O 2263   0.854   1.266   4.112
  455SOL     H1 2264   3.824   4.265   0.023
  455SOL     H2 2265   3.773   4.124   0.004
  455SOL    EPW 2266   0.855   1.264   4.124
  456SOL      O 2267   0.495   0.311   4.093
  456SOL     H1 2268   0.454   0.253   4.029
  456SOL     H2 2269   0.434   0.384   4.102
  456SOL    EPW 2270   0.484   0.313   4.087
  457SOL      O 2271   3.139   4.128   0.061
  457SOL     H1 2272   3.065   4.175   0.023
  457SOL     H2 2273   0.220   1.120   4.154
  457SOL    EPW 2274   3.133   4.125   0.051
  458SOL      O 2275   0.931   1.709   3.884
  458SOL     H1 2276   0.930   1.701   3.979
  458SOL     H2 2277   0.843   1.684   3.857
  458SOL    EPW 2278   0.921   1.706   3.891
  459SOL      O 2279   1.807   0.509   3.868
  459SOL     H1 2280   1.715   0.489   3.887
  459SOL     H2 2281   1.841   0.544   3.951
  459SOL    EPW 2282   1.801   0.511   3.879
  460SOL      O 2283   4.556   4.048   0.154
  460SOL     H1 2284   4.478   4.082   0.197
  460SOL     H2 2285   4.521   3.992   0.084
  460SOL    EPW 2286   4.544   4.046   0.151
  461SOL      O 2287   4.096   3.551   0.058
  461SOL     H1 2288   1.177   0.629   4.122
  461SOL     H2 2289   4.077   3.457   0.062
  461SOL    EPW 2290   4.096   3.543   0.049
  462SOL      O 2291   1.766   1.314   4.002
  462SOL     H1 2292   1.741   1.328   4.093
  462SOL     H2 2293   1.835   1.378   3.985
  462SOL    EPW 2294   1.770   1.322   4.010
  463SOL      O 2295   3.337   4.645   0.273
  463SOL     H1 2296   3.346   4.739   0.263
  463SOL     H2 2297   3.298   4.615   0.191
  463SOL    EPW 2298   3.334   4.652   0.263
  464SOL      O 2299   4.763   2.995   0.295
  464SOL     H1 2300   4.704   3.059   0.334
  464SOL     H2 2301   4.710   2.916   0.286
  464SOL    EPW 2302   4.751   2.993   0.299
  465SOL      O 2303   0.167   1.745   3.982
  465SOL     H1 2304   0.228   1.818   3.966
  465SOL     H2 2305   0.108   1.747   3.906
  465SOL    EPW 2306   0.167   1.753   3.972
  466SOL      O 2307   1.554   1.587   3.906
  466SOL     H1 2308   1.604   1.663   3.938
  466SOL     H2 2309   1.469   1.622   3.880
  466SOL    EPW 2310   1.551   1.599   3.907
  467SOL      O 2311   0.940   0.724   3.913
  467SOL     H1 2312   0.925   0.663   3.841
  467SOL     H2 2313   1.035   0.724   3.924
  467SOL    EPW 2314   0.949   0.718   3.906
  468SOL      O 2315   4.526   3.545   0.004
  468SOL     H1 2316   4.584   3.509   0.072
  468SOL     H2 2317   4.458   3.591   0.054
  468SOL    EPW 2318   4.525   3.546   0.017
  469SOL      O 2319   4.739   3.459   0.178
  469SOL     H1 2320   4.830   3.444   0.202
  469SOL     H2 2321   4.696   3.485   0.259
  469SOL    EPW 2322   4.744   3.460   0.189
  470SOL      O 2323   3.159   3.126   0.228
  470SOL     H1 2324   3.153   3.105   0.135
  470SOL     H2 2325   3.111   3.056   0.272
  470SOL    EPW 2326   3.153   3.117   0.223
  471SOL      O 2327   1.074   1.318   3.938
  471SOL     H1 2328   1.000   1.291   3.992
  471SOL     H2 2329   1.035   1.365   3.865
  471SOL    EPW 2330   1.062   1.320   3.936
  472SOL      O 2331   0.570   1.641   4.117
  472SOL     H1 2332   0.478   1.622   4.138
  472SOL     H2 2333   3.553   4.573   0.046
  472SOL    EPW 2334   0.565   1.638   4.129
  473SOL      O 2335   0.672   1.113   3.782
  473SOL     H1 2336   0.591   1.067   3.802
  473SOL     H2 2337   0.671   1.190   3.839
  473SOL    EPW 2338   0.664   1.117   3.790
  474SOL      O 2339   1.315   1.685   3.825
  474SOL     H1 2340   1.256   1.643   3.888
  474SOL     H2 2341   1.329   1.773   3.861
  474SOL    EPW 2342   1.310   1.690   3.836
  475SOL      O 2343   1.501   1.353   3.765
  475SOL     H1 2344   1.446   1.408   3.709
  475SOL     H2 2345   1.536   1.413   3.831
  475SOL    EPW 2346   1.499   1.365   3.766
  476SOL      O 2347   0.659   0.235   3.807
  476SOL     H1 2348   0.586   0.182   3.840
  476SOL     H2 2349   0.736   0.180   3.818
  476SOL    EPW 2350   0.659   0.223   3.812
  477SOL      O 2351   3.114   3.810   0.079
  477SOL     H1 2352   3.184   3.812   0.143
  477SOL     H2 2353   3.092   3.717   0.070
  477SOL    EPW 2354   3.119   3.800   0.085
  478SOL      O 2355   3.031   4.444   0.191
  478SOL     H1 2356   3.011   4.505   0.262
  478SOL     H2 2357   3.045   4.360   0.235
  478SOL    EPW 2358   3.031   4.441   0.203
  479SOL      O 2359   3.909   4.378   0.132
  479SOL     H1 2360   4.002   4.356   0.138
  479SOL     H2 2361   3.887   4.412   0.219
  479SOL    EPW 2362   3.917   4.380   0.142
  480SOL      O 2363   0.699   1.603   3.790
  480SOL     H1 2364   0.643   1.673   3.822
  480SOL     H2 2365   0.677   1.527   3.844
  480SOL    EPW 2366   0.691   1.602   3.799
  481SOL      O 2367   1.122   0.201   4.002
  481SOL     H1 2368   1.055   0.181   3.937
  481SOL     H2 2369   1.173   0.272   3.963
  481SOL    EPW 2370   1.120   0.206   3.991
  482SOL      O 2371   3.983   3.664   0.367
  482SOL     H1 2372   3.995   3.578   0.327
  482SOL     H2 2373   4.029   3.724   0.309
  482SOL    EPW 2374   3.990   3.661   0.357
  483SOL      O 2375   3.234   4.554   0.037
  483SOL     H1 2376   0.252   1.672   4.130
  483SOL     H2 2377   3.163   4.509   0.083
  483SOL    EPW 2378   3.222   4.555   0.035
  484SOL      O 2379   3.736   3.919   0.002
  484SOL     H1 2380   0.831   0.989   4.069
  484SOL     H2 2381   3.772   3.836   0.034
  484SOL    EPW 2382   0.805   0.973   4.152
  485SOL      O 2383   4.277   4.736   0.244
  485SOL     H1 2384   4.251   4.736   0.337
  485SOL     H2 2385   4.366   4.701   0.244
  485SOL    EPW 2386   4.283   4.732   0.254
  486SOL      O 2387   3.068   4.195   0.316
  486SOL     H1 2388   3.153   4.215   0.355
  486SOL     H2 2389   3.089   4.160   0.229
  486SOL    EPW 2390   3.079   4.193   0.311
  487SOL      O 2391   1.270   0.405   3.889
  487SOL     H1 2392   1.239   0.496   3.881
  487SOL     H2 2393   1.363   0.414   3.909
  487SOL    EPW 2394   1.276   0.416   3.890
  488SOL      O 2395   0.924   0.135   3.829
  488SOL     H1 2396   0.930   0.173   3.741
  488SOL     H2 2397   0.928   0.041   3.814
  488SOL    EPW 2398   0.925   0.129   3.818
  489SOL      O 2399   1.492   0.944   4.126
  489SOL     H1 2400   1.426   1.013   4.128
  489SOL     H2 2401   4.395   3.814   0.027
  489SOL    EPW 2402   1.481   0.944   4.133
  490SOL      O 2403   0.434   0.960   3.813
  490SOL     H1 2404   0.368   0.981   3.879
  490SOL     H2 2405   0.457   0.868   3.830
  490SOL    EPW 2406   0.430   0.952   3.821
  491SOL      O 2407   1.128   0.954   4.071
  491SOL     H1 2408   1.058   0.992   4.018
  491SOL     H2 2409   1.183   1.029   4.094
  491SOL    EPW 2410   1.127   0.966   4.068
  492SOL      O 2411   3.750   3.052   0.250
  492SOL     H1 2412   3.680   3.117   0.241
  492SOL     H2 2413   3.705   2.973   0.281
  492SOL    EPW 2414   3.738   3.050   0.252
  493SOL      O 2415   3.398   4.206   0.030
  493SOL     H1 2416   3.445   4.239   0.106
  493SOL     H2 2417   3.308   4.192   0.060
  493SOL    EPW 2418   3.394   4.208   0.041
  494SOL      O 2419   0.554   0.645   3.855
  494SOL     H1 2420   0.534   0.684   3.940
  494SOL     H2 2421   0.614   0.573   3.876
  494SOL    EPW 2422   0.559   0.642   3.867
  495SOL      O 2423   1.534   0.491   3.919
  495SOL     H1 2424   1.496   0.563   3.869
  495SOL     H2 2425   1.549   0.527   4.006
  495SOL    EPW 2426   1.531   0.502   3.923
  496SOL      O 2427   3.410   3.049   0.293
  496SOL     H1 2428   3.467   3.119   0.260
  496SOL     H2 2429   3.321   3.081   0.278
  496SOL    EPW 2430   3.407   3.060   0.288
  497SOL      O 2431   1.206   0.714   3.963
  497SOL     H1 2432   1.278   0.720   3.900
  497SOL     H2 2433   1.198   0.803   3.998
  497SOL    EPW 2434   1.213   0.724   3.960
  498SOL      O 2435   3.335   3.831   0.243
  498SOL     H1 2436   3.381   3.888   0.181
  498SOL     H2 2437   3.324   3.886   0.321
  498SOL    EPW 2438   3.339   3.843   0.245
  499SOL      O 2439   4.428   3.148   0.160
  499SOL     H1 2440   4.355   3.154   0.221
  499SOL     H2 2441   4.503   3.181   0.209
  499SOL    EPW 2442   4.428   3.152   0.171
  500SOL      O 2443   4.016   3.114   0.269
  500SOL     H1 2444   4.019   3.182   0.201
  500SOL     H2 2445   3.922   3.102   0.287
  500SOL    EPW 2446   4.006   3.120   0.264
  501SOL      O 2447   0.980   1.482   3.741
  501SOL     H1 2448   0.978   1.562   3.793
  501SOL     H2 2449   0.890   1.471   3.711
  501SOL    EPW 2450   0.970   1.489   3.743
  502SOL      O 2451   3.027   3.557   0.039
  502SOL     H1 2452   2.992   3.540   0.126
  502SOL     H2 2453   3.110   3.509   0.037
  502SOL    EPW 2454   3.032   3.550   0.048
  503SOL      O 2455   4.183   4.314   0.148
  503SOL     H1 2456   4.187   4.336   0.241
  503SOL     H2 2457   4.251   4.368   0.107
  503SOL    EPW 2458   4.190   4.322   0.154
  504SOL      O 2459   1.358   0.061   3.907
  504SOL     H1 2460   1.430   0.102   3.955
  504SOL     H2 2461   1.280   0.081   3.958
  504SOL    EPW 2462   1.357   0.068   3.917
  505SOL      O 2463   4.323   3.682   0.130
  505SOL     H1 2464   4.249   3.624   0.110
  505SOL     H2 2465   4.345   3.662   0.221
  505SOL    EPW 2466   4.317   3.674   0.138
  506SOL      O 2467   0.749   0.461   3.924
  506SOL     H1 2468   0.825   0.470   3.868
  506SOL     H2 2469   0.709   0.379   3.898
  506SOL    EPW 2470   0.753   0.454   3.915
  507SOL      O 2471   0.231   1.000   4.003
  507SOL     H1 2472   0.143   1.021   3.973
  507SOL     H2 2473   0.217   0.942   4.077
  507SOL    EPW 2474   0.220   0.996   4.008
  508SOL      O 2475   0.668   1.351   3.916
  508SOL     H1 2476   0.720   1.336   3.995
  508SOL     H2 2477   0.580   1.368   3.948
  508SOL    EPW 2478   0.664   1.351   3.928
  509SOL      O 2479   1.182   1.557   4.024
  509SOL     H1 2480   1.142   1.471   4.006
  509SOL     H2 2481   1.114   1.604   4.072
  509SOL    EPW 2482   1.170   1.553   4.027
  510SOL      O 2483   4.007   3.294   0.065
  510SOL     H1 2484   1.086   0.299   4.145
  510SOL     H2 2485   3.916   3.321   0.055
  510SOL    EPW 2486   4.000   3.291   0.056
  511SOL      O 2487   0.186   0.117   4.121
  511SOL     H1 2488   0.257   0.130   4.058
  511SOL     H2 2489   0.185   0.022   4.136
  511SOL    EPW 2490   0.193   0.108   4.116
  512SOL      O 2491   4.695   4.306   0.121
  512SOL     H1 2492   4.698   4.214   0.146
  512SOL     H2 2493   4.781   4.340   0.147
  512SOL    EPW 2494   4.705   4.300   0.126
  513SOL      O 2495   1.306   1.144   4.152
  513SOL     H1 2496   4.222   4.155   0.056
  513SOL     H2 2497   1.316   1.186   4.067
  513SOL    EPW 2498   1.305   1.157   4.150
  514SOL      O 2499   0.860   0.039   4.147
  514SOL     H1 2500   3.786   3.013   0.079
  514SOL     H2 2501   0.934   0.089   4.111
  514SOL    EPW 2502   0.866   0.048   4.152
  515SOL      O 2503   4.742   3.882   0.266
  515SOL     H1 2504   4.808   3.878   0.196
  515SOL     H2 2505   4.675   3.941   0.232
  515SOL    EPW 2506   4.742   3.888   0.255
  516SOL      O 2507   0.505   0.746   4.106
  516SOL     H1 2508   0.495   0.841   4.115
  516SOL     H2 2509   3.497   3.659   0.026
  516SOL    EPW 2510   0.510   0.753   4.115
  517SOL      O 2511   3.100   3.386   0.277
  517SOL     H1 2512   3.183   3.427   0.299
  517SOL     H2 2513   3.121   3.294   0.264
  517SOL    EPW 2514   3.111   3.380   0.278
  518SOL      O 2515   1.681   1.817   3.961
  518SOL     H1 2516   1.775   1.808   3.978
  518SOL     H2 2517   1.652   1.883   4.024
  518SOL    EPW 2518   1.688   1.824   3.970
  519SOL      O 2519   5.854   1.088   3.927
  519SOL     H1 2520   0.015   1.140   3.856
  519SOL     H2 2521   5.760   1.084   3.906
  519SOL    EPW 2522   5.848   1.093   3.917
  520SOL      O 2523   0.583   1.824   3.911
  520SOL     H1 2524   0.502   1.875   3.914
  520SOL     H2 2525   0.582   1.772   3.991
  520SOL    EPW 2526   0.574   1.824   3.920
  521SOL      O 2527   1.397   0.680   3.772
  521SOL     H1 2528   1.344   0.658   3.696
  521SOL     H2 2529   1.466   0.737   3.738
  521SOL    EPW 2530   1.399   0.684   3.760
  522SOL      O 2531   3.533   4.279   0.252
  522SOL     H1 2532   3.609   4.222   0.264
  522SOL     H2 2533   3.569   4.368   0.250
  522SOL    EPW 2534   3.545   4.282   0.253
  523SOL      O 2535   0.897   0.997   3.906
  523SOL     H1 2536   0.896   0.903   3.887
  523SOL     H2 2537   0.823   1.032   3.856
  523SOL    EPW 2538   0.889   0.990   3.899
  524SOL      O 2539   1.563   0.170   4.054
  524SOL     H1 2540   1.525   0.184   4.140
  524SOL     H2 2541   1.640   0.226   4.052
  524SOL    EPW 2542   1.567   0.177   4.063
  525SOL      O 2543   3.837   3.658   0.031
  525SOL     H1 2544   0.902   0.719   4.091
  525SOL     H2 2545   3.927   3.639   0.058
  525SOL    EPW 2546   3.847   3.656   0.024
  526SOL      O 2547   0.972   1.679   4.154
  526SOL     H1 2548   3.915   4.690   0.061
  526SOL     H2 2549   3.898   4.540   0.052
  526SOL    EPW 2550   3.909   4.617   0.011
  527SOL      O 2551   0.375   0.139   3.915
  527SOL     H1 2552   0.311   0.164   3.849
  527SOL     H2 2553   0.382   0.044   3.909
  527SOL    EPW 2554   0.369   0.132   3.908
  528SOL      O 2555   0.148   0.203   3.769
  528SOL     H1 2556   0.112   0.243   3.848
  528SOL     H2 2557   0.147   0.273   3.703
  528SOL    EPW 2558   0.144   0.215   3.770
  529SOL      O 2559   0.137   1.474   3.946
  529SOL     H1 2560   0.147   1.563   3.980
  529SOL     H2 2561   0.135   1.484   3.851
  529SOL    EPW 2562   0.138   1.485   3.940
  530SOL      O 2563   1.421   1.522   4.150
  530SOL     H1 2564   1.485   1.531   4.080
  530SOL     H2 2565   1.338   1.547   4.110
  530SOL    EPW 2566   1.419   1.526   4.138
  531SOL      O 2567   1.694   2.783   0.282
  531SOL     H1 2568   1.729   2.694   0.278
  531SOL     H2 2569   1.601   2.773   0.260
  531SOL    EPW 2570   1.687   2.772   0.279
  532SOL      O 2571   1.609   2.632   1.247
  532SOL     H1 2572   1.567   2.690   1.311
  532SOL     H2 2573   1.699   2.662   1.243
  532SOL    EPW 2574   1.614   2.641   1.254
  533SOL      O 2575   0.527   2.864   0.473
  533SOL     H1 2576   0.620   2.863   0.495
  533SOL     H2 2577   0.509   2.954   0.446
  533SOL    EPW 2578   0.535   2.873   0.473
  534SOL      O 2579   1.672   3.549   0.680
  534SOL     H1 2580   1.664   3.517   0.770
  534SOL     H2 2581   1.687   3.470   0.628
  534SOL    EPW 2582   1.673   3.537   0.684
  535SOL      O 2583   1.086   3.494   1.606
  535SOL     H1 2584   1.064   3.527   1.519
  535SOL     H2 2585   1.129   3.410   1.590
  535SOL    EPW 2586   1.088   3.489   1.595
  536SOL      O 2587   1.613   3.075   1.197
  536SOL     H1 2588   1.534   3.022   1.206
  536SOL     H2 2589   1.599   3.126   1.117
  536SOL    EPW 2590   1.603   3.075   1.189
  537SOL      O 2591   0.779   2.354   0.454
  537SOL     H1 2592   0.797   2.448   0.457
  537SOL     H2 2593   0.763   2.337   0.361
  537SOL    EPW 2594   0.779   2.362   0.444
  538SOL      O 2595   0.282   2.368   0.445
  538SOL     H1 2596   0.337   2.444   0.428
  538SOL     H2 2597   0.280   2.361   0.540
  538SOL    EPW 2598   0.288   2.375   0.453
  539SOL      O 2599   0.335   2.773   1.303
  539SOL     H1 2600   0.370   2.714   1.236
  539SOL     H2 2601   0.351   2.860   1.268
  539SOL    EPW 2602   0.340   2.776   1.292
  540SOL      O 2603   0.610   2.173   0.581
  540SOL     H1 2604   0.672   2.240   0.553
  540SOL     H2 2605   0.555   2.158   0.504
  540SOL    EPW 2606   0.611   2.178   0.569
  541SOL      O 2607   0.719   3.091   0.711
  541SOL     H1 2608   0.795   3.142   0.740
  541SOL     H2 2609   0.752   3.039   0.638
  541SOL    EPW 2610   0.731   3.091   0.706
  542SOL      O 2611   0.747   3.341   1.616
  542SOL     H1 2612   0.820   3.338   1.678
  542SOL     H2 2613   0.785   3.311   1.534
  542SOL    EPW 2614   0.759   3.337   1.614
  543SOL      O 2615   0.534   2.568   0.695
  543SOL     H1 2616   0.512   2.492   0.748
  543SOL     H2 2617   0.628   2.580   0.707
  543SOL    EPW 2618   0.542   2.561   0.702
  544SOL      O 2619   0.854   3.250   1.384
  544SOL     H1 2620   0.832   3.310   1.312
  544SOL     H2 2621   0.805   3.170   1.365
  544SOL    EPW 2622   0.846   3.248   1.374
  545SOL      O 2623   0.690   2.414   1.057
  545SOL     H1 2624   0.625   2.403   0.988
  545SOL     H2 2625   0.718   2.324   1.078
  545SOL    EPW 2626   0.686   2.403   1.052
  546SOL      O 2627   0.427   2.815   0.947
  546SOL     H1 2628   0.384   2.836   0.863
  546SOL     H2 2629   0.398   2.884   1.006
  546SOL    EPW 2630   0.419   2.824   0.944
  547SOL      O 2631   0.090   3.641   0.832
  547SOL     H1 2632   0.135   3.642   0.748
  547SOL     H2 2633   0.111   3.556   0.870
  547SOL    EPW 2634   0.097   3.632   0.827
  548SOL      O 2635   1.353   3.061   0.211
  548SOL     H1 2636   1.262   3.091   0.200
  548SOL     H2 2637   1.404   3.119   0.156
  548SOL    EPW 2638   1.348   3.070   0.204
  549SOL      O 2639   0.358   3.185   0.861
  549SOL     H1 2640   0.296   3.254   0.886
  549SOL     H2 2641   0.400   3.218   0.782
  549SOL    EPW 2642   0.356   3.196   0.855
  550SOL      O 2643   0.931   2.836   0.736
  550SOL     H1 2644   0.855   2.827   0.794
  550SOL     H2 2645   0.977   2.753   0.745
  550SOL    EPW 2646   0.928   2.827   0.743
  551SOL      O 2647   0.348   3.487   1.462
  551SOL     H1 2648   0.271   3.476   1.405
  551SOL     H2 2649   0.375   3.397   1.481
  551SOL    EPW 2650   0.342   3.476   1.458
  552SOL      O 2651   0.955   3.126   0.423
  552SOL     H1 2652   0.951   3.197   0.487
  552SOL     H2 2653   0.892   3.062   0.455
  552SOL    EPW 2654   0.948   3.127   0.433
  553SOL      O 2655   1.765   2.144   0.865
  553SOL     H1 2656   1.708   2.106   0.932
  553SOL     H2 2657   1.787   2.071   0.808
  553SOL    EPW 2658   1.761   2.132   0.866
  554SOL      O 2659   0.428   2.136   0.379
  554SOL     H1 2660   0.432   2.116   0.286
  554SOL     H2 2661   0.382   2.220   0.383
  554SOL    EPW 2662   0.423   2.143   0.370
  555SOL      O 2663   0.248   3.041   0.330
  555SOL     H1 2664   0.155   3.064   0.333
  555SOL     H2 2665   0.248   2.949   0.303
  555SOL    EPW 2666   0.238   3.033   0.327
  556SOL      O 2667   0.870   3.537   0.142
  556SOL     H1 2668   0.873   3.525   0.236
  556SOL     H2 2669   0.779   3.516   0.118
  556SOL    EPW 2670   0.860   3.534   0.149
  557SOL      O 2671   1.792   2.306   0.139
  557SOL     H1 2672   1.697   2.312   0.145
  557SOL     H2 2673   1.824   2.379   0.191
  557SOL    EPW 2674   1.786   2.314   0.145
  558SOL      O 2675   1.589   2.968   0.510
  558SOL     H1 2676   1.603   3.005   0.597
  558SOL     H2 2677   1.495   2.979   0.493
  558SOL    EPW 2678   1.580   2.973   0.517
  559SOL      O 2679   1.459   2.580   1.573
  559SOL     H1 2680   1.515   2.512   1.535
  559SOL     H2 2681   1.370   2.554   1.550
  559SOL    EPW 2682   1.455   2.570   1.566
  560SOL      O 2683   0.189   3.497   1.139
  560SOL     H1 2684   0.133   3.463   1.209
  560SOL     H2 2685   0.166   3.590   1.134
  560SOL    EPW 2686   0.181   3.503   1.146
  561SOL      O 2687   1.131   2.989   1.567
  561SOL     H1 2688   1.131   3.083   1.547
  561SOL     H2 2689   1.195   2.980   1.638
  561SOL    EPW 2690   1.138   2.998   1.573
  562SOL      O 2691   0.917   2.372   1.768
  562SOL     H1 2692   0.996   2.341   1.725
  562SOL     H2 2693   0.849   2.310   1.740
  562SOL    EPW 2694   0.918   2.362   1.761
  563SOL      O 2695   1.581   2.870   0.871
  563SOL     H1 2696   1.578   2.790   0.818
  563SOL     H2 2697   1.657   2.858   0.928
  563SOL    EPW 2698   1.589   2.860   0.872
  564SOL      O 2699   1.139   2.526   0.486
  564SOL     H1 2700   1.156   2.546   0.394
  564SOL     H2 2701   1.113   2.434   0.487
  564SOL    EPW 2702   1.138   2.519   0.477
  565SOL      O 2703   1.766   3.116   0.355
  565SOL     H1 2704   1.743   3.187   0.415
  565SOL     H2 2705   1.814   3.159   0.285
  565SOL    EPW 2706   1.769   3.128   0.354
  566SOL      O 2707   0.729   2.189   1.681
  566SOL     H1 2708   0.735   2.114   1.622
  566SOL     H2 2709   0.724   2.150   1.768
  566SOL    EPW 2710   0.729   2.177   1.684
  567SOL      O 2711   0.486   3.552   0.653
  567SOL     H1 2712   0.495   3.647   0.661
  567SOL     H2 2713   0.397   3.540   0.619
  567SOL    EPW 2714   0.477   3.561   0.650
  568SOL      O 2715   1.834   1.925   0.724
  568SOL     H1 2716   1.895   1.886   0.787
  568SOL     H2 2717   1.771   1.855   0.706
  568SOL    EPW 2718   1.834   1.913   0.729
  569SOL      O 2719   0.170   3.605   0.199
  569SOL     H1 2720   0.211   3.664   0.136
  569SOL     H2 2721   0.076   3.619   0.188
  569SOL    EPW 2722   0.164   3.613   0.191
  570SOL      O 2723   0.942   1.917   1.060
  570SOL     H1 2724   0.907   2.005   1.047
  570SOL     H2 2725   1.037   1.928   1.062
  570SOL    EPW 2726   0.948   1.927   1.059
  571SOL      O 2727   1.510   3.473   0.216
  571SOL     H1 2728   1.586   3.531   0.217
  571SOL     H2 2729   1.444   3.519   0.164
  571SOL    EPW 2730   1.511   3.484   0.211
  572SOL      O 2731   0.984   2.469   0.091
  572SOL     H1 2732   1.036   2.426   0.023
  572SOL     H2 2733   1.049   2.504   0.152
  572SOL    EPW 2734   0.997   2.468   0.091
  573SOL      O 2735   1.608   2.432   0.478
  573SOL     H1 2736   1.656   2.415   0.559
  573SOL     H2 2737   1.541   2.495   0.502
  573SOL    EPW 2738   1.606   2.437   0.489
  574SOL      O 2739   0.885   2.866   1.572
  574SOL     H1 2740   0.850   2.856   1.660
  574SOL     H2 2741   0.969   2.911   1.584
  574SOL    EPW 2742   0.890   2.870   1.582
  575SOL      O 2743   0.943   1.944   1.330
  575SOL     H1 2744   0.936   1.927   1.237
  575SOL     H2 2745   0.956   2.039   1.337
  575SOL    EPW 2746   0.944   1.952   1.321
  576SOL      O 2747   1.045   2.372   1.144
  576SOL     H1 2748   1.134   2.387   1.177
  576SOL     H2 2749   1.006   2.459   1.141
  576SOL    EPW 2750   1.051   2.383   1.147
  577SOL      O 2751   1.635   2.416   1.432
  577SOL     H1 2752   1.587   2.339   1.403
  577SOL     H2 2753   1.635   2.474   1.356
  577SOL    EPW 2754   1.630   2.414   1.421
  578SOL      O 2755   1.715   3.531   1.353
  578SOL     H1 2756   1.658   3.502   1.424
  578SOL     H2 2757   1.752   3.613   1.385
  578SOL    EPW 2758   1.713   3.537   1.364
  579SOL      O 2759   1.068   2.180   1.600
  579SOL     H1 2760   1.027   2.190   1.514
  579SOL     H2 2761   1.051   2.089   1.624
  579SOL    EPW 2762   1.062   2.171   1.593
  580SOL      O 2763   1.503   3.019   1.602
  580SOL     H1 2764   1.572   3.069   1.645
  580SOL     H2 2765   1.453   2.981   1.674
  580SOL    EPW 2766   1.505   3.020   1.614
  581SOL      O 2767   1.780   2.359   0.692
  581SOL     H1 2768   1.869   2.336   0.665
  581SOL     H2 2769   1.752   2.287   0.748
  581SOL    EPW 2770   1.786   2.349   0.695
  582SOL      O 2771   0.171   2.056   0.664
  582SOL     H1 2772   0.184   2.030   0.572
  582SOL     H2 2773   0.077   2.069   0.672
  582SOL    EPW 2774   0.163   2.054   0.655
  583SOL      O 2775   1.104   3.172   0.206
  583SOL     H1 2776   1.048   3.156   0.283
  583SOL     H2 2777   1.048   3.151   0.131
  583SOL    EPW 2778   1.092   3.168   0.207
  584SOL      O 2779   0.105   2.276   1.081
  584SOL     H1 2780   0.111   2.369   1.105
  584SOL     H2 2781   0.016   2.266   1.047
  584SOL    EPW 2782   0.096   2.285   1.080
  585SOL      O 2783   0.560   3.547   0.374
  585SOL     H1 2784   0.485   3.488   0.381
  585SOL     H2 2785   0.584   3.566   0.464
  585SOL    EPW 2786   0.555   3.542   0.384
  586SOL      O 2787   1.701   3.147   1.730
  586SOL     H1 2788   1.736   3.063   1.757
  586SOL     H2 2789   1.648   3.177   1.804
  586SOL    EPW 2790   1.699   3.142   1.741
  587SOL      O 2791   0.672   3.004   0.072
  587SOL     H1 2792   0.602   2.939   0.076
  587SOL     H2 2793   0.634   3.082   0.112
  587SOL    EPW 2794   0.660   3.005   0.077
  588SOL      O 2795   1.856   2.750   1.272
  588SOL     H1 2796   1.869   2.833   1.226
  588SOL     H2 2797   1.865   2.772   1.365
  588SOL    EPW 2798   1.858   2.761   1.277
  589SOL      O 2799   1.652   3.455   0.937
  589SOL     H1 2800   1.610   3.505   1.007
  589SOL     H2 2801   1.622   3.365   0.949
  589SOL    EPW 2802   1.645   3.450   0.945
  590SOL      O 2803   1.303   3.580   0.061
  590SOL     H1 2804   1.246   3.530   0.121
  590SOL     H2 2805   1.316   3.664   0.105
  590SOL    EPW 2806   1.298   3.583   0.072
  591SOL      O 2807   0.205   2.522   1.173
  591SOL     H1 2808   0.215   2.505   1.266
  591SOL     H2 2809   0.150   2.600   1.168
  591SOL    EPW 2810   0.200   2.528   1.182
  592SOL      O 2811   1.463   3.253   0.050
  592SOL     H1 2812   1.375   3.271   0.016
  592SOL     H2 2813   1.482   3.327   0.107
  592SOL    EPW 2814   1.455   3.262   0.052
  593SOL      O 2815   0.721   2.038   0.092
  593SOL     H1 2816   0.669   1.959   0.104
  593SOL     H2 2817   0.812   2.007   0.097
  593SOL    EPW 2818   0.725   2.026   0.094
  594SOL      O 2819   0.178   3.686   1.588
  594SOL     H1 2820   0.202   3.739   1.512
  594SOL     H2 2821   0.221   3.602   1.574
  594SOL    EPW 2822   0.185   3.683   1.578
  595SOL      O 2823   0.358   3.001   1.150
  595SOL     H1 2824   0.426   3.065   1.173
  595SOL     H2 2825   0.276   3.049   1.160
  595SOL    EPW 2826   0.357   3.013   1.154
  596SOL      O 2827   0.799   2.863   1.139
  596SOL     H1 2828   0.828   2.772   1.142
  596SOL     H2 2829   0.757   2.872   1.054
  596SOL    EPW 2830   0.798   2.855   1.130
  597SOL      O 2831   0.131   2.754   0.497
  597SOL     H1 2832   0.199   2.758   0.565
  597SOL     H2 2833   0.099   2.664   0.501
  597SOL    EPW 2834   0.135   2.745   0.505
  598SOL      O 2835   0.381   2.425   1.800
  598SOL     H1 2836   0.315   2.494   1.798
  598SOL     H2 2837   0.436   2.446   1.875
  598SOL    EPW 2838   0.380   2.434   1.808
  599SOL      O 2839   0.742   1.969   1.517
  599SOL     H1 2840   0.697   1.885   1.531
  599SOL     H2 2841   0.818   1.946   1.463
  599SOL    EPW 2842   0.745   1.957   1.513
  600SOL      O 2843   0.455   2.436   1.535
  600SOL     H1 2844   0.527   2.499   1.537
  600SOL     H2 2845   0.436   2.419   1.628
  600SOL    EPW 2846   0.461   2.441   1.545
  601SOL      O 2847   0.799   3.631   0.895
  601SOL     H1 2848   0.865   3.682   0.943
  601SOL     H2 2849   0.797   3.671   0.808
  601SOL    EPW 2850   0.806   3.641   0.891
  602SOL      O 2851   1.333   2.006   1.803
  602SOL     H1 2852   1.409   1.953   1.826
  602SOL     H2 2853   1.320   2.064   1.878
  602SOL    EPW 2854   1.340   2.007   1.813
  603SOL      O 2855   0.184   3.289   0.626
  603SOL     H1 2856   0.162   3.329   0.710
  603SOL     H2 2857   0.171   3.196   0.640
  603SOL    EPW 2858   0.180   3.284   0.637
  604SOL      O 2859   0.969   3.330   0.606
  604SOL     H1 2860   1.059   3.305   0.630
  604SOL     H2 2861   0.925   3.344   0.689
  604SOL    EPW 2862   0.974   3.329   0.617
  605SOL      O 2863   1.820   2.539   0.891
  605SOL     H1 2864   1.913   2.556   0.902
  605SOL     H2 2865   1.815   2.469   0.826
  605SOL    EPW 2866   1.829   2.534   0.885
  606SOL      O 2867   1.621   2.700   1.861
  606SOL     H1 2868   1.682   2.634   1.828
  606SOL     H2 2869   1.647   2.713   1.952
  606SOL    EPW 2870   1.630   2.694   1.867
  607SOL      O 2871   0.620   3.468   0.038
  607SOL     H1 2872   0.583   3.546   0.078
  607SOL     H2 2873   0.593   3.397   0.096
  607SOL    EPW 2874   0.613   3.468   0.049
  608SOL      O 2875   1.108   2.074   0.304
  608SOL     H1 2876   1.058   2.030   0.236
  608SOL     H2 2877   1.159   2.141   0.258
  608SOL    EPW 2878   1.108   2.076   0.292
  609SOL      O 2879   0.950   2.218   1.353
  609SOL     H1 2880   0.879   2.272   1.386
  609SOL     H2 2881   0.987   2.268   1.279
  609SOL    EPW 2882   0.947   2.229   1.348
  610SOL      O 2883   1.258   2.630   0.961
  610SOL     H1 2884   1.268   2.725   0.963
  610SOL     H2 2885   1.194   2.614   0.892
  610SOL    EPW 2886   1.252   2.639   0.954
  611SOL      O 2887   0.693   2.872   0.885
  611SOL     H1 2888   0.603   2.847   0.904
  611SOL     H2 2889   0.687   2.956   0.841
  611SOL    EPW 2890   0.683   2.878   0.882
  612SOL      O 2891   1.469   2.436   0.784
  612SOL     H1 2892   1.428   2.351   0.767
  612SOL     H2 2893   1.468   2.445   0.879
  612SOL    EPW 2894   1.464   2.428   0.792
  613SOL      O 2895   0.388   2.082   1.551
  613SOL     H1 2896   0.323   2.124   1.609
  613SOL     H2 2897   0.422   2.154   1.499
  613SOL    EPW 2898   0.384   2.095   1.552
  614SOL      O 2899   1.074   2.605   0.753
  614SOL     H1 2900   0.998   2.552   0.779
  614SOL     H2 2901   1.096   2.573   0.665
  614SOL    EPW 2902   1.068   2.596   0.746
  615SOL      O 2903   0.337   3.390   0.417
  615SOL     H1 2904   0.271   3.372   0.350
  615SOL     H2 2905   0.299   3.357   0.498
  615SOL    EPW 2906   0.326   3.385   0.418
  616SOL      O 2907   0.799   2.917   0.509
  616SOL     H1 2908   0.821   2.877   0.425
  616SOL     H2 2909   0.852   2.870   0.573
  616SOL    EPW 2910   0.807   2.908   0.507
  617SOL      O 2911   1.298   3.474   1.231
  617SOL     H1 2912   1.218   3.513   1.267
  617SOL     H2 2913   1.274   3.383   1.215
  617SOL    EPW 2914   1.287   3.468   1.233
  618SOL      O 2915   1.412   3.627   0.681
  618SOL     H1 2916   1.372   3.589   0.603
  618SOL     H2 2917   1.504   3.605   0.675
  618SOL    EPW 2918   1.417   3.621   0.672
  619SOL      O 2919   1.359   2.185   0.742
  619SOL     H1 2920   1.386   2.112   0.798
  619SOL     H2 2921   1.266   2.171   0.726
  619SOL    EPW 2922   1.352   2.176   0.746
  620SOL      O 2923   0.175   3.020   0.737
  620SOL     H1 2924   0.237   3.069   0.791
  620SOL     H2 2925   0.228   2.952   0.695
  620SOL    EPW 2926   0.187   3.018   0.738
  621SOL      O 2927   0.597   3.130   1.707
  621SOL     H1 2928   0.654   3.203   1.683
  621SOL     H2 2929   0.637   3.094   1.787
  621SOL    EPW 2930   0.607   3.134   1.713
  622SOL      O 2931   0.263   3.461   1.830
  622SOL     H1 2932   0.311   3.378   1.829
  622SOL     H2 2933   0.198   3.451   1.760
  622SOL    EPW 2934   0.261   3.451   1.822
  623SOL      O 2935   1.248   2.257   0.164
  623SOL     H1 2936   1.229   2.274   0.072
  623SOL     H2 2937   1.342   2.274   0.173
  623SOL    EPW 2938   1.256   2.261   0.155
  624SOL      O 2939   0.976   1.935   0.112
  624SOL     H1 2940   1.019   1.916   0.028
  624SOL     H2 2941   0.962   1.849   0.152
  624SOL    EPW 2942   0.979   1.923   0.107
  625SOL      O 2943   1.430   2.792   0.257
  625SOL     H1 2944   1.386   2.873   0.234
  625SOL     H2 2945   1.381   2.757   0.330
  625SOL    EPW 2946   1.420   2.797   0.262
  626SOL      O 2947   1.118   3.242   1.467
  626SOL     H1 2948   1.026   3.249   1.440
  626SOL     H2 2949   1.167   3.249   1.385
  626SOL    EPW 2950   1.113   3.244   1.455
  627SOL      O 2951   0.427   1.929   1.782
  627SOL     H1 2952   0.350   1.877   1.759
  627SOL     H2 2953   0.443   1.983   1.705
  627SOL    EPW 2954   0.420   1.929   1.772
  628SOL      O 2955   0.453   3.444   1.124
  628SOL     H1 2956   0.500   3.512   1.173
  628SOL     H2 2957   0.360   3.464   1.138
  628SOL    EPW 2958   0.448   3.453   1.131
  629SOL      O 2959   1.857   2.892   1.513
  629SOL     H1 2960   1.778   2.936   1.482
  629SOL     H2 2961   1.845   2.882   1.607
  629SOL    EPW 2962   1.848   2.896   1.520
  630SOL      O 2963   0.825   3.466   1.203
  630SOL     H1 2964   0.832   3.461   1.108
  630SOL     H2 2965   0.749   3.524   1.218
  630SOL    EPW 2966   0.818   3.472   1.194
  631SOL      O 2967   0.464   2.822   0.072
  631SOL     H1 2968   0.395   2.812   0.138
  631SOL     H2 2969   3.373   5.710   4.153
  631SOL    EPW 2970   0.454   2.816   0.071
  632SOL      O 2971   1.136   2.848   0.346
  632SOL     H1 2972   1.057   2.893   0.319
  632SOL     H2 2973   1.178   2.908   0.408
  632SOL    EPW 2974   1.132   2.859   0.350
  633SOL      O 2975   0.621   3.211   0.972
  633SOL     H1 2976   0.609   3.204   1.067
  633SOL     H2 2977   0.533   3.199   0.937
  633SOL    EPW 2978   0.610   3.209   0.979
  634SOL      O 2979   1.461   2.210   1.366
  634SOL     H1 2980   1.422   2.201   1.453
  634SOL     H2 2981   1.456   2.122   1.328
  634SOL    EPW 2982   1.456   2.199   1.371
  635SOL      O 2983   1.809   2.062   1.236
  635SOL     H1 2984   1.829   2.152   1.213
  635SOL     H2 2985   1.884   2.012   1.205
  635SOL    EPW 2986   1.819   2.066   1.231
  636SOL      O 2987   0.086   3.390   1.633
  636SOL     H1 2988   0.091   3.303   1.671
  636SOL     H2 2989   0.005   3.427   1.669
  636SOL    EPW 2990   0.078   3.385   1.641
  637SOL      O 2991   0.775   1.951   0.667
  637SOL     H1 2992   0.725   2.026   0.634
  637SOL     H2 2993   0.852   1.946   0.610
  637SOL    EPW 2994   0.778   1.958   0.658
  638SOL      O 2995   0.494   3.126   0.412
  638SOL     H1 2996   0.495   3.184   0.488
  638SOL     H2 2997   0.401   3.115   0.392
  638SOL    EPW 2998   0.484   3.131   0.418
  639SOL      O 2999   1.048   3.570   1.339
  639SOL     H1 3000   0.976   3.528   1.293
  639SOL     H2 3001   1.028   3.663   1.336
  639SOL    EPW 3002   1.038   3.575   1.334
  640SOL      O 3003   1.279   3.522   0.904
  640SOL     H1 3004   1.317   3.569   0.830
  640SOL     H2 3005   1.262   3.590   0.969
  640SOL    EPW 3006   1.281   3.535   0.903
  641SOL      O 3007   1.537   3.584   1.155
  641SOL     H1 3008   1.597   3.556   1.224
  641SOL     H2 3009   1.454   3.541   1.177
  641SOL    EPW 3010   1.535   3.577   1.165
  642SOL      O 3011   0.749   2.602   1.822
  642SOL     H1 3012   0.808   2.527   1.809
  642SOL     H2 3013   0.682   2.570   1.883
  642SOL    EPW 3014   0.748   2.590   1.827
  643SOL      O 3015   1.513   2.806   1.437
  643SOL     H1 3016   1.511   2.880   1.498
  643SOL     H2 3017   1.491   2.730   1.492
  643SOL    EPW 3018   1.510   2.805   1.449
  644SOL      O 3019   1.090   1.915   1.712
  644SOL     H1 3020   1.095   1.824   1.683
  644SOL     H2 3021   1.180   1.936   1.739
  644SOL    EPW 3022   1.100   1.907   1.712
  645SOL      O 3023   0.525   2.487   0.181
  645SOL     H1 3024   0.521   2.519   0.271
  645SOL     H2 3025   0.599   2.427   0.180
  645SOL    EPW 3026   0.532   2.484   0.190
  646SOL      O 3027   1.573   3.198   0.956
  646SOL     H1 3028   1.610   3.157   0.878
  646SOL     H2 3029   1.482   3.214   0.934
  646SOL    EPW 3030   1.567   3.195   0.945
  647SOL      O 3031   1.123   2.871   1.318
  647SOL     H1 3032   1.124   2.916   1.402
  647SOL     H2 3033   1.074   2.930   1.260
  647SOL    EPW 3034   1.118   2.882   1.321
  648SOL      O 3035   1.519   2.339   0.187
  648SOL     H1 3036   1.482   2.413   0.139
  648SOL     H2 3037   1.524   2.370   0.278
  648SOL    EPW 3038   1.515   2.350   0.192
  649SOL      O 3039   0.446   1.975   0.686
  649SOL     H1 3040   0.497   2.046   0.647
  649SOL     H2 3041   0.357   2.010   0.693
  649SOL    EPW 3042   0.442   1.986   0.683
  650SOL      O 3043   0.208   3.044   1.497
  650SOL     H1 3044   0.243   2.979   1.558
  650SOL     H2 3045   0.113   3.043   1.511
  650SOL    EPW 3046   0.202   3.037   1.505
  651SOL      O 3047   0.750   2.368   1.460
  651SOL     H1 3048   0.737   2.459   1.487
  651SOL     H2 3049   0.726   2.317   1.537
  651SOL    EPW 3050   0.746   2.372   1.471
  652SOL      O 3051   1.185   2.601   0.231
  652SOL     H1 3052   1.262   2.602   0.173
  652SOL     H2 3053   1.169   2.693   0.250
  652SOL    EPW 3054   1.191   2.611   0.226
  653SOL      O 3055   0.350   2.797   0.672
  653SOL     H1 3056   0.411   2.831   0.606
  653SOL     H2 3057   0.385   2.711   0.695
  653SOL    EPW 3058   0.360   2.792   0.667
  654SOL      O 3059   1.477   2.189   0.495
  654SOL     H1 3060   1.435   2.179   0.580
  654SOL     H2 3061   1.524   2.272   0.501
  654SOL    EPW 3062   1.477   2.197   0.505
  655SOL      O 3063   1.098   2.125   0.704
  655SOL     H1 3064   1.071   2.185   0.634
  655SOL     H2 3065   1.051   2.156   0.781
  655SOL    EPW 3066   1.090   2.135   0.705
  656SOL      O 3067   3.893   0.443   4.085
  656SOL     H1 3068   0.932   3.435   0.005
  656SOL     H2 3069   3.878   0.353   4.113
  656SOL    EPW 3070   3.889   0.439   4.096
  657SOL      O 3071   1.794   2.897   1.782
  657SOL     H1 3072   1.727   2.831   1.800
  657SOL     H2 3073   1.827   2.922   1.868
  657SOL    EPW 3074   1.790   2.893   1.793
  658SOL      O 3075   0.132   3.369   0.903
  658SOL     H1 3076   0.155   3.406   0.988
  658SOL     H2 3077   0.040   3.342   0.912
  658SOL    EPW 3078   0.125   3.370   0.913
  659SOL      O 3079   0.040   2.505   0.486
  659SOL     H1 3080   5.868   2.461   0.556
  659SOL     H2 3081   0.117   2.450   0.473
  659SOL    EPW 3082   0.043   2.494   0.492
  660SOL      O 3083   1.585   3.736   1.828
  660SOL     H1 3084   1.620   3.650   1.806
  660SOL     H2 3085   1.620   3.755   1.915
  660SOL    EPW 3086   1.592   3.729   1.835
  661SOL      O 3087   1.241   3.249   0.622
  661SOL     H1 3088   1.268   3.252   0.714
  661SOL     H2 3089   1.287   3.322   0.581
  661SOL    EPW 3090   1.249   3.257   0.627
  662SOL      O 3091   0.435   2.227   1.300
  662SOL     H1 3092   0.473   2.312   1.326
  662SOL     H2 3093   0.423   2.235   1.205
  662SOL    EPW 3094   0.438   2.237   1.293
  663SOL      O 3095   0.367   2.210   1.028
  663SOL     H1 3096   0.360   2.118   1.001
  663SOL     H2 3097   0.276   2.238   1.039
  663SOL    EPW 3098   0.356   2.203   1.026
  664SOL      O 3099   1.248   2.400   1.756
  664SOL     H1 3100   1.290   2.328   1.709
  664SOL     H2 3101   1.213   2.457   1.687
  664SOL    EPW 3102   1.249   2.399   1.744
  665SOL      O 3103   1.336   2.193   1.606
  665SOL     H1 3104   1.242   2.190   1.590
  665SOL     H2 3105   1.352   2.123   1.669
  665SOL    EPW 3106   1.328   2.185   1.611
  666SOL      O 3107   0.581   1.983   0.927
  666SOL     H1 3108   0.635   1.904   0.922
  666SOL     H2 3109   0.525   1.978   0.850
  666SOL    EPW 3110   0.581   1.974   0.918
  667SOL      O 3111   0.621   3.580   1.529
  667SOL     H1 3112   0.528   3.561   1.540
  667SOL     H2 3113   0.666   3.505   1.567
  667SOL    EPW 3114   0.616   3.570   1.534
  668SOL      O 3115   1.738   2.377   1.102
  668SOL     H1 3116   1.642   2.372   1.097
  668SOL     H2 3117   1.763   2.442   1.036
  668SOL    EPW 3118   1.730   2.383   1.095
  669SOL      O 3119   1.879   2.992   1.150
  669SOL     H1 3120   1.866   2.950   1.065
  669SOL     H2 3121   1.793   3.029   1.171
  669SOL    EPW 3122   1.869   2.991   1.143
  670SOL      O 3123   1.323   2.896   0.970
  670SOL     H1 3124   1.339   2.906   1.064
  670SOL     H2 3125   1.411   2.893   0.932
  670SOL    EPW 3126   1.334   2.897   0.976
  671SOL      O 3127   1.294   2.399   1.260
  671SOL     H1 3128   1.349   2.432   1.189
  671SOL     H2 3129   1.343   2.324   1.295
  671SOL    EPW 3130   1.305   2.394   1.256
  672SOL      O 3131   1.824   2.523   1.805
  672SOL     H1 3132   1.828   2.458   1.875
  672SOL     H2 3133   1.831   2.472   1.724
  672SOL    EPW 3134   1.825   2.511   1.804
  673SOL      O 3135   1.381   2.900   1.813
  673SOL     H1 3136   1.436   2.826   1.837
  673SOL     H2 3137   1.358   2.943   1.896
  673SOL    EPW 3138   1.384   2.897   1.824
  674SOL      O 3139   1.328   1.930   0.196
  674SOL     H1 3140   1.409   1.972   0.226
  674SOL     H2 3141   1.259   1.972   0.248
  674SOL    EPW 3142   1.329   1.939   0.205
  675SOL      O 3143   1.401   2.621   0.508
  675SOL     H1 3144   1.315   2.580   0.504
  675SOL     H2 3145   1.404   2.663   0.594
  675SOL    EPW 3146   1.392   2.621   0.517
  676SOL      O 3147   0.523   3.206   1.232
  676SOL     H1 3148   0.499   3.209   1.325
  676SOL     H2 3149   0.494   3.291   1.198
  676SOL    EPW 3150   0.517   3.215   1.238
  677SOL      O 3151   0.754   2.139   1.064
  677SOL     H1 3152   0.728   2.110   1.151
  677SOL     H2 3153   0.691   2.097   1.005
  677SOL    EPW 3154   0.745   2.131   1.067
  678SOL      O 3155   0.601   3.627   1.262
  678SOL     H1 3156   0.607   3.722   1.255
  678SOL     H2 3157   0.610   3.609   1.356
  678SOL    EPW 3158   0.603   3.635   1.271
  679SOL      O 3159   1.522   3.224   1.420
  679SOL     H1 3160   1.499   3.152   1.478
  679SOL     H2 3161   1.563   3.182   1.344
  679SOL    EPW 3162   1.524   3.212   1.418
  680SOL      O 3163   0.557   2.894   1.565
  680SOL     H1 3164   0.595   2.922   1.481
  680SOL     H2 3165   0.575   2.967   1.624
  680SOL    EPW 3166   0.563   2.905   1.562
  681SOL      O 3167   0.737   2.992   1.375
  681SOL     H1 3168   0.794   2.948   1.439
  681SOL     H2 3169   0.750   2.945   1.293
  681SOL    EPW 3170   0.745   2.983   1.373
  682SOL      O 3171   0.748   2.318   0.185
  682SOL     H1 3172   0.824   2.356   0.141
  682SOL     H2 3173   0.742   2.229   0.149
  682SOL    EPW 3174   0.756   2.312   0.176
  683SOL      O 3175   1.552   3.457   1.560
  683SOL     H1 3176   1.612   3.440   1.632
  683SOL     H2 3177   1.540   3.372   1.517
  683SOL    EPW 3178   1.557   3.446   1.563
  684SOL      O 3179   1.213   1.950   1.096
  684SOL     H1 3180   1.274   1.956   1.023
  684SOL     H2 3181   1.269   1.949   1.174
  684SOL    EPW 3182   1.225   1.950   1.097
  685SOL      O 3183   0.218   2.778   0.240
  685SOL     H1 3184   0.133   2.797   0.200
  685SOL     H2 3185   0.198   2.759   0.332
  685SOL    EPW 3186   0.207   2.778   0.246
  686SOL      O 3187   0.547   3.232   0.163
  686SOL     H1 3188   0.540   3.212   0.256
  686SOL     H2 3189   0.459   3.216   0.129
  686SOL    EPW 3190   0.537   3.228   0.169
  687SOL      O 3191   1.166   3.437   0.255
  687SOL     H1 3192   1.144   3.346   0.234
  687SOL     H2 3193   1.090   3.469   0.302
  687SOL    EPW 3194   1.156   3.430   0.258
  688SOL      O 3195   0.398   3.602   0.908
  688SOL     H1 3196   0.431   3.540   0.974
  688SOL     H2 3197   0.433   3.570   0.825
  688SOL    EPW 3198   0.405   3.592   0.907
  689SOL      O 3199   1.010   3.038   1.133
  689SOL     H1 3200   0.928   2.991   1.137
  689SOL     H2 3201   1.034   3.037   1.040
  689SOL    EPW 3202   1.004   3.033   1.123
  690SOL      O 3203   0.075   3.387   1.364
  690SOL     H1 3204   0.088   3.385   1.459
  690SOL     H2 3205   5.857   3.392   1.352
  690SOL    EPW 3206   0.067   3.387   1.373
  691SOL      O 3207   0.966   2.234   0.919
  691SOL     H1 3208   0.886   2.200   0.959
  691SOL     H2 3209   1.012   2.278   0.990
  691SOL    EPW 3210   0.963   2.235   0.931
  692SOL      O 3211   0.654   2.624   1.566
  692SOL     H1 3212   0.623   2.714   1.557
  692SOL     H2 3213   0.686   2.618   1.656
  692SOL    EPW 3214   0.654   2.633   1.575
  693SOL      O 3215   0.356   3.197   1.824
  693SOL     H1 3216   0.442   3.172   1.791
  693SOL     H2 3217   0.361   3.183   1.918
  693SOL    EPW 3218   0.366   3.193   1.830
  694SOL      O 3219   1.423   1.941   1.304
  694SOL     H1 3220   1.462   1.872   1.250
  694SOL     H2 3221   1.449   1.920   1.393
  694SOL    EPW 3222   1.430   1.932   1.307
  695SOL      O 3223   1.705   3.494   1.793
  695SOL     H1 3224   1.668   3.469   1.878
  695SOL     H2 3225   1.786   3.539   1.814
  695SOL    EPW 3226   1.709   3.496   1.805
  696SOL      O 3227   0.540   2.329   0.841
  696SOL     H1 3228   0.556   2.266   0.770
  696SOL     H2 3229   0.473   2.287   0.895
  696SOL    EPW 3230   0.535   2.318   0.839
  697SOL      O 3231   0.040   3.688   1.942
  697SOL     H1 3232   5.872   3.669   1.860
  697SOL     H2 3233   0.048   3.783   1.944
  697SOL    EPW 3234   0.036   3.696   1.934
  698SOL      O 3235   0.813   3.357   0.835
  698SOL     H1 3236   0.746   3.312   0.886
  698SOL     H2 3237   0.801   3.450   0.855
  698SOL    EPW 3238   0.805   3.362   0.842
  699SOL      O 3239   1.036   2.275   0.486
  699SOL     H1 3240   1.055   2.209   0.420
  699SOL     H2 3241   0.943   2.295   0.474
  699SOL    EPW 3242   1.029   2.270   0.478
  700SOL      O 3243   0.225   1.952   0.402
  700SOL     H1 3244   0.301   2.010   0.394
  700SOL     H2 3245   0.221   1.907   0.318
  700SOL    EPW 3246   0.233   1.954   0.392
  701SOL      O 3247   0.060   2.338   1.531
  701SOL     H1 3248   0.079   2.428   1.507
  701SOL     H2 3249   0.092   2.286   1.457
  701SOL    EPW 3250   0.066   2.342   1.520
  702SOL      O 3251   1.735   3.290   0.568
  702SOL     H1 3252   1.707   3.231   0.638
  702SOL     H2 3253   1.827   3.307   0.587
  702SOL    EPW 3254   1.742   3.285   0.577
  703SOL      O 3255   1.324   3.023   0.479
  703SOL     H1 3256   1.287   3.096   0.528
  703SOL     H2 3257   1.330   3.055   0.389
  703SOL    EPW 3258   1.321   3.034   0.475
  704SOL      O 3259   1.015   1.928   0.530
  704SOL     H1 3260   1.054   1.977   0.602
  704SOL     H2 3261   1.051   1.967   0.451
  704SOL    EPW 3262   1.023   1.937   0.529
  705SOL      O 3263   1.861   2.852   0.919
  705SOL     H1 3264   1.924   2.903   0.869
  705SOL     H2 3265   1.904   2.769   0.935
  705SOL    EPW 3266   1.872   2.849   0.915
  706SOL      O 3267   0.234   2.558   1.451
  706SOL     H1 3268   0.264   2.641   1.416
  706SOL     H2 3269   0.313   2.512   1.477
  706SOL    EPW 3270   0.245   2.562   1.450
  707SOL      O 3271   1.798   2.790   0.557
  707SOL     H1 3272   1.882   2.745   0.560
  707SOL     H2 3273   1.740   2.736   0.611
  707SOL    EPW 3274   1.801   2.780   0.563
  708SOL      O 3275   0.196   2.615   1.716
  708SOL     H1 3276   0.103   2.608   1.740
  708SOL     H2 3277   0.198   2.594   1.623
  708SOL    EPW 3278   0.186   2.612   1.709
  709SOL      O 3279   0.335   1.907   1.338
  709SOL     H1 3280   0.346   1.959   1.418
  709SOL     H2 3281   0.424   1.891   1.308
  709SOL    EPW 3282   0.346   1.911   1.344
  710SOL      O 3283   0.461   2.587   0.432
  710SOL     H1 3284   0.474   2.681   0.422
  710SOL     H2 3285   0.491   2.568   0.521
  710SOL    EPW 3286   0.465   2.595   0.440
  711SOL      O 3287   1.201   2.512   1.498
  711SOL     H1 3288   1.227   2.471   1.415
  711SOL     H2 3289   1.120   2.559   1.477
  711SOL    EPW 3290   1.195   2.513   1.487
  712SOL      O 3291   0.254   2.367   0.714
  712SOL     H1 3292   0.272   2.428   0.786
  712SOL     H2 3293   0.219   2.289   0.758
  712SOL    EPW 3294   0.252   2.365   0.726
  713SOL      O 3295   1.721   3.655   0.211
  713SOL     H1 3296   1.727   3.666   0.116
  713SOL     H2 3297   1.690   3.740   0.243
  713SOL    EPW 3298   1.718   3.665   0.204
  714SOL      O 3299   0.877   2.598   1.160
  714SOL     H1 3300   0.803   2.539   1.149
  714SOL     H2 3301   0.892   2.601   1.254
  714SOL    EPW 3302   0.871   2.592   1.169
  715SOL      O 3303   1.551   3.735   1.548
  715SOL     H1 3304   1.536   3.641   1.552
  715SOL     H2 3305   1.555   3.762   1.640
  715SOL    EPW 3306   1.549   3.728   1.558
  716SOL      O 3307   0.624   2.030   1.281
  716SOL     H1 3308   0.556   2.096   1.291
  716SOL     H2 3309   0.662   2.020   1.368
  716SOL    EPW 3310   0.621   2.036   1.291
  717SOL      O 3311   5.840   2.838   0.156
  717SOL     H1 3312   5.851   2.930   0.179
  717SOL     H2 3313   5.752   2.816   0.187
  717SOL    EPW 3314   5.831   2.846   0.162
  718SOL      O 3315   1.402   1.962   0.892
  718SOL     H1 3316   1.487   1.958   0.935
  718SOL     H2 3317   1.404   1.889   0.830
  718SOL    EPW 3318   1.411   1.953   0.890
  719SOL      O 3319   1.631   2.646   0.727
  719SOL     H1 3320   1.702   2.622   0.787
  719SOL     H2 3321   1.568   2.575   0.734
  719SOL    EPW 3322   1.632   2.636   0.734
  720SOL      O 3323   0.549   3.703   0.155
  720SOL     H1 3324   0.461   3.741   0.148
  720SOL     H2 3325   0.551   3.662   0.241
  720SOL    EPW 3326   0.540   3.703   0.163
  721SOL      O 3327   0.980   2.656   1.411
  721SOL     H1 3328   1.034   2.722   1.368
  721SOL     H2 3329   0.930   2.705   1.476
  721SOL    EPW 3330   0.980   2.668   1.413
  722SOL      O 3331   0.310   2.860   1.688
  722SOL     H1 3332   0.287   2.768   1.697
  722SOL     H2 3333   0.394   2.860   1.643
  722SOL    EPW 3334   0.316   2.850   1.684
  723SOL      O 3335   1.380   2.521   0.028
  723SOL     H1 3336   4.248   5.403   4.155
  723SOL     H2 3337   4.335   5.517   4.109
  723SOL    EPW 3338   1.375   2.521   0.017
  724SOL      O 3339   0.513   3.264   0.652
  724SOL     H1 3340   0.593   3.219   0.677
  724SOL     H2 3341   0.537   3.357   0.654
  724SOL    EPW 3342   0.524   3.269   0.655
  725SOL      O 3343   0.854   2.467   0.830
  725SOL     H1 3344   0.798   2.479   0.907
  725SOL     H2 3345   0.894   2.381   0.843
  725SOL    EPW 3346   0.852   2.459   0.839
  726SOL      O 3347   1.807   1.909   1.471
  726SOL     H1 3348   1.719   1.917   1.507
  726SOL     H2 3349   1.810   1.972   1.399
  726SOL    EPW 3350   1.798   1.917   1.467
  727SOL      O 3351   1.092   3.017   0.876
  727SOL     H1 3352   1.173   2.970   0.893
  727SOL     H2 3353   1.040   2.957   0.822
  727SOL    EPW 3354   1.095   3.006   0.872
  728SOL      O 3355   0.852   2.847   0.244
  728SOL     H1 3356   0.899   2.810   0.169
  728SOL     H2 3357   0.785   2.902   0.205
  728SOL    EPW 3358   0.850   2.849   0.231
  729SOL      O 3359   1.318   3.258   0.890
  729SOL     H1 3360   1.304   3.352   0.901
  729SOL     H2 3361   1.252   3.216   0.945
  729SOL    EPW 3362   1.310   3.263   0.897
  730SOL      O 3363   1.224   3.202   1.205
  730SOL     H1 3364   1.285   3.132   1.225
  730SOL     H2 3365   1.143   3.157   1.181
  730SOL    EPW 3366   1.222   3.190   1.204
  731SOL      O 3367   0.322   2.548   0.922
  731SOL     H1 3368   0.281   2.530   1.007
  731SOL     H2 3369   0.362   2.634   0.932
  731SOL    EPW 3370   0.322   2.555   0.932
  732SOL      O 3371   1.366   3.367   1.753
  732SOL     H1 3372   1.341   3.438   1.811
  732SOL     H2 3373   1.410   3.409   1.679
  732SOL    EPW 3374   1.368   3.379   1.751
  733SOL      O 3375   1.558   2.061   0.272
  733SOL     H1 3376   1.534   2.090   0.360
  733SOL     H2 3377   1.552   2.140   0.219
  733SOL    EPW 3378   1.555   2.073   0.276
  734SOL      O 3379   0.870   2.615   0.434
  734SOL     H1 3380   0.865   2.672   0.356
  734SOL     H2 3381   0.963   2.606   0.451
  734SOL    EPW 3382   0.879   2.620   0.427
  735SOL      O 3383   0.217   2.217   1.722
  735SOL     H1 3384   0.159   2.266   1.664
  735SOL     H2 3385   0.271   2.284   1.764
  735SOL    EPW 3386   0.216   2.229   1.721
  736SOL      O 3387   1.372   2.933   1.241
  736SOL     H1 3388   1.425   2.886   1.306
  736SOL     H2 3389   1.282   2.909   1.263
  736SOL    EPW 3390   1.368   2.925   1.250
  737SOL      O 3391   0.963   3.531   0.412
  737SOL     H1 3392   0.983   3.613   0.457
  737SOL     H2 3393   0.955   3.467   0.482
  737SOL    EPW 3394   0.964   3.533   0.424
  738SOL      O 3395   1.634   1.967   1.047
  738SOL     H1 3396   1.609   1.880   1.078
  738SOL     H2 3397   1.687   2.004   1.118
  738SOL    EPW 3398   1.637   1.961   1.058
  739SOL      O 3399   0.138   1.869   1.149
  739SOL     H1 3400   0.179   1.910   1.073
  739SOL     H2 3401   0.198   1.888   1.221
  739SOL    EPW 3402   0.149   1.876   1.149
  740SOL      O 3403   1.709   3.067   0.740
  740SOL     H1 3404   1.670   2.994   0.788
  740SOL     H2 3405   1.802   3.063   0.761
  740SOL    EPW 3406   1.714   3.059   0.748
  741SOL      O 3407   0.424   3.222   1.491
  741SOL     H1 3408   0.347   3.166   1.498
  741SOL     H2 3409   0.480   3.194   1.564
  741SOL    EPW 3410   0.422   3.213   1.500
  742SOL      O 3411   0.387   2.036   0.121
  742SOL     H1 3412   0.303   2.077   0.099
  742SOL     H2 3413   0.446   2.061   0.050
  742SOL    EPW 3414   0.384   2.043   0.111
  743SOL      O 3415   1.463   2.490   1.061
  743SOL     H1 3416   1.391   2.543   1.029
  743SOL     H2 3417   1.513   2.548   1.119
  743SOL    EPW 3418   1.461   2.502   1.064
  744SOL      O 3419   0.145   2.143   0.070
  744SOL     H1 3420   0.057   2.137   0.034
  744SOL     H2 3421   0.191   2.202   0.010
  744SOL    EPW 3422   0.141   2.149   0.060
  745SOL      O 3423   0.101   3.343   0.281
  745SOL     H1 3424   0.071   3.386   0.362
  745SOL     H2 3425   0.124   3.416   0.223
  745SOL    EPW 3426   0.100   3.355   0.283
  746SOL      O 3427   1.353   3.451   0.458
  746SOL     H1 3428   1.430   3.456   0.401
  746SOL     H2 3429   1.279   3.449   0.398
  746SOL    EPW 3430   1.353   3.451   0.446
  747SOL      O 3431   1.714   2.739   2.116
  747SOL     H1 3432   1.744   2.678   2.184
  747SOL     H2 3433   1.623   2.759   2.141
  747SOL    EPW 3434   1.707   2.734   2.126
  748SOL      O 3435   1.607   2.631   3.120
  748SOL     H1 3436   1.564   2.694   3.179
  748SOL     H2 3437   1.695   2.665   3.109
  748SOL    EPW 3438   1.612   2.641   3.125
  749SOL      O 3439   0.529   2.893   2.333
  749SOL     H1 3440   0.623   2.881   2.341
  749SOL     H2 3441   0.517   2.988   2.332
  749SOL    EPW 3442   0.538   2.902   2.334
  750SOL      O 3443   1.668   3.582   2.575
  750SOL     H1 3444   1.665   3.542   2.662
  750SOL     H2 3445   1.687   3.509   2.516
  750SOL    EPW 3446   1.670   3.570   2.578
  751SOL      O 3447   1.035   3.454   3.478
  751SOL     H1 3448   1.033   3.507   3.399
  751SOL     H2 3449   1.074   3.371   3.451
  751SOL    EPW 3450   1.039   3.451   3.467
  752SOL      O 3451   1.603   3.071   3.083
  752SOL     H1 3452   1.523   3.019   3.077
  752SOL     H2 3453   1.608   3.118   2.999
  752SOL    EPW 3454   1.595   3.070   3.073
  753SOL      O 3455   0.791   2.332   2.337
  753SOL     H1 3456   0.802   2.427   2.338
  753SOL     H2 3457   0.762   2.313   2.247
  753SOL    EPW 3458   0.789   2.340   2.327
  754SOL      O 3459   0.299   2.405   2.278
  754SOL     H1 3460   0.362   2.477   2.274
  754SOL     H2 3461   0.290   2.386   2.371
  754SOL    EPW 3462   0.305   2.411   2.287
  755SOL      O 3463   0.363   2.795   3.162
  755SOL     H1 3464   0.410   2.729   3.111
  755SOL     H2 3465   0.365   2.873   3.107
  755SOL    EPW 3466   0.368   2.796   3.151
  756SOL      O 3467   0.609   2.171   2.455
  756SOL     H1 3468   0.675   2.233   2.425
  756SOL     H2 3469   0.547   2.166   2.382
  756SOL    EPW 3470   0.609   2.177   2.444
  757SOL      O 3471   0.721   3.048   2.565
  757SOL     H1 3472   0.784   3.114   2.594
  757SOL     H2 3473   0.754   3.020   2.480
  757SOL    EPW 3474   0.732   3.052   2.559
  758SOL      O 3475   0.759   3.366   3.458
  758SOL     H1 3476   0.842   3.400   3.491
  758SOL     H2 3477   0.781   3.323   3.376
  758SOL    EPW 3478   0.770   3.365   3.453
  759SOL      O 3479   0.558   2.579   2.529
  759SOL     H1 3480   0.537   2.499   2.577
  759SOL     H2 3481   0.633   2.617   2.576
  759SOL    EPW 3482   0.564   2.574   2.539
  760SOL      O 3483   0.842   3.246   3.231
  760SOL     H1 3484   0.824   3.304   3.157
  760SOL     H2 3485   0.792   3.167   3.213
  760SOL    EPW 3486   0.835   3.244   3.221
  761SOL      O 3487   0.663   2.441   2.924
  761SOL     H1 3488   0.593   2.504   2.940
  761SOL     H2 3489   0.621   2.356   2.934
  761SOL    EPW 3490   0.651   2.439   2.926
  762SOL      O 3491   0.416   2.811   2.800
  762SOL     H1 3492   0.367   2.812   2.718
  762SOL     H2 3493   0.383   2.886   2.849
  762SOL    EPW 3494   0.407   2.819   2.796
  763SOL      O 3495   0.114   3.696   2.715
  763SOL     H1 3496   0.156   3.676   2.632
  763SOL     H2 3497   0.061   3.619   2.735
  763SOL    EPW 3498   0.113   3.686   2.709
  764SOL      O 3499   1.339   3.053   2.049
  764SOL     H1 3500   1.255   3.094   2.032
  764SOL     H2 3501   1.403   3.113   2.010
  764SOL    EPW 3502   1.337   3.064   2.043
  765SOL      O 3503   0.413   3.160   2.702
  765SOL     H1 3504   0.371   3.217   2.765
  765SOL     H2 3505   0.462   3.219   2.645
  765SOL    EPW 3506   0.414   3.172   2.702
  766SOL      O 3507   0.927   2.810   2.588
  766SOL     H1 3508   0.849   2.808   2.644
  766SOL     H2 3509   0.974   2.730   2.608
  766SOL    EPW 3510   0.923   2.801   2.596
  767SOL      O 3511   0.353   3.488   3.365
  767SOL     H1 3512   0.270   3.488   3.317
  767SOL     H2 3513   0.381   3.396   3.363
  767SOL    EPW 3514   0.347   3.478   3.359
  768SOL      O 3515   0.929   3.125   2.226
  768SOL     H1 3516   0.932   3.188   2.297
  768SOL     H2 3517   0.886   3.048   2.263
  768SOL    EPW 3518   0.925   3.123   2.237
  769SOL      O 3519   1.829   2.202   2.717
  769SOL     H1 3520   1.766   2.232   2.782
  769SOL     H2 3521   1.799   2.115   2.692
  769SOL    EPW 3522   1.819   2.196   2.721
  770SOL      O 3523   0.407   2.145   2.270
  770SOL     H1 3524   0.407   2.119   2.178
  770SOL     H2 3525   0.364   2.230   2.271
  770SOL    EPW 3526   0.403   2.151   2.260
  771SOL      O 3527   0.225   3.051   2.281
  771SOL     H1 3528   0.140   3.082   2.252
  771SOL     H2 3529   0.233   2.963   2.244
  771SOL    EPW 3530   0.217   3.045   2.274
  772SOL      O 3531   0.946   3.576   2.078
  772SOL     H1 3532   0.913   3.574   2.168
  772SOL     H2 3533   0.879   3.531   2.027
  772SOL    EPW 3534   0.936   3.571   2.082
  773SOL      O 3535   1.818   2.340   2.016
  773SOL     H1 3536   1.723   2.335   2.031
  773SOL     H2 3537   1.852   2.386   2.093
  773SOL    EPW 3538   1.811   2.345   2.026
  774SOL      O 3539   1.645   2.998   2.375
  774SOL     H1 3540   1.551   3.012   2.365
  774SOL     H2 3541   1.685   3.055   2.309
  774SOL    EPW 3542   1.640   3.006   2.367
  775SOL      O 3543   1.440   2.587   3.451
  775SOL     H1 3544   1.499   2.521   3.415
  775SOL     H2 3545   1.353   2.561   3.421
  775SOL    EPW 3546   1.437   2.577   3.444
  776SOL      O 3547   0.196   3.456   3.036
  776SOL     H1 3548   0.156   3.449   3.123
  776SOL     H2 3549   0.151   3.530   2.995
  776SOL    EPW 3550   0.187   3.463   3.041
  777SOL      O 3551   1.131   2.975   3.435
  777SOL     H1 3552   1.127   3.069   3.416
  777SOL     H2 3553   1.199   2.968   3.502
  777SOL    EPW 3554   1.138   2.984   3.440
  778SOL      O 3555   0.924   2.355   3.691
  778SOL     H1 3556   1.015   2.361   3.662
  778SOL     H2 3557   0.885   2.290   3.632
  778SOL    EPW 3558   0.930   2.348   3.682
  779SOL      O 3559   1.524   2.868   2.743
  779SOL     H1 3560   1.510   2.795   2.682
  779SOL     H2 3561   1.617   2.864   2.763
  779SOL    EPW 3562   1.532   2.859   2.739
  780SOL      O 3563   1.135   2.524   2.356
  780SOL     H1 3564   1.158   2.543   2.264
  780SOL     H2 3565   1.116   2.430   2.357
  780SOL    EPW 3566   1.135   2.516   2.346
  781SOL      O 3567   1.772   3.189   2.209
  781SOL     H1 3568   1.740   3.248   2.276
  781SOL     H2 3569   1.851   3.231   2.174
  781SOL    EPW 3570   1.777   3.199   2.212
  782SOL      O 3571   0.750   2.189   3.553
  782SOL     H1 3572   0.763   2.115   3.494
  782SOL     H2 3573   0.716   2.150   3.634
  782SOL    EPW 3574   0.747   2.177   3.555
  783SOL      O 3575   0.493   3.592   2.534
  783SOL     H1 3576   0.524   3.681   2.516
  783SOL     H2 3577   0.400   3.595   2.514
  783SOL    EPW 3578   0.486   3.602   2.530
  784SOL      O 3579   1.806   1.945   2.626
  784SOL     H1 3580   1.885   1.901   2.660
  784SOL     H2 3581   1.752   1.874   2.593
  784SOL    EPW 3582   1.809   1.933   2.626
  785SOL      O 3583   0.273   3.658   2.094
  785SOL     H1 3584   0.320   3.736   2.064
  785SOL     H2 3585   0.200   3.649   2.033
  785SOL    EPW 3586   0.270   3.666   2.084
  786SOL      O 3587   0.948   1.845   2.956
  786SOL     H1 3588   0.902   1.928   2.938
  786SOL     H2 3589   1.041   1.869   2.952
  786SOL    EPW 3590   0.953   1.857   2.954
  787SOL      O 3591   1.577   3.469   2.037
  787SOL     H1 3592   1.621   3.546   2.071
  787SOL     H2 3593   1.490   3.500   2.012
  787SOL    EPW 3594   1.572   3.480   2.038
  788SOL      O 3595   0.959   2.451   2.029
  788SOL     H1 3596   0.959   2.427   1.936
  788SOL     H2 3597   1.044   2.492   2.043
  788SOL    EPW 3598   0.968   2.453   2.020
  789SOL      O 3599   1.579   2.419   2.331
  789SOL     H1 3600   1.642   2.432   2.402
  789SOL     H2 3601   1.516   2.490   2.342
  789SOL    EPW 3602   1.579   2.428   2.340
  790SOL      O 3603   0.875   2.880   3.434
  790SOL     H1 3604   0.838   2.877   3.522
  790SOL     H2 3605   0.964   2.912   3.447
  790SOL    EPW 3606   0.881   2.883   3.445
  791SOL      O 3607   0.995   1.943   3.215
  791SOL     H1 3608   0.971   1.910   3.128
  791SOL     H2 3609   0.988   2.038   3.207
  791SOL    EPW 3610   0.992   1.949   3.205
  792SOL      O 3611   1.037   2.392   2.994
  792SOL     H1 3612   1.126   2.423   3.007
  792SOL     H2 3613   0.984   2.471   2.992
  792SOL    EPW 3614   1.041   2.403   2.995
  793SOL      O 3615   1.633   2.432   3.313
  793SOL     H1 3616   1.584   2.354   3.287
  793SOL     H2 3617   1.625   2.491   3.238
  793SOL    EPW 3618   1.627   2.430   3.302
  794SOL      O 3619   1.724   3.537   3.223
  794SOL     H1 3620   1.669   3.508   3.295
  794SOL     H2 3621   1.760   3.621   3.253
  794SOL    EPW 3622   1.722   3.543   3.234
  795SOL      O 3623   1.063   2.189   3.446
  795SOL     H1 3624   1.020   2.198   3.361
  795SOL     H2 3625   1.040   2.101   3.476
  795SOL    EPW 3626   1.056   2.181   3.440
  796SOL      O 3627   1.505   3.018   3.473
  796SOL     H1 3628   1.576   3.067   3.515
  796SOL     H2 3629   1.456   2.979   3.545
  796SOL    EPW 3630   1.507   3.019   3.485
  797SOL      O 3631   1.810   2.405   2.513
  797SOL     H1 3632   1.905   2.403   2.524
  797SOL     H2 3633   1.778   2.331   2.564
  797SOL    EPW 3634   1.817   2.397   2.519
  798SOL      O 3635   0.159   2.057   2.546
  798SOL     H1 3636   0.178   2.006   2.467
  798SOL     H2 3637   0.064   2.067   2.546
  798SOL    EPW 3638   0.151   2.053   2.538
  799SOL      O 3639   1.098   3.189   2.017
  799SOL     H1 3640   1.031   3.162   2.080
  799SOL     H2 3641   1.048   3.220   1.942
  799SOL    EPW 3642   1.086   3.190   2.016
  800SOL      O 3643   0.135   2.269   2.853
  800SOL     H1 3644   0.127   2.364   2.860
  800SOL     H2 3645   0.047   2.239   2.830
  800SOL    EPW 3646   0.125   2.276   2.851
  801SOL      O 3647   0.605   3.585   2.189
  801SOL     H1 3648   0.532   3.537   2.228
  801SOL     H2 3649   0.678   3.571   2.249
  801SOL    EPW 3650   0.605   3.579   2.199
  802SOL      O 3651   1.704   3.145   3.603
  802SOL     H1 3652   1.739   3.059   3.627
  802SOL     H2 3653   1.651   3.171   3.679
  802SOL    EPW 3654   1.702   3.138   3.614
  803SOL      O 3655   0.676   3.012   1.940
  803SOL     H1 3656   0.594   2.965   1.952
  803SOL     H2 3657   0.668   3.090   1.995
  803SOL    EPW 3658   0.667   3.015   1.947
  804SOL      O 3659   1.858   2.740   3.117
  804SOL     H1 3660   1.867   2.815   3.059
  804SOL     H2 3661   1.866   2.776   3.205
  804SOL    EPW 3662   1.860   2.752   3.120
  805SOL      O 3663   1.664   3.458   2.818
  805SOL     H1 3664   1.617   3.500   2.889
  805SOL     H2 3665   1.647   3.365   2.829
  805SOL    EPW 3666   1.658   3.453   2.826
  806SOL      O 3667   1.329   3.548   1.958
  806SOL     H1 3668   1.269   3.501   2.015
  806SOL     H2 3669   1.327   3.638   1.990
  806SOL    EPW 3670   1.323   3.553   1.967
  807SOL      O 3671   0.249   2.470   3.084
  807SOL     H1 3672   0.229   2.509   3.169
  807SOL     H2 3673   0.178   2.500   3.027
  807SOL    EPW 3674   0.239   2.477   3.087
  808SOL      O 3675   1.519   3.220   1.923
  808SOL     H1 3676   1.461   3.265   1.861
  808SOL     H2 3677   1.550   3.290   1.981
  808SOL    EPW 3678   1.516   3.232   1.923
  809SOL      O 3679   0.748   2.065   1.926
  809SOL     H1 3680   0.695   1.985   1.922
  809SOL     H2 3681   0.838   2.034   1.938
  809SOL    EPW 3682   0.752   2.053   1.927
  810SOL      O 3683   0.229   3.670   3.539
  810SOL     H1 3684   0.191   3.729   3.474
  810SOL     H2 3685   0.268   3.599   3.488
  810SOL    EPW 3686   0.230   3.669   3.527
  811SOL      O 3687   0.351   3.011   2.995
  811SOL     H1 3688   0.420   3.071   3.023
  811SOL     H2 3689   0.270   3.061   3.008
  811SOL    EPW 3690   0.349   3.023   3.000
  812SOL      O 3691   0.787   2.868   2.990
  812SOL     H1 3692   0.817   2.778   2.996
  812SOL     H2 3693   0.745   2.874   2.905
  812SOL    EPW 3694   0.786   2.859   2.982
  813SOL      O 3695   0.118   2.732   2.373
  813SOL     H1 3696   0.186   2.738   2.440
  813SOL     H2 3697   0.091   2.641   2.374
  813SOL    EPW 3698   0.122   2.723   2.380
  814SOL      O 3699   0.381   2.417   3.652
  814SOL     H1 3700   0.320   2.490   3.658
  814SOL     H2 3701   0.437   2.426   3.730
  814SOL    EPW 3702   0.380   2.426   3.661
  815SOL      O 3703   0.782   1.973   3.390
  815SOL     H1 3704   0.743   1.893   3.426
  815SOL     H2 3705   0.864   1.944   3.350
  815SOL    EPW 3706   0.787   1.962   3.390
  816SOL      O 3707   0.451   2.496   3.400
  816SOL     H1 3708   0.533   2.545   3.406
  816SOL     H2 3709   0.439   2.458   3.486
  816SOL    EPW 3710   0.459   2.497   3.410
  817SOL      O 3711   0.866   3.566   2.799
  817SOL     H1 3712   0.902   3.637   2.852
  817SOL     H2 3713   0.836   3.609   2.719
  817SOL    EPW 3714   0.867   3.578   2.796
  818SOL      O 3715   1.318   1.997   3.669
  818SOL     H1 3716   1.397   1.946   3.688
  818SOL     H2 3717   1.310   2.057   3.743
  818SOL    EPW 3718   1.326   1.998   3.679
  819SOL      O 3719   0.088   3.365   2.522
  819SOL     H1 3720   0.035   3.382   2.600
  819SOL     H2 3721   0.118   3.275   2.532
  819SOL    EPW 3722   0.085   3.357   2.531
  820SOL      O 3723   0.951   3.306   2.438
  820SOL     H1 3724   1.044   3.286   2.453
  820SOL     H2 3725   0.913   3.308   2.526
  820SOL    EPW 3726   0.957   3.304   2.449
  821SOL      O 3727   1.828   2.536   2.766
  821SOL     H1 3728   1.923   2.538   2.769
  821SOL     H2 3729   1.808   2.500   2.679
  821SOL    EPW 3730   1.836   2.533   2.757
  822SOL      O 3731   1.620   2.696   3.717
  822SOL     H1 3732   1.681   2.633   3.681
  822SOL     H2 3733   1.640   2.700   3.810
  822SOL    EPW 3734   1.628   2.690   3.723
  823SOL      O 3735   0.758   3.445   1.934
  823SOL     H1 3736   0.700   3.521   1.923
  823SOL     H2 3737   0.707   3.384   1.988
  823SOL    EPW 3738   0.746   3.447   1.939
  824SOL      O 3739   1.123   2.086   2.155
  824SOL     H1 3740   1.069   2.041   2.091
  824SOL     H2 3741   1.179   2.144   2.104
  824SOL    EPW 3742   1.123   2.087   2.143
  825SOL      O 3743   0.948   2.219   3.198
  825SOL     H1 3744   0.873   2.268   3.233
  825SOL     H2 3745   0.985   2.277   3.131
  825SOL    EPW 3746   0.944   2.231   3.194
  826SOL      O 3747   1.238   2.589   2.849
  826SOL     H1 3748   1.245   2.684   2.857
  826SOL     H2 3749   1.175   2.576   2.777
  826SOL    EPW 3750   1.232   2.598   2.842
  827SOL      O 3751   0.682   2.834   2.729
  827SOL     H1 3752   0.590   2.823   2.753
  827SOL     H2 3753   0.684   2.916   2.678
  827SOL    EPW 3754   0.673   2.842   2.726
  828SOL      O 3755   1.530   2.398   2.676
  828SOL     H1 3756   1.467   2.328   2.660
  828SOL     H2 3757   1.513   2.425   2.767
  828SOL    EPW 3758   1.521   2.394   2.684
  829SOL      O 3759   0.422   2.084   3.401
  829SOL     H1 3760   0.353   2.141   3.436
  829SOL     H2 3761   0.467   2.138   3.336
  829SOL    EPW 3762   0.419   2.096   3.397
  830SOL      O 3763   1.058   2.575   2.633
  830SOL     H1 3764   0.978   2.525   2.650
  830SOL     H2 3765   1.082   2.551   2.543
  830SOL    EPW 3766   1.052   2.567   2.625
  831SOL      O 3767   0.371   3.458   2.261
  831SOL     H1 3768   0.335   3.516   2.194
  831SOL     H2 3769   0.321   3.478   2.340
  831SOL    EPW 3770   0.362   3.466   2.262
  832SOL      O 3771   0.818   2.893   2.343
  832SOL     H1 3772   0.829   2.828   2.274
  832SOL     H2 3773   0.861   2.854   2.419
  832SOL    EPW 3774   0.824   2.882   2.344
  833SOL      O 3775   1.299   3.474   3.110
  833SOL     H1 3776   1.219   3.512   3.148
  833SOL     H2 3777   1.280   3.380   3.105
  833SOL    EPW 3778   1.288   3.468   3.114
  834SOL      O 3779   1.400   3.625   2.573
  834SOL     H1 3780   1.368   3.589   2.490
  834SOL     H2 3781   1.495   3.614   2.569
  834SOL    EPW 3782   1.407   3.620   2.563
  835SOL      O 3783   1.358   2.183   2.636
  835SOL     H1 3784   1.377   2.109   2.694
  835SOL     H2 3785   1.266   2.171   2.613
  835SOL    EPW 3786   1.350   2.174   2.640
  836SOL      O 3787   0.182   3.109   2.549
  836SOL     H1 3788   0.264   3.109   2.599
  836SOL     H2 3789   0.206   3.080   2.461
  836SOL    EPW 3790   0.193   3.106   2.545
  837SOL      O 3791   0.612   3.145   3.556
  837SOL     H1 3792   0.668   3.220   3.536
  837SOL     H2 3793   0.648   3.109   3.637
  837SOL    EPW 3794   0.622   3.149   3.563
  838SOL      O 3795   0.211   3.399   3.734
  838SOL     H1 3796   0.278   3.339   3.699
  838SOL     H2 3797   0.140   3.395   3.670
  838SOL    EPW 3798   0.211   3.392   3.723
  839SOL      O 3799   1.291   2.223   1.983
  839SOL     H1 3800   1.260   2.288   1.920
  839SOL     H2 3801   1.371   2.261   2.019
  839SOL    EPW 3802   1.296   2.234   1.980
  840SOL      O 3803   0.990   1.948   1.966
  840SOL     H1 3804   1.021   1.934   1.876
  840SOL     H2 3805   0.972   1.860   1.999
  840SOL    EPW 3806   0.991   1.937   1.960
  841SOL      O 3807   1.451   2.790   2.138
  841SOL     H1 3808   1.398   2.870   2.135
  841SOL     H2 3809   1.417   2.741   2.213
  841SOL    EPW 3810   1.442   2.793   2.146
  842SOL      O 3811   1.097   3.225   3.333
  842SOL     H1 3812   1.008   3.230   3.298
  842SOL     H2 3813   1.153   3.229   3.256
  842SOL    EPW 3814   1.094   3.226   3.321
  843SOL      O 3815   0.425   1.881   3.586
  843SOL     H1 3816   0.412   1.917   3.674
  843SOL     H2 3817   0.433   1.958   3.530
  843SOL    EPW 3818   0.424   1.893   3.590
  844SOL      O 3819   0.461   3.443   2.989
  844SOL     H1 3820   0.503   3.510   3.043
  844SOL     H2 3821   0.368   3.451   3.009
  844SOL    EPW 3822   0.456   3.451   2.997
  845SOL      O 3823   1.849   2.892   3.356
  845SOL     H1 3824   1.773   2.941   3.325
  845SOL     H2 3825   1.834   2.881   3.450
  845SOL    EPW 3826   1.840   2.896   3.363
  846SOL      O 3827   0.825   3.484   3.069
  846SOL     H1 3828   0.838   3.494   2.974
  846SOL     H2 3829   0.748   3.538   3.088
  846SOL    EPW 3830   0.818   3.491   3.061
  847SOL      O 3831   0.431   2.891   1.946
  847SOL     H1 3832   0.372   2.861   2.015
  847SOL     H2 3833   0.379   2.884   1.866
  847SOL    EPW 3834   0.419   2.887   1.945
  848SOL      O 3835   1.110   2.832   2.149
  848SOL     H1 3836   1.022   2.838   2.110
  848SOL     H2 3837   1.113   2.905   2.211
  848SOL    EPW 3838   1.101   2.840   2.151
  849SOL      O 3839   0.661   3.158   2.845
  849SOL     H1 3840   0.629   3.166   2.934
  849SOL     H2 3841   0.584   3.137   2.793
  849SOL    EPW 3842   0.650   3.157   2.849
  850SOL      O 3843   1.463   2.220   3.262
  850SOL     H1 3844   1.421   2.214   3.348
  850SOL     H2 3845   1.448   2.134   3.222
  850SOL    EPW 3846   1.457   2.211   3.267
  851SOL      O 3847   1.812   2.063   3.094
  851SOL     H1 3848   1.836   2.150   3.063
  851SOL     H2 3849   1.877   2.005   3.056
  851SOL    EPW 3850   1.821   2.066   3.087
  852SOL      O 3851   0.075   3.295   3.508
  852SOL     H1 3852   0.116   3.215   3.476
  852SOL     H2 3853   5.860   3.273   3.517
  852SOL    EPW 3854   0.070   3.285   3.506
  853SOL      O 3855   0.778   1.966   2.551
  853SOL     H1 3856   0.724   2.037   2.516
  853SOL     H2 3857   0.851   1.958   2.490
  853SOL    EPW 3858   0.780   1.972   2.541
  854SOL      O 3859   0.534   3.173   2.332
  854SOL     H1 3860   0.554   3.219   2.414
  854SOL     H2 3861   0.463   3.225   2.293
  854SOL    EPW 3862   0.529   3.184   2.336
  855SOL      O 3863   1.048   3.566   3.224
  855SOL     H1 3864   0.976   3.535   3.169
  855SOL     H2 3865   1.036   3.661   3.227
  855SOL    EPW 3866   1.039   3.573   3.218
  856SOL      O 3867   1.241   3.446   2.708
  856SOL     H1 3868   1.299   3.510   2.667
  856SOL     H2 3869   1.171   3.498   2.748
  856SOL    EPW 3870   1.240   3.458   2.708
  857SOL      O 3871   1.538   3.589   3.031
  857SOL     H1 3872   1.600   3.563   3.098
  857SOL     H2 3873   1.456   3.545   3.055
  857SOL    EPW 3874   1.536   3.582   3.041
  858SOL      O 3875   0.752   2.567   3.692
  858SOL     H1 3876   0.803   2.487   3.681
  858SOL     H2 3877   0.679   2.541   3.747
  858SOL    EPW 3878   0.750   2.556   3.697
  859SOL      O 3879   1.499   2.805   3.304
  859SOL     H1 3880   1.507   2.880   3.363
  859SOL     H2 3881   1.474   2.732   3.361
  859SOL    EPW 3882   1.497   2.806   3.317
  860SOL      O 3883   1.061   1.941   3.574
  860SOL     H1 3884   1.037   1.849   3.566
  860SOL     H2 3885   1.152   1.939   3.602
  860SOL    EPW 3886   1.068   1.931   3.576
  861SOL      O 3887   0.562   2.497   2.002
  861SOL     H1 3888   0.537   2.541   2.083
  861SOL     H2 3889   0.612   2.420   2.032
  861SOL    EPW 3890   0.565   2.493   2.014
  862SOL      O 3891   1.620   3.191   2.840
  862SOL     H1 3892   1.654   3.160   2.756
  862SOL     H2 3893   1.526   3.197   2.826
  862SOL    EPW 3894   1.614   3.188   2.830
  863SOL      O 3895   1.093   2.861   3.186
  863SOL     H1 3896   1.099   2.907   3.269
  863SOL     H2 3897   1.052   2.924   3.126
  863SOL    EPW 3898   1.089   2.873   3.188
  864SOL      O 3899   1.545   2.333   2.072
  864SOL     H1 3900   1.508   2.406   2.023
  864SOL     H2 3901   1.554   2.366   2.162
  864SOL    EPW 3902   1.542   2.344   2.077
  865SOL      O 3903   0.443   1.987   2.568
  865SOL     H1 3904   0.502   2.049   2.524
  865SOL     H2 3905   0.356   2.024   2.556
  865SOL    EPW 3906   0.440   1.998   2.562
  866SOL      O 3907   0.193   3.075   3.381
  866SOL     H1 3908   0.231   3.000   3.428
  866SOL     H2 3909   0.105   3.047   3.358
  866SOL    EPW 3910   0.188   3.064   3.384
  867SOL      O 3911   0.740   2.359   3.325
  867SOL     H1 3912   0.735   2.451   3.350
  867SOL     H2 3913   0.733   2.310   3.407
  867SOL    EPW 3914   0.739   2.363   3.336
  868SOL      O 3915   1.192   2.579   2.094
  868SOL     H1 3916   1.275   2.575   2.046
  868SOL     H2 3917   1.175   2.672   2.104
  868SOL    EPW 3918   1.199   2.588   2.090
  869SOL      O 3919   0.357   2.770   2.521
  869SOL     H1 3920   0.406   2.830   2.464
  869SOL     H2 3921   0.417   2.696   2.534
  869SOL    EPW 3922   0.369   2.768   2.516
  870SOL      O 3923   1.495   2.166   2.401
  870SOL     H1 3924   1.445   2.165   2.483
  870SOL     H2 3925   1.518   2.258   2.388
  870SOL    EPW 3926   1.492   2.175   2.409
  871SOL      O 3927   1.100   2.117   2.575
  871SOL     H1 3928   1.080   2.179   2.504
  871SOL     H2 3929   1.052   2.150   2.650
  871SOL    EPW 3930   1.093   2.127   2.575
  872SOL      O 3931   0.958   3.325   1.800
  872SOL     H1 3932   1.005   3.394   1.754
  872SOL     H2 3933   0.892   3.371   1.853
  872SOL    EPW 3934   0.956   3.337   1.801
  873SOL      O 3935   1.796   2.891   3.637
  873SOL     H1 3936   1.727   2.826   3.652
  873SOL     H2 3937   1.838   2.901   3.722
  873SOL    EPW 3938   1.793   2.885   3.647
  874SOL      O 3939   5.861   3.465   2.770
  874SOL     H1 3940   5.823   3.448   2.856
  874SOL     H2 3941   5.786   3.472   2.712
  874SOL    EPW 3942   5.849   3.464   2.773
  875SOL      O 3943   0.028   2.476   2.338
  875SOL     H1 3944   5.871   2.432   2.416
  875SOL     H2 3945   0.115   2.439   2.325
  875SOL    EPW 3946   0.033   2.468   2.345
  876SOL      O 3947   1.586   3.740   3.686
  876SOL     H1 3948   1.622   3.653   3.666
  876SOL     H2 3949   1.616   3.758   3.775
  876SOL    EPW 3950   1.593   3.732   3.694
  877SOL      O 3951   1.221   3.244   2.469
  877SOL     H1 3952   1.230   3.248   2.564
  877SOL     H2 3953   1.263   3.324   2.437
  877SOL    EPW 3954   1.227   3.253   2.475
  878SOL      O 3955   0.529   2.227   3.189
  878SOL     H1 3956   0.585   2.294   3.227
  878SOL     H2 3957   0.480   2.272   3.121
  878SOL    EPW 3958   0.530   2.239   3.186
  879SOL      O 3959   0.432   2.251   2.906
  879SOL     H1 3960   0.457   2.160   2.891
  879SOL     H2 3961   0.337   2.252   2.900
  879SOL    EPW 3962   0.425   2.242   2.904
  880SOL      O 3963   1.203   2.409   3.619
  880SOL     H1 3964   1.250   2.333   3.584
  880SOL     H2 3965   1.178   2.459   3.542
  880SOL    EPW 3966   1.206   2.406   3.607
  881SOL      O 3967   1.325   2.202   3.492
  881SOL     H1 3968   1.234   2.196   3.463
  881SOL     H2 3969   1.335   2.128   3.552
  881SOL    EPW 3970   1.316   2.193   3.495
  882SOL      O 3971   0.539   2.012   2.821
  882SOL     H1 3972   0.514   1.929   2.862
  882SOL     H2 3973   0.513   2.003   2.729
  882SOL    EPW 3974   0.533   2.002   2.816
  883SOL      O 3975   0.614   3.592   3.390
  883SOL     H1 3976   0.522   3.568   3.397
  883SOL     H2 3977   0.662   3.515   3.420
  883SOL    EPW 3978   0.609   3.582   3.394
  884SOL      O 3979   1.716   2.339   2.928
  884SOL     H1 3980   1.626   2.363   2.948
  884SOL     H2 3981   1.752   2.416   2.883
  884SOL    EPW 3982   1.710   2.350   2.926
  885SOL      O 3983   1.880   2.961   2.960
  885SOL     H1 3984   1.853   2.921   2.877
  885SOL     H2 3985   1.808   3.019   2.983
  885SOL    EPW 3986   1.870   2.963   2.954
  886SOL      O 3987   1.283   2.859   2.863
  886SOL     H1 3988   1.303   2.885   2.953
  886SOL     H2 3989   1.366   2.869   2.816
  886SOL    EPW 3990   1.294   2.863   2.867
  887SOL      O 3991   1.302   2.404   3.142
  887SOL     H1 3992   1.358   2.431   3.069
  887SOL     H2 3993   1.350   2.333   3.183
  887SOL    EPW 3994   1.313   2.400   3.138
  888SOL      O 3995   1.824   2.524   3.650
  888SOL     H1 3996   1.816   2.457   3.717
  888SOL     H2 3997   1.833   2.476   3.568
  888SOL    EPW 3998   1.824   2.512   3.648
  889SOL      O 3999   1.384   2.896   3.682
  889SOL     H1 4000   1.439   2.820   3.701
  889SOL     H2 4001   1.367   2.936   3.767
  889SOL    EPW 4002   1.388   2.892   3.693
  890SOL      O 4003   1.335   1.913   2.102
  890SOL     H1 4004   1.411   1.967   2.126
  890SOL     H2 4005   1.260   1.965   2.130
  890SOL    EPW 4006   1.335   1.925   2.108
  891SOL      O 4007   1.395   2.620   2.349
  891SOL     H1 4008   1.305   2.591   2.368
  891SOL     H2 4009   1.429   2.647   2.434
  891SOL    EPW 4010   1.389   2.620   2.360
  892SOL      O 4011   0.529   3.200   3.083
  892SOL     H1 4012   0.503   3.201   3.175
  892SOL     H2 4013   0.505   3.287   3.050
  892SOL    EPW 4014   0.523   3.209   3.089
  893SOL      O 4015   0.789   2.061   2.920
  893SOL     H1 4016   0.758   2.054   3.010
  893SOL     H2 4017   0.711   2.045   2.867
  893SOL    EPW 4018   0.777   2.059   2.924
  894SOL      O 4019   0.599   3.645   3.126
  894SOL     H1 4020   0.625   3.737   3.122
  894SOL     H2 4021   0.600   3.624   3.219
  894SOL    EPW 4022   0.602   3.653   3.135
  895SOL      O 4023   1.518   3.229   3.298
  895SOL     H1 4024   1.496   3.157   3.357
  895SOL     H2 4025   1.554   3.186   3.220
  895SOL    EPW 4026   1.520   3.217   3.296
  896SOL      O 4027   0.559   2.890   3.435
  896SOL     H1 4028   0.582   2.913   3.345
  896SOL     H2 4029   0.581   2.969   3.486
  896SOL    EPW 4030   0.564   2.901   3.431
  897SOL      O 4031   0.725   2.992   3.230
  897SOL     H1 4032   0.783   2.949   3.293
  897SOL     H2 4033   0.738   2.943   3.149
  897SOL    EPW 4034   0.732   2.982   3.228
  898SOL      O 4035   0.734   2.296   2.075
  898SOL     H1 4036   0.817   2.338   2.053
  898SOL     H2 4037   0.735   2.213   2.027
  898SOL    EPW 4038   0.743   2.292   2.068
  899SOL      O 4039   1.560   3.463   3.429
  899SOL     H1 4040   1.619   3.444   3.501
  899SOL     H2 4041   1.546   3.378   3.386
  899SOL    EPW 4042   1.565   3.452   3.432
  900SOL      O 4043   1.222   1.882   2.986
  900SOL     H1 4044   1.270   1.915   2.910
  900SOL     H2 4045   1.266   1.921   3.061
  900SOL    EPW 4046   1.232   1.890   2.986
  901SOL      O 4047   0.233   2.814   2.139
  901SOL     H1 4048   0.153   2.839   2.092
  901SOL     H2 4049   0.201   2.772   2.219
  901SOL    EPW 4050   0.221   2.812   2.142
  902SOL      O 4051   0.627   3.244   2.074
  902SOL     H1 4052   0.651   3.229   2.165
  902SOL     H2 4053   0.532   3.241   2.073
  902SOL    EPW 4054   0.620   3.242   2.083
  903SOL      O 4055   1.167   3.426   2.134
  903SOL     H1 4056   1.144   3.340   2.100
  903SOL     H2 4057   1.089   3.479   2.119
  903SOL    EPW 4058   1.156   3.423   2.129
  904SOL      O 4059   0.490   3.636   2.801
  904SOL     H1 4060   0.479   3.556   2.853
  904SOL     H2 4061   0.491   3.606   2.710
  904SOL    EPW 4062   0.489   3.625   2.797
  905SOL      O 4063   1.004   3.041   2.993
  905SOL     H1 4064   0.918   2.999   2.995
  905SOL     H2 4065   1.032   3.035   2.902
  905SOL    EPW 4066   0.998   3.036   2.984
  906SOL      O 4067   0.084   3.437   3.282
  906SOL     H1 4068   0.088   3.394   3.367
  906SOL     H2 4069   5.868   3.434   3.258
  906SOL    EPW 4070   0.074   3.432   3.288
  907SOL      O 4071   0.966   2.224   2.789
  907SOL     H1 4072   0.902   2.169   2.834
  907SOL     H2 4073   1.002   2.280   2.858
  907SOL    EPW 4074   0.963   2.224   2.801
  908SOL      O 4075   0.685   2.632   3.434
  908SOL     H1 4076   0.646   2.720   3.434
  908SOL     H2 4077   0.707   2.617   3.526
  908SOL    EPW 4078   0.683   2.640   3.444
  909SOL      O 4079   0.355   3.178   3.655
  909SOL     H1 4080   0.444   3.172   3.620
  909SOL     H2 4081   0.365   3.164   3.749
  909SOL    EPW 4082   0.365   3.175   3.661
  910SOL      O 4083   1.422   1.965   3.172
  910SOL     H1 4084   1.489   1.964   3.103
  910SOL     H2 4085   1.468   1.934   3.250
  910SOL    EPW 4086   1.434   1.961   3.173
  911SOL      O 4087   1.705   3.496   3.669
  911SOL     H1 4088   1.667   3.472   3.754
  911SOL     H2 4089   1.787   3.540   3.692
  911SOL    EPW 4090   1.710   3.498   3.681
  912SOL      O 4091   0.489   2.346   2.654
  912SOL     H1 4092   0.546   2.280   2.614
  912SOL     H2 4093   0.479   2.317   2.744
  912SOL    EPW 4094   0.494   2.335   2.659
  913SOL      O 4095   0.093   3.696   3.784
  913SOL     H1 4096   0.132   3.666   3.702
  913SOL     H2 4097   0.082   3.791   3.772
  913SOL    EPW 4098   0.096   3.703   3.774
  914SOL      O 4099   0.812   3.316   2.681
  914SOL     H1 4100   0.770   3.263   2.749
  914SOL     H2 4101   0.834   3.398   2.725
  914SOL    EPW 4102   0.810   3.319   2.693
  915SOL      O 4103   1.053   2.267   2.354
  915SOL     H1 4104   1.072   2.208   2.281
  915SOL     H2 4105   0.959   2.283   2.347
  915SOL    EPW 4106   1.045   2.262   2.345
  916SOL      O 4107   0.262   1.913   2.339
  916SOL     H1 4108   0.313   1.992   2.323
  916SOL     H2 4109   0.253   1.872   2.253
  916SOL    EPW 4110   0.266   1.917   2.328
  917SOL      O 4111   0.009   2.384   3.370
  917SOL     H1 4112   0.071   2.456   3.361
  917SOL     H2 4113   5.832   2.390   3.291
  917SOL    EPW 4114   0.010   2.392   3.360
  918SOL      O 4115   1.733   3.352   2.432
  918SOL     H1 4116   1.720   3.282   2.495
  918SOL     H2 4117   1.825   3.376   2.440
  918SOL    EPW 4118   1.741   3.347   2.439
  919SOL      O 4119   1.380   3.056   2.328
  919SOL     H1 4120   1.320   3.112   2.377
  919SOL     H2 4121   1.355   3.070   2.236
  919SOL    EPW 4122   1.371   3.064   2.323
  920SOL      O 4123   1.009   1.924   2.399
  920SOL     H1 4124   1.049   1.974   2.470
  920SOL     H2 4125   1.044   1.963   2.319
  920SOL    EPW 4126   1.017   1.934   2.398
  921SOL      O 4127   1.794   2.809   2.749
  921SOL     H1 4128   1.793   2.814   2.654
  921SOL     H2 4129   1.801   2.716   2.769
  921SOL    EPW 4130   1.795   2.800   2.741
  922SOL      O 4131   0.201   2.567   3.334
  922SOL     H1 4132   0.193   2.660   3.312
  922SOL     H2 4133   0.293   2.555   3.357
  922SOL    EPW 4134   0.210   2.576   3.334
  923SOL      O 4135   1.757   2.771   2.477
  923SOL     H1 4136   1.840   2.762   2.429
  923SOL     H2 4137   1.715   2.847   2.438
  923SOL    EPW 4138   1.761   2.778   2.468
  924SOL      O 4139   0.205   2.624   3.656
  924SOL     H1 4140   0.192   2.613   3.750
  924SOL     H2 4141   0.118   2.612   3.618
  924SOL    EPW 4142   0.194   2.621   3.662
  925SOL      O 4143   0.336   1.982   3.152
  925SOL     H1 4144   0.291   2.065   3.136
  925SOL     H2 4145   0.363   1.987   3.243
  925SOL    EPW 4146   0.334   1.992   3.160
  926SOL      O 4147   0.491   2.605   2.258
  926SOL     H1 4148   0.477   2.700   2.254
  926SOL     H2 4149   0.529   2.590   2.345
  926SOL    EPW 4150   0.493   2.613   2.267
  927SOL      O 4151   1.185   2.521   3.363
  927SOL     H1 4152   1.215   2.479   3.283
  927SOL     H2 4153   1.101   2.560   3.339
  927SOL    EPW 4154   1.179   2.521   3.352
  928SOL      O 4155   0.249   2.330   2.527
  928SOL     H1 4156   0.324   2.339   2.585
  928SOL     H2 4157   0.206   2.250   2.555
  928SOL    EPW 4158   0.253   2.323   2.536
  929SOL      O 4159   1.692   3.715   2.091
  929SOL     H1 4160   1.783   3.729   2.119
  929SOL     H2 4161   1.644   3.790   2.128
  929SOL    EPW 4162   1.697   3.725   2.098
  930SOL      O 4163   0.865   2.605   3.018
  930SOL     H1 4164   0.790   2.548   3.003
  930SOL     H2 4165   0.878   2.604   3.113
  930SOL    EPW 4166   0.859   2.599   3.026
  931SOL      O 4167   1.544   3.741   3.412
  931SOL     H1 4168   1.535   3.646   3.412
  931SOL     H2 4169   1.553   3.764   3.504
  931SOL    EPW 4170   1.544   3.733   3.422
  932SOL      O 4171   0.660   1.987   3.150
  932SOL     H1 4172   0.598   2.060   3.155
  932SOL     H2 4173   0.700   1.983   3.237
  932SOL    EPW 4174   0.657   1.994   3.160
  933SOL      O 4175   0.006   2.909   2.022
  933SOL     H1 4176   0.008   2.995   2.062
  933SOL     H2 4177   5.792   2.882   2.026
  933SOL    EPW 4178   5.874   2.915   2.027
  934SOL      O 4179   1.388   1.954   2.780
  934SOL     H1 4180   1.471   1.955   2.828
  934SOL     H2 4181   1.402   1.890   2.710
  934SOL    EPW 4182   1.398   1.947   2.777
  935SOL      O 4183   1.528   2.653   2.577
  935SOL     H1 4184   1.616   2.675   2.548
  935SOL     H2 4185   1.536   2.565   2.613
  935SOL    EPW 4186   1.538   2.646   2.578
  936SOL      O 4187   0.606   3.674   1.928
  936SOL     H1 4188   0.520   3.683   1.887
  936SOL     H2 4189   0.587   3.653   2.020
  936SOL    EPW 4190   0.595   3.673   1.934
  937SOL      O 4191   0.951   2.643   3.276
  937SOL     H1 4192   1.001   2.717   3.241
  937SOL     H2 4193   0.891   2.682   3.339
  937SOL    EPW 4194   0.950   2.655   3.279
  938SOL      O 4195   0.300   2.853   3.535
  938SOL     H1 4196   0.286   2.763   3.566
  938SOL     H2 4197   0.384   2.850   3.491
  938SOL    EPW 4198   0.307   2.843   3.534
  939SOL      O 4199   1.418   2.525   1.932
  939SOL     H1 4200   1.367   2.496   1.857
  939SOL     H2 4201   1.479   2.590   1.896
  939SOL    EPW 4202   1.419   2.529   1.920
  940SOL      O 4203   0.567   3.331   2.554
  940SOL     H1 4204   0.654   3.332   2.593
  940SOL     H2 4205   0.547   3.423   2.538
  940SOL    EPW 4206   0.574   3.341   2.556
  941SOL      O 4207   0.828   2.437   2.693
  941SOL     H1 4208   0.767   2.454   2.765
  941SOL     H2 4209   0.873   2.356   2.717
  941SOL    EPW 4210   0.826   2.430   2.703
  942SOL      O 4211   1.828   1.907   3.329
  942SOL     H1 4212   1.745   1.920   3.373
  942SOL     H2 4213   1.828   1.973   3.259
  942SOL    EPW 4214   1.820   1.916   3.326
  943SOL      O 4215   1.079   2.996   2.736
  943SOL     H1 4216   1.155   2.947   2.766
  943SOL     H2 4217   1.031   2.935   2.680
  943SOL    EPW 4218   1.082   2.984   2.733
  944SOL      O 4219   0.852   2.824   2.045
  944SOL     H1 4220   0.824   2.750   1.992
  944SOL     H2 4221   0.798   2.897   2.015
  944SOL    EPW 4222   0.844   2.824   2.036
  945SOL      O 4223   1.354   3.236   2.839
  945SOL     H1 4224   1.315   3.312   2.796
  945SOL     H2 4225   1.302   3.224   2.918
  945SOL    EPW 4226   1.344   3.243   2.843
  946SOL      O 4227   1.222   3.192   3.084
  946SOL     H1 4228   1.276   3.117   3.104
  946SOL     H2 4229   1.140   3.155   3.050
  946SOL    EPW 4230   1.219   3.180   3.082
  947SOL      O 4231   0.462   2.609   2.983
  947SOL     H1 4232   0.384   2.558   3.006
  947SOL     H2 4233   0.432   2.668   2.914
  947SOL    EPW 4234   0.450   2.610   2.978
  948SOL      O 4235   1.377   3.379   3.625
  948SOL     H1 4236   1.349   3.456   3.674
  948SOL     H2 4237   1.420   3.414   3.547
  948SOL    EPW 4238   1.378   3.391   3.622
  949SOL      O 4239   1.555   2.067   2.160
  949SOL     H1 4240   1.537   2.089   2.251
  949SOL     H2 4241   1.559   2.152   2.115
  949SOL    EPW 4242   1.554   2.078   2.165
  950SOL      O 4243   0.876   2.587   2.274
  950SOL     H1 4244   0.888   2.560   2.183
  950SOL     H2 4245   0.963   2.584   2.313
  950SOL    EPW 4246   0.886   2.584   2.269
  951SOL      O 4247   0.222   2.243   3.499
  951SOL     H1 4248   0.160   2.304   3.459
  951SOL     H2 4249   0.270   2.296   3.563
  951SOL    EPW 4250   0.221   2.255   3.502
  952SOL      O 4251   1.343   2.936   3.123
  952SOL     H1 4252   1.400   2.889   3.185
  952SOL     H2 4253   1.255   2.904   3.143
  952SOL    EPW 4254   1.340   2.927   3.132
  953SOL      O 4255   0.851   3.543   2.327
  953SOL     H1 4256   0.874   3.613   2.389
  953SOL     H2 4257   0.885   3.463   2.368
  953SOL    EPW 4258   0.857   3.542   2.338
  954SOL      O 4259   1.597   1.960   2.961
  954SOL     H1 4260   1.619   1.867   2.964
  954SOL     H2 4261   1.672   2.004   3.001
  954SOL    EPW 4262   1.607   1.955   2.966
  955SOL      O 4263   0.114   1.880   3.032
  955SOL     H1 4264   0.143   1.909   2.945
  955SOL     H2 4265   0.185   1.905   3.090
  955SOL    EPW 4266   0.124   1.886   3.029
  956SOL      O 4267   1.741   3.133   2.597
  956SOL     H1 4268   1.705   3.075   2.530
  956SOL     H2 4269   1.836   3.121   2.591
  956SOL    EPW 4270   1.748   3.126   2.589
  957SOL      O 4271   0.431   3.221   3.341
  957SOL     H1 4272   0.351   3.170   3.353
  957SOL     H2 4273   0.491   3.189   3.408
  957SOL    EPW 4274   0.429   3.213   3.349
  958SOL      O 4275   0.359   2.064   2.010
  958SOL     H1 4276   0.275   2.105   1.992
  958SOL     H2 4277   0.388   2.032   1.925
  958SOL    EPW 4278   0.353   2.065   1.999
  959SOL      O 4279   1.469   2.480   2.935
  959SOL     H1 4280   1.390   2.523   2.901
  959SOL     H2 4281   1.512   2.547   2.989
  959SOL    EPW 4282   1.465   2.492   2.937
  960SOL      O 4283   0.069   2.073   1.904
  960SOL     H1 4284   5.852   2.087   1.888
  960SOL     H2 4285   0.112   2.126   1.837
  960SOL    EPW 4286   0.063   2.081   1.895
  961SOL      O 4287   0.139   3.366   2.066
  961SOL     H1 4288   0.106   3.426   2.132
  961SOL     H2 4289   0.163   3.422   1.992
  961SOL    EPW 4290   0.138   3.378   2.065
  962SOL      O 4291   1.339   3.465   2.348
  962SOL     H1 4292   1.422   3.448   2.305
  962SOL     H2 4293   1.274   3.461   2.278
  962SOL    EPW 4294   1.341   3.462   2.336
  963SOL      O 4295   1.691   2.711   3.982
  963SOL     H1 4296   1.696   2.631   4.035
  963SOL     H2 4297   1.604   2.746   4.001
  963SOL    EPW 4298   1.682   2.706   3.989
  964SOL      O 4299   3.471   5.822   0.076
  964SOL     H1 4300   3.566   5.817   0.065
  964SOL     H2 4301   3.451   0.038   0.067
  964SOL    EPW 4302   3.479   5.831   0.074
  965SOL      O 4303   4.599   0.627   0.218
  965SOL     H1 4304   4.569   0.591   0.301
  965SOL     H2 4305   4.622   0.551   0.165
  965SOL    EPW 4306   4.598   0.615   0.221
  966SOL      O 4307   3.760   5.238   0.025
  966SOL     H1 4308   3.767   5.333   0.035
  966SOL     H2 4309   0.796   2.287   4.089
  966SOL    EPW 4310   3.758   5.247   0.017
  967SOL      O 4311   0.256   2.420   4.144
  967SOL     H1 4312   0.333   2.477   4.150
  967SOL     H2 4313   3.187   5.320   0.076
  967SOL    EPW 4314   0.263   2.422   4.154
  968SOL      O 4315   3.552   5.093   0.129
  968SOL     H1 4316   3.629   5.147   0.111
  968SOL     H2 4317   3.490   5.116   0.061
  968SOL    EPW 4318   3.554   5.101   0.120
  969SOL      O 4319   3.702   0.181   0.237
  969SOL     H1 4320   3.759   0.150   0.308
  969SOL     H2 4321   3.691   0.105   0.180
  969SOL    EPW 4322   3.707   0.170   0.238
  970SOL      O 4323   1.350   3.047   3.920
  970SOL     H1 4324   1.266   3.091   3.908
  970SOL     H2 4325   1.414   3.106   3.880
  970SOL    EPW 4326   1.348   3.058   3.915
  971SOL      O 4327   3.920   0.198   0.009
  971SOL     H1 4328   3.910   0.277   0.062
  971SOL     H2 4329   3.843   0.145   0.029
  971SOL    EPW 4330   3.911   0.201   0.017
  972SOL      O 4331   0.448   2.227   4.087
  972SOL     H1 4332   0.418   2.162   4.023
  972SOL     H2 4333   0.375   2.288   4.095
  972SOL    EPW 4334   0.437   2.226   4.081
  973SOL      O 4335   3.146   0.195   0.038
  973SOL     H1 4336   0.177   3.202   4.133
  973SOL     H2 4337   0.212   3.055   4.140
  973SOL    EPW 4338   3.143   0.194   0.026
  974SOL      O 4339   0.937   3.569   3.939
  974SOL     H1 4340   0.904   3.563   4.028
  974SOL     H2 4341   0.872   3.522   3.886
  974SOL    EPW 4342   0.926   3.564   3.943
  975SOL      O 4343   1.791   2.327   3.838
  975SOL     H1 4344   1.699   2.326   3.861
  975SOL     H2 4345   1.836   2.356   3.918
  975SOL    EPW 4346   1.786   2.330   3.849
  976SOL      O 4347   4.536   0.011   0.149
  976SOL     H1 4348   4.509   0.019   0.241
  976SOL     H2 4349   4.458   0.033   0.099
  976SOL    EPW 4350   4.525   0.014   0.154
  977SOL      O 4351   4.101   5.431   0.041
  977SOL     H1 4352   1.168   2.508   4.102
  977SOL     H2 4353   4.081   5.338   0.049
  977SOL    EPW 4354   4.100   5.423   0.032
  978SOL      O 4355   1.774   3.164   4.002
  978SOL     H1 4356   1.738   3.214   4.075
  978SOL     H2 4357   1.853   3.212   3.977
  978SOL    EPW 4358   1.779   3.174   4.007
  979SOL      O 4359   3.459   0.593   0.225
  979SOL     H1 4360   3.452   0.689   0.226
  979SOL     H2 4361   3.411   0.566   0.147
  979SOL    EPW 4362   3.453   0.601   0.217
  980SOL      O 4363   4.754   4.879   0.262
  980SOL     H1 4364   4.708   4.934   0.326
  980SOL     H2 4365   4.695   4.806   0.246
  980SOL    EPW 4366   4.743   4.877   0.267
  981SOL      O 4367   0.267   3.667   3.991
  981SOL     H1 4368   0.314   3.745   3.962
  981SOL     H2 4369   0.200   3.652   3.924
  981SOL    EPW 4370   0.265   3.673   3.981
  982SOL      O 4371   1.561   3.480   3.912
  982SOL     H1 4372   1.609   3.558   3.940
  982SOL     H2 4373   1.482   3.515   3.871
  982SOL    EPW 4374   1.558   3.492   3.911
  983SOL      O 4375   0.906   2.611   3.917
  983SOL     H1 4376   0.864   2.589   3.834
  983SOL     H2 4377   0.998   2.589   3.904
  983SOL    EPW 4378   0.911   2.606   3.907
  984SOL      O 4379   1.607   2.491   4.149
  984SOL     H1 4380   4.594   5.396   0.069
  984SOL     H2 4381   4.472   5.477   0.031
  984SOL    EPW 4382   4.543   5.431   0.005
  985SOL      O 4383   4.737   5.324   0.183
  985SOL     H1 4384   4.823   5.296   0.213
  985SOL     H2 4385   4.689   5.344   0.264
  985SOL    EPW 4386   4.741   5.323   0.195
  986SOL      O 4387   3.070   5.011   0.301
  986SOL     H1 4388   3.077   4.976   0.212
  986SOL     H2 4389   2.975   5.015   0.318
  986SOL    EPW 4390   3.060   5.008   0.293
  987SOL      O 4391   1.110   3.173   3.921
  987SOL     H1 4392   1.049   3.162   3.994
  987SOL     H2 4393   1.055   3.203   3.849
  987SOL    EPW 4394   1.097   3.175   3.921
  988SOL      O 4395   0.600   3.589   4.050
  988SOL     H1 4396   0.527   3.541   4.088
  988SOL     H2 4397   0.675   3.569   4.107
  988SOL    EPW 4398   0.600   3.582   4.060
  989SOL      O 4399   0.678   3.018   3.792
  989SOL     H1 4400   0.595   2.969   3.795
  989SOL     H2 4401   0.666   3.088   3.856
  989SOL    EPW 4402   0.668   3.020   3.800
  990SOL      O 4403   1.329   3.578   3.810
  990SOL     H1 4404   1.264   3.529   3.860
  990SOL     H2 4405   1.332   3.664   3.852
  990SOL    EPW 4406   1.322   3.582   3.819
  991SOL      O 4407   1.519   3.221   3.793
  991SOL     H1 4408   1.464   3.270   3.732
  991SOL     H2 4409   1.553   3.287   3.853
  991SOL    EPW 4410   1.516   3.233   3.793
  992SOL      O 4411   0.715   2.050   3.798
  992SOL     H1 4412   0.663   1.978   3.834
  992SOL     H2 4413   0.806   2.021   3.809
  992SOL    EPW 4414   0.719   2.039   3.803
  993SOL      O 4415   3.183   5.689   0.053
  993SOL     H1 4416   3.218   5.690   0.143
  993SOL     H2 4417   3.101   5.640   0.061
  993SOL    EPW 4418   3.178   5.684   0.064
  994SOL      O 4419   3.106   0.465   0.186
  994SOL     H1 4420   3.111   0.534   0.251
  994SOL     H2 4421   3.093   0.385   0.236
  994SOL    EPW 4422   3.105   0.464   0.198
  995SOL      O 4423   3.955   0.425   0.164
  995SOL     H1 4424   4.048   0.404   0.160
  995SOL     H2 4425   3.941   0.457   0.253
  995SOL    EPW 4426   3.963   0.426   0.173
  996SOL      O 4427   0.748   3.425   3.802
  996SOL     H1 4428   0.695   3.504   3.789
  996SOL     H2 4429   0.696   3.372   3.863
  996SOL    EPW 4430   0.736   3.428   3.807
  997SOL      O 4431   1.145   2.079   4.018
  997SOL     H1 4432   1.078   2.043   3.960
  997SOL     H2 4433   1.195   2.139   3.963
  997SOL    EPW 4434   1.143   2.081   4.006
  998SOL      O 4435   4.000   5.513   0.325
  998SOL     H1 4436   4.021   5.428   0.287
  998SOL     H2 4437   4.015   5.576   0.254
  998SOL    EPW 4438   4.004   5.511   0.313
  999SOL      O 4439   3.309   0.536   0.006
  999SOL     H1 4440   0.328   3.527   4.094
  999SOL     H2 4441   3.237   0.499   0.058
  999SOL    EPW 4442   3.297   0.538   0.005
 1000SOL      O 4443   3.744   5.851   0.049
 1000SOL     H1 4444   0.816   2.902   4.110
 1000SOL     H2 4445   3.808   5.791   0.088
 1000SOL    EPW 4446   3.752   5.844   0.043
 1001SOL      O 4447   4.368   0.745   0.132
 1001SOL     H1 4448   4.336   0.676   0.074
 1001SOL     H2 4449   4.452   0.713   0.165
 1001SOL    EPW 4450   4.373   0.734   0.130
 1002SOL      O 4451   3.051   0.221   0.310
 1002SOL     H1 4452   3.135   0.208   0.355
 1002SOL     H2 4453   3.066   0.189   0.221
 1002SOL    EPW 4454   3.061   0.216   0.306
 1003SOL      O 4455   1.296   2.223   3.841
 1003SOL     H1 4456   1.258   2.298   3.796
 1003SOL     H2 4457   1.379   2.256   3.876
 1003SOL    EPW 4458   1.301   2.235   3.840
 1004SOL      O 4459   0.973   1.971   3.831
 1004SOL     H1 4460   1.002   1.971   3.739
 1004SOL     H2 4461   0.960   1.879   3.852
 1004SOL    EPW 4462   0.975   1.962   3.823
 1005SOL      O 4463   1.438   2.784   4.023
 1005SOL     H1 4464   1.388   2.866   4.017
 1005SOL     H2 4465   1.413   2.747   4.108
 1005SOL    EPW 4466   1.430   2.789   4.032
 1006SOL      O 4467   0.434   2.894   3.785
 1006SOL     H1 4468   0.370   2.885   3.856
 1006SOL     H2 4469   0.381   2.889   3.705
 1006SOL    EPW 4470   0.421   2.892   3.784
 1007SOL      O 4471   1.125   2.847   4.032
 1007SOL     H1 4472   1.041   2.865   3.990
 1007SOL     H2 4473   1.161   2.933   4.052
 1007SOL    EPW 4474   1.120   2.858   4.030
 1008SOL      O 4475   3.707   4.901   0.262
 1008SOL     H1 4476   3.662   4.963   0.204
 1008SOL     H2 4477   3.788   4.880   0.216
 1008SOL    EPW 4478   3.711   4.906   0.251
 1009SOL      O 4479   3.424   0.212   0.063
 1009SOL     H1 4480   3.441   0.254   0.148
 1009SOL     H2 4481   3.329   0.219   0.052
 1009SOL    EPW 4482   3.416   0.217   0.071
 1010SOL      O 4483   0.556   2.477   3.868
 1010SOL     H1 4484   0.528   2.519   3.949
 1010SOL     H2 4485   0.611   2.404   3.897
 1010SOL    EPW 4486   0.559   2.474   3.880
 1011SOL      O 4487   1.531   2.353   3.920
 1011SOL     H1 4488   1.490   2.424   3.870
 1011SOL     H2 4489   1.550   2.392   4.005
 1011SOL    EPW 4490   1.528   2.365   3.924
 1012SOL      O 4491   3.360   4.914   0.229
 1012SOL     H1 4492   3.424   4.972   0.190
 1012SOL     H2 4493   3.284   4.919   0.170
 1012SOL    EPW 4494   3.358   4.921   0.219
 1013SOL      O 4495   1.184   2.588   3.938
 1013SOL     H1 4496   1.262   2.576   3.884
 1013SOL     H2 4497   1.187   2.680   3.964
 1013SOL    EPW 4498   1.192   2.597   3.935
 1014SOL      O 4499   3.349   5.697   0.282
 1014SOL     H1 4500   3.394   5.749   0.215
 1014SOL     H2 4501   3.400   5.617   0.288
 1014SOL    EPW 4502   3.359   5.694   0.275
 1015SOL      O 4503   4.356   4.989   0.186
 1015SOL     H1 4504   4.321   4.901   0.202
 1015SOL     H2 4505   4.352   5.032   0.271
 1015SOL    EPW 4506   4.352   4.984   0.197
 1016SOL      O 4507   4.023   5.057   0.332
 1016SOL     H1 4508   4.021   5.111   0.252
 1016SOL     H2 4509   3.957   5.097   0.388
 1016SOL    EPW 4510   4.016   5.067   0.329
 1017SOL      O 4511   0.977   3.302   3.718
 1017SOL     H1 4512   1.011   3.360   3.651
 1017SOL     H2 4513   0.892   3.339   3.742
 1017SOL    EPW 4514   0.971   3.312   3.713
 1018SOL      O 4515   2.961   5.516   0.010
 1018SOL     H1 4516   2.898   5.494   0.078
 1018SOL     H2 4517   3.030   5.450   0.019
 1018SOL    EPW 4518   2.962   5.507   0.018
 1019SOL      O 4519   4.226   0.350   0.162
 1019SOL     H1 4520   4.267   0.364   0.247
 1019SOL     H2 4521   4.267   0.415   0.105
 1019SOL    EPW 4522   4.235   0.358   0.165
 1020SOL      O 4523   1.363   1.918   3.962
 1020SOL     H1 4524   1.433   1.953   4.017
 1020SOL     H2 4525   1.285   1.967   3.990
 1020SOL    EPW 4526   1.362   1.927   3.971
 1021SOL      O 4527   4.330   5.569   0.096
 1021SOL     H1 4528   4.250   5.519   0.082
 1021SOL     H2 4529   4.351   5.556   0.189
 1021SOL    EPW 4530   4.324   5.562   0.105
 1022SOL      O 4531   0.760   2.292   3.914
 1022SOL     H1 4532   0.830   2.315   3.852
 1022SOL     H2 4533   0.730   2.206   3.885
 1022SOL    EPW 4534   0.765   2.285   3.904
 1023SOL      O 4535   0.249   2.928   4.004
 1023SOL     H1 4536   0.156   2.928   3.982
 1023SOL     H2 4537   0.257   2.862   4.073
 1023SOL    EPW 4538   0.240   2.921   4.009
 1024SOL      O 4539   0.623   3.228   3.965
 1024SOL     H1 4540   0.629   3.222   4.061
 1024SOL     H2 4541   0.530   3.216   3.946
 1024SOL    EPW 4542   0.614   3.226   3.974
 1025SOL      O 4543   1.169   3.435   3.970
 1025SOL     H1 4544   1.149   3.343   3.951
 1025SOL     H2 4545   1.085   3.480   3.962
 1025SOL    EPW 4546   1.158   3.430   3.967
 1026SOL      O 4547   4.015   5.174   0.080
 1026SOL     H1 4548   4.044   5.116   0.010
 1026SOL     H2 4549   3.923   5.190   0.061
 1026SOL    EPW 4550   4.008   5.169   0.071
 1027SOL      O 4551   3.136   4.907   0.054
 1027SOL     H1 4552   0.242   1.982   4.126
 1027SOL     H2 4553   3.050   4.873   0.029
 1027SOL    EPW 4554   3.131   4.904   0.042
 1028SOL      O 4555   4.682   0.399   0.076
 1028SOL     H1 4556   4.694   0.316   0.122
 1028SOL     H2 4557   4.770   0.436   0.071
 1028SOL    EPW 4558   4.693   0.394   0.081
 1029SOL      O 4559   4.293   0.111   0.041
 1029SOL     H1 4560   4.275   0.198   0.079
 1029SOL     H2 4561   1.362   3.066   4.103
 1029SOL    EPW 4562   4.292   0.122   0.035
 1030SOL      O 4563   3.972   4.844   0.166
 1030SOL     H1 4564   3.988   4.910   0.234
 1030SOL     H2 4565   4.040   4.861   0.100
 1030SOL    EPW 4566   3.981   4.853   0.166
 1031SOL      O 4567   4.717   5.689   0.225
 1031SOL     H1 4568   4.796   5.715   0.178
 1031SOL     H2 4569   4.648   5.745   0.187
 1031SOL    EPW 4570   4.718   5.698   0.216
 1032SOL      O 4571   0.474   2.588   4.125
 1032SOL     H1 4572   0.427   2.670   4.135
 1032SOL     H2 4573   3.478   5.529   0.040
 1032SOL    EPW 4574   0.476   2.597   4.134
 1033SOL      O 4575   3.151   5.266   0.240
 1033SOL     H1 4576   3.238   5.294   0.267
 1033SOL     H2 4577   3.142   5.177   0.273
 1033SOL    EPW 4578   3.159   5.260   0.246
 1034SOL      O 4579   1.685   3.725   3.946
 1034SOL     H1 4580   1.780   3.737   3.937
 1034SOL     H2 4581   1.655   3.805   3.990
 1034SOL    EPW 4582   1.692   3.735   3.950
 1035SOL      O 4583   5.858   2.981   3.965
 1035SOL     H1 4584   0.019   3.036   3.897
 1035SOL     H2 4585   5.770   2.961   3.933
 1035SOL    EPW 4586   5.853   2.984   3.954
 1036SOL      O 4587   0.629   3.677   3.792
 1036SOL     H1 4588   0.550   3.708   3.747
 1036SOL     H2 4589   0.600   3.658   3.881
 1036SOL    EPW 4590   0.618   3.679   3.797
 1037SOL      O 4591   1.398   2.536   3.770
 1037SOL     H1 4592   1.343   2.507   3.698
 1037SOL     H2 4593   1.466   2.590   3.728
 1037SOL    EPW 4594   1.399   2.539   3.758
 1038SOL      O 4595   3.484   0.328   0.304
 1038SOL     H1 4596   3.568   0.284   0.291
 1038SOL     H2 4597   3.500   0.418   0.277
 1038SOL    EPW 4598   3.495   0.333   0.299
 1039SOL      O 4599   0.866   2.879   3.942
 1039SOL     H1 4600   0.864   2.786   3.921
 1039SOL     H2 4601   0.804   2.920   3.881
 1039SOL    EPW 4602   0.859   2.874   3.934
 1040SOL      O 4603   1.573   2.011   4.120
 1040SOL     H1 4604   4.461   4.969   0.044
 1040SOL     H2 4605   1.653   2.064   4.129
 1040SOL    EPW 4606   1.576   2.019   4.130
 1041SOL      O 4607   3.788   5.508   0.028
 1041SOL     H1 4608   0.860   2.580   4.089
 1041SOL     H2 4609   3.867   5.547   0.065
 1041SOL    EPW 4610   3.798   5.513   0.022
 1042SOL      O 4611   3.780   0.601   0.033
 1042SOL     H1 4612   3.809   0.687   0.062
 1042SOL     H2 4613   3.836   0.540   0.081
 1042SOL    EPW 4614   3.789   0.604   0.041
 1043SOL      O 4615   0.074   2.049   3.709
 1043SOL     H1 4616   0.027   2.075   3.788
 1043SOL     H2 4617   0.166   2.045   3.736
 1043SOL    EPW 4618   0.079   2.051   3.720
 1044SOL      O 4619   0.152   3.332   3.991
 1044SOL     H1 4620   0.107   3.404   4.034
 1044SOL     H2 4621   0.162   3.360   3.900
 1044SOL    EPW 4622   0.149   3.342   3.986
 1045SOL      O 4623   1.384   3.461   4.133
 1045SOL     H1 4624   1.456   3.459   4.070
 1045SOL     H2 4625   1.305   3.457   4.079
 1045SOL    EPW 4626   1.383   3.461   4.120
 1046SOL      O 4627   1.711   4.576   0.275
 1046SOL     H1 4628   1.737   4.559   0.366
 1046SOL     H2 4629   1.617   4.597   0.281
 1046SOL    EPW 4630   1.704   4.576   0.285
 1047SOL      O 4631   1.623   4.495   1.249
 1047SOL     H1 4632   1.584   4.560   1.307
 1047SOL     H2 4633   1.709   4.531   1.227
 1047SOL    EPW 4634   1.628   4.506   1.253
 1048SOL      O 4635   0.531   4.784   0.523
 1048SOL     H1 4636   0.627   4.776   0.522
 1048SOL     H2 4637   0.514   4.871   0.486
 1048SOL    EPW 4638   0.540   4.792   0.519
 1049SOL      O 4639   1.631   5.404   0.699
 1049SOL     H1 4640   1.643   5.374   0.789
 1049SOL     H2 4641   1.658   5.329   0.646
 1049SOL    EPW 4642   1.635   5.392   0.703
 1050SOL      O 4643   1.065   5.354   1.616
 1050SOL     H1 4644   1.036   5.391   1.533
 1050SOL     H2 4645   1.113   5.275   1.592
 1050SOL    EPW 4646   1.067   5.350   1.605
 1051SOL      O 4647   1.701   4.922   1.279
 1051SOL     H1 4648   1.631   4.883   1.227
 1051SOL     H2 4649   1.773   4.934   1.217
 1051SOL    EPW 4650   1.701   4.920   1.267
 1052SOL      O 4651   0.821   4.180   0.472
 1052SOL     H1 4652   0.801   4.270   0.496
 1052SOL     H2 4653   0.843   4.185   0.379
 1052SOL    EPW 4654   0.821   4.190   0.465
 1053SOL      O 4655   0.321   4.168   0.446
 1053SOL     H1 4656   0.343   4.256   0.414
 1053SOL     H2 4657   0.285   4.183   0.534
 1053SOL    EPW 4658   0.319   4.179   0.452
 1054SOL      O 4659   0.373   4.625   1.340
 1054SOL     H1 4660   0.416   4.552   1.295
 1054SOL     H2 4661   0.347   4.685   1.271
 1054SOL    EPW 4662   0.374   4.623   1.328
 1055SOL      O 4663   0.648   4.007   0.599
 1055SOL     H1 4664   0.715   4.068   0.570
 1055SOL     H2 4665   0.597   3.987   0.521
 1055SOL    EPW 4666   0.649   4.011   0.588
 1056SOL      O 4667   0.796   5.029   0.696
 1056SOL     H1 4668   0.838   4.993   0.774
 1056SOL     H2 4669   0.786   4.953   0.637
 1056SOL    EPW 4670   0.800   5.017   0.698
 1057SOL      O 4671   0.710   5.221   1.597
 1057SOL     H1 4672   0.766   5.248   1.670
 1057SOL     H2 4673   0.770   5.187   1.531
 1057SOL    EPW 4674   0.722   5.220   1.598
 1058SOL      O 4675   0.529   4.414   0.623
 1058SOL     H1 4676   0.524   4.337   0.680
 1058SOL     H2 4677   0.623   4.427   0.609
 1058SOL    EPW 4678   0.539   4.407   0.628
 1059SOL      O 4679   0.860   5.115   1.399
 1059SOL     H1 4680   0.847   5.168   1.320
 1059SOL     H2 4681   0.821   5.030   1.378
 1059SOL    EPW 4682   0.855   5.112   1.388
 1060SOL      O 4683   0.655   4.311   1.062
 1060SOL     H1 4684   0.564   4.337   1.079
 1060SOL     H2 4685   0.655   4.216   1.069
 1060SOL    EPW 4686   0.645   4.304   1.065
 1061SOL      O 4687   0.455   4.634   0.941
 1061SOL     H1 4688   0.412   4.636   0.856
 1061SOL     H2 4689   0.404   4.693   0.995
 1061SOL    EPW 4690   0.445   4.641   0.938
 1062SOL      O 4691   0.090   5.486   0.895
 1062SOL     H1 4692   0.163   5.544   0.917
 1062SOL     H2 4693   0.097   5.475   0.800
 1062SOL    EPW 4694   0.098   5.491   0.888
 1063SOL      O 4695   1.334   4.890   0.181
 1063SOL     H1 4696   1.248   4.932   0.182
 1063SOL     H2 4697   1.392   4.956   0.145
 1063SOL    EPW 4698   1.331   4.902   0.177
 1064SOL      O 4699   0.335   5.041   0.850
 1064SOL     H1 4700   0.264   5.105   0.860
 1064SOL     H2 4701   0.388   5.074   0.778
 1064SOL    EPW 4702   0.333   5.051   0.844
 1065SOL      O 4703   0.920   4.715   0.749
 1065SOL     H1 4704   0.839   4.718   0.799
 1065SOL     H2 4705   0.956   4.628   0.766
 1065SOL    EPW 4706   0.915   4.706   0.756
 1066SOL      O 4707   0.350   5.412   1.505
 1066SOL     H1 4708   0.308   5.422   1.420
 1066SOL     H2 4709   0.369   5.318   1.512
 1066SOL    EPW 4710   0.347   5.403   1.497
 1067SOL      O 4711   0.909   5.032   0.386
 1067SOL     H1 4712   0.923   5.101   0.452
 1067SOL     H2 4713   0.870   4.960   0.436
 1067SOL    EPW 4714   0.906   5.032   0.399
 1068SOL      O 4715   1.770   4.042   0.849
 1068SOL     H1 4716   1.709   4.050   0.922
 1068SOL     H2 4717   1.762   3.951   0.821
 1068SOL    EPW 4718   1.763   4.033   0.854
 1069SOL      O 4719   0.485   3.956   0.394
 1069SOL     H1 4720   0.422   3.883   0.394
 1069SOL     H2 4721   0.431   4.034   0.402
 1069SOL    EPW 4722   0.472   3.956   0.395
 1070SOL      O 4723   0.256   4.916   0.339
 1070SOL     H1 4724   0.161   4.923   0.334
 1070SOL     H2 4725   0.273   4.821   0.340
 1070SOL    EPW 4726   0.248   4.906   0.338
 1071SOL      O 4727   0.884   5.407   0.143
 1071SOL     H1 4728   0.869   5.412   0.237
 1071SOL     H2 4729   0.799   5.385   0.106
 1071SOL    EPW 4730   0.874   5.405   0.149
 1072SOL      O 4731   1.852   4.286   0.183
 1072SOL     H1 4732   1.769   4.245   0.209
 1072SOL     H2 4733   1.872   4.345   0.256
 1072SOL    EPW 4734   1.845   4.288   0.194
 1073SOL      O 4735   1.596   4.850   0.495
 1073SOL     H1 4736   1.502   4.861   0.481
 1073SOL     H2 4737   1.637   4.909   0.431
 1073SOL    EPW 4738   1.590   4.858   0.486
 1074SOL      O 4739   1.449   4.456   1.579
 1074SOL     H1 4740   1.505   4.387   1.542
 1074SOL     H2 4741   1.360   4.429   1.555
 1074SOL    EPW 4742   1.446   4.445   1.572
 1075SOL      O 4743   0.209   5.404   1.273
 1075SOL     H1 4744   0.148   5.347   1.320
 1075SOL     H2 4745   0.155   5.476   1.241
 1075SOL    EPW 4746   0.197   5.406   1.275
 1076SOL      O 4747   1.127   4.859   1.557
 1076SOL     H1 4748   1.129   4.953   1.537
 1076SOL     H2 4749   1.206   4.844   1.609
 1076SOL    EPW 4750   1.136   4.868   1.560
 1077SOL      O 4751   0.924   4.233   1.816
 1077SOL     H1 4752   1.016   4.225   1.791
 1077SOL     H2 4753   0.879   4.168   1.762
 1077SOL    EPW 4754   0.929   4.225   1.808
 1078SOL      O 4755   1.530   4.743   0.865
 1078SOL     H1 4756   1.520   4.674   0.799
 1078SOL     H2 4757   1.573   4.815   0.818
 1078SOL    EPW 4758   1.533   4.743   0.853
 1079SOL      O 4759   1.078   4.437   0.513
 1079SOL     H1 4760   1.103   4.497   0.443
 1079SOL     H2 4761   1.091   4.349   0.475
 1079SOL    EPW 4762   1.082   4.434   0.501
 1080SOL      O 4763   1.749   5.024   0.341
 1080SOL     H1 4764   1.743   5.086   0.414
 1080SOL     H2 4765   1.800   5.072   0.275
 1080SOL    EPW 4766   1.754   5.036   0.342
 1081SOL      O 4767   0.746   4.059   1.677
 1081SOL     H1 4768   0.756   3.985   1.618
 1081SOL     H2 4769   0.724   4.020   1.762
 1081SOL    EPW 4770   0.745   4.047   1.680
 1082SOL      O 4771   0.477   5.404   0.643
 1082SOL     H1 4772   0.506   5.494   0.631
 1082SOL     H2 4773   0.402   5.394   0.585
 1082SOL    EPW 4774   0.472   5.412   0.636
 1083SOL      O 4775   1.809   3.792   0.732
 1083SOL     H1 4776   1.877   3.751   0.785
 1083SOL     H2 4777   1.757   3.719   0.699
 1083SOL    EPW 4778   1.811   3.780   0.734
 1084SOL      O 4779   0.174   5.388   0.163
 1084SOL     H1 4780   0.207   5.422   0.079
 1084SOL     H2 4781   0.081   5.409   0.163
 1084SOL    EPW 4782   0.168   5.394   0.154
 1085SOL      O 4783   0.974   3.799   1.036
 1085SOL     H1 4784   0.971   3.888   1.001
 1085SOL     H2 4785   1.067   3.778   1.044
 1085SOL    EPW 4786   0.983   3.806   1.033
 1086SOL      O 4787   1.500   5.326   0.206
 1086SOL     H1 4788   1.583   5.374   0.210
 1086SOL     H2 4789   1.447   5.375   0.142
 1086SOL    EPW 4790   1.503   5.336   0.199
 1087SOL      O 4791   0.962   4.481   0.113
 1087SOL     H1 4792   0.938   4.477   0.021
 1087SOL     H2 4793   1.056   4.501   0.113
 1087SOL    EPW 4794   0.970   4.483   0.104
 1088SOL      O 4795   1.593   4.257   0.507
 1088SOL     H1 4796   1.652   4.268   0.582
 1088SOL     H2 4797   1.522   4.320   0.522
 1088SOL    EPW 4798   1.592   4.265   0.516
 1089SOL      O 4799   0.881   4.733   1.577
 1089SOL     H1 4800   0.850   4.719   1.667
 1089SOL     H2 4801   0.965   4.777   1.588
 1089SOL    EPW 4802   0.886   4.737   1.588
 1090SOL      O 4803   0.946   3.827   1.309
 1090SOL     H1 4804   0.944   3.813   1.215
 1090SOL     H2 4805   0.955   3.921   1.320
 1090SOL    EPW 4806   0.947   3.835   1.300
 1091SOL      O 4807   1.034   4.259   1.124
 1091SOL     H1 4808   1.123   4.293   1.131
 1091SOL     H2 4809   0.978   4.336   1.127
 1091SOL    EPW 4810   1.038   4.271   1.125
 1092SOL      O 4811   1.631   4.289   1.443
 1092SOL     H1 4812   1.585   4.211   1.412
 1092SOL     H2 4813   1.633   4.348   1.367
 1092SOL    EPW 4814   1.626   4.287   1.432
 1093SOL      O 4815   1.744   5.430   1.380
 1093SOL     H1 4816   1.684   5.395   1.446
 1093SOL     H2 4817   1.773   5.514   1.417
 1093SOL    EPW 4818   1.741   5.436   1.391
 1094SOL      O 4819   1.067   4.031   1.592
 1094SOL     H1 4820   1.026   4.049   1.507
 1094SOL     H2 4821   1.047   3.939   1.610
 1094SOL    EPW 4822   1.060   4.023   1.585
 1095SOL      O 4823   1.470   4.888   1.595
 1095SOL     H1 4824   1.547   4.935   1.628
 1095SOL     H2 4825   1.438   4.839   1.671
 1095SOL    EPW 4826   1.475   4.888   1.607
 1096SOL      O 4827   1.818   4.259   0.684
 1096SOL     H1 4828   1.913   4.254   0.692
 1096SOL     H2 4829   1.787   4.180   0.728
 1096SOL    EPW 4830   1.825   4.250   0.689
 1097SOL      O 4831   0.160   3.917   0.683
 1097SOL     H1 4832   0.193   3.860   0.614
 1097SOL     H2 4833   0.065   3.918   0.670
 1097SOL    EPW 4834   0.153   3.911   0.674
 1098SOL      O 4835   1.106   5.033   0.206
 1098SOL     H1 4836   1.040   5.030   0.276
 1098SOL     H2 4837   1.055   5.024   0.125
 1098SOL    EPW 4838   1.093   5.031   0.205
 1099SOL      O 4839   0.115   4.194   1.035
 1099SOL     H1 4840   0.097   4.280   0.997
 1099SOL     H2 4841   0.042   4.139   1.008
 1099SOL    EPW 4842   0.106   4.197   1.028
 1100SOL      O 4843   0.591   5.500   0.360
 1100SOL     H1 4844   0.523   5.440   0.390
 1100SOL     H2 4845   0.673   5.461   0.391
 1100SOL    EPW 4846   0.593   5.489   0.366
 1101SOL      O 4847   1.684   5.004   1.710
 1101SOL     H1 4848   1.720   4.917   1.730
 1101SOL     H2 4849   1.638   5.029   1.790
 1101SOL    EPW 4850   1.683   4.998   1.721
 1102SOL      O 4851   0.720   4.872   0.111
 1102SOL     H1 4852   0.646   4.811   0.102
 1102SOL     H2 4853   0.679   4.955   0.134
 1102SOL    EPW 4854   0.707   4.874   0.112
 1103SOL      O 4855   1.871   4.623   1.224
 1103SOL     H1 4856   1.882   4.696   1.163
 1103SOL     H2 4857   1.879   4.662   1.311
 1103SOL    EPW 4858   1.873   4.635   1.227
 1104SOL      O 4859   1.670   5.309   0.953
 1104SOL     H1 4860   1.641   5.363   1.026
 1104SOL     H2 4861   1.618   5.228   0.960
 1104SOL    EPW 4862   1.662   5.306   0.962
 1105SOL      O 4863   1.305   5.457   0.050
 1105SOL     H1 4864   1.247   5.404   0.105
 1105SOL     H2 4865   1.326   5.534   0.103
 1105SOL    EPW 4866   1.301   5.459   0.061
 1106SOL      O 4867   0.148   4.449   1.248
 1106SOL     H1 4868   0.174   4.366   1.286
 1106SOL     H2 4869   0.055   4.437   1.227
 1106SOL    EPW 4870   0.140   4.439   1.250
 1107SOL      O 4871   1.467   5.087   0.062
 1107SOL     H1 4872   4.341   2.176   4.153
 1107SOL     H2 4873   1.490   5.167   0.109
 1107SOL    EPW 4874   1.463   5.099   0.060
 1108SOL      O 4875   0.720   3.901   0.072
 1108SOL     H1 4876   0.667   3.835   0.116
 1108SOL     H2 4877   0.811   3.874   0.089
 1108SOL    EPW 4878   0.724   3.891   0.078
 1109SOL      O 4879   0.155   5.561   1.642
 1109SOL     H1 4880   0.165   5.640   1.590
 1109SOL     H2 4881   0.211   5.496   1.599
 1109SOL    EPW 4882   0.162   5.563   1.632
 1110SOL      O 4883   0.307   4.781   1.119
 1110SOL     H1 4884   0.314   4.877   1.124
 1110SOL     H2 4885   0.226   4.766   1.070
 1110SOL    EPW 4886   0.299   4.790   1.114
 1111SOL      O 4887   0.789   4.729   1.140
 1111SOL     H1 4888   0.815   4.637   1.144
 1111SOL     H2 4889   0.748   4.738   1.054
 1111SOL    EPW 4890   0.788   4.720   1.131
 1112SOL      O 4891   0.123   4.600   0.547
 1112SOL     H1 4892   0.197   4.589   0.607
 1112SOL     H2 4893   0.087   4.511   0.537
 1112SOL    EPW 4894   0.127   4.589   0.553
 1113SOL      O 4895   0.401   4.297   1.852
 1113SOL     H1 4896   0.325   4.331   1.897
 1113SOL     H2 4897   0.475   4.316   1.910
 1113SOL    EPW 4898   0.401   4.303   1.863
 1114SOL      O 4899   0.754   3.837   1.512
 1114SOL     H1 4900   0.717   3.753   1.538
 1114SOL     H2 4901   0.825   3.815   1.451
 1114SOL    EPW 4902   0.758   3.826   1.509
 1115SOL      O 4903   0.449   4.278   1.585
 1115SOL     H1 4904   0.515   4.345   1.564
 1115SOL     H2 4905   0.441   4.281   1.680
 1115SOL    EPW 4906   0.455   4.286   1.593
 1116SOL      O 4907   0.950   5.481   0.901
 1116SOL     H1 4908   0.911   5.396   0.924
 1116SOL     H2 4909   0.890   5.517   0.835
 1116SOL    EPW 4910   0.939   5.476   0.896
 1117SOL      O 4911   1.339   3.855   1.802
 1117SOL     H1 4912   1.420   3.806   1.814
 1117SOL     H2 4913   1.315   3.885   1.890
 1117SOL    EPW 4914   1.345   3.853   1.813
 1118SOL      O 4915   0.233   5.180   0.567
 1118SOL     H1 4916   0.183   5.217   0.639
 1118SOL     H2 4917   0.168   5.135   0.513
 1118SOL    EPW 4918   0.221   5.179   0.569
 1119SOL      O 4919   0.965   5.221   0.574
 1119SOL     H1 4920   1.055   5.190   0.583
 1119SOL     H2 4921   0.916   5.170   0.639
 1119SOL    EPW 4922   0.969   5.213   0.582
 1120SOL      O 4923   1.790   4.371   0.952
 1120SOL     H1 4924   1.789   4.467   0.952
 1120SOL     H2 4925   1.774   4.347   0.861
 1120SOL    EPW 4926   1.788   4.379   0.942
 1121SOL      O 4927   1.621   4.562   1.855
 1121SOL     H1 4928   1.678   4.494   1.818
 1121SOL     H2 4929   1.651   4.572   1.945
 1121SOL    EPW 4930   1.630   4.556   1.860
 1122SOL      O 4931   0.637   5.335   0.036
 1122SOL     H1 4932   0.585   5.409   0.068
 1122SOL     H2 4933   0.612   5.262   0.093
 1122SOL    EPW 4934   0.629   5.335   0.046
 1123SOL      O 4935   1.121   3.930   0.304
 1123SOL     H1 4936   1.062   3.879   0.248
 1123SOL     H2 4937   1.152   4.001   0.248
 1123SOL    EPW 4938   1.118   3.932   0.292
 1124SOL      O 4939   0.954   4.099   1.345
 1124SOL     H1 4940   0.877   4.149   1.374
 1124SOL     H2 4941   0.993   4.154   1.277
 1124SOL    EPW 4942   0.950   4.111   1.341
 1125SOL      O 4943   1.231   4.470   0.988
 1125SOL     H1 4944   1.247   4.565   0.990
 1125SOL     H2 4945   1.163   4.459   0.921
 1125SOL    EPW 4946   1.225   4.479   0.981
 1126SOL      O 4947   0.687   4.772   0.892
 1126SOL     H1 4948   0.610   4.716   0.900
 1126SOL     H2 4949   0.654   4.861   0.909
 1126SOL    EPW 4950   0.675   4.776   0.895
 1127SOL      O 4951   1.517   4.285   0.814
 1127SOL     H1 4952   1.460   4.210   0.795
 1127SOL     H2 4953   1.503   4.301   0.908
 1127SOL    EPW 4954   1.509   4.278   0.822
 1128SOL      O 4955   0.404   3.954   1.555
 1128SOL     H1 4956   0.311   3.975   1.554
 1128SOL     H2 4957   0.448   4.039   1.554
 1128SOL    EPW 4958   0.399   3.965   1.554
 1129SOL      O 4959   1.030   4.466   0.786
 1129SOL     H1 4960   0.958   4.407   0.805
 1129SOL     H2 4961   1.053   4.448   0.695
 1129SOL    EPW 4962   1.025   4.458   0.778
 1130SOL      O 4963   0.324   5.381   0.398
 1130SOL     H1 4964   0.282   5.376   0.313
 1130SOL     H2 4965   0.286   5.308   0.448
 1130SOL    EPW 4966   0.315   5.372   0.394
 1131SOL      O 4967   0.809   4.805   0.514
 1131SOL     H1 4968   0.836   4.761   0.433
 1131SOL     H2 4969   0.856   4.759   0.583
 1131SOL    EPW 4970   0.817   4.796   0.513
 1132SOL      O 4971   1.399   5.270   1.240
 1132SOL     H1 4972   1.333   5.215   1.198
 1132SOL     H2 4973   1.446   5.211   1.299
 1132SOL    EPW 4974   1.397   5.258   1.241
 1133SOL      O 4975   1.370   5.483   0.665
 1133SOL     H1 4976   1.347   5.449   0.579
 1133SOL     H2 4977   1.462   5.458   0.676
 1133SOL    EPW 4978   1.378   5.476   0.657
 1134SOL      O 4979   1.357   4.060   0.763
 1134SOL     H1 4980   1.388   3.984   0.812
 1134SOL     H2 4981   1.264   4.043   0.748
 1134SOL    EPW 4982   1.350   4.050   0.767
 1135SOL      O 4983   0.139   4.868   0.749
 1135SOL     H1 4984   0.210   4.926   0.778
 1135SOL     H2 4985   0.178   4.816   0.680
 1135SOL    EPW 4986   0.151   4.869   0.745
 1136SOL      O 4987   0.625   4.967   1.715
 1136SOL     H1 4988   0.677   5.046   1.703
 1136SOL     H2 4989   0.656   4.931   1.798
 1136SOL    EPW 4990   0.634   4.972   1.723
 1137SOL      O 4991   0.144   5.253   1.705
 1137SOL     H1 4992   0.200   5.179   1.729
 1137SOL     H2 4993   0.074   5.251   1.770
 1137SOL    EPW 4994   0.142   5.245   1.715
 1138SOL      O 4995   1.184   4.137   0.144
 1138SOL     H1 4996   1.167   4.165   0.054
 1138SOL     H2 4997   1.251   4.198   0.176
 1138SOL    EPW 4998   1.189   4.147   0.138
 1139SOL      O 4999   0.973   3.790   0.119
 1139SOL     H1 5000   1.031   3.781   0.044
 1139SOL     H2 5001   0.937   3.702   0.131
 1139SOL    EPW 5002   0.975   3.779   0.112
 1140SOL      O 5003   1.452   4.643   0.287
 1140SOL     H1 5004   1.412   4.727   0.266
 1140SOL     H2 5005   1.403   4.611   0.363
 1140SOL    EPW 5006   1.442   4.648   0.293
 1141SOL      O 5007   1.125   5.117   1.469
 1141SOL     H1 5008   1.033   5.121   1.446
 1141SOL     H2 5009   1.170   5.105   1.385
 1141SOL    EPW 5010   1.120   5.116   1.457
 1142SOL      O 5011   0.389   3.776   1.771
 1142SOL     H1 5012   0.313   3.726   1.741
 1142SOL     H2 5013   0.408   3.835   1.699
 1142SOL    EPW 5014   0.383   3.777   1.760
 1143SOL      O 5015   0.414   5.302   1.125
 1143SOL     H1 5016   0.487   5.351   1.164
 1143SOL     H2 5017   0.336   5.339   1.167
 1143SOL    EPW 5018   0.414   5.311   1.134
 1144SOL      O 5019   1.861   4.773   1.459
 1144SOL     H1 5020   1.798   4.826   1.412
 1144SOL     H2 5021   1.823   4.762   1.547
 1144SOL    EPW 5022   1.850   4.777   1.464
 1145SOL      O 5023   0.824   5.300   1.197
 1145SOL     H1 5024   0.814   5.275   1.105
 1145SOL     H2 5025   0.752   5.362   1.213
 1145SOL    EPW 5026   0.815   5.304   1.189
 1146SOL      O 5027   0.508   4.687   0.125
 1146SOL     H1 5028   0.441   4.702   0.191
 1146SOL     H2 5029   0.463   4.638   0.056
 1146SOL    EPW 5030   0.496   4.684   0.125
 1147SOL      O 5031   1.153   4.664   0.360
 1147SOL     H1 5032   1.070   4.699   0.328
 1147SOL     H2 5033   1.195   4.737   0.404
 1147SOL    EPW 5034   1.148   4.675   0.361
 1148SOL      O 5035   0.588   5.021   0.977
 1148SOL     H1 5036   0.567   5.018   1.070
 1148SOL     H2 5037   0.504   5.032   0.933
 1148SOL    EPW 5038   0.577   5.022   0.982
 1149SOL      O 5039   1.465   4.071   1.381
 1149SOL     H1 5040   1.426   4.060   1.468
 1149SOL     H2 5041   1.461   3.984   1.342
 1149SOL    EPW 5042   1.461   4.061   1.386
 1150SOL      O 5043   1.790   3.918   1.233
 1150SOL     H1 5044   1.779   4.007   1.200
 1150SOL     H2 5045   1.870   3.887   1.192
 1150SOL    EPW 5046   1.797   3.924   1.225
 1151SOL      O 5047   0.055   4.974   1.639
 1151SOL     H1 5048   0.078   4.960   1.731
 1151SOL     H2 5049   5.853   5.028   1.642
 1151SOL    EPW 5050   0.049   4.978   1.649
 1152SOL      O 5051   0.785   3.763   0.654
 1152SOL     H1 5052   0.740   3.847   0.641
 1152SOL     H2 5053   0.865   3.770   0.603
 1152SOL    EPW 5054   0.788   3.773   0.647
 1153SOL      O 5055   0.489   5.035   0.429
 1153SOL     H1 5056   0.487   5.077   0.515
 1153SOL     H2 5057   0.397   5.015   0.410
 1153SOL    EPW 5058   0.479   5.038   0.436
 1154SOL      O 5059   1.016   5.430   1.355
 1154SOL     H1 5060   0.953   5.389   1.296
 1154SOL     H2 5061   1.100   5.419   1.311
 1154SOL    EPW 5062   1.018   5.424   1.344
 1155SOL      O 5063   1.204   5.364   0.855
 1155SOL     H1 5064   1.257   5.411   0.791
 1155SOL     H2 5065   1.123   5.414   0.861
 1155SOL    EPW 5066   1.201   5.374   0.849
 1156SOL      O 5067   1.581   5.461   1.167
 1156SOL     H1 5068   1.647   5.446   1.235
 1156SOL     H2 5069   1.512   5.397   1.185
 1156SOL    EPW 5070   1.580   5.453   1.176
 1157SOL      O 5071   0.743   4.444   1.785
 1157SOL     H1 5072   0.803   4.369   1.785
 1157SOL     H2 5073   0.693   4.434   1.867
 1157SOL    EPW 5074   0.744   4.435   1.794
 1158SOL      O 5075   1.506   4.673   1.428
 1158SOL     H1 5076   1.503   4.750   1.486
 1158SOL     H2 5077   1.484   4.599   1.485
 1158SOL    EPW 5078   1.503   4.673   1.441
 1159SOL      O 5079   1.092   3.763   1.709
 1159SOL     H1 5080   1.096   3.671   1.681
 1159SOL     H2 5081   1.182   3.784   1.735
 1159SOL    EPW 5082   1.102   3.755   1.708
 1160SOL      O 5083   0.428   4.295   0.115
 1160SOL     H1 5084   0.411   4.326   0.204
 1160SOL     H2 5085   0.523   4.289   0.109
 1160SOL    EPW 5086   0.436   4.298   0.124
 1161SOL      O 5087   1.536   5.076   0.952
 1161SOL     H1 5088   1.585   5.027   0.886
 1161SOL     H2 5089   1.448   5.083   0.915
 1161SOL    EPW 5090   1.532   5.072   0.941
 1162SOL      O 5091   1.094   4.725   1.320
 1162SOL     H1 5092   1.102   4.775   1.402
 1162SOL     H2 5093   1.056   4.787   1.258
 1162SOL    EPW 5094   1.091   4.737   1.322
 1163SOL      O 5095   1.607   4.181   0.247
 1163SOL     H1 5096   1.528   4.225   0.215
 1163SOL     H2 5097   1.612   4.205   0.339
 1163SOL    EPW 5098   1.599   4.188   0.253
 1164SOL      O 5099   0.455   3.824   0.692
 1164SOL     H1 5100   0.509   3.897   0.659
 1164SOL     H2 5101   0.382   3.867   0.738
 1164SOL    EPW 5102   0.453   3.837   0.693
 1165SOL      O 5103   0.731   4.229   1.446
 1165SOL     H1 5104   0.715   4.321   1.469
 1165SOL     H2 5105   0.723   4.182   1.529
 1165SOL    EPW 5106   0.729   4.234   1.457
 1166SOL      O 5107   1.226   4.540   0.118
 1166SOL     H1 5108   1.283   4.591   0.061
 1166SOL     H2 5109   1.223   4.589   0.200
 1166SOL    EPW 5110   1.232   4.550   0.121
 1167SOL      O 5111   0.369   4.628   0.678
 1167SOL     H1 5112   0.419   4.692   0.627
 1167SOL     H2 5113   0.418   4.546   0.670
 1167SOL    EPW 5114   0.379   4.626   0.672
 1168SOL      O 5115   1.492   4.002   0.528
 1168SOL     H1 5116   1.438   4.007   0.608
 1168SOL     H2 5117   1.530   4.089   0.519
 1168SOL    EPW 5118   1.490   4.012   0.536
 1169SOL      O 5119   1.095   3.987   0.718
 1169SOL     H1 5120   1.085   4.054   0.650
 1169SOL     H2 5121   1.039   4.017   0.789
 1169SOL    EPW 5122   1.088   3.998   0.718
 1170SOL      O 5123   3.900   2.324   4.067
 1170SOL     H1 5124   3.883   2.382   4.142
 1170SOL     H2 5125   3.889   2.236   4.103
 1170SOL    EPW 5126   3.897   2.321   4.079
 1171SOL      O 5127   1.786   4.758   1.750
 1171SOL     H1 5128   1.723   4.690   1.772
 1171SOL     H2 5129   1.827   4.780   1.834
 1171SOL    EPW 5130   1.784   4.753   1.762
 1172SOL      O 5131   0.112   5.210   0.855
 1172SOL     H1 5132   0.112   5.301   0.886
 1172SOL     H2 5133   0.020   5.184   0.856
 1172SOL    EPW 5134   0.102   5.217   0.859
 1173SOL      O 5135   5.875   4.356   0.496
 1173SOL     H1 5136   5.856   4.289   0.561
 1173SOL     H2 5137   5.871   4.310   0.412
 1173SOL    EPW 5138   5.873   4.344   0.494
 1174SOL      O 5139   1.603   5.578   1.818
 1174SOL     H1 5140   1.625   5.486   1.802
 1174SOL     H2 5141   1.633   5.595   1.907
 1174SOL    EPW 5142   1.608   5.570   1.825
 1175SOL      O 5143   1.225   5.116   0.571
 1175SOL     H1 5144   1.259   5.117   0.660
 1175SOL     H2 5145   1.270   5.189   0.528
 1175SOL    EPW 5146   1.233   5.124   0.576
 1176SOL      O 5147   0.439   4.116   1.281
 1176SOL     H1 5148   0.501   4.186   1.299
 1176SOL     H2 5149   0.431   4.115   1.186
 1176SOL    EPW 5150   0.445   4.123   1.273
 1177SOL      O 5151   0.377   4.098   1.012
 1177SOL     H1 5152   0.359   4.007   0.992
 1177SOL     H2 5153   0.292   4.141   1.011
 1177SOL    EPW 5154   0.366   4.093   1.009
 1178SOL      O 5155   1.222   4.262   1.761
 1178SOL     H1 5156   1.265   4.188   1.720
 1178SOL     H2 5157   1.197   4.319   1.687
 1178SOL    EPW 5158   1.224   4.260   1.748
 1179SOL      O 5159   1.332   4.056   1.620
 1179SOL     H1 5160   1.239   4.048   1.597
 1179SOL     H2 5161   1.348   3.986   1.683
 1179SOL    EPW 5162   1.324   4.048   1.624
 1180SOL      O 5163   0.614   3.839   0.915
 1180SOL     H1 5164   0.668   3.760   0.922
 1180SOL     H2 5165   0.552   3.819   0.846
 1180SOL    EPW 5166   0.613   3.829   0.908
 1181SOL      O 5167   0.616   5.468   1.509
 1181SOL     H1 5168   0.521   5.459   1.516
 1181SOL     H2 5169   0.650   5.384   1.539
 1181SOL    EPW 5170   0.610   5.458   1.513
 1182SOL      O 5171   1.683   4.154   1.096
 1182SOL     H1 5172   1.592   4.177   1.116
 1182SOL     H2 5173   1.720   4.234   1.059
 1182SOL    EPW 5174   1.677   4.165   1.094
 1183SOL      O 5175   1.291   4.738   0.987
 1183SOL     H1 5176   1.312   4.760   1.078
 1183SOL     H2 5177   1.374   4.744   0.941
 1183SOL    EPW 5178   1.302   4.741   0.992
 1184SOL      O 5179   1.298   4.267   1.288
 1184SOL     H1 5180   1.352   4.300   1.217
 1184SOL     H2 5181   1.346   4.190   1.321
 1184SOL    EPW 5182   1.309   4.262   1.284
 1185SOL      O 5183   1.818   4.380   1.798
 1185SOL     H1 5184   1.822   4.315   1.868
 1185SOL     H2 5185   1.829   4.329   1.718
 1185SOL    EPW 5186   1.820   4.367   1.797
 1186SOL      O 5187   1.400   4.750   1.817
 1186SOL     H1 5188   1.464   4.681   1.834
 1186SOL     H2 5189   1.380   4.787   1.903
 1186SOL    EPW 5190   1.405   4.747   1.828
 1187SOL      O 5191   1.350   3.807   0.198
 1187SOL     H1 5192   1.431   3.842   0.234
 1187SOL     H2 5193   1.281   3.847   0.251
 1187SOL    EPW 5194   1.351   3.815   0.208
 1188SOL      O 5195   1.365   4.449   0.493
 1188SOL     H1 5196   1.275   4.441   0.524
 1188SOL     H2 5197   1.412   4.489   0.566
 1188SOL    EPW 5198   1.360   4.452   0.504
 1189SOL      O 5199   0.368   5.051   1.239
 1189SOL     H1 5200   0.404   5.072   1.325
 1189SOL     H2 5201   0.376   5.132   1.189
 1189SOL    EPW 5202   0.372   5.062   1.242
 1190SOL      O 5203   0.701   4.039   1.069
 1190SOL     H1 5204   0.688   4.000   1.155
 1190SOL     H2 5205   0.664   3.975   1.008
 1190SOL    EPW 5206   0.695   4.028   1.072
 1191SOL      O 5207   0.612   5.468   1.231
 1191SOL     H1 5208   0.612   5.555   1.191
 1191SOL     H2 5209   0.615   5.484   1.325
 1191SOL    EPW 5210   0.612   5.479   1.237
 1192SOL      O 5211   1.527   5.094   1.411
 1192SOL     H1 5212   1.484   5.027   1.464
 1192SOL     H2 5213   1.595   5.047   1.364
 1192SOL    EPW 5214   1.530   5.082   1.412
 1193SOL      O 5215   0.558   4.760   1.547
 1193SOL     H1 5216   0.604   4.791   1.469
 1193SOL     H2 5217   0.583   4.822   1.616
 1193SOL    EPW 5218   0.566   4.770   1.546
 1194SOL      O 5219   0.747   4.864   1.374
 1194SOL     H1 5220   0.797   4.817   1.440
 1194SOL     H2 5221   0.757   4.812   1.294
 1194SOL    EPW 5222   0.753   4.854   1.372
 1195SOL      O 5223   0.698   4.279   0.105
 1195SOL     H1 5224   0.695   4.365   0.149
 1195SOL     H2 5225   0.772   4.234   0.145
 1195SOL    EPW 5226   0.706   4.284   0.114
 1196SOL      O 5227   1.557   5.322   1.556
 1196SOL     H1 5228   1.609   5.301   1.634
 1196SOL     H2 5229   1.548   5.239   1.509
 1196SOL    EPW 5230   1.561   5.311   1.559
 1197SOL      O 5231   1.243   3.755   1.070
 1197SOL     H1 5232   1.304   3.792   1.006
 1197SOL     H2 5233   1.283   3.773   1.155
 1197SOL    EPW 5234   1.254   3.761   1.073
 1198SOL      O 5235   0.274   4.643   0.324
 1198SOL     H1 5236   0.212   4.650   0.252
 1198SOL     H2 5237   0.219   4.631   0.402
 1198SOL    EPW 5238   0.262   4.642   0.325
 1199SOL      O 5239   0.565   5.105   0.174
 1199SOL     H1 5240   0.556   5.091   0.268
 1199SOL     H2 5241   0.478   5.083   0.139
 1199SOL    EPW 5242   0.554   5.101   0.180
 1200SOL      O 5243   1.140   5.308   0.216
 1200SOL     H1 5244   1.138   5.213   0.209
 1200SOL     H2 5245   1.051   5.336   0.197
 1200SOL    EPW 5246   1.131   5.301   0.213
 1201SOL      O 5247   0.488   5.463   0.910
 1201SOL     H1 5248   0.453   5.395   0.968
 1201SOL     H2 5249   0.473   5.429   0.822
 1201SOL    EPW 5250   0.483   5.452   0.907
 1202SOL      O 5251   0.999   4.902   1.130
 1202SOL     H1 5252   0.920   4.848   1.130
 1202SOL     H2 5253   1.029   4.900   1.039
 1202SOL    EPW 5254   0.994   4.896   1.120
 1203SOL      O 5255   0.069   5.235   1.441
 1203SOL     H1 5256   0.096   5.248   1.532
 1203SOL     H2 5257   5.852   5.255   1.441
 1203SOL    EPW 5258   0.062   5.238   1.451
 1204SOL      O 5259   0.943   4.067   0.949
 1204SOL     H1 5260   0.858   4.053   0.991
 1204SOL     H2 5261   0.988   4.128   1.007
 1204SOL    EPW 5262   0.939   4.072   0.960
 1205SOL      O 5263   0.630   4.483   1.544
 1205SOL     H1 5264   0.599   4.573   1.538
 1205SOL     H2 5265   0.670   4.476   1.630
 1205SOL    EPW 5266   0.631   4.492   1.552
 1206SOL      O 5267   0.359   5.002   1.726
 1206SOL     H1 5268   0.453   4.988   1.727
 1206SOL     H2 5269   0.333   4.997   1.818
 1206SOL    EPW 5270   0.366   5.000   1.736
 1207SOL      O 5271   1.431   3.802   1.301
 1207SOL     H1 5272   1.472   3.733   1.249
 1207SOL     H2 5273   1.457   3.782   1.391
 1207SOL    EPW 5274   1.438   3.792   1.305
 1208SOL      O 5275   1.688   5.321   1.793
 1208SOL     H1 5276   1.661   5.300   1.883
 1208SOL     H2 5277   1.776   5.357   1.801
 1208SOL    EPW 5278   1.694   5.322   1.804
 1209SOL      O 5279   0.496   4.182   0.773
 1209SOL     H1 5280   0.559   4.119   0.739
 1209SOL     H2 5281   0.478   4.153   0.862
 1209SOL    EPW 5282   0.501   4.172   0.779
 1210SOL      O 5283   0.087   5.588   1.908
 1210SOL     H1 5284   0.101   5.566   1.816
 1210SOL     H2 5285   0.076   5.683   1.909
 1210SOL    EPW 5286   0.087   5.596   1.898
 1211SOL      O 5287   0.755   5.255   0.935
 1211SOL     H1 5288   0.704   5.175   0.938
 1211SOL     H2 5289   0.697   5.320   0.895
 1211SOL    EPW 5290   0.744   5.254   0.931
 1212SOL      O 5291   1.086   4.149   0.498
 1212SOL     H1 5292   1.109   4.080   0.435
 1212SOL     H2 5293   0.991   4.156   0.492
 1212SOL    EPW 5294   1.079   4.142   0.490
 1213SOL      O 5295   0.264   3.784   0.395
 1213SOL     H1 5296   0.220   3.864   0.367
 1213SOL     H2 5297   0.245   3.720   0.327
 1213SOL    EPW 5298   0.257   3.786   0.385
 1214SOL      O 5299   0.004   4.314   1.530
 1214SOL     H1 5300   0.086   4.362   1.547
 1214SOL     H2 5301   0.009   4.290   1.438
 1214SOL    EPW 5302   0.013   4.317   1.522
 1215SOL      O 5303   1.726   5.172   0.578
 1215SOL     H1 5304   1.699   5.104   0.641
 1215SOL     H2 5305   1.819   5.185   0.596
 1215SOL    EPW 5306   1.733   5.166   0.587
 1216SOL      O 5307   1.318   4.881   0.453
 1216SOL     H1 5308   1.283   4.959   0.497
 1216SOL     H2 5309   1.324   4.907   0.361
 1216SOL    EPW 5310   1.315   4.892   0.448
 1217SOL      O 5311   1.030   3.786   0.528
 1217SOL     H1 5312   1.062   3.836   0.604
 1217SOL     H2 5313   1.064   3.833   0.452
 1217SOL    EPW 5314   1.037   3.796   0.528
 1218SOL      O 5315   1.776   4.641   0.922
 1218SOL     H1 5316   1.826   4.717   0.952
 1218SOL     H2 5317   1.687   4.674   0.913
 1218SOL    EPW 5318   1.772   4.653   0.924
 1219SOL      O 5319   0.250   4.457   1.545
 1219SOL     H1 5320   0.283   4.512   1.474
 1219SOL     H2 5321   0.316   4.389   1.556
 1219SOL    EPW 5322   0.261   4.456   1.539
 1220SOL      O 5323   1.728   4.614   0.551
 1220SOL     H1 5324   1.820   4.636   0.564
 1220SOL     H2 5325   1.687   4.697   0.528
 1220SOL    EPW 5326   1.733   4.625   0.550
 1221SOL      O 5327   0.227   4.595   1.787
 1221SOL     H1 5328   0.206   4.534   1.858
 1221SOL     H2 5329   0.248   4.538   1.712
 1221SOL    EPW 5330   0.227   4.582   1.786
 1222SOL      O 5331   0.318   3.781   1.355
 1222SOL     H1 5332   0.361   3.845   1.410
 1222SOL     H2 5333   0.383   3.711   1.345
 1222SOL    EPW 5334   0.329   3.780   1.360
 1223SOL      O 5335   0.420   4.414   0.371
 1223SOL     H1 5336   0.368   4.493   0.359
 1223SOL     H2 5337   0.452   4.420   0.461
 1223SOL    EPW 5338   0.418   4.423   0.380
 1224SOL      O 5339   1.187   4.385   1.512
 1224SOL     H1 5340   1.217   4.340   1.432
 1224SOL     H2 5341   1.104   4.425   1.487
 1224SOL    EPW 5342   1.181   4.385   1.501
 1225SOL      O 5343   0.232   4.187   0.697
 1225SOL     H1 5344   0.320   4.185   0.734
 1225SOL     H2 5345   0.201   4.097   0.705
 1225SOL    EPW 5346   0.238   4.177   0.702
 1226SOL      O 5347   1.726   5.486   0.203
 1226SOL     H1 5348   1.717   5.496   0.109
 1226SOL     H2 5349   1.700   5.570   0.240
 1226SOL    EPW 5350   1.722   5.496   0.197
 1227SOL      O 5351   0.858   4.467   1.163
 1227SOL     H1 5352   0.781   4.412   1.145
 1227SOL     H2 5353   0.869   4.462   1.258
 1227SOL    EPW 5354   0.851   4.460   1.171
 1228SOL      O 5355   1.540   5.599   1.550
 1228SOL     H1 5356   1.525   5.504   1.542
 1228SOL     H2 5357   1.558   5.612   1.644
 1228SOL    EPW 5358   1.541   5.590   1.560
 1229SOL      O 5359   0.613   3.902   1.289
 1229SOL     H1 5360   0.543   3.966   1.302
 1229SOL     H2 5361   0.655   3.895   1.375
 1229SOL    EPW 5362   0.610   3.908   1.300
 1230SOL      O 5363   0.081   4.697   0.146
 1230SOL     H1 5364   0.042   4.774   0.186
 1230SOL     H2 5365   0.011   4.632   0.144
 1230SOL    EPW 5366   0.070   4.698   0.150
 1231SOL      O 5367   1.424   3.828   0.879
 1231SOL     H1 5368   1.509   3.820   0.921
 1231SOL     H2 5369   1.429   3.766   0.806
 1231SOL    EPW 5370   1.434   3.820   0.875
 1232SOL      O 5371   1.515   4.531   0.697
 1232SOL     H1 5372   1.601   4.546   0.657
 1232SOL     H2 5373   1.525   4.448   0.744
 1232SOL    EPW 5374   1.525   4.524   0.698
 1233SOL      O 5375   0.515   5.570   0.111
 1233SOL     H1 5376   0.444   5.634   0.119
 1233SOL     H2 5377   0.546   5.557   0.200
 1233SOL    EPW 5378   0.511   5.576   0.121
 1234SOL      O 5379   0.956   4.511   1.419
 1234SOL     H1 5380   1.010   4.576   1.373
 1234SOL     H2 5381   0.908   4.562   1.485
 1234SOL    EPW 5382   0.957   4.523   1.421
 1235SOL      O 5383   0.264   4.810   1.534
 1235SOL     H1 5384   0.308   4.859   1.604
 1235SOL     H2 5385   0.334   4.756   1.496
 1235SOL    EPW 5386   0.277   4.809   1.537
 1236SOL      O 5387   4.414   1.447   4.112
 1236SOL     H1 5388   4.429   1.541   4.121
 1236SOL     H2 5389   4.502   1.409   4.113
 1236SOL    EPW 5390   4.425   1.453   4.113
 1237SOL      O 5391   0.534   5.134   0.682
 1237SOL     H1 5392   0.627   5.112   0.688
 1237SOL     H2 5393   0.533   5.229   0.665
 1237SOL    EPW 5394   0.543   5.142   0.681
 1238SOL      O 5395   0.825   4.293   0.835
 1238SOL     H1 5396   0.759   4.313   0.902
 1238SOL     H2 5397   0.865   4.212   0.865
 1238SOL    EPW 5398   0.822   4.287   0.846
 1239SOL      O 5399   1.816   3.758   1.461
 1239SOL     H1 5400   1.732   3.768   1.505
 1239SOL     H2 5401   1.815   3.822   1.390
 1239SOL    EPW 5402   1.807   3.766   1.458
 1240SOL      O 5403   1.095   4.890   0.876
 1240SOL     H1 5404   1.168   4.837   0.907
 1240SOL     H2 5405   1.042   4.831   0.823
 1240SOL    EPW 5406   1.097   4.878   0.874
 1241SOL      O 5407   0.895   4.711   0.266
 1241SOL     H1 5408   0.899   4.632   0.212
 1241SOL     H2 5409   0.843   4.773   0.214
 1241SOL    EPW 5410   0.890   4.709   0.254
 1242SOL      O 5411   1.286   5.105   0.837
 1242SOL     H1 5412   1.254   5.193   0.856
 1242SOL     H2 5413   1.213   5.047   0.859
 1242SOL    EPW 5414   1.275   5.108   0.842
 1243SOL      O 5415   1.218   5.050   1.218
 1243SOL     H1 5416   1.278   4.975   1.224
 1243SOL     H2 5417   1.137   5.012   1.183
 1243SOL    EPW 5418   1.216   5.038   1.215
 1244SOL      O 5419   0.410   4.434   1.128
 1244SOL     H1 5420   0.316   4.440   1.146
 1244SOL     H2 5421   0.425   4.497   1.058
 1244SOL    EPW 5422   0.402   4.441   1.123
 1245SOL      O 5423   1.373   5.236   1.765
 1245SOL     H1 5424   1.351   5.311   1.821
 1245SOL     H2 5425   1.411   5.275   1.686
 1245SOL    EPW 5426   1.375   5.248   1.763
 1246SOL      O 5427   1.591   3.906   0.288
 1246SOL     H1 5428   1.563   3.913   0.379
 1246SOL     H2 5429   1.607   3.996   0.261
 1246SOL    EPW 5430   1.590   3.916   0.295
 1247SOL      O 5431   0.788   4.449   0.506
 1247SOL     H1 5432   0.760   4.482   0.420
 1247SOL     H2 5433   0.883   4.463   0.507
 1247SOL    EPW 5434   0.795   4.454   0.497
 1248SOL      O 5435   0.193   4.124   1.788
 1248SOL     H1 5436   0.186   4.101   1.695
 1248SOL     H2 5437   0.277   4.168   1.796
 1248SOL    EPW 5438   0.201   4.126   1.779
 1249SOL      O 5439   1.342   4.797   1.248
 1249SOL     H1 5440   1.405   4.753   1.305
 1249SOL     H2 5441   1.257   4.762   1.274
 1249SOL    EPW 5442   1.340   4.789   1.257
 1250SOL      O 5443   0.855   5.423   0.415
 1250SOL     H1 5444   0.895   5.504   0.445
 1250SOL     H2 5445   0.893   5.355   0.471
 1250SOL    EPW 5446   0.864   5.424   0.424
 1251SOL      O 5447   1.647   3.802   1.031
 1251SOL     H1 5448   1.612   3.723   1.071
 1251SOL     H2 5449   1.691   3.848   1.102
 1251SOL    EPW 5450   1.648   3.798   1.043
 1252SOL      O 5451   0.138   3.766   1.146
 1252SOL     H1 5452   0.186   3.801   1.071
 1252SOL     H2 5453   0.196   3.783   1.221
 1252SOL    EPW 5454   0.150   3.771   1.146
 1253SOL      O 5455   1.666   4.948   0.736
 1253SOL     H1 5456   1.641   4.914   0.650
 1253SOL     H2 5457   1.760   4.931   0.742
 1253SOL    EPW 5458   1.673   4.942   0.727
 1254SOL      O 5459   0.441   5.147   1.499
 1254SOL     H1 5460   0.403   5.100   1.573
 1254SOL     H2 5461   0.533   5.160   1.524
 1254SOL    EPW 5462   0.447   5.144   1.510
 1255SOL      O 5463   0.302   3.829   0.095
 1255SOL     H1 5464   0.212   3.860   0.095
 1255SOL     H2 5465   0.355   3.908   0.095
 1255SOL    EPW 5466   0.298   3.840   0.095
 1256SOL      O 5467   1.457   4.347   1.080
 1256SOL     H1 5468   1.383   4.398   1.046
 1256SOL     H2 5469   1.512   4.412   1.124
 1256SOL    EPW 5470   1.455   4.359   1.081
 1257SOL      O 5471   0.040   3.886   0.066
 1257SOL     H1 5472   5.851   3.915   0.129
 1257SOL     H2 5473   0.069   3.967   0.023
 1257SOL    EPW 5474   0.036   3.898   0.068
 1258SOL      O 5475   0.073   5.170   0.310
 1258SOL     H1 5476   0.033   5.241   0.360
 1258SOL     H2 5477   0.118   5.213   0.238
 1258SOL    EPW 5478   0.074   5.182   0.308
 1259SOL      O 5479   1.324   5.331   0.427
 1259SOL     H1 5480   1.401   5.329   0.371
 1259SOL     H2 5481   1.250   5.336   0.366
 1259SOL    EPW 5482   1.324   5.332   0.415
 1260SOL      O 5483   1.734   4.584   2.106
 1260SOL     H1 5484   1.768   4.512   2.159
 1260SOL     H2 5485   1.646   4.600   2.141
 1260SOL    EPW 5486   1.728   4.578   2.115
 1261SOL      O 5487   1.613   4.502   3.112
 1261SOL     H1 5488   1.570   4.563   3.172
 1261SOL     H2 5489   1.698   4.543   3.093
 1261SOL    EPW 5490   1.618   4.513   3.116
 1262SOL      O 5491   0.535   4.753   2.339
 1262SOL     H1 5492   0.630   4.746   2.348
 1262SOL     H2 5493   0.519   4.846   2.323
 1262SOL    EPW 5494   0.543   4.763   2.339
 1263SOL      O 5495   1.656   5.433   2.560
 1263SOL     H1 5496   1.657   5.395   2.648
 1263SOL     H2 5497   1.679   5.360   2.503
 1263SOL    EPW 5498   1.659   5.421   2.563
 1264SOL      O 5499   1.031   5.275   3.469
 1264SOL     H1 5500   1.051   5.333   3.396
 1264SOL     H2 5501   1.059   5.189   3.440
 1264SOL    EPW 5502   1.036   5.272   3.458
 1265SOL      O 5503   1.591   4.940   3.104
 1265SOL     H1 5504   1.538   4.863   3.084
 1265SOL     H2 5505   1.607   4.981   3.019
 1265SOL    EPW 5506   1.587   4.936   3.093
 1266SOL      O 5507   0.795   4.204   2.324
 1266SOL     H1 5508   0.810   4.298   2.323
 1266SOL     H2 5509   0.780   4.181   2.232
 1266SOL    EPW 5510   0.795   4.211   2.314
 1267SOL      O 5511   0.308   4.312   2.220
 1267SOL     H1 5512   0.380   4.372   2.239
 1267SOL     H2 5513   0.279   4.280   2.306
 1267SOL    EPW 5514   0.312   4.315   2.231
 1268SOL      O 5515   0.400   4.553   3.218
 1268SOL     H1 5516   0.364   4.500   3.146
 1268SOL     H2 5517   0.410   4.640   3.181
 1268SOL    EPW 5518   0.397   4.556   3.206
 1269SOL      O 5519   0.568   4.115   2.449
 1269SOL     H1 5520   0.654   4.147   2.421
 1269SOL     H2 5521   0.519   4.103   2.368
 1269SOL    EPW 5522   0.572   4.117   2.438
 1270SOL      O 5523   0.733   4.928   2.574
 1270SOL     H1 5524   0.812   4.963   2.614
 1270SOL     H2 5525   0.763   4.885   2.494
 1270SOL    EPW 5526   0.744   4.927   2.570
 1271SOL      O 5527   0.765   5.243   3.416
 1271SOL     H1 5528   0.853   5.269   3.444
 1271SOL     H2 5529   0.779   5.191   3.337
 1271SOL    EPW 5530   0.776   5.240   3.411
 1272SOL      O 5531   0.534   4.459   2.553
 1272SOL     H1 5532   0.512   4.380   2.602
 1272SOL     H2 5533   0.621   4.484   2.585
 1272SOL    EPW 5534   0.541   4.454   2.562
 1273SOL      O 5535   0.839   5.099   3.201
 1273SOL     H1 5536   0.849   5.168   3.136
 1273SOL     H2 5537   0.756   5.056   3.177
 1273SOL    EPW 5538   0.831   5.102   3.192
 1274SOL      O 5539   0.687   4.271   2.905
 1274SOL     H1 5540   0.613   4.261   2.846
 1274SOL     H2 5541   0.715   4.182   2.923
 1274SOL    EPW 5542   0.682   4.261   2.901
 1275SOL      O 5543   0.450   4.653   2.827
 1275SOL     H1 5544   0.384   4.674   2.761
 1275SOL     H2 5545   0.432   4.714   2.899
 1275SOL    EPW 5546   0.441   4.662   2.827
 1276SOL      O 5547   0.106   5.498   2.714
 1276SOL     H1 5548   0.133   5.514   2.624
 1276SOL     H2 5549   0.103   5.403   2.722
 1276SOL    EPW 5550   0.109   5.489   2.706
 1277SOL      O 5551   1.359   4.901   2.058
 1277SOL     H1 5552   1.272   4.940   2.045
 1277SOL     H2 5553   1.419   4.961   2.014
 1277SOL    EPW 5554   1.356   4.912   2.052
 1278SOL      O 5555   0.412   5.065   2.752
 1278SOL     H1 5556   0.395   5.142   2.806
 1278SOL     H2 5557   0.449   5.101   2.671
 1278SOL    EPW 5558   0.414   5.077   2.749
 1279SOL      O 5559   0.940   4.689   2.583
 1279SOL     H1 5560   0.862   4.674   2.637
 1279SOL     H2 5561   0.992   4.609   2.594
 1279SOL    EPW 5562   0.937   4.679   2.590
 1280SOL      O 5563   0.319   5.371   3.342
 1280SOL     H1 5564   0.229   5.376   3.309
 1280SOL     H2 5565   0.339   5.277   3.341
 1280SOL    EPW 5566   0.311   5.361   3.339
 1281SOL      O 5567   0.924   5.011   2.232
 1281SOL     H1 5568   0.920   5.075   2.303
 1281SOL     H2 5569   0.883   4.932   2.268
 1281SOL    EPW 5570   0.919   5.010   2.244
 1282SOL      O 5571   1.804   4.077   2.724
 1282SOL     H1 5572   1.746   4.095   2.797
 1282SOL     H2 5573   1.791   3.985   2.704
 1282SOL    EPW 5574   1.797   4.069   2.729
 1283SOL      O 5575   0.449   4.075   2.207
 1283SOL     H1 5576   0.421   4.017   2.136
 1283SOL     H2 5577   0.393   4.153   2.196
 1283SOL    EPW 5578   0.440   4.077   2.198
 1284SOL      O 5579   0.243   4.941   2.257
 1284SOL     H1 5580   0.153   4.974   2.262
 1284SOL     H2 5581   0.233   4.849   2.232
 1284SOL    EPW 5582   0.232   4.935   2.255
 1285SOL      O 5583   0.919   5.413   2.068
 1285SOL     H1 5584   0.881   5.413   2.156
 1285SOL     H2 5585   0.862   5.356   2.017
 1285SOL    EPW 5586   0.909   5.407   2.072
 1286SOL      O 5587   1.816   4.202   2.009
 1286SOL     H1 5588   1.723   4.193   2.026
 1286SOL     H2 5589   1.849   4.252   2.084
 1286SOL    EPW 5590   1.810   4.207   2.019
 1287SOL      O 5591   1.628   4.863   2.384
 1287SOL     H1 5592   1.534   4.872   2.375
 1287SOL     H2 5593   1.664   4.909   2.308
 1287SOL    EPW 5594   1.622   4.869   2.375
 1288SOL      O 5595   1.452   4.426   3.410
 1288SOL     H1 5596   1.535   4.381   3.396
 1288SOL     H2 5597   1.393   4.389   3.344
 1288SOL    EPW 5598   1.454   4.417   3.401
 1289SOL      O 5599   0.130   5.275   3.009
 1289SOL     H1 5600   0.134   5.180   3.015
 1289SOL     H2 5601   0.036   5.295   3.015
 1289SOL    EPW 5602   0.120   5.267   3.010
 1290SOL      O 5603   1.100   4.837   3.558
 1290SOL     H1 5604   1.112   4.917   3.507
 1290SOL     H2 5605   1.187   4.817   3.592
 1290SOL    EPW 5606   1.111   4.843   3.556
 1291SOL      O 5607   0.924   4.258   3.677
 1291SOL     H1 5608   1.014   4.245   3.647
 1291SOL     H2 5609   0.876   4.185   3.639
 1291SOL    EPW 5610   0.929   4.249   3.670
 1292SOL      O 5611   1.526   4.714   2.795
 1292SOL     H1 5612   1.508   4.655   2.722
 1292SOL     H2 5613   1.622   4.715   2.801
 1292SOL    EPW 5614   1.535   4.708   2.788
 1293SOL      O 5615   1.146   4.389   2.353
 1293SOL     H1 5616   1.167   4.408   2.262
 1293SOL     H2 5617   1.124   4.296   2.354
 1293SOL    EPW 5618   1.146   4.381   2.344
 1294SOL      O 5619   1.743   5.039   2.197
 1294SOL     H1 5620   1.720   5.096   2.271
 1294SOL     H2 5621   1.814   5.085   2.153
 1294SOL    EPW 5622   1.748   5.050   2.200
 1295SOL      O 5623   0.758   4.054   3.580
 1295SOL     H1 5624   0.756   3.980   3.518
 1295SOL     H2 5625   0.743   4.013   3.666
 1295SOL    EPW 5626   0.756   4.042   3.583
 1296SOL      O 5627   0.539   5.498   2.532
 1296SOL     H1 5628   0.507   5.584   2.505
 1296SOL     H2 5629   0.497   5.437   2.471
 1296SOL    EPW 5630   0.531   5.501   2.522
 1297SOL      O 5631   1.824   3.817   2.626
 1297SOL     H1 5632   1.894   3.775   2.677
 1297SOL     H2 5633   1.765   3.745   2.603
 1297SOL    EPW 5634   1.825   3.805   2.629
 1298SOL      O 5635   0.288   5.492   2.061
 1298SOL     H1 5636   0.369   5.521   2.020
 1298SOL     H2 5637   0.219   5.528   2.005
 1298SOL    EPW 5638   0.289   5.499   2.050
 1299SOL      O 5639   0.953   3.776   2.953
 1299SOL     H1 5640   0.909   3.859   2.933
 1299SOL     H2 5641   1.046   3.798   2.952
 1299SOL    EPW 5642   0.958   3.787   2.951
 1300SOL      O 5643   1.580   5.317   2.050
 1300SOL     H1 5644   1.629   5.395   2.077
 1300SOL     H2 5645   1.494   5.351   2.024
 1300SOL    EPW 5646   1.576   5.329   2.050
 1301SOL      O 5647   0.945   4.450   2.025
 1301SOL     H1 5648   0.931   4.393   1.949
 1301SOL     H2 5649   1.039   4.447   2.040
 1301SOL    EPW 5650   0.953   4.444   2.018
 1302SOL      O 5651   1.591   4.287   2.333
 1302SOL     H1 5652   1.649   4.292   2.410
 1302SOL     H2 5653   1.529   4.358   2.347
 1302SOL    EPW 5654   1.591   4.295   2.343
 1303SOL      O 5655   0.881   4.677   3.565
 1303SOL     H1 5656   0.955   4.737   3.573
 1303SOL     H2 5657   0.900   4.625   3.488
 1303SOL    EPW 5658   0.891   4.678   3.558
 1304SOL      O 5659   0.962   3.832   3.217
 1304SOL     H1 5660   0.951   3.805   3.126
 1304SOL     H2 5661   0.974   3.927   3.212
 1304SOL    EPW 5662   0.962   3.840   3.207
 1305SOL      O 5663   1.037   4.296   3.006
 1305SOL     H1 5664   1.106   4.351   2.970
 1305SOL     H2 5665   0.964   4.355   3.019
 1305SOL    EPW 5666   1.037   4.308   3.004
 1306SOL      O 5667   1.661   4.285   3.296
 1306SOL     H1 5668   1.611   4.207   3.274
 1306SOL     H2 5669   1.655   4.341   3.219
 1306SOL    EPW 5670   1.655   4.283   3.286
 1307SOL      O 5671   1.729   5.413   3.221
 1307SOL     H1 5672   1.670   5.383   3.290
 1307SOL     H2 5673   1.770   5.492   3.257
 1307SOL    EPW 5674   1.727   5.418   3.232
 1308SOL      O 5675   1.066   4.023   3.477
 1308SOL     H1 5676   1.022   4.024   3.392
 1308SOL     H2 5677   1.055   3.933   3.509
 1308SOL    EPW 5678   1.060   4.013   3.472
 1309SOL      O 5679   1.509   4.869   3.476
 1309SOL     H1 5680   1.586   4.907   3.518
 1309SOL     H2 5681   1.453   4.841   3.548
 1309SOL    EPW 5682   1.511   4.870   3.488
 1310SOL      O 5683   1.804   4.273   2.526
 1310SOL     H1 5684   1.899   4.267   2.521
 1310SOL     H2 5685   1.777   4.200   2.582
 1310SOL    EPW 5686   1.811   4.265   2.531
 1311SOL      O 5687   0.221   3.942   2.534
 1311SOL     H1 5688   0.217   3.889   2.454
 1311SOL     H2 5689   0.129   3.960   2.556
 1311SOL    EPW 5690   0.210   3.938   2.528
 1312SOL      O 5691   1.123   5.046   2.046
 1312SOL     H1 5692   1.050   5.025   2.104
 1312SOL     H2 5693   1.082   5.074   1.964
 1312SOL    EPW 5694   1.111   5.047   2.044
 1313SOL      O 5695   0.075   4.188   2.868
 1313SOL     H1 5696   0.082   4.280   2.842
 1313SOL     H2 5697   5.859   4.167   2.860
 1313SOL    EPW 5698   0.066   4.196   2.864
 1314SOL      O 5699   0.583   5.464   2.189
 1314SOL     H1 5700   0.513   5.419   2.237
 1314SOL     H2 5701   0.661   5.451   2.242
 1314SOL    EPW 5702   0.584   5.458   2.200
 1315SOL      O 5703   1.720   4.979   3.605
 1315SOL     H1 5704   1.760   4.896   3.631
 1315SOL     H2 5705   1.666   5.004   3.680
 1315SOL    EPW 5706   1.719   4.973   3.616
 1316SOL      O 5707   0.667   4.840   1.953
 1316SOL     H1 5708   0.583   4.793   1.952
 1316SOL     H2 5709   0.648   4.921   2.001
 1316SOL    EPW 5710   0.656   4.844   1.958
 1317SOL      O 5711   1.855   4.632   3.089
 1317SOL     H1 5712   1.867   4.703   3.026
 1317SOL     H2 5713   1.862   4.673   3.175
 1317SOL    EPW 5714   1.857   4.644   3.091
 1318SOL      O 5715   1.667   5.319   2.809
 1318SOL     H1 5716   1.623   5.365   2.880
 1318SOL     H2 5717   1.651   5.227   2.826
 1318SOL    EPW 5718   1.661   5.314   2.818
 1319SOL      O 5719   1.342   5.421   1.973
 1319SOL     H1 5720   1.272   5.379   2.023
 1319SOL     H2 5721   1.348   5.509   2.010
 1319SOL    EPW 5722   1.335   5.426   1.982
 1320SOL      O 5723   0.146   4.317   3.151
 1320SOL     H1 5724   0.206   4.348   3.083
 1320SOL     H2 5725   0.059   4.326   3.112
 1320SOL    EPW 5726   0.143   4.321   3.139
 1321SOL      O 5727   1.523   5.072   1.924
 1321SOL     H1 5728   1.465   5.122   1.866
 1321SOL     H2 5729   1.554   5.137   1.987
 1321SOL    EPW 5730   1.520   5.085   1.924
 1322SOL      O 5731   0.728   3.921   1.916
 1322SOL     H1 5732   0.674   3.843   1.922
 1322SOL     H2 5733   0.818   3.889   1.929
 1322SOL    EPW 5734   0.732   3.909   1.918
 1323SOL      O 5735   0.257   5.532   3.557
 1323SOL     H1 5736   0.227   5.610   3.510
 1323SOL     H2 5737   0.278   5.469   3.488
 1323SOL    EPW 5738   0.256   5.533   3.544
 1324SOL      O 5739   0.784   4.722   2.986
 1324SOL     H1 5740   0.800   4.631   3.009
 1324SOL     H2 5741   0.750   4.719   2.897
 1324SOL    EPW 5742   0.782   4.712   2.979
 1325SOL      O 5743   0.115   4.583   2.375
 1325SOL     H1 5744   0.183   4.585   2.443
 1325SOL     H2 5745   0.095   4.490   2.364
 1325SOL    EPW 5746   0.120   4.573   2.381
 1326SOL      O 5747   0.404   4.290   3.588
 1326SOL     H1 5748   0.348   4.366   3.607
 1326SOL     H2 5749   0.452   4.275   3.669
 1326SOL    EPW 5750   0.403   4.297   3.598
 1327SOL      O 5751   0.753   3.843   3.400
 1327SOL     H1 5752   0.707   3.761   3.414
 1327SOL     H2 5753   0.830   3.819   3.349
 1327SOL    EPW 5754   0.757   3.832   3.396
 1328SOL      O 5755   0.500   4.317   3.327
 1328SOL     H1 5756   0.468   4.403   3.299
 1328SOL     H2 5757   0.462   4.305   3.414
 1328SOL    EPW 5758   0.492   4.325   3.333
 1329SOL      O 5759   0.901   5.462   2.803
 1329SOL     H1 5760   0.936   5.525   2.866
 1329SOL     H2 5761   0.857   5.516   2.737
 1329SOL    EPW 5762   0.900   5.475   2.802
 1330SOL      O 5763   1.344   3.865   3.674
 1330SOL     H1 5764   1.423   3.812   3.678
 1330SOL     H2 5765   1.328   3.893   3.764
 1330SOL    EPW 5766   1.351   3.862   3.684
 1331SOL      O 5767   0.241   5.170   2.518
 1331SOL     H1 5768   0.186   5.199   2.590
 1331SOL     H2 5769   0.233   5.075   2.518
 1331SOL    EPW 5770   0.234   5.163   2.526
 1332SOL      O 5771   0.933   5.193   2.443
 1332SOL     H1 5772   1.024   5.167   2.458
 1332SOL     H2 5773   0.895   5.199   2.531
 1332SOL    EPW 5774   0.939   5.191   2.454
 1333SOL      O 5775   1.827   4.402   2.777
 1333SOL     H1 5776   1.922   4.411   2.781
 1333SOL     H2 5777   1.810   4.362   2.692
 1333SOL    EPW 5778   1.836   4.399   2.768
 1334SOL      O 5779   1.629   4.556   3.718
 1334SOL     H1 5780   1.690   4.487   3.690
 1334SOL     H2 5781   1.654   4.573   3.809
 1334SOL    EPW 5782   1.638   4.550   3.724
 1335SOL      O 5783   0.755   5.251   1.908
 1335SOL     H1 5784   0.703   5.331   1.902
 1335SOL     H2 5785   0.703   5.193   1.963
 1335SOL    EPW 5786   0.744   5.253   1.913
 1336SOL      O 5787   1.110   3.951   2.154
 1336SOL     H1 5788   1.055   3.909   2.087
 1336SOL     H2 5789   1.167   4.009   2.104
 1336SOL    EPW 5790   1.110   3.953   2.141
 1337SOL      O 5791   0.970   4.113   3.224
 1337SOL     H1 5792   0.887   4.150   3.253
 1337SOL     H2 5793   0.994   4.164   3.147
 1337SOL    EPW 5794   0.964   4.122   3.219
 1338SOL      O 5795   1.216   4.465   2.864
 1338SOL     H1 5796   1.229   4.560   2.873
 1338SOL     H2 5797   1.177   4.454   2.778
 1338SOL    EPW 5798   1.213   4.474   2.856
 1339SOL      O 5799   0.699   4.698   2.724
 1339SOL     H1 5800   0.610   4.678   2.754
 1339SOL     H2 5801   0.690   4.782   2.679
 1339SOL    EPW 5802   0.688   4.705   2.722
 1340SOL      O 5803   1.509   4.283   2.685
 1340SOL     H1 5804   1.455   4.206   2.665
 1340SOL     H2 5805   1.493   4.300   2.778
 1340SOL    EPW 5806   1.501   4.277   2.693
 1341SOL      O 5807   0.402   3.957   3.402
 1341SOL     H1 5808   0.317   3.915   3.386
 1341SOL     H2 5809   0.422   4.002   3.320
 1341SOL    EPW 5810   0.395   3.957   3.391
 1342SOL      O 5811   1.082   4.460   2.620
 1342SOL     H1 5812   1.001   4.412   2.639
 1342SOL     H2 5813   1.108   4.430   2.533
 1342SOL    EPW 5814   1.076   4.452   2.613
 1343SOL      O 5815   0.378   5.338   2.355
 1343SOL     H1 5816   0.328   5.312   2.277
 1343SOL     H2 5817   0.351   5.275   2.422
 1343SOL    EPW 5818   0.370   5.328   2.354
 1344SOL      O 5819   0.815   4.778   2.350
 1344SOL     H1 5820   0.831   4.735   2.266
 1344SOL     H2 5821   0.865   4.727   2.413
 1344SOL    EPW 5822   0.822   4.768   2.348
 1345SOL      O 5823   1.316   5.328   3.118
 1345SOL     H1 5824   1.238   5.368   3.155
 1345SOL     H2 5825   1.297   5.235   3.115
 1345SOL    EPW 5826   1.306   5.323   3.122
 1346SOL      O 5827   1.390   5.493   2.559
 1346SOL     H1 5828   1.356   5.453   2.479
 1346SOL     H2 5829   1.484   5.474   2.557
 1346SOL    EPW 5830   1.397   5.487   2.550
 1347SOL      O 5831   1.357   4.059   2.634
 1347SOL     H1 5832   1.383   3.983   2.687
 1347SOL     H2 5833   1.266   4.042   2.611
 1347SOL    EPW 5834   1.350   4.049   2.638
 1348SOL      O 5835   0.218   4.912   2.619
 1348SOL     H1 5836   0.285   4.952   2.673
 1348SOL     H2 5837   0.253   4.825   2.597
 1348SOL    EPW 5838   0.229   4.907   2.622
 1349SOL      O 5839   0.687   5.079   3.613
 1349SOL     H1 5840   0.715   5.132   3.538
 1349SOL     H2 5841   0.702   5.135   3.689
 1349SOL    EPW 5842   0.691   5.091   3.613
 1350SOL      O 5843   0.230   5.239   3.707
 1350SOL     H1 5844   0.307   5.193   3.673
 1350SOL     H2 5845   0.164   5.228   3.638
 1350SOL    EPW 5846   0.231   5.233   3.696
 1351SOL      O 5847   1.280   4.096   1.995
 1351SOL     H1 5848   1.253   4.160   1.929
 1351SOL     H2 5849   1.364   4.128   2.026
 1351SOL    EPW 5850   1.286   4.106   1.991
 1352SOL      O 5851   0.978   3.818   1.955
 1352SOL     H1 5852   1.014   3.798   1.868
 1352SOL     H2 5853   0.965   3.732   1.996
 1352SOL    EPW 5854   0.980   3.807   1.950
 1353SOL      O 5855   1.474   4.649   2.145
 1353SOL     H1 5856   1.420   4.727   2.137
 1353SOL     H2 5857   1.437   4.602   2.220
 1353SOL    EPW 5858   1.464   4.653   2.152
 1354SOL      O 5859   1.072   5.033   3.330
 1354SOL     H1 5860   0.987   5.053   3.290
 1354SOL     H2 5861   1.136   5.055   3.264
 1354SOL    EPW 5862   1.070   5.037   3.319
 1355SOL      O 5863   0.431   3.815   3.647
 1355SOL     H1 5864   0.361   3.756   3.618
 1355SOL     H2 5865   0.447   3.872   3.572
 1355SOL    EPW 5866   0.425   3.815   3.636
 1356SOL      O 5867   0.395   5.298   2.913
 1356SOL     H1 5868   0.461   5.312   2.981
 1356SOL     H2 5869   0.312   5.296   2.961
 1356SOL    EPW 5870   0.393   5.300   2.926
 1357SOL      O 5871   1.849   4.791   3.315
 1357SOL     H1 5872   1.775   4.844   3.285
 1357SOL     H2 5873   1.824   4.762   3.403
 1357SOL    EPW 5874   1.838   4.793   3.321
 1358SOL      O 5875   0.866   5.334   3.057
 1358SOL     H1 5876   0.887   5.358   2.966
 1358SOL     H2 5877   0.779   5.371   3.072
 1358SOL    EPW 5878   0.859   5.341   3.049
 1359SOL      O 5879   0.408   4.738   1.947
 1359SOL     H1 5880   0.359   4.719   2.027
 1359SOL     H2 5881   0.361   4.691   1.878
 1359SOL    EPW 5882   0.398   4.731   1.948
 1360SOL      O 5883   1.141   4.710   2.172
 1360SOL     H1 5884   1.052   4.726   2.141
 1360SOL     H2 5885   1.151   4.768   2.247
 1360SOL    EPW 5886   1.132   4.718   2.177
 1361SOL      O 5887   0.659   5.083   2.870
 1361SOL     H1 5888   0.640   5.074   2.964
 1361SOL     H2 5889   0.577   5.062   2.827
 1361SOL    EPW 5890   0.649   5.079   2.876
 1362SOL      O 5891   1.475   4.080   3.259
 1362SOL     H1 5892   1.432   4.065   3.344
 1362SOL     H2 5893   1.467   3.996   3.214
 1362SOL    EPW 5894   1.469   4.069   3.264
 1363SOL      O 5895   1.799   3.925   3.093
 1363SOL     H1 5896   1.822   4.013   3.063
 1363SOL     H2 5897   1.872   3.870   3.062
 1363SOL    EPW 5898   1.810   3.928   3.086
 1364SOL      O 5899   0.074   5.173   3.491
 1364SOL     H1 5900   0.112   5.092   3.458
 1364SOL     H2 5901   5.860   5.150   3.511
 1364SOL    EPW 5902   0.068   5.162   3.490
 1365SOL      O 5903   0.792   3.714   2.581
 1365SOL     H1 5904   0.741   3.779   2.630
 1365SOL     H2 5905   0.849   3.766   2.525
 1365SOL    EPW 5906   0.792   3.727   2.581
 1366SOL      O 5907   0.500   5.023   2.306
 1366SOL     H1 5908   0.515   5.078   2.384
 1366SOL     H2 5909   0.405   5.013   2.303
 1366SOL    EPW 5910   0.491   5.028   2.314
 1367SOL      O 5911   1.070   5.412   3.233
 1367SOL     H1 5912   1.003   5.384   3.170
 1367SOL     H2 5913   1.049   5.504   3.250
 1367SOL    EPW 5914   1.060   5.419   3.228
 1368SOL      O 5915   1.246   5.308   2.707
 1368SOL     H1 5916   1.298   5.374   2.661
 1368SOL     H2 5917   1.173   5.357   2.744
 1368SOL    EPW 5918   1.243   5.320   2.706
 1369SOL      O 5919   1.546   5.449   3.021
 1369SOL     H1 5920   1.610   5.423   3.087
 1369SOL     H2 5921   1.465   5.405   3.047
 1369SOL    EPW 5922   1.544   5.442   3.031
 1370SOL      O 5923   0.725   4.465   3.668
 1370SOL     H1 5924   0.793   4.403   3.644
 1370SOL     H2 5925   0.664   4.415   3.722
 1370SOL    EPW 5926   0.726   4.453   3.671
 1371SOL      O 5927   1.483   4.668   3.292
 1371SOL     H1 5928   1.500   4.736   3.357
 1371SOL     H2 5929   1.468   4.589   3.344
 1371SOL    EPW 5930   1.483   4.667   3.304
 1372SOL      O 5931   1.094   3.769   3.600
 1372SOL     H1 5932   1.094   3.676   3.578
 1372SOL     H2 5933   1.185   3.789   3.620
 1372SOL    EPW 5934   1.104   3.761   3.600
 1373SOL      O 5935   0.606   4.373   2.020
 1373SOL     H1 5936   0.581   4.411   2.104
 1373SOL     H2 5937   0.656   4.295   2.042
 1373SOL    EPW 5938   0.609   4.369   2.031
 1374SOL      O 5939   1.633   5.051   2.854
 1374SOL     H1 5940   1.659   5.022   2.766
 1374SOL     H2 5941   1.538   5.063   2.848
 1374SOL    EPW 5942   1.626   5.049   2.844
 1375SOL      O 5943   1.030   4.779   3.226
 1375SOL     H1 5944   1.046   4.856   3.279
 1375SOL     H2 5945   1.015   4.813   3.138
 1375SOL    EPW 5946   1.030   4.791   3.222
 1376SOL      O 5947   1.545   4.198   2.072
 1376SOL     H1 5948   1.507   4.271   2.022
 1376SOL     H2 5949   1.556   4.232   2.160
 1376SOL    EPW 5950   1.542   4.209   2.076
 1377SOL      O 5951   0.490   3.878   2.548
 1377SOL     H1 5952   0.524   3.955   2.504
 1377SOL     H2 5953   0.396   3.896   2.558
 1377SOL    EPW 5954   0.483   3.888   2.544
 1378SOL      O 5955   0.192   4.943   3.391
 1378SOL     H1 5956   0.246   4.869   3.416
 1378SOL     H2 5957   0.127   4.905   3.331
 1378SOL    EPW 5958   0.191   4.931   3.387
 1379SOL      O 5959   0.756   4.221   3.354
 1379SOL     H1 5960   0.668   4.255   3.339
 1379SOL     H2 5961   0.748   4.167   3.433
 1379SOL    EPW 5962   0.746   4.219   3.361
 1380SOL      O 5963   1.206   4.457   2.096
 1380SOL     H1 5964   1.284   4.445   2.042
 1380SOL     H2 5965   1.203   4.551   2.113
 1380SOL    EPW 5966   1.214   4.465   2.092
 1381SOL      O 5967   0.352   4.667   2.537
 1381SOL     H1 5968   0.403   4.710   2.468
 1381SOL     H2 5969   0.401   4.587   2.556
 1381SOL    EPW 5970   0.363   4.663   2.531
 1382SOL      O 5971   1.473   4.044   2.389
 1382SOL     H1 5972   1.433   4.042   2.476
 1382SOL     H2 5973   1.512   4.131   2.382
 1382SOL    EPW 5974   1.473   4.053   2.398
 1383SOL      O 5975   1.101   3.991   2.575
 1383SOL     H1 5976   1.080   4.051   2.504
 1383SOL     H2 5977   1.062   4.032   2.653
 1383SOL    EPW 5978   1.095   4.002   2.576
 1384SOL      O 5979   1.001   5.165   1.829
 1384SOL     H1 5980   1.029   5.234   1.769
 1384SOL     H2 5981   0.915   5.193   1.860
 1384SOL    EPW 5982   0.995   5.175   1.826
 1385SOL      O 5983   1.808   4.714   3.577
 1385SOL     H1 5984   1.740   4.664   3.623
 1385SOL     H2 5985   1.889   4.666   3.596
 1385SOL    EPW 5986   1.810   4.703   3.584
 1386SOL      O 5987   0.081   5.231   2.734
 1386SOL     H1 5988   0.098   5.226   2.828
 1386SOL     H2 5989   5.866   5.205   2.725
 1386SOL    EPW 5990   0.073   5.228   2.744
 1387SOL      O 5991   0.017   4.324   2.330
 1387SOL     H1 5992   5.829   4.308   2.399
 1387SOL     H2 5993   0.042   4.237   2.300
 1387SOL    EPW 5994   0.013   4.313   2.334
 1388SOL      O 5995   1.613   5.599   3.697
 1388SOL     H1 5996   1.629   5.507   3.673
 1388SOL     H2 5997   1.650   5.606   3.785
 1388SOL    EPW 5998   1.619   5.590   3.704
 1389SOL      O 5999   1.200   5.117   2.467
 1389SOL     H1 6000   1.214   5.119   2.561
 1389SOL     H2 6001   1.246   5.193   2.433
 1389SOL    EPW 6002   1.206   5.125   2.473
 1390SOL      O 6003   0.458   4.094   3.163
 1390SOL     H1 6004   0.464   4.180   3.204
 1390SOL     H2 6005   0.407   4.108   3.084
 1390SOL    EPW 6006   0.453   4.105   3.159
 1391SOL      O 6007   0.338   4.112   2.898
 1391SOL     H1 6008   0.338   4.020   2.870
 1391SOL     H2 6009   0.247   4.139   2.891
 1391SOL    EPW 6010   0.328   4.105   2.894
 1392SOL      O 6011   1.212   4.278   3.609
 1392SOL     H1 6012   1.260   4.202   3.576
 1392SOL     H2 6013   1.176   4.319   3.530
 1392SOL    EPW 6014   1.213   4.274   3.597
 1393SOL      O 6015   1.330   4.063   3.491
 1393SOL     H1 6016   1.238   4.048   3.471
 1393SOL     H2 6017   1.352   3.996   3.555
 1393SOL    EPW 6018   1.323   4.055   3.496
 1394SOL      O 6019   0.644   3.859   2.767
 1394SOL     H1 6020   0.608   3.776   2.800
 1394SOL     H2 6021   0.582   3.885   2.698
 1394SOL    EPW 6022   0.633   3.853   2.763
 1395SOL      O 6023   0.588   5.444   3.361
 1395SOL     H1 6024   0.496   5.418   3.366
 1395SOL     H2 6025   0.636   5.367   3.391
 1395SOL    EPW 6026   0.583   5.433   3.365
 1396SOL      O 6027   1.705   4.209   2.947
 1396SOL     H1 6028   1.614   4.235   2.957
 1396SOL     H2 6029   1.745   4.282   2.899
 1396SOL    EPW 6030   1.700   4.220   2.943
 1397SOL      O 6031   1.890   4.859   2.926
 1397SOL     H1 6032   1.865   4.803   2.853
 1397SOL     H2 6033   1.824   4.929   2.926
 1397SOL    EPW 6034   1.880   4.860   2.918
 1398SOL      O 6035   1.270   4.733   2.876
 1398SOL     H1 6036   1.277   4.755   2.969
 1398SOL     H2 6037   1.360   4.735   2.845
 1398SOL    EPW 6038   1.280   4.735   2.883
 1399SOL      O 6039   1.330   4.300   3.195
 1399SOL     H1 6040   1.359   4.319   3.106
 1399SOL     H2 6041   1.370   4.216   3.216
 1399SOL    EPW 6042   1.337   4.293   3.188
 1400SOL      O 6043   1.830   4.379   3.665
 1400SOL     H1 6044   1.831   4.315   3.736
 1400SOL     H2 6045   1.842   4.328   3.585
 1400SOL    EPW 6046   1.831   4.367   3.664
 1401SOL      O 6047   1.359   4.766   3.680
 1401SOL     H1 6048   1.414   4.690   3.697
 1401SOL     H2 6049   1.353   4.811   3.765
 1401SOL    EPW 6050   1.364   4.763   3.691
 1402SOL      O 6051   1.324   3.790   2.083
 1402SOL     H1 6052   1.400   3.838   2.116
 1402SOL     H2 6053   1.249   3.833   2.124
 1402SOL    EPW 6054   1.324   3.800   2.091
 1403SOL      O 6055   1.405   4.486   2.355
 1403SOL     H1 6056   1.316   4.453   2.369
 1403SOL     H2 6057   1.433   4.516   2.442
 1403SOL    EPW 6058   1.398   4.486   2.366
 1404SOL      O 6059   0.573   5.043   3.135
 1404SOL     H1 6060   0.527   5.079   3.210
 1404SOL     H2 6061   0.520   4.969   3.107
 1404SOL    EPW 6062   0.563   5.039   3.140
 1405SOL      O 6063   0.787   4.007   2.935
 1405SOL     H1 6064   0.752   3.982   3.021
 1405SOL     H2 6065   0.732   3.961   2.872
 1405SOL    EPW 6066   0.777   3.999   2.938
 1406SOL      O 6067   0.617   5.444   3.092
 1406SOL     H1 6068   0.621   5.539   3.077
 1406SOL     H2 6069   0.601   5.436   3.186
 1406SOL    EPW 6070   0.616   5.454   3.100
 1407SOL      O 6071   1.487   5.088   3.313
 1407SOL     H1 6072   1.481   5.016   3.376
 1407SOL     H2 6073   1.523   5.048   3.234
 1407SOL    EPW 6074   1.490   5.076   3.311
 1408SOL      O 6075   0.610   4.713   3.478
 1408SOL     H1 6076   0.652   4.741   3.397
 1408SOL     H2 6077   0.516   4.720   3.460
 1408SOL    EPW 6078   0.604   4.717   3.467
 1409SOL      O 6079   0.749   4.788   3.259
 1409SOL     H1 6080   0.844   4.783   3.259
 1409SOL     H2 6081   0.723   4.776   3.168
 1409SOL    EPW 6082   0.756   4.786   3.250
 1410SOL      O 6083   0.774   4.158   2.052
 1410SOL     H1 6084   0.840   4.179   1.986
 1410SOL     H2 6085   0.739   4.073   2.025
 1410SOL    EPW 6086   0.777   4.151   2.042
 1411SOL      O 6087   1.551   5.332   3.414
 1411SOL     H1 6088   1.603   5.311   3.492
 1411SOL     H2 6089   1.528   5.247   3.377
 1411SOL    EPW 6090   1.554   5.321   3.418
 1412SOL      O 6091   1.217   3.834   2.976
 1412SOL     H1 6092   1.276   3.833   2.900
 1412SOL     H2 6093   1.276   3.832   3.051
 1412SOL    EPW 6094   1.230   3.833   2.976
 1413SOL      O 6095   0.217   4.695   2.148
 1413SOL     H1 6096   0.135   4.707   2.101
 1413SOL     H2 6097   0.194   4.642   2.225
 1413SOL    EPW 6098   0.206   4.690   2.151
 1414SOL      O 6099   0.589   5.083   2.053
 1414SOL     H1 6100   0.583   5.073   2.148
 1414SOL     H2 6101   0.498   5.084   2.023
 1414SOL    EPW 6102   0.579   5.082   2.060
 1415SOL      O 6103   1.160   5.302   2.131
 1415SOL     H1 6104   1.149   5.210   2.105
 1415SOL     H2 6105   1.076   5.343   2.110
 1415SOL    EPW 6106   1.150   5.296   2.126
 1416SOL      O 6107   0.430   5.539   2.784
 1416SOL     H1 6108   0.416   5.456   2.831
 1416SOL     H2 6109   0.466   5.512   2.699
 1416SOL    EPW 6110   0.433   5.527   2.780
 1417SOL      O 6111   0.994   4.901   2.983
 1417SOL     H1 6112   0.910   4.855   2.981
 1417SOL     H2 6113   1.025   4.898   2.892
 1417SOL    EPW 6114   0.989   4.896   2.973
 1418SOL      O 6115   0.035   5.384   3.325
 1418SOL     H1 6116   0.057   5.318   3.391
 1418SOL     H2 6117   5.830   5.352   3.286
 1418SOL    EPW 6118   0.029   5.374   3.328
 1419SOL      O 6119   0.993   4.118   2.794
 1419SOL     H1 6120   0.921   4.072   2.837
 1419SOL     H2 6121   1.030   4.174   2.862
 1419SOL    EPW 6122   0.990   4.119   2.806
 1420SOL      O 6123   0.420   5.063   3.618
 1420SOL     H1 6124   0.515   5.066   3.623
 1420SOL     H2 6125   0.393   5.009   3.692
 1420SOL    EPW 6126   0.427   5.058   3.626
 1421SOL      O 6127   1.427   3.816   3.171
 1421SOL     H1 6128   1.465   3.749   3.114
 1421SOL     H2 6129   1.455   3.792   3.259
 1421SOL    EPW 6130   1.434   3.807   3.174
 1422SOL      O 6131   1.689   5.340   3.652
 1422SOL     H1 6132   1.660   5.317   3.740
 1422SOL     H2 6133   1.778   5.375   3.664
 1422SOL    EPW 6134   1.696   5.342   3.663
 1423SOL      O 6135   0.501   4.233   2.706
 1423SOL     H1 6136   0.504   4.181   2.625
 1423SOL     H2 6137   0.434   4.191   2.759
 1423SOL    EPW 6138   0.494   4.223   2.703
 1424SOL      O 6139   0.079   5.532   3.773
 1424SOL     H1 6140   0.136   5.507   3.700
 1424SOL     H2 6141   0.078   5.628   3.771
 1424SOL    EPW 6142   0.085   5.540   3.765
 1425SOL      O 6143   0.807   5.227   2.688
 1425SOL     H1 6144   0.763   5.178   2.757
 1425SOL     H2 6145   0.838   5.307   2.731
 1425SOL    EPW 6146   0.806   5.230   2.700
 1426SOL      O 6147   1.053   4.135   2.352
 1426SOL     H1 6148   1.072   4.072   2.282
 1426SOL     H2 6149   0.959   4.151   2.344
 1426SOL    EPW 6150   1.045   4.130   2.343
 1427SOL      O 6151   0.180   3.812   2.297
 1427SOL     H1 6152   0.173   3.899   2.259
 1427SOL     H2 6153   0.215   3.757   2.227
 1427SOL    EPW 6154   0.183   3.815   2.286
 1428SOL      O 6155   5.760   4.362   3.347
 1428SOL     H1 6156   5.851   4.392   3.354
 1428SOL     H2 6157   5.747   4.347   3.254
 1428SOL    EPW 6158   5.768   4.363   3.338
 1429SOL      O 6159   1.733   5.207   2.423
 1429SOL     H1 6160   1.719   5.139   2.489
 1429SOL     H2 6161   1.827   5.222   2.424
 1429SOL    EPW 6162   1.741   5.201   2.430
 1430SOL      O 6163   1.359   4.915   2.339
 1430SOL     H1 6164   1.298   4.978   2.378
 1430SOL     H2 6165   1.348   4.926   2.245
 1430SOL    EPW 6166   1.352   4.923   2.333
 1431SOL      O 6167   0.988   3.804   2.408
 1431SOL     H1 6168   1.037   3.855   2.472
 1431SOL     H2 6169   1.021   3.834   2.323
 1431SOL    EPW 6170   0.996   3.813   2.406
 1432SOL      O 6171   1.797   4.673   2.754
 1432SOL     H1 6172   1.790   4.675   2.658
 1432SOL     H2 6173   1.807   4.580   2.775
 1432SOL    EPW 6174   1.797   4.663   2.746
 1433SOL      O 6175   0.136   4.468   3.379
 1433SOL     H1 6176   0.124   4.548   3.327
 1433SOL     H2 6177   0.160   4.402   3.314
 1433SOL    EPW 6178   0.137   4.469   3.366
 1434SOL      O 6179   1.756   4.642   2.485
 1434SOL     H1 6180   1.839   4.634   2.438
 1434SOL     H2 6181   1.711   4.715   2.441
 1434SOL    EPW 6182   1.760   4.649   2.475
 1435SOL      O 6183   0.258   4.516   3.644
 1435SOL     H1 6184   0.233   4.480   3.729
 1435SOL     H2 6185   0.188   4.490   3.585
 1435SOL    EPW 6186   0.248   4.509   3.646
 1436SOL      O 6187   0.340   3.767   3.088
 1436SOL     H1 6188   0.350   3.812   3.004
 1436SOL     H2 6189   0.425   3.726   3.104
 1436SOL    EPW 6190   0.350   3.767   3.081
 1437SOL      O 6191   0.519   4.478   2.272
 1437SOL     H1 6192   0.514   4.574   2.274
 1437SOL     H2 6193   0.534   4.452   2.363
 1437SOL    EPW 6194   0.520   4.486   2.282
 1438SOL      O 6195   1.106   4.329   3.352
 1438SOL     H1 6196   1.179   4.325   3.290
 1438SOL     H2 6197   1.055   4.250   3.334
 1438SOL    EPW 6198   1.109   4.320   3.344
 1439SOL      O 6199   0.258   4.211   2.477
 1439SOL     H1 6200   0.184   4.247   2.527
 1439SOL     H2 6201   0.253   4.117   2.490
 1439SOL    EPW 6202   0.249   4.205   2.483
 1440SOL      O 6203   1.712   5.560   2.077
 1440SOL     H1 6204   1.806   5.545   2.088
 1440SOL     H2 6205   1.694   5.638   2.129
 1440SOL    EPW 6206   1.720   5.567   2.084
 1441SOL      O 6207   0.821   4.458   3.059
 1441SOL     H1 6208   0.759   4.399   3.016
 1441SOL     H2 6209   0.802   4.448   3.153
 1441SOL    EPW 6210   0.812   4.451   3.065
 1442SOL      O 6211   1.572   5.611   3.418
 1442SOL     H1 6212   1.545   5.519   3.413
 1442SOL     H2 6213   1.577   5.629   3.512
 1442SOL    EPW 6214   1.570   5.603   3.427
 1443SOL      O 6215   0.657   3.911   3.153
 1443SOL     H1 6216   0.584   3.972   3.156
 1443SOL     H2 6217   0.683   3.901   3.245
 1443SOL    EPW 6218   0.652   3.917   3.163
 1444SOL      O 6219   5.850   4.782   2.053
 1444SOL     H1 6220   5.843   4.848   2.123
 1444SOL     H2 6221   5.761   4.773   2.020
 1444SOL    EPW 6222   5.840   4.788   2.057
 1445SOL      O 6223   1.398   3.828   2.767
 1445SOL     H1 6224   1.485   3.824   2.807
 1445SOL     H2 6225   1.400   3.760   2.700
 1445SOL    EPW 6226   1.408   3.820   2.764
 1446SOL      O 6227   1.520   4.537   2.591
 1446SOL     H1 6228   1.608   4.555   2.559
 1446SOL     H2 6229   1.524   4.447   2.624
 1446SOL    EPW 6230   1.530   4.529   2.591
 1447SOL      O 6231   0.623   5.482   1.916
 1447SOL     H1 6232   0.557   5.540   1.876
 1447SOL     H2 6233   0.606   5.490   2.010
 1447SOL    EPW 6234   0.614   5.489   1.922
 1448SOL      O 6235   0.931   4.538   3.342
 1448SOL     H1 6236   0.976   4.603   3.288
 1448SOL     H2 6237   0.991   4.464   3.344
 1448SOL    EPW 6238   0.943   4.537   3.336
 1449SOL      O 6239   0.340   4.701   3.451
 1449SOL     H1 6240   0.294   4.647   3.515
 1449SOL     H2 6241   0.344   4.648   3.372
 1449SOL    EPW 6242   0.336   4.690   3.450
 1450SOL      O 6243   1.415   4.387   1.924
 1450SOL     H1 6244   1.360   4.360   1.851
 1450SOL     H2 6245   1.476   4.450   1.886
 1450SOL    EPW 6246   1.416   4.391   1.912
 1451SOL      O 6247   0.572   5.145   2.542
 1451SOL     H1 6248   0.624   5.065   2.552
 1451SOL     H2 6249   0.630   5.214   2.575
 1451SOL    EPW 6250   0.584   5.144   2.547
 1452SOL      O 6251   0.857   4.327   2.689
 1452SOL     H1 6252   0.788   4.331   2.756
 1452SOL     H2 6253   0.906   4.247   2.709
 1452SOL    EPW 6254   0.855   4.319   2.699
 1453SOL      O 6255   1.809   3.772   3.328
 1453SOL     H1 6256   1.721   3.781   3.365
 1453SOL     H2 6257   1.811   3.834   3.255
 1453SOL    EPW 6258   1.800   3.780   3.324
 1454SOL      O 6259   1.083   4.875   2.728
 1454SOL     H1 6260   1.158   4.828   2.765
 1454SOL     H2 6261   1.039   4.811   2.672
 1454SOL    EPW 6262   1.087   4.863   2.726
 1455SOL      O 6263   0.873   4.712   2.087
 1455SOL     H1 6264   0.882   4.624   2.050
 1455SOL     H2 6265   0.805   4.753   2.035
 1455SOL    EPW 6266   0.867   4.707   2.078
 1456SOL      O 6267   1.370   5.112   2.856
 1456SOL     H1 6268   1.327   5.182   2.806
 1456SOL     H2 6269   1.310   5.094   2.929
 1456SOL    EPW 6270   1.359   5.118   2.859
 1457SOL      O 6271   1.212   5.054   3.084
 1457SOL     H1 6272   1.261   4.974   3.105
 1457SOL     H2 6273   1.132   5.022   3.043
 1457SOL    EPW 6274   1.209   5.042   3.082
 1458SOL      O 6275   0.312   4.449   2.969
 1458SOL     H1 6276   0.237   4.445   2.909
 1458SOL     H2 6277   0.376   4.502   2.923
 1458SOL    EPW 6278   0.310   4.454   2.958
 1459SOL      O 6279   1.388   5.240   3.640
 1459SOL     H1 6280   1.358   5.319   3.686
 1459SOL     H2 6281   1.411   5.272   3.552
 1459SOL    EPW 6282   1.387   5.252   3.635
 1460SOL      O 6283   1.544   3.932   2.158
 1460SOL     H1 6284   1.522   3.956   2.248
 1460SOL     H2 6285   1.554   4.015   2.112
 1460SOL    EPW 6286   1.543   3.943   2.162
 1461SOL      O 6287   0.883   4.461   2.296
 1461SOL     H1 6288   0.889   4.459   2.201
 1461SOL     H2 6289   0.973   4.448   2.326
 1461SOL    EPW 6290   0.893   4.459   2.289
 1462SOL      O 6291   0.172   4.110   3.562
 1462SOL     H1 6292   0.174   4.040   3.498
 1462SOL     H2 6293   0.259   4.150   3.558
 1462SOL    EPW 6294   0.181   4.107   3.555
 1463SOL      O 6295   1.294   4.794   3.143
 1463SOL     H1 6296   1.357   4.747   3.197
 1463SOL     H2 6297   1.209   4.770   3.179
 1463SOL    EPW 6298   1.292   4.787   3.152
 1464SOL      O 6299   0.828   5.418   2.321
 1464SOL     H1 6300   0.887   5.488   2.350
 1464SOL     H2 6301   0.861   5.339   2.363
 1464SOL    EPW 6302   0.838   5.417   2.328
 1465SOL      O 6303   1.633   3.814   2.903
 1465SOL     H1 6304   1.610   3.731   2.944
 1465SOL     H2 6305   1.685   3.860   2.969
 1465SOL    EPW 6306   1.636   3.810   2.914
 1466SOL      O 6307   0.090   3.712   2.989
 1466SOL     H1 6308   0.106   3.722   2.895
 1466SOL     H2 6309   0.173   3.736   3.030
 1466SOL    EPW 6310   0.101   3.716   2.983
 1467SOL      O 6311   1.727   5.001   2.602
 1467SOL     H1 6312   1.689   4.941   2.537
 1467SOL     H2 6313   1.820   4.981   2.602
 1467SOL    EPW 6314   1.733   4.992   2.595
 1468SOL      O 6315   0.406   5.114   3.347
 1468SOL     H1 6316   0.336   5.052   3.325
 1468SOL     H2 6317   0.420   5.101   3.441
 1468SOL    EPW 6318   0.400   5.106   3.355
 1469SOL      O 6319   0.346   3.906   2.007
 1469SOL     H1 6320   0.254   3.931   1.997
 1469SOL     H2 6321   0.372   3.873   1.921
 1469SOL    EPW 6322   0.339   3.906   1.997
 1470SOL      O 6323   1.451   4.351   2.948
 1470SOL     H1 6324   1.374   4.398   2.915
 1470SOL     H2 6325   1.503   4.419   2.991
 1470SOL    EPW 6326   1.449   4.364   2.949
 1471SOL      O 6327   0.076   3.963   1.963
 1471SOL     H1 6328   5.858   3.973   1.948
 1471SOL     H2 6329   0.117   4.020   1.898
 1471SOL    EPW 6330   0.070   3.971   1.955
 1472SOL      O 6331   0.205   5.259   2.155
 1472SOL     H1 6332   0.122   5.273   2.202
 1472SOL     H2 6333   0.224   5.343   2.114
 1472SOL    EPW 6334   0.198   5.270   2.156
 1473SOL      O 6335   1.330   5.327   2.344
 1473SOL     H1 6336   1.411   5.297   2.302
 1473SOL     H2 6337   1.265   5.327   2.273
 1473SOL    EPW 6338   1.332   5.324   2.332
 1474SOL      O 6339   1.708   4.604   3.974
 1474SOL     H1 6340   1.741   4.552   4.048
 1474SOL     H2 6341   1.627   4.643   4.007
 1474SOL    EPW 6342   1.703   4.603   3.985
 1475SOL      O 6343   3.453   1.760   0.066
 1475SOL     H1 6344   3.548   1.759   0.064
 1475SOL     H2 6345   3.430   1.854   0.066
 1475SOL    EPW 6346   3.460   1.770   0.066
 1476SOL      O 6347   4.591   2.460   0.263
 1476SOL     H1 6348   4.559   2.423   0.346
 1476SOL     H2 6349   4.609   2.383   0.209
 1476SOL    EPW 6350   4.589   2.448   0.266
 1477SOL      O 6351   3.731   1.310   0.064
 1477SOL     H1 6352   3.770   1.396   0.047
 1477SOL     H2 6353   0.762   4.219   4.134
 1477SOL    EPW 6354   3.732   1.316   0.053
 1478SOL      O 6355   0.343   4.285   4.136
 1478SOL     H1 6356   0.348   4.379   4.152
 1478SOL     H2 6357   3.227   1.313   0.051
 1478SOL    EPW 6358   0.337   4.292   4.145
 1479SOL      O 6359   3.546   1.054   0.150
 1479SOL     H1 6360   3.548   1.139   0.195
 1479SOL     H2 6361   3.512   1.074   0.063
 1479SOL    EPW 6362   3.543   1.065   0.145
 1480SOL      O 6363   3.701   2.015   0.243
 1480SOL     H1 6364   3.758   1.978   0.311
 1480SOL     H2 6365   3.685   1.941   0.183
 1480SOL    EPW 6366   3.706   2.003   0.243
 1481SOL      O 6367   1.349   4.908   3.919
 1481SOL     H1 6368   1.267   4.958   3.913
 1481SOL     H2 6369   1.414   4.966   3.879
 1481SOL    EPW 6370   1.347   4.920   3.914
 1482SOL      O 6371   0.934   4.999   4.136
 1482SOL     H1 6372   3.868   2.139   0.035
 1482SOL     H2 6373   0.849   4.958   4.146
 1482SOL    EPW 6374   0.925   5.003   4.143
 1483SOL      O 6375   0.495   4.063   4.066
 1483SOL     H1 6376   0.443   4.009   4.006
 1483SOL     H2 6377   0.440   4.138   4.086
 1483SOL    EPW 6378   0.484   4.065   4.062
 1484SOL      O 6379   3.160   2.074   0.014
 1484SOL     H1 6380   0.199   5.070   4.097
 1484SOL     H2 6381   0.197   4.925   4.139
 1484SOL    EPW 6382   3.155   2.071   0.003
 1485SOL      O 6383   0.924   5.490   3.919
 1485SOL     H1 6384   0.898   5.472   4.009
 1485SOL     H2 6385   0.841   5.489   3.870
 1485SOL    EPW 6386   0.912   5.488   3.923
 1486SOL      O 6387   1.819   4.201   3.871
 1486SOL     H1 6388   1.725   4.201   3.893
 1486SOL     H2 6389   1.861   4.245   3.945
 1486SOL    EPW 6390   1.813   4.206   3.882
 1487SOL      O 6391   4.550   1.848   0.153
 1487SOL     H1 6392   4.490   1.817   0.221
 1487SOL     H2 6393   4.501   1.836   0.071
 1487SOL    EPW 6394   4.538   1.844   0.151
 1488SOL      O 6395   4.115   1.450   0.074
 1488SOL     H1 6396   1.202   4.395   4.138
 1488SOL     H2 6397   4.152   1.367   0.103
 1488SOL    EPW 6398   4.122   1.442   0.067
 1489SOL      O 6399   1.743   5.069   3.996
 1489SOL     H1 6400   1.719   5.105   4.081
 1489SOL     H2 6401   1.827   5.110   3.975
 1489SOL    EPW 6402   1.750   5.077   4.003
 1490SOL      O 6403   3.418   2.587   0.265
 1490SOL     H1 6404   3.418   2.676   0.231
 1490SOL     H2 6405   3.381   2.534   0.194
 1490SOL    EPW 6406   3.414   2.591   0.254
 1491SOL      O 6407   4.684   0.859   0.345
 1491SOL     H1 6408   4.745   0.817   0.406
 1491SOL     H2 6409   4.655   0.788   0.288
 1491SOL    EPW 6410   4.687   0.847   0.345
 1492SOL      O 6411   0.236   5.521   3.999
 1492SOL     H1 6412   0.294   5.586   3.959
 1492SOL     H2 6413   0.173   5.500   3.929
 1492SOL    EPW 6414   0.235   5.525   3.987
 1493SOL      O 6415   1.562   5.336   3.906
 1493SOL     H1 6416   1.616   5.408   3.937
 1493SOL     H2 6417   1.485   5.378   3.868
 1493SOL    EPW 6418   1.559   5.348   3.905
 1494SOL      O 6419   0.964   4.439   3.886
 1494SOL     H1 6420   0.951   4.376   3.815
 1494SOL     H2 6421   1.058   4.437   3.903
 1494SOL    EPW 6422   0.973   4.432   3.880
 1495SOL      O 6423   1.564   4.348   4.152
 1495SOL     H1 6424   4.581   1.402   0.050
 1495SOL     H2 6425   4.450   1.477   0.040
 1495SOL    EPW 6426   4.505   1.416   0.006
 1496SOL      O 6427   4.729   1.298   0.131
 1496SOL     H1 6428   4.798   1.285   0.196
 1496SOL     H2 6429   4.672   1.222   0.140
 1496SOL    EPW 6430   4.730   1.289   0.139
 1497SOL      O 6431   3.013   1.060   0.230
 1497SOL     H1 6432   3.047   0.997   0.166
 1497SOL     H2 6433   2.919   1.042   0.232
 1497SOL    EPW 6434   3.007   1.051   0.223
 1498SOL      O 6435   1.115   5.050   3.930
 1498SOL     H1 6436   1.048   5.030   3.996
 1498SOL     H2 6437   1.065   5.077   3.853
 1498SOL    EPW 6438   1.103   5.050   3.929
 1499SOL      O 6439   0.573   5.389   4.058
 1499SOL     H1 6440   0.503   5.378   4.121
 1499SOL     H2 6441   0.652   5.397   4.111
 1499SOL    EPW 6442   0.574   5.389   4.070
 1500SOL      O 6443   0.708   4.844   3.731
 1500SOL     H1 6444   0.676   4.870   3.817
 1500SOL     H2 6445   0.714   4.926   3.682
 1500SOL    EPW 6446   0.705   4.856   3.735
 1501SOL      O 6447   1.332   5.453   3.810
 1501SOL     H1 6448   1.261   5.409   3.856
 1501SOL     H2 6449   1.352   5.530   3.865
 1501SOL    EPW 6450   1.327   5.457   3.821
 1502SOL      O 6451   1.532   5.059   3.789
 1502SOL     H1 6452   1.484   5.125   3.740
 1502SOL     H2 6453   1.580   5.109   3.855
 1502SOL    EPW 6454   1.532   5.072   3.791
 1503SOL      O 6455   0.746   3.926   3.822
 1503SOL     H1 6456   0.695   3.845   3.812
 1503SOL     H2 6457   0.835   3.896   3.835
 1503SOL    EPW 6458   0.750   3.914   3.822
 1504SOL      O 6459   3.133   1.600   0.007
 1504SOL     H1 6460   3.116   1.603   0.101
 1504SOL     H2 6461   0.131   4.475   4.129
 1504SOL    EPW 6462   3.124   1.594   0.013
 1505SOL      O 6463   3.100   2.273   0.193
 1505SOL     H1 6464   3.133   2.256   0.281
 1505SOL     H2 6465   3.116   2.191   0.145
 1505SOL    EPW 6466   3.105   2.263   0.197
 1506SOL      O 6467   3.915   2.289   0.130
 1506SOL     H1 6468   4.007   2.266   0.118
 1506SOL     H2 6469   3.910   2.320   0.221
 1506SOL    EPW 6470   3.924   2.290   0.138
 1507SOL      O 6471   0.728   5.234   3.826
 1507SOL     H1 6472   0.702   5.325   3.815
 1507SOL     H2 6473   0.688   5.208   3.910
 1507SOL    EPW 6474   0.721   5.241   3.834
 1508SOL      O 6475   1.133   3.971   4.037
 1508SOL     H1 6476   1.076   3.919   3.981
 1508SOL     H2 6477   1.178   4.030   3.976
 1508SOL    EPW 6478   1.132   3.972   4.025
 1509SOL      O 6479   4.049   1.550   0.411
 1509SOL     H1 6480   3.990   1.511   0.476
 1509SOL     H2 6481   4.010   1.528   0.327
 1509SOL    EPW 6482   4.039   1.543   0.409
 1510SOL      O 6483   3.270   2.460   0.072
 1510SOL     H1 6484   0.292   5.427   4.145
 1510SOL     H2 6485   3.213   2.389   0.102
 1510SOL    EPW 6486   3.259   2.455   0.066
 1511SOL      O 6487   3.723   1.810   0.034
 1511SOL     H1 6488   0.795   4.727   4.097
 1511SOL     H2 6489   3.789   1.756   0.078
 1511SOL    EPW 6490   3.731   1.802   0.029
 1512SOL      O 6491   4.342   2.520   0.166
 1512SOL     H1 6492   4.339   2.467   0.086
 1512SOL     H2 6493   4.433   2.511   0.196
 1512SOL    EPW 6494   4.352   2.513   0.160
 1513SOL      O 6495   3.060   1.999   0.402
 1513SOL     H1 6496   3.125   2.066   0.425
 1513SOL     H2 6497   3.111   1.920   0.385
 1513SOL    EPW 6498   3.072   1.998   0.403
 1514SOL      O 6499   1.277   4.116   3.855
 1514SOL     H1 6500   1.252   4.177   3.786
 1514SOL     H2 6501   1.363   4.145   3.883
 1514SOL    EPW 6502   1.283   4.125   3.851
 1515SOL      O 6503   0.995   3.822   3.853
 1515SOL     H1 6504   1.026   3.806   3.764
 1515SOL     H2 6505   0.973   3.736   3.887
 1515SOL    EPW 6506   0.996   3.811   3.847
 1516SOL      O 6507   1.486   4.716   4.071
 1516SOL     H1 6508   1.421   4.769   4.026
 1516SOL     H2 6509   1.435   4.658   4.127
 1516SOL    EPW 6510   1.474   4.715   4.072
 1517SOL      O 6511   0.514   4.636   3.738
 1517SOL     H1 6512   0.498   4.622   3.831
 1517SOL     H2 6513   0.433   4.610   3.695
 1517SOL    EPW 6514   0.504   4.632   3.743
 1518SOL      O 6515   1.144   4.706   4.049
 1518SOL     H1 6516   1.087   4.678   4.120
 1518SOL     H2 6517   1.190   4.783   4.083
 1518SOL    EPW 6518   1.143   4.711   4.060
 1519SOL      O 6519   3.704   0.974   0.364
 1519SOL     H1 6520   3.650   0.984   0.286
 1519SOL     H2 6521   3.699   0.880   0.385
 1519SOL    EPW 6522   3.698   0.965   0.357
 1520SOL      O 6523   3.426   2.033   0.049
 1520SOL     H1 6524   3.460   2.104   0.104
 1520SOL     H2 6525   3.333   2.053   0.040
 1520SOL    EPW 6526   3.420   2.043   0.054
 1521SOL      O 6527   0.556   4.340   3.836
 1521SOL     H1 6528   0.518   4.396   3.904
 1521SOL     H2 6529   0.611   4.278   3.883
 1521SOL    EPW 6530   0.558   4.340   3.848
 1522SOL      O 6531   1.539   4.212   3.921
 1522SOL     H1 6532   1.505   4.279   3.862
 1522SOL     H2 6533   1.544   4.256   4.006
 1522SOL    EPW 6534   1.536   4.224   3.924
 1523SOL      O 6535   3.376   0.858   0.222
 1523SOL     H1 6536   3.434   0.930   0.201
 1523SOL     H2 6537   3.349   0.874   0.313
 1523SOL    EPW 6538   3.379   0.867   0.230
 1524SOL      O 6539   1.222   4.453   3.966
 1524SOL     H1 6540   1.293   4.442   3.903
 1524SOL     H2 6541   1.218   4.548   3.982
 1524SOL    EPW 6542   1.229   4.462   3.961
 1525SOL      O 6543   3.219   1.769   0.382
 1525SOL     H1 6544   3.289   1.772   0.318
 1525SOL     H2 6545   3.161   1.700   0.351
 1525SOL    EPW 6546   3.220   1.762   0.372
 1526SOL      O 6547   4.518   1.112   0.137
 1526SOL     H1 6548   4.482   1.036   0.182
 1526SOL     H2 6549   4.447   1.177   0.139
 1526SOL    EPW 6550   4.506   1.111   0.142
 1527SOL      O 6551   3.968   0.977   0.298
 1527SOL     H1 6552   3.982   1.054   0.242
 1527SOL     H2 6553   3.880   0.989   0.334
 1527SOL    EPW 6554   3.960   0.987   0.296
 1528SOL      O 6555   0.983   5.175   3.732
 1528SOL     H1 6556   1.000   5.222   3.650
 1528SOL     H2 6557   0.899   5.207   3.762
 1528SOL    EPW 6558   0.976   5.183   3.726
 1529SOL      O 6559   0.013   4.349   4.065
 1529SOL     H1 6560   5.795   4.340   4.073
 1529SOL     H2 6561   0.046   4.259   4.064
 1529SOL    EPW 6562   0.007   4.339   4.066
 1530SOL      O 6563   4.181   2.224   0.162
 1530SOL     H1 6564   4.170   2.284   0.235
 1530SOL     H2 6565   4.236   2.272   0.100
 1530SOL    EPW 6566   4.186   2.236   0.163
 1531SOL      O 6567   1.346   3.814   3.953
 1531SOL     H1 6568   1.422   3.856   3.994
 1531SOL     H2 6569   1.271   3.858   3.992
 1531SOL    EPW 6570   1.346   3.823   3.962
 1532SOL      O 6571   4.333   1.608   0.110
 1532SOL     H1 6572   4.256   1.552   0.114
 1532SOL     H2 6573   4.350   1.631   0.201
 1532SOL    EPW 6574   4.327   1.604   0.120
 1533SOL      O 6575   0.751   4.182   3.949
 1533SOL     H1 6576   0.825   4.183   3.888
 1533SOL     H2 6577   0.714   4.095   3.939
 1533SOL    EPW 6578   0.755   4.173   3.942
 1534SOL      O 6579   0.183   4.776   4.029
 1534SOL     H1 6580   0.091   4.778   4.002
 1534SOL     H2 6581   0.192   4.695   4.079
 1534SOL    EPW 6582   0.174   4.768   4.032
 1535SOL      O 6583   0.572   4.940   3.946
 1535SOL     H1 6584   0.560   4.953   4.040
 1535SOL     H2 6585   0.484   4.946   3.910
 1535SOL    EPW 6586   0.561   4.942   3.952
 1536SOL      O 6587   1.150   5.325   3.963
 1536SOL     H1 6588   1.128   5.234   3.945
 1536SOL     H2 6589   1.069   5.373   3.945
 1536SOL    EPW 6590   1.139   5.321   3.959
 1537SOL      O 6591   3.967   1.171   0.104
 1537SOL     H1 6592   3.992   1.128   0.022
 1537SOL     H2 6593   3.883   1.212   0.086
 1537SOL    EPW 6594   3.961   1.171   0.093
 1538SOL      O 6595   3.150   0.849   0.071
 1538SOL     H1 6596   3.235   0.861   0.113
 1538SOL     H2 6597   0.230   3.737   4.148
 1538SOL    EPW 6598   3.161   0.845   0.067
 1539SOL      O 6599   4.665   2.241   0.102
 1539SOL     H1 6600   4.681   2.150   0.129
 1539SOL     H2 6601   4.752   2.281   0.103
 1539SOL    EPW 6602   4.676   2.235   0.105
 1540SOL      O 6603   4.220   1.978   0.040
 1540SOL     H1 6604   4.210   2.061   0.088
 1540SOL     H2 6605   1.326   4.941   4.115
 1540SOL    EPW 6606   4.224   1.990   0.036
 1541SOL      O 6607   3.859   0.855   0.079
 1541SOL     H1 6608   3.906   0.889   0.155
 1541SOL     H2 6609   3.790   0.920   0.063
 1541SOL    EPW 6610   3.857   0.866   0.085
 1542SOL      O 6611   4.689   1.618   0.098
 1542SOL     H1 6612   4.782   1.641   0.096
 1542SOL     H2 6613   4.646   1.697   0.129
 1542SOL    EPW 6614   4.694   1.629   0.101
 1543SOL      O 6615   0.451   4.560   3.991
 1543SOL     H1 6616   0.357   4.543   3.994
 1543SOL     H2 6617   0.469   4.607   4.073
 1543SOL    EPW 6618   0.443   4.563   4.000
 1544SOL      O 6619   3.131   1.310   0.221
 1544SOL     H1 6620   3.175   1.292   0.304
 1544SOL     H2 6621   3.075   1.233   0.207
 1544SOL    EPW 6622   3.130   1.300   0.228
 1545SOL      O 6623   1.724   5.555   3.949
 1545SOL     H1 6624   1.816   5.537   3.964
 1545SOL     H2 6625   1.705   5.631   4.004
 1545SOL    EPW 6626   1.731   5.561   3.956
 1546SOL      O 6627   5.798   4.805   3.949
 1546SOL     H1 6628   5.830   4.843   3.868
 1546SOL     H2 6629   5.706   4.784   3.931
 1546SOL    EPW 6630   5.792   4.807   3.939
 1547SOL      O 6631   0.666   5.497   3.823
 1547SOL     H1 6632   0.603   5.544   3.768
 1547SOL     H2 6633   0.616   5.475   3.902
 1547SOL    EPW 6634   0.654   5.500   3.826
 1548SOL      O 6635   1.409   4.402   3.769
 1548SOL     H1 6636   1.358   4.377   3.692
 1548SOL     H2 6637   1.481   4.454   3.734
 1548SOL    EPW 6638   1.411   4.405   3.757
 1549SOL      O 6639   3.533   2.227   0.206
 1549SOL     H1 6640   3.600   2.164   0.232
 1549SOL     H2 6641   3.512   2.275   0.286
 1549SOL    EPW 6642   3.538   2.226   0.217
 1550SOL      O 6643   0.863   4.689   3.918
 1550SOL     H1 6644   0.900   4.601   3.910
 1550SOL     H2 6645   0.940   4.746   3.925
 1550SOL    EPW 6646   0.875   4.685   3.918
 1551SOL      O 6647   1.570   3.957   4.035
 1551SOL     H1 6648   1.575   3.984   4.127
 1551SOL     H2 6649   1.563   4.040   3.987
 1551SOL    EPW 6650   1.570   3.969   4.040
 1552SOL      O 6651   3.869   1.539   0.005
 1552SOL     H1 6652   0.930   4.457   4.068
 1552SOL     H2 6653   3.952   1.503   0.037
 1552SOL    EPW 6654   0.939   4.471   4.154
 1553SOL      O 6655   3.766   2.488   0.008
 1553SOL     H1 6656   3.790   2.569   0.053
 1553SOL     H2 6657   3.816   2.420   0.053
 1553SOL    EPW 6658   3.774   2.489   0.018
 1554SOL      O 6659   0.344   3.912   3.887
 1554SOL     H1 6660   0.253   3.936   3.867
 1554SOL     H2 6661   0.380   3.885   3.802
 1554SOL    EPW 6662   0.338   3.912   3.876
 1555SOL      O 6663   0.080   3.977   3.782
 1555SOL     H1 6664   5.862   3.976   3.769
 1555SOL     H2 6665   0.114   4.026   3.707
 1555SOL    EPW 6666   0.074   3.982   3.773
 1556SOL      O 6667   0.152   5.162   3.953
 1556SOL     H1 6668   0.061   5.187   3.966
 1556SOL     H2 6669   0.178   5.206   3.872
 1556SOL    EPW 6670   0.145   5.169   3.946
 1557SOL      O 6671   1.378   5.286   4.113
 1557SOL     H1 6672   1.450   5.293   4.050
 1557SOL     H2 6673   1.299   5.306   4.062
 1557SOL    EPW 6674   1.377   5.289   4.101
 1558SOL      O 6675   0.686   5.857   0.522
 1558SOL     H1 6676   0.689   0.069   0.487
 1558SOL     H2 6677   0.737   5.805   0.460
 1558SOL    EPW 6678   0.692   5.861   0.512
 1559SOL      O 6679   0.925   0.267   1.723
 1559SOL     H1 6680   0.992   0.199   1.719
 1559SOL     H2 6681   0.867   0.249   1.650
 1559SOL    EPW 6682   0.926   0.258   1.715
 1560SOL      O 6683   0.708   5.831   1.877
 1560SOL     H1 6684   0.693   5.790   1.792
 1560SOL     H2 6685   0.772   5.774   1.920
 1560SOL    EPW 6686   0.714   5.820   1.872
 1561SOL      O 6687   1.854   5.570   0.694
 1561SOL     H1 6688   1.902   5.527   0.765
 1561SOL     H2 6689   1.772   5.521   0.688
 1561SOL    EPW 6690   1.850   5.560   0.701
 1562SOL      O 6691   1.000   5.717   1.039
 1562SOL     H1 6692   0.913   5.733   1.076
 1562SOL     H2 6693   0.990   5.636   0.989
 1562SOL    EPW 6694   0.990   5.710   1.038
 1563SOL      O 6695   0.212   5.742   0.691
 1563SOL     H1 6696   0.226   5.810   0.626
 1563SOL     H2 6697   0.117   5.737   0.700
 1563SOL    EPW 6698   0.204   5.749   0.685
 1564SOL      O 6699   0.728   5.680   1.640
 1564SOL     H1 6700   0.685   5.601   1.609
 1564SOL     H2 6701   0.819   5.654   1.653
 1564SOL    EPW 6702   0.733   5.669   1.638
 1565SOL      O 6703   1.351   5.694   1.809
 1565SOL     H1 6704   1.433   5.645   1.799
 1565SOL     H2 6705   1.344   5.710   1.903
 1565SOL    EPW 6706   1.359   5.690   1.818
 1566SOL      O 6707   0.995   5.670   0.107
 1566SOL     H1 6708   1.088   5.649   0.101
 1566SOL     H2 6709   0.952   5.585   0.112
 1566SOL    EPW 6710   1.001   5.658   0.107
 1567SOL      O 6711   0.410   5.623   1.808
 1567SOL     H1 6712   0.339   5.575   1.765
 1567SOL     H2 6713   0.410   5.708   1.764
 1567SOL    EPW 6714   0.402   5.627   1.799
 1568SOL      O 6715   0.767   5.573   0.720
 1568SOL     H1 6716   0.682   5.615   0.714
 1568SOL     H2 6717   0.814   5.602   0.642
 1568SOL    EPW 6718   0.763   5.581   0.711
 1569SOL      O 6719   1.093   5.617   1.741
 1569SOL     H1 6720   1.087   5.530   1.702
 1569SOL     H2 6721   1.186   5.627   1.763
 1569SOL    EPW 6722   1.103   5.609   1.740
 1570SOL      O 6723   0.514   5.683   0.658
 1570SOL     H1 6724   0.558   5.748   0.604
 1570SOL     H2 6725   0.423   5.710   0.659
 1570SOL    EPW 6726   0.509   5.693   0.653
 1571SOL      O 6727   1.606   0.029   0.508
 1571SOL     H1 6728   1.523   5.860   0.518
 1571SOL     H2 6729   1.583   0.120   0.494
 1571SOL    EPW 6730   1.595   0.034   0.507
 1572SOL      O 6731   1.068   5.777   0.745
 1572SOL     H1 6732   1.121   5.830   0.685
 1572SOL     H2 6733   0.980   5.814   0.739
 1572SOL    EPW 6734   1.064   5.787   0.738
 1573SOL      O 6735   1.320   5.872   1.586
 1573SOL     H1 6736   1.225   0.002   1.595
 1573SOL     H2 6737   1.346   5.814   1.658
 1573SOL    EPW 6738   1.312   5.867   1.595
 1574SOL      O 6739   0.620   5.690   0.997
 1574SOL     H1 6740   0.585   5.610   0.958
 1574SOL     H2 6741   0.578   5.761   0.949
 1574SOL    EPW 6742   0.612   5.689   0.988
 1575SOL      O 6743   1.364   5.664   0.217
 1575SOL     H1 6744   1.459   5.672   0.231
 1575SOL     H2 6745   1.328   5.745   0.253
 1575SOL    EPW 6746   1.371   5.674   0.222
 1576SOL      O 6747   0.784   5.828   1.162
 1576SOL     H1 6748   0.742   5.821   1.247
 1576SOL     H2 6749   0.720   5.793   1.100
 1576SOL    EPW 6750   0.773   5.824   1.164
 1577SOL      O 6751   1.278   5.716   1.085
 1577SOL     H1 6752   1.323   5.690   1.005
 1577SOL     H2 6753   1.341   5.698   1.155
 1577SOL    EPW 6754   1.290   5.711   1.084
 1578SOL      O 6755   1.456   5.675   1.291
 1578SOL     H1 6756   1.503   5.604   1.247
 1578SOL     H2 6757   1.470   5.658   1.385
 1578SOL    EPW 6758   1.463   5.666   1.297
 1579SOL      O 6759   0.211   5.643   0.389
 1579SOL     H1 6760   0.252   5.673   0.308
 1579SOL     H2 6761   0.245   5.554   0.402
 1579SOL    EPW 6762   0.219   5.636   0.382
 1580SOL      O 6763   0.944   5.663   0.522
 1580SOL     H1 6764   1.004   5.661   0.597
 1580SOL     H2 6765   0.961   5.746   0.479
 1580SOL    EPW 6766   0.952   5.671   0.526
 1581SOL      O 6767   0.676   5.803   1.407
 1581SOL     H1 6768   0.582   5.821   1.404
 1581SOL     H2 6769   0.688   5.753   1.487
 1581SOL    EPW 6770   0.667   5.799   1.415
 1582SOL      O 6771   1.386   5.706   0.834
 1582SOL     H1 6772   1.473   5.690   0.872
 1582SOL     H2 6773   1.376   5.638   0.768
 1582SOL    EPW 6774   1.395   5.697   0.831
 1583SOL      O 6775   0.839   0.321   0.770
 1583SOL     H1 6776   0.826   0.325   0.865
 1583SOL     H2 6777   0.814   0.232   0.746
 1583SOL    EPW 6778   0.835   0.312   0.778
 1584SOL      O 6779   1.804   5.669   1.513
 1584SOL     H1 6780   1.711   5.653   1.529
 1584SOL     H2 6781   1.808   5.761   1.487
 1584SOL    EPW 6782   1.794   5.677   1.512
 1585SOL      O 6783   1.629   5.735   0.270
 1585SOL     H1 6784   1.634   5.803   0.337
 1585SOL     H2 6785   1.643   5.782   0.187
 1585SOL    EPW 6786   1.631   5.747   0.268
 1586SOL      O 6787   1.602   5.683   0.990
 1586SOL     H1 6788   1.622   5.609   1.048
 1586SOL     H2 6789   1.671   5.747   1.008
 1586SOL    EPW 6790   1.612   5.682   0.998
 1587SOL      O 6791   0.061   5.603   1.157
 1587SOL     H1 6792   0.061   5.555   1.074
 1587SOL     H2 6793   0.104   5.686   1.136
 1587SOL    EPW 6794   0.065   5.606   1.146
 1588SOL      O 6795   0.315   5.755   0.169
 1588SOL     H1 6796   0.241   5.771   0.111
 1588SOL     H2 6797   0.356   5.841   0.179
 1588SOL    EPW 6798   0.312   5.766   0.164
 1589SOL      O 6799   0.090   5.827   0.016
 1589SOL     H1 6800   0.111   0.043   0.028
 1589SOL     H2 6801   3.083   2.861   4.098
 1589SOL    EPW 6802   0.098   5.834   0.010
 1590SOL      O 6803   0.612   0.018   2.322
 1590SOL     H1 6804   0.662   0.095   2.351
 1590SOL     H2 6805   0.639   0.003   2.232
 1590SOL    EPW 6806   0.620   0.025   2.316
 1591SOL      O 6807   0.919   0.285   3.597
 1591SOL     H1 6808   0.994   0.295   3.538
 1591SOL     H2 6809   0.850   0.247   3.542
 1591SOL    EPW 6810   0.919   0.282   3.585
 1592SOL      O 6811   0.744   5.831   3.610
 1592SOL     H1 6812   0.730   5.765   3.541
 1592SOL     H2 6813   0.802   5.788   3.672
 1592SOL    EPW 6814   0.749   5.819   3.609
 1593SOL      O 6815   1.842   5.642   2.548
 1593SOL     H1 6816   1.901   5.604   2.613
 1593SOL     H2 6817   1.770   5.579   2.540
 1593SOL    EPW 6818   1.841   5.631   2.554
 1594SOL      O 6819   1.007   5.634   2.984
 1594SOL     H1 6820   0.997   5.727   2.963
 1594SOL     H2 6821   1.102   5.621   2.989
 1594SOL    EPW 6822   1.016   5.643   2.983
 1595SOL      O 6823   0.971   5.670   3.252
 1595SOL     H1 6824   0.972   5.658   3.157
 1595SOL     H2 6825   0.989   5.763   3.266
 1595SOL    EPW 6826   0.973   5.678   3.244
 1596SOL      O 6827   0.172   5.759   2.527
 1596SOL     H1 6828   0.179   5.673   2.486
 1596SOL     H2 6829   0.080   5.784   2.516
 1596SOL    EPW 6830   0.163   5.753   2.522
 1597SOL      O 6831   0.728   5.676   3.385
 1597SOL     H1 6832   0.682   5.592   3.386
 1597SOL     H2 6833   0.814   5.655   3.347
 1597SOL    EPW 6834   0.733   5.665   3.381
 1598SOL      O 6835   1.395   5.766   3.691
 1598SOL     H1 6836   1.467   5.704   3.703
 1598SOL     H2 6837   1.387   5.810   3.775
 1598SOL    EPW 6838   1.402   5.764   3.701
 1599SOL      O 6839   0.929   5.667   1.960
 1599SOL     H1 6840   0.986   5.646   1.886
 1599SOL     H2 6841   0.915   5.584   2.005
 1599SOL    EPW 6842   0.933   5.656   1.957
 1600SOL      O 6843   0.478   5.632   3.678
 1600SOL     H1 6844   0.407   5.583   3.638
 1600SOL     H2 6845   0.475   5.718   3.637
 1600SOL    EPW 6846   0.470   5.636   3.670
 1601SOL      O 6847   0.788   5.614   2.602
 1601SOL     H1 6848   0.709   5.569   2.571
 1601SOL     H2 6849   0.848   5.611   2.528
 1601SOL    EPW 6850   0.786   5.609   2.591
 1602SOL      O 6851   1.148   5.673   3.629
 1602SOL     H1 6852   1.150   5.578   3.618
 1602SOL     H2 6853   1.237   5.697   3.656
 1602SOL    EPW 6854   1.157   5.666   3.631
 1603SOL      O 6855   0.457   5.756   2.497
 1603SOL     H1 6856   0.503   5.807   2.431
 1603SOL     H2 6857   0.366   5.784   2.490
 1603SOL    EPW 6858   0.452   5.764   2.489
 1604SOL      O 6859   1.539   0.014   2.450
 1604SOL     H1 6860   1.462   5.855   2.495
 1604SOL     H2 6861   1.517   0.106   2.436
 1604SOL    EPW 6862   1.528   0.020   2.454
 1605SOL      O 6863   1.166   5.804   2.547
 1605SOL     H1 6864   1.120   5.851   2.478
 1605SOL     H2 6865   1.121   5.829   2.628
 1605SOL    EPW 6866   1.156   5.812   2.548
 1606SOL      O 6867   0.353   0.126   2.894
 1606SOL     H1 6868   0.354   0.046   2.841
 1606SOL     H2 6869   0.260   0.144   2.909
 1606SOL    EPW 6870   0.343   0.119   2.890
 1607SOL      O 6871   1.378   0.010   3.411
 1607SOL     H1 6872   1.287   0.022   3.438
 1607SOL     H2 6873   1.419   5.843   3.486
 1607SOL    EPW 6874   1.373   0.007   3.422
 1608SOL      O 6875   0.563   5.779   2.749
 1608SOL     H1 6876   0.530   5.697   2.787
 1608SOL     H2 6877   0.530   5.779   2.659
 1608SOL    EPW 6878   0.556   5.770   2.743
 1609SOL      O 6879   1.377   5.672   2.086
 1609SOL     H1 6880   1.463   5.689   2.125
 1609SOL     H2 6881   1.322   5.745   2.115
 1609SOL    EPW 6882   1.380   5.681   2.093
 1610SOL      O 6883   0.751   5.867   2.927
 1610SOL     H1 6884   0.725   5.822   3.007
 1610SOL     H2 6885   0.701   5.824   2.857
 1610SOL    EPW 6886   0.743   5.858   2.928
 1611SOL      O 6887   1.277   5.645   2.987
 1611SOL     H1 6888   1.320   5.661   2.903
 1611SOL     H2 6889   1.342   5.669   3.052
 1611SOL    EPW 6890   1.288   5.649   2.985
 1612SOL      O 6891   1.515   5.695   3.136
 1612SOL     H1 6892   1.522   5.606   3.101
 1612SOL     H2 6893   1.517   5.684   3.231
 1612SOL    EPW 6894   1.516   5.684   3.142
 1613SOL      O 6895   0.181   5.708   2.233
 1613SOL     H1 6896   0.242   5.707   2.159
 1613SOL     H2 6897   0.192   5.622   2.273
 1613SOL    EPW 6898   0.189   5.699   2.229
 1614SOL      O 6899   0.981   5.630   2.406
 1614SOL     H1 6900   1.060   5.644   2.460
 1614SOL     H2 6901   0.968   5.714   2.362
 1614SOL    EPW 6902   0.988   5.641   2.407
 1615SOL      O 6903   0.639   5.725   3.131
 1615SOL     H1 6904   0.564   5.785   3.137
 1615SOL     H2 6905   0.668   5.715   3.222
 1615SOL    EPW 6906   0.634   5.730   3.142
 1616SOL      O 6907   1.422   5.694   2.756
 1616SOL     H1 6908   1.500   5.649   2.787
 1616SOL     H2 6909   1.391   5.640   2.682
 1616SOL    EPW 6910   1.427   5.683   2.751
 1617SOL      O 6911   0.826   0.354   2.635
 1617SOL     H1 6912   0.783   0.305   2.705
 1617SOL     H2 6913   0.785   0.323   2.555
 1617SOL    EPW 6914   0.817   0.346   2.634
 1618SOL      O 6915   1.837   5.638   3.347
 1618SOL     H1 6916   1.749   5.634   3.384
 1618SOL     H2 6917   1.849   5.730   3.325
 1618SOL    EPW 6918   1.828   5.647   3.348
 1619SOL      O 6919   1.610   5.786   2.200
 1619SOL     H1 6920   1.589   5.802   2.292
 1619SOL     H2 6921   1.601   5.872   2.158
 1619SOL    EPW 6922   1.606   5.797   2.206
 1620SOL      O 6923   1.749   5.761   2.999
 1620SOL     H1 6924   1.805   5.683   2.997
 1620SOL     H2 6925   1.677   5.737   3.057
 1620SOL    EPW 6926   1.747   5.750   3.005
 1621SOL      O 6927   0.075   5.565   2.999
 1621SOL     H1 6928   0.097   5.552   2.907
 1621SOL     H2 6929   0.112   5.488   3.043
 1621SOL    EPW 6930   0.081   5.555   2.994
 1622SOL      O 6931   0.323   5.794   2.011
 1622SOL     H1 6932   0.238   5.814   1.972
 1622SOL     H2 6933   0.369   5.744   1.944
 1622SOL    EPW 6934   0.319   5.791   2.000
 1623SOL      O 6935   0.073   5.864   1.918
 1623SOL     H1 6936   5.855   5.863   1.908
 1623SOL     H2 6937   0.096   0.080   1.922
 1623SOL    EPW 6938   0.066   5.874   1.917
 1624SOL      O 6939   0.609   5.820   4.078
 1624SOL     H1 6940   0.693   5.861   4.097
 1624SOL     H2 6941   0.627   5.760   4.006
 1624SOL    EPW 6942   0.620   5.818   4.072
 1625SOL      O 6943   4.689   2.717   0.353
 1625SOL     H1 6944   4.753   2.674   0.410
 1625SOL     H2 6945   4.650   2.645   0.303
 1625SOL    EPW 6946   4.692   2.704   0.354
 1626SOL      O 6947   3.041   2.917   0.353
 1626SOL     H1 6948   3.078   2.830   0.336
 1626SOL     H2 6949   2.948   2.908   0.332
 1626SOL    EPW 6950   3.035   2.907   0.349
 1627SOL      O 6951   0.938   5.739   3.790
 1627SOL     H1 6952   1.013   5.718   3.734
 1627SOL     H2 6953   0.932   5.665   3.850
 1627SOL    EPW 6954   0.946   5.729   3.790
 1628SOL      O 6955   3.645   2.798   0.290
 1628SOL     H1 6956   3.616   2.719   0.336
 1628SOL     H2 6957   3.708   2.766   0.225
 1628SOL    EPW 6958   3.649   2.786   0.288
 1629SOL      O 6959   3.374   2.829   0.130
 1629SOL     H1 6960   3.435   2.843   0.058
 1629SOL     H2 6961   3.395   2.898   0.193
 1629SOL    EPW 6962   3.382   2.838   0.129
 1630SOL      O 6963   4.475   2.877   0.174
 1630SOL     H1 6964   4.389   2.839   0.159
 1630SOL     H2 6965   4.460   2.972   0.175
 1630SOL    EPW 6966   4.465   2.883   0.173
 1631SOL      O 6967   4.028   2.839   0.267
 1631SOL     H1 6968   4.033   2.935   0.261
 1631SOL     H2 6969   3.980   2.823   0.349
 1631SOL    EPW 6970   4.024   2.848   0.275
 1632SOL      O 6971   1.400   5.638   4.001
 1632SOL     H1 6972   1.479   5.689   4.018
 1632SOL     H2 6973   1.343   5.657   4.077
 1632SOL    EPW 6974   1.402   5.646   4.011
 1633SOL      O 6975   3.131   2.789   0.014
 1633SOL     H1 6976   3.213   2.800   0.062
 1633SOL     H2 6977   0.210   5.653   4.111
 1633SOL    EPW 6978   3.142   2.782   0.013
 1634SOL      O 6979   3.838   2.732   0.106
 1634SOL     H1 6980   3.911   2.757   0.162
 1634SOL     H2 6981   3.823   2.809   0.050
 1634SOL    EPW 6982   3.844   2.743   0.106
 1635SOL      O 6983   1.631   5.777   4.079
 1635SOL     H1 6984   4.547   2.839   0.016
 1635SOL     H2 6985   1.623   5.869   4.053
 1635SOL    EPW 6986   1.628   5.787   4.086
 1636SOL      O 6987   0.339   5.745   3.882
 1636SOL     H1 6988   0.253   5.765   3.847
 1636SOL     H2 6989   0.388   5.711   3.808
 1636SOL    EPW 6990   0.335   5.744   3.871
 1637SOL      O 6991   0.082   5.811   3.796
 1637SOL     H1 6992   5.864   5.808   3.789
 1637SOL     H2 6993   0.105   0.024   3.773
 1637SOL    EPW 6994   0.075   5.820   3.793
 1638SOL      O 6995   3.462   0.755   1.245
 1638SOL     H1 6996   3.424   0.827   1.295
 1638SOL     H2 6997   3.551   0.784   1.224
 1638SOL    EPW 6998   3.468   0.765   1.248
 1639SOL      O 6999   2.387   1.035   0.482
 1639SOL     H1 7000   2.483   1.036   0.484
 1639SOL     H2 7001   2.364   1.122   0.448
 1639SOL    EPW 7002   2.395   1.045   0.479
 1640SOL      O 7003   3.556   1.696   0.674
 1640SOL     H1 7004   3.557   1.655   0.760
 1640SOL     H2 7005   3.577   1.626   0.612
 1640SOL    EPW 7006   3.558   1.684   0.676
 1641SOL      O 7007   2.896   1.593   1.616
 1641SOL     H1 7008   2.865   1.648   1.544
 1641SOL     H2 7009   2.941   1.520   1.573
 1641SOL    EPW 7010   2.898   1.591   1.604
 1642SOL      O 7011   3.429   1.256   1.245
 1642SOL     H1 7012   3.362   1.189   1.228
 1642SOL     H2 7013   3.464   1.277   1.159
 1642SOL    EPW 7014   3.425   1.251   1.234
 1643SOL      O 7015   2.660   0.434   0.416
 1643SOL     H1 7016   2.648   0.520   0.456
 1643SOL     H2 7017   2.650   0.449   0.322
 1643SOL    EPW 7018   2.658   0.444   0.410
 1644SOL      O 7019   2.101   0.596   0.374
 1644SOL     H1 7020   2.173   0.659   0.376
 1644SOL     H2 7021   2.097   0.561   0.463
 1644SOL    EPW 7022   2.108   0.599   0.383
 1645SOL      O 7023   2.230   0.907   1.335
 1645SOL     H1 7024   2.259   0.840   1.273
 1645SOL     H2 7025   2.195   0.977   1.280
 1645SOL    EPW 7026   2.230   0.907   1.323
 1646SOL      O 7027   2.445   0.271   0.483
 1646SOL     H1 7028   2.526   0.321   0.475
 1646SOL     H2 7029   2.383   0.316   0.426
 1646SOL    EPW 7030   2.447   0.281   0.476
 1647SOL      O 7031   2.585   1.237   0.712
 1647SOL     H1 7032   2.667   1.286   0.723
 1647SOL     H2 7033   2.600   1.181   0.635
 1647SOL    EPW 7034   2.595   1.236   0.705
 1648SOL      O 7035   2.614   1.504   1.576
 1648SOL     H1 7036   2.692   1.544   1.615
 1648SOL     H2 7037   2.648   1.452   1.503
 1648SOL    EPW 7038   2.626   1.503   1.572
 1649SOL      O 7039   2.409   0.704   0.645
 1649SOL     H1 7040   2.381   0.627   0.693
 1649SOL     H2 7041   2.504   0.694   0.636
 1649SOL    EPW 7042   2.416   0.695   0.649
 1650SOL      O 7043   2.723   1.351   1.382
 1650SOL     H1 7044   2.712   1.400   1.300
 1650SOL     H2 7045   2.678   1.269   1.367
 1650SOL    EPW 7046   2.717   1.348   1.371
 1651SOL      O 7047   2.518   0.555   1.046
 1651SOL     H1 7048   2.425   0.534   1.043
 1651SOL     H2 7049   2.561   0.472   1.064
 1651SOL    EPW 7050   2.513   0.544   1.048
 1652SOL      O 7051   2.294   0.924   0.943
 1652SOL     H1 7052   2.260   0.936   0.855
 1652SOL     H2 7053   2.242   0.983   0.997
 1652SOL    EPW 7054   2.285   0.931   0.940
 1653SOL      O 7055   2.016   1.820   0.892
 1653SOL     H1 7056   2.111   1.809   0.886
 1653SOL     H2 7057   1.981   1.730   0.893
 1653SOL    EPW 7058   2.022   1.809   0.891
 1654SOL      O 7059   2.242   1.318   0.854
 1654SOL     H1 7060   2.235   1.389   0.918
 1654SOL     H2 7061   2.284   1.359   0.778
 1654SOL    EPW 7062   2.246   1.330   0.853
 1655SOL      O 7063   2.786   0.971   0.738
 1655SOL     H1 7064   2.706   0.969   0.791
 1655SOL     H2 7065   2.822   0.883   0.748
 1655SOL    EPW 7066   2.781   0.961   0.745
 1656SOL      O 7067   2.214   1.600   1.493
 1656SOL     H1 7068   2.126   1.593   1.455
 1656SOL     H2 7069   2.245   1.509   1.498
 1656SOL    EPW 7070   2.208   1.589   1.490
 1657SOL      O 7071   2.675   1.345   0.414
 1657SOL     H1 7072   2.715   1.384   0.491
 1657SOL     H2 7073   2.680   1.251   0.429
 1657SOL    EPW 7074   2.680   1.339   0.424
 1658SOL      O 7075   3.639   0.307   0.823
 1658SOL     H1 7076   3.588   0.269   0.895
 1658SOL     H2 7077   3.640   0.238   0.757
 1658SOL    EPW 7078   3.633   0.295   0.824
 1659SOL      O 7079   2.283   0.397   0.312
 1659SOL     H1 7080   2.257   0.339   0.240
 1659SOL     H2 7081   2.214   0.464   0.315
 1659SOL    EPW 7082   2.273   0.398   0.304
 1660SOL      O 7083   2.052   1.256   0.433
 1660SOL     H1 7084   1.963   1.280   0.405
 1660SOL     H2 7085   2.072   1.176   0.384
 1660SOL    EPW 7086   2.045   1.250   0.425
 1661SOL      O 7087   2.798   1.661   0.214
 1661SOL     H1 7088   2.761   1.671   0.302
 1661SOL     H2 7089   2.732   1.610   0.166
 1661SOL    EPW 7090   2.787   1.656   0.218
 1662SOL      O 7091   3.467   1.147   0.518
 1662SOL     H1 7092   3.374   1.162   0.505
 1662SOL     H2 7093   3.508   1.180   0.438
 1662SOL    EPW 7094   3.462   1.152   0.508
 1663SOL      O 7095   3.318   0.727   1.591
 1663SOL     H1 7096   3.378   0.668   1.546
 1663SOL     H2 7097   3.231   0.699   1.561
 1663SOL    EPW 7098   3.315   0.717   1.583
 1664SOL      O 7099   2.030   1.617   1.163
 1664SOL     H1 7100   2.000   1.583   1.248
 1664SOL     H2 7101   2.016   1.711   1.169
 1664SOL    EPW 7102   2.025   1.623   1.173
 1665SOL      O 7103   3.003   1.141   1.571
 1665SOL     H1 7104   2.999   1.232   1.543
 1665SOL     H2 7105   3.091   1.131   1.608
 1665SOL    EPW 7106   3.012   1.150   1.572
 1666SOL      O 7107   2.850   0.532   1.845
 1666SOL     H1 7108   2.941   0.529   1.814
 1666SOL     H2 7109   2.815   0.446   1.825
 1666SOL    EPW 7110   2.856   0.523   1.839
 1667SOL      O 7111   3.397   0.989   0.928
 1667SOL     H1 7112   3.381   0.930   0.854
 1667SOL     H2 7113   3.490   0.980   0.946
 1667SOL    EPW 7114   3.405   0.982   0.922
 1668SOL      O 7115   2.925   0.642   0.517
 1668SOL     H1 7116   2.983   0.669   0.445
 1668SOL     H2 7117   2.929   0.547   0.516
 1668SOL    EPW 7118   2.932   0.635   0.509
 1669SOL      O 7119   3.581   1.289   0.301
 1669SOL     H1 7120   3.596   1.361   0.363
 1669SOL     H2 7121   3.637   1.309   0.227
 1669SOL    EPW 7122   3.588   1.299   0.300
 1670SOL      O 7123   2.504   0.381   1.689
 1670SOL     H1 7124   2.438   0.319   1.658
 1670SOL     H2 7125   2.584   0.329   1.696
 1670SOL    EPW 7126   2.506   0.369   1.687
 1671SOL      O 7127   2.377   1.707   0.654
 1671SOL     H1 7128   2.385   1.803   0.651
 1671SOL     H2 7129   2.303   1.688   0.597
 1671SOL    EPW 7130   2.370   1.715   0.648
 1672SOL      O 7131   3.621   0.083   0.665
 1672SOL     H1 7132   3.697   0.025   0.665
 1672SOL     H2 7133   3.556   0.036   0.612
 1672SOL    EPW 7134   3.622   0.072   0.660
 1673SOL      O 7135   2.044   1.676   0.132
 1673SOL     H1 7136   2.027   1.735   0.205
 1673SOL     H2 7137   2.004   1.720   0.056
 1673SOL    EPW 7138   2.038   1.687   0.131
 1674SOL      O 7139   2.830   0.008   1.144
 1674SOL     H1 7140   2.765   0.025   1.076
 1674SOL     H2 7141   2.911   0.048   1.112
 1674SOL    EPW 7142   2.832   0.014   1.133
 1675SOL      O 7143   2.840   0.751   0.162
 1675SOL     H1 7144   2.863   0.683   0.099
 1675SOL     H2 7145   2.910   0.747   0.227
 1675SOL    EPW 7146   2.850   0.743   0.162
 1676SOL      O 7147   3.331   0.577   0.468
 1676SOL     H1 7148   3.388   0.543   0.537
 1676SOL     H2 7149   3.383   0.569   0.388
 1676SOL    EPW 7150   3.343   0.573   0.466
 1677SOL      O 7151   2.763   1.010   1.609
 1677SOL     H1 7152   2.719   1.036   1.690
 1677SOL     H2 7153   2.846   1.058   1.611
 1677SOL    EPW 7154   2.767   1.018   1.618
 1678SOL      O 7155   2.815   0.143   1.377
 1678SOL     H1 7156   2.817   0.098   1.292
 1678SOL     H2 7157   2.825   0.235   1.356
 1678SOL    EPW 7158   2.816   0.148   1.366
 1679SOL      O 7159   2.908   0.558   1.110
 1679SOL     H1 7160   2.976   0.615   1.072
 1679SOL     H2 7161   2.835   0.617   1.127
 1679SOL    EPW 7162   2.908   0.571   1.107
 1680SOL      O 7163   3.492   0.565   1.452
 1680SOL     H1 7164   3.457   0.478   1.432
 1680SOL     H2 7165   3.487   0.612   1.368
 1680SOL    EPW 7166   3.488   0.561   1.441
 1681SOL      O 7167   3.605   1.714   1.385
 1681SOL     H1 7168   3.535   1.684   1.442
 1681SOL     H2 7169   3.616   1.807   1.407
 1681SOL    EPW 7170   3.599   1.721   1.393
 1682SOL      O 7171   2.960   0.279   1.572
 1682SOL     H1 7172   2.945   0.349   1.508
 1682SOL     H2 7173   2.937   0.198   1.526
 1682SOL    EPW 7174   2.956   0.278   1.561
 1683SOL      O 7175   3.353   1.140   1.611
 1683SOL     H1 7176   3.432   1.180   1.647
 1683SOL     H2 7177   3.327   1.076   1.678
 1683SOL    EPW 7178   3.359   1.137   1.622
 1684SOL      O 7179   3.660   0.562   0.689
 1684SOL     H1 7180   3.751   0.534   0.684
 1684SOL     H2 7181   3.613   0.486   0.724
 1684SOL    EPW 7182   3.665   0.551   0.692
 1685SOL      O 7183   2.067   0.227   0.605
 1685SOL     H1 7184   2.097   0.180   0.527
 1685SOL     H2 7185   1.983   0.185   0.627
 1685SOL    EPW 7186   2.061   0.217   0.599
 1686SOL      O 7187   2.015   0.332   0.998
 1686SOL     H1 7188   1.959   0.384   1.055
 1686SOL     H2 7189   1.961   0.315   0.921
 1686SOL    EPW 7190   2.003   0.336   0.996
 1687SOL      O 7191   2.422   1.708   0.326
 1687SOL     H1 7192   2.349   1.676   0.379
 1687SOL     H2 7193   2.499   1.694   0.381
 1687SOL    EPW 7194   2.422   1.703   0.338
 1688SOL      O 7195   3.578   1.247   1.723
 1688SOL     H1 7196   3.629   1.166   1.730
 1688SOL     H2 7197   3.542   1.261   1.810
 1688SOL    EPW 7198   3.580   1.239   1.733
 1689SOL      O 7199   2.557   1.132   0.080
 1689SOL     H1 7200   2.495   1.068   0.045
 1689SOL     H2 7201   2.503   1.201   0.118
 1689SOL    EPW 7202   2.545   1.132   0.080
 1690SOL      O 7203   3.711   0.869   1.210
 1690SOL     H1 7204   3.710   0.918   1.128
 1690SOL     H2 7205   3.733   0.935   1.277
 1690SOL    EPW 7206   3.713   0.881   1.209
 1691SOL      O 7207   3.573   1.570   0.916
 1691SOL     H1 7208   3.545   1.618   0.994
 1691SOL     H2 7209   3.547   1.479   0.933
 1691SOL    EPW 7210   3.567   1.565   0.926
 1692SOL      O 7211   2.048   0.696   1.214
 1692SOL     H1 7212   2.054   0.684   1.308
 1692SOL     H2 7213   1.967   0.747   1.201
 1692SOL    EPW 7214   2.040   0.700   1.222
 1693SOL      O 7215   2.607   0.205   0.123
 1693SOL     H1 7216   2.559   0.148   0.183
 1693SOL     H2 7217   2.692   0.162   0.112
 1693SOL    EPW 7218   2.611   0.194   0.128
 1694SOL      O 7219   2.074   1.782   1.659
 1694SOL     H1 7220   2.020   1.825   1.593
 1694SOL     H2 7221   2.121   1.714   1.612
 1694SOL    EPW 7222   2.073   1.780   1.647
 1695SOL      O 7223   2.162   1.084   1.130
 1695SOL     H1 7224   2.216   1.161   1.147
 1695SOL     H2 7225   2.076   1.119   1.107
 1695SOL    EPW 7226   2.158   1.096   1.130
 1696SOL      O 7227   2.669   0.993   1.139
 1696SOL     H1 7228   2.683   0.899   1.150
 1696SOL     H2 7229   2.624   1.001   1.055
 1696SOL    EPW 7230   2.666   0.984   1.131
 1697SOL      O 7231   1.995   0.919   0.535
 1697SOL     H1 7232   2.072   0.894   0.587
 1697SOL     H2 7233   1.962   0.835   0.501
 1697SOL    EPW 7234   2.000   0.907   0.537
 1698SOL      O 7235   2.273   0.650   2.033
 1698SOL     H1 7236   2.218   0.624   1.960
 1698SOL     H2 7237   2.291   0.743   2.018
 1698SOL    EPW 7238   2.269   0.657   2.024
 1699SOL      O 7239   2.605   0.088   1.547
 1699SOL     H1 7240   2.581   5.873   1.530
 1699SOL     H2 7241   2.683   0.102   1.493
 1699SOL    EPW 7242   2.611   0.079   1.539
 1700SOL      O 7243   2.309   0.551   1.507
 1700SOL     H1 7244   2.373   0.620   1.525
 1700SOL     H2 7245   2.329   0.483   1.572
 1700SOL    EPW 7246   2.318   0.551   1.516
 1701SOL      O 7247   2.632   1.787   0.975
 1701SOL     H1 7248   2.712   1.829   1.006
 1701SOL     H2 7249   2.610   1.833   0.894
 1701SOL    EPW 7250   2.638   1.796   0.970
 1702SOL      O 7251   3.287   0.164   1.899
 1702SOL     H1 7252   3.328   0.089   1.856
 1702SOL     H2 7253   3.253   0.129   1.982
 1702SOL    EPW 7254   3.288   0.152   1.904
 1703SOL      O 7255   2.021   1.497   0.651
 1703SOL     H1 7256   2.001   1.522   0.742
 1703SOL     H2 7257   2.030   1.402   0.654
 1703SOL    EPW 7258   2.020   1.490   0.661
 1704SOL      O 7259   2.779   1.461   0.646
 1704SOL     H1 7260   2.867   1.423   0.648
 1704SOL     H2 7261   2.763   1.489   0.736
 1704SOL    EPW 7262   2.787   1.460   0.655
 1705SOL      O 7263   3.710   0.678   0.930
 1705SOL     H1 7264   3.806   0.677   0.928
 1705SOL     H2 7265   3.684   0.642   0.845
 1705SOL    EPW 7266   3.718   0.674   0.921
 1706SOL      O 7267   3.549   0.848   1.869
 1706SOL     H1 7268   3.613   0.780   1.846
 1706SOL     H2 7269   3.561   0.861   1.963
 1706SOL    EPW 7270   3.557   0.842   1.876
 1707SOL      O 7271   2.589   1.540   0.080
 1707SOL     H1 7272   2.527   1.606   0.050
 1707SOL     H2 7273   2.537   1.478   0.131
 1707SOL    EPW 7274   2.577   1.540   0.082
 1708SOL      O 7275   2.869   0.421   1.354
 1708SOL     H1 7276   2.794   0.477   1.375
 1708SOL     H2 7277   2.903   0.456   1.272
 1708SOL    EPW 7278   2.864   0.430   1.348
 1709SOL      O 7279   3.084   0.728   0.980
 1709SOL     H1 7280   3.100   0.822   0.988
 1709SOL     H2 7281   3.027   0.720   0.903
 1709SOL    EPW 7282   3.080   0.737   0.972
 1710SOL      O 7283   2.555   1.013   0.891
 1710SOL     H1 7284   2.467   0.979   0.902
 1710SOL     H2 7285   2.543   1.094   0.840
 1710SOL    EPW 7286   2.544   1.018   0.886
 1711SOL      O 7287   3.356   0.546   0.791
 1711SOL     H1 7288   3.308   0.469   0.761
 1711SOL     H2 7289   3.343   0.549   0.885
 1711SOL    EPW 7290   3.350   0.538   0.798
 1712SOL      O 7291   2.275   0.251   1.601
 1712SOL     H1 7292   2.282   0.168   1.648
 1712SOL     H2 7293   2.257   0.226   1.511
 1712SOL    EPW 7294   2.274   0.240   1.597
 1713SOL      O 7295   2.892   0.720   0.777
 1713SOL     H1 7296   2.809   0.674   0.793
 1713SOL     H2 7297   2.917   0.695   0.688
 1713SOL    EPW 7298   2.886   0.713   0.769
 1714SOL      O 7299   2.175   1.657   0.480
 1714SOL     H1 7300   2.111   1.716   0.442
 1714SOL     H2 7301   2.123   1.594   0.530
 1714SOL    EPW 7302   2.163   1.656   0.482
 1715SOL      O 7303   2.665   1.071   0.502
 1715SOL     H1 7304   2.694   1.038   0.417
 1715SOL     H2 7305   2.715   1.020   0.566
 1715SOL    EPW 7306   2.673   1.062   0.500
 1716SOL      O 7307   3.231   1.624   1.215
 1716SOL     H1 7308   3.176   1.689   1.170
 1716SOL     H2 7309   3.181   1.542   1.209
 1716SOL    EPW 7310   3.220   1.622   1.209
 1717SOL      O 7311   3.288   1.750   0.659
 1717SOL     H1 7312   3.262   1.762   0.568
 1717SOL     H2 7313   3.382   1.732   0.655
 1717SOL    EPW 7314   3.295   1.749   0.649
 1718SOL      O 7315   3.230   0.310   0.706
 1718SOL     H1 7316   3.261   0.249   0.773
 1718SOL     H2 7317   3.135   0.294   0.701
 1718SOL    EPW 7318   3.223   0.302   0.713
 1719SOL      O 7319   2.006   1.227   0.717
 1719SOL     H1 7320   2.083   1.233   0.773
 1719SOL     H2 7321   2.038   1.188   0.636
 1719SOL    EPW 7322   2.017   1.223   0.714
 1720SOL      O 7323   2.504   1.281   1.701
 1720SOL     H1 7324   2.538   1.361   1.660
 1720SOL     H2 7325   2.556   1.271   1.781
 1720SOL    EPW 7326   2.513   1.289   1.705
 1721SOL      O 7327   2.039   1.441   1.856
 1721SOL     H1 7328   2.118   1.390   1.841
 1721SOL     H2 7329   1.986   1.428   1.777
 1721SOL    EPW 7330   2.042   1.434   1.846
 1722SOL      O 7331   2.835   0.066   0.076
 1722SOL     H1 7332   5.811   3.018   4.145
 1722SOL     H2 7333   2.791   5.858   0.070
 1722SOL    EPW 7334   2.834   0.059   0.066
 1723SOL      O 7335   2.980   1.385   1.460
 1723SOL     H1 7336   2.890   1.374   1.429
 1723SOL     H2 7337   3.033   1.389   1.381
 1723SOL    EPW 7338   2.976   1.384   1.449
 1724SOL      O 7339   2.313   0.037   1.770
 1724SOL     H1 7340   2.291   5.821   1.765
 1724SOL     H2 7341   2.406   0.038   1.792
 1724SOL    EPW 7342   2.321   0.027   1.772
 1725SOL      O 7343   2.260   1.523   1.062
 1725SOL     H1 7344   2.332   1.570   1.104
 1725SOL     H2 7345   2.181   1.558   1.104
 1725SOL    EPW 7346   2.259   1.532   1.071
 1726SOL      O 7347   3.742   1.062   1.415
 1726SOL     H1 7348   3.679   1.123   1.378
 1726SOL     H2 7349   3.705   1.038   1.500
 1726SOL    EPW 7350   3.732   1.066   1.420
 1727SOL      O 7351   2.705   1.545   1.187
 1727SOL     H1 7352   2.730   1.527   1.096
 1727SOL     H2 7353   2.614   1.574   1.181
 1727SOL    EPW 7354   2.698   1.546   1.176
 1728SOL      O 7355   2.360   0.945   0.000
 1728SOL     H1 7356   2.326   0.920   0.086
 1728SOL     H2 7357   5.227   3.867   4.095
 1728SOL    EPW 7358   2.349   0.941   0.003
 1729SOL      O 7359   2.505   1.348   0.990
 1729SOL     H1 7360   2.467   1.317   1.072
 1729SOL     H2 7361   2.445   1.318   0.922
 1729SOL    EPW 7362   2.495   1.342   0.991
 1730SOL      O 7363   3.352   0.318   1.421
 1730SOL     H1 7364   3.308   0.304   1.505
 1730SOL     H2 7365   3.331   0.240   1.370
 1730SOL    EPW 7366   3.345   0.308   1.425
 1731SOL      O 7367   3.674   0.225   1.232
 1731SOL     H1 7368   3.689   0.314   1.199
 1731SOL     H2 7369   3.750   0.175   1.203
 1731SOL    EPW 7370   3.683   0.229   1.226
 1732SOL      O 7371   1.899   1.380   1.625
 1732SOL     H1 7372   1.943   1.302   1.591
 1732SOL     H2 7373   1.813   1.348   1.653
 1732SOL    EPW 7374   1.894   1.368   1.624
 1733SOL      O 7375   2.657   0.066   0.640
 1733SOL     H1 7376   2.582   0.042   0.585
 1733SOL     H2 7377   2.732   0.066   0.580
 1733SOL    EPW 7378   2.657   0.063   0.627
 1734SOL      O 7379   2.321   1.298   0.417
 1734SOL     H1 7380   2.348   1.348   0.493
 1734SOL     H2 7381   2.226   1.295   0.421
 1734SOL    EPW 7382   2.314   1.303   0.425
 1735SOL      O 7383   2.811   1.715   1.390
 1735SOL     H1 7384   2.785   1.663   1.314
 1735SOL     H2 7385   2.822   1.804   1.357
 1735SOL    EPW 7386   2.810   1.719   1.379
 1736SOL      O 7387   3.130   1.562   0.790
 1736SOL     H1 7388   3.189   1.619   0.741
 1736SOL     H2 7389   3.054   1.616   0.810
 1736SOL    EPW 7390   3.128   1.574   0.787
 1737SOL      O 7391   3.485   1.695   1.141
 1737SOL     H1 7392   3.534   1.695   1.223
 1737SOL     H2 7393   3.398   1.662   1.165
 1737SOL    EPW 7394   3.481   1.692   1.153
 1738SOL      O 7395   2.582   0.607   1.811
 1738SOL     H1 7396   2.677   0.597   1.811
 1738SOL     H2 7397   2.550   0.531   1.762
 1738SOL    EPW 7398   2.589   0.598   1.806
 1739SOL      O 7399   3.358   0.941   1.421
 1739SOL     H1 7400   3.368   1.015   1.482
 1739SOL     H2 7401   3.341   0.866   1.478
 1739SOL    EPW 7402   3.357   0.941   1.434
 1740SOL      O 7403   3.060   5.868   1.747
 1740SOL     H1 7404   3.015   5.786   1.728
 1740SOL     H2 7405   3.138   5.841   1.796
 1740SOL    EPW 7406   3.064   5.856   1.751
 1741SOL      O 7407   2.546   0.735   0.250
 1741SOL     H1 7408   2.458   0.732   0.287
 1741SOL     H2 7409   2.556   0.650   0.206
 1741SOL    EPW 7410   2.538   0.725   0.249
 1742SOL      O 7411   3.509   1.312   0.978
 1742SOL     H1 7412   3.535   1.282   0.891
 1742SOL     H2 7413   3.416   1.329   0.970
 1742SOL    EPW 7414   3.502   1.310   0.968
 1743SOL      O 7415   2.950   1.020   1.325
 1743SOL     H1 7416   2.955   1.072   1.406
 1743SOL     H2 7417   2.910   1.079   1.261
 1743SOL    EPW 7418   2.946   1.032   1.327
 1744SOL      O 7419   2.317   0.233   0.723
 1744SOL     H1 7420   2.371   0.247   0.645
 1744SOL     H2 7421   2.229   0.219   0.689
 1744SOL    EPW 7422   2.313   0.233   0.711
 1745SOL      O 7423   2.038   1.167   1.524
 1745SOL     H1 7424   2.056   1.099   1.589
 1745SOL     H2 7425   1.969   1.130   1.470
 1745SOL    EPW 7426   2.033   1.156   1.525
 1746SOL      O 7427   2.641   0.564   1.406
 1746SOL     H1 7428   2.594   0.621   1.467
 1746SOL     H2 7429   2.589   0.484   1.405
 1746SOL    EPW 7430   2.630   0.562   1.412
 1747SOL      O 7431   3.077   0.724   0.302
 1747SOL     H1 7432   3.103   0.757   0.216
 1747SOL     H2 7433   3.133   0.772   0.364
 1747SOL    EPW 7434   3.086   0.733   0.300
 1748SOL      O 7435   2.237   0.913   0.676
 1748SOL     H1 7436   2.282   0.970   0.614
 1748SOL     H2 7437   2.289   0.833   0.677
 1748SOL    EPW 7438   2.247   0.910   0.669
 1749SOL      O 7439   3.284   0.209   0.453
 1749SOL     H1 7440   3.276   0.252   0.538
 1749SOL     H2 7441   3.355   0.256   0.409
 1749SOL    EPW 7442   3.291   0.219   0.457
 1750SOL      O 7443   2.966   0.212   0.721
 1750SOL     H1 7444   2.933   0.270   0.652
 1750SOL     H2 7445   2.935   0.251   0.802
 1750SOL    EPW 7446   2.959   0.222   0.722
 1751SOL      O 7447   3.696   0.999   1.690
 1751SOL     H1 7448   3.638   0.952   1.751
 1751SOL     H2 7449   3.780   0.952   1.696
 1751SOL    EPW 7450   3.699   0.989   1.697
 1752SOL      O 7451   1.936   1.564   0.908
 1752SOL     H1 7452   1.969   1.560   0.998
 1752SOL     H2 7453   1.841   1.570   0.919
 1752SOL    EPW 7454   1.929   1.564   0.919
 1753SOL      O 7455   1.857   0.710   0.410
 1753SOL     H1 7456   1.796   0.643   0.441
 1753SOL     H2 7457   1.935   0.662   0.386
 1753SOL    EPW 7458   1.859   0.698   0.411
 1754SOL      O 7459   3.445   1.896   1.876
 1754SOL     H1 7460   3.481   1.817   1.835
 1754SOL     H2 7461   3.507   1.917   1.945
 1754SOL    EPW 7462   3.455   1.889   1.879
 1755SOL      O 7463   3.026   1.334   0.663
 1755SOL     H1 7464   3.011   1.271   0.733
 1755SOL     H2 7465   3.075   1.405   0.705
 1755SOL    EPW 7466   3.030   1.335   0.675
 1756SOL      O 7467   2.274   0.346   1.320
 1756SOL     H1 7468   2.273   0.426   1.372
 1756SOL     H2 7469   2.266   0.376   1.230
 1756SOL    EPW 7470   2.273   0.358   1.316
 1757SOL      O 7471   2.271   0.405   1.057
 1757SOL     H1 7472   2.318   0.328   1.025
 1757SOL     H2 7473   2.180   0.388   1.034
 1757SOL    EPW 7474   2.266   0.395   1.051
 1758SOL      O 7475   3.116   0.527   1.770
 1758SOL     H1 7476   3.151   0.445   1.734
 1758SOL     H2 7477   3.094   0.579   1.693
 1758SOL    EPW 7478   3.118   0.523   1.758
 1759SOL      O 7479   3.214   0.302   1.662
 1759SOL     H1 7480   3.128   0.278   1.629
 1759SOL     H2 7481   3.234   0.236   1.729
 1759SOL    EPW 7482   3.207   0.292   1.666
 1760SOL      O 7483   2.405   0.182   0.976
 1760SOL     H1 7484   2.460   0.105   0.983
 1760SOL     H2 7485   2.391   0.193   0.881
 1760SOL    EPW 7486   2.409   0.175   0.966
 1761SOL      O 7487   2.476   1.714   1.449
 1761SOL     H1 7488   2.385   1.693   1.466
 1761SOL     H2 7489   2.526   1.645   1.493
 1761SOL    EPW 7490   2.472   1.705   1.455
 1762SOL      O 7491   3.602   0.500   1.112
 1762SOL     H1 7492   3.508   0.492   1.095
 1762SOL     H2 7493   3.631   0.569   1.053
 1762SOL    EPW 7494   3.595   0.506   1.104
 1763SOL      O 7495   3.751   1.171   1.059
 1763SOL     H1 7496   3.731   1.097   1.002
 1763SOL     H2 7497   3.679   1.233   1.044
 1763SOL    EPW 7498   3.741   1.170   1.051
 1764SOL      O 7499   3.140   0.999   1.001
 1764SOL     H1 7500   3.152   1.026   1.092
 1764SOL     H2 7501   3.228   0.999   0.964
 1764SOL    EPW 7502   3.151   1.002   1.007
 1765SOL      O 7503   3.199   0.525   1.321
 1765SOL     H1 7504   3.225   0.541   1.230
 1765SOL     H2 7505   3.246   0.446   1.346
 1765SOL    EPW 7506   3.207   0.518   1.314
 1766SOL      O 7507   3.726   0.656   1.811
 1766SOL     H1 7508   3.729   0.584   1.874
 1766SOL     H2 7509   3.723   0.613   1.725
 1766SOL    EPW 7510   3.726   0.644   1.808
 1767SOL      O 7511   3.299   0.932   1.776
 1767SOL     H1 7512   3.294   0.860   1.712
 1767SOL     H2 7513   3.384   0.920   1.818
 1767SOL    EPW 7514   3.308   0.923   1.773
 1768SOL      O 7515   3.260   0.834   0.472
 1768SOL     H1 7516   3.285   0.742   0.471
 1768SOL     H2 7517   3.277   0.863   0.562
 1768SOL    EPW 7518   3.264   0.828   0.481
 1769SOL      O 7519   2.325   1.296   1.200
 1769SOL     H1 7520   2.306   1.309   1.293
 1769SOL     H2 7521   2.292   1.375   1.158
 1769SOL    EPW 7522   2.319   1.306   1.206
 1770SOL      O 7523   2.621   0.307   1.101
 1770SOL     H1 7524   2.602   0.297   1.195
 1770SOL     H2 7525   2.551   0.258   1.057
 1770SOL    EPW 7526   2.611   0.301   1.107
 1771SOL      O 7527   2.461   1.679   1.171
 1771SOL     H1 7528   2.517   1.734   1.116
 1771SOL     H2 7529   2.480   1.708   1.260
 1771SOL    EPW 7530   2.469   1.688   1.175
 1772SOL      O 7531   3.329   1.378   1.476
 1772SOL     H1 7532   3.328   1.295   1.524
 1772SOL     H2 7533   3.364   1.355   1.390
 1772SOL    EPW 7534   3.332   1.367   1.472
 1773SOL      O 7535   2.441   1.029   1.593
 1773SOL     H1 7536   2.470   1.039   1.502
 1773SOL     H2 7537   2.473   1.109   1.636
 1773SOL    EPW 7538   2.448   1.039   1.588
 1774SOL      O 7539   2.611   1.101   1.384
 1774SOL     H1 7540   2.671   1.056   1.443
 1774SOL     H2 7541   2.622   1.056   1.300
 1774SOL    EPW 7542   2.619   1.091   1.381
 1775SOL      O 7543   2.623   0.477   0.139
 1775SOL     H1 7544   2.642   0.502   0.049
 1775SOL     H2 7545   2.608   0.383   0.136
 1775SOL    EPW 7546   2.623   0.470   0.129
 1776SOL      O 7547   3.408   1.631   1.549
 1776SOL     H1 7548   3.463   1.616   1.626
 1776SOL     H2 7549   3.384   1.543   1.519
 1776SOL    EPW 7550   3.411   1.620   1.554
 1777SOL      O 7551   3.081   0.112   1.108
 1777SOL     H1 7552   3.137   0.127   1.032
 1777SOL     H2 7553   3.141   0.102   1.181
 1777SOL    EPW 7554   3.093   0.112   1.108
 1778SOL      O 7555   2.109   1.024   0.308
 1778SOL     H1 7556   2.034   1.041   0.251
 1778SOL     H2 7557   2.071   0.978   0.383
 1778SOL    EPW 7558   2.097   1.021   0.310
 1779SOL      O 7559   2.408   1.351   0.162
 1779SOL     H1 7560   2.382   1.336   0.253
 1779SOL     H2 7561   2.334   1.400   0.124
 1779SOL    EPW 7562   2.397   1.355   0.168
 1780SOL      O 7563   3.058   1.577   0.268
 1780SOL     H1 7564   3.067   1.483   0.258
 1780SOL     H2 7565   2.965   1.594   0.252
 1780SOL    EPW 7566   3.049   1.569   0.265
 1781SOL      O 7567   2.275   1.746   0.902
 1781SOL     H1 7568   2.272   1.660   0.944
 1781SOL     H2 7569   2.315   1.728   0.816
 1781SOL    EPW 7570   2.279   1.735   0.897
 1782SOL      O 7571   2.868   1.185   1.116
 1782SOL     H1 7572   2.790   1.129   1.119
 1782SOL     H2 7573   2.898   1.179   1.026
 1782SOL    EPW 7574   2.862   1.178   1.107
 1783SOL      O 7575   1.954   1.553   1.418
 1783SOL     H1 7576   1.933   1.491   1.488
 1783SOL     H2 7577   1.870   1.594   1.397
 1783SOL    EPW 7578   1.942   1.550   1.423
 1784SOL      O 7579   2.846   0.331   0.946
 1784SOL     H1 7580   2.774   0.310   1.005
 1784SOL     H2 7581   2.886   0.409   0.984
 1784SOL    EPW 7582   2.842   0.337   0.956
 1785SOL      O 7583   2.495   0.738   1.581
 1785SOL     H1 7584   2.481   0.833   1.585
 1785SOL     H2 7585   2.527   0.715   1.668
 1785SOL    EPW 7586   2.497   0.746   1.591
 1786SOL      O 7587   2.264   1.280   1.839
 1786SOL     H1 7588   2.338   1.295   1.780
 1786SOL     H2 7589   2.233   1.193   1.817
 1786SOL    EPW 7590   2.269   1.272   1.830
 1787SOL      O 7591   3.278   0.075   1.304
 1787SOL     H1 7592   3.334   0.012   1.258
 1787SOL     H2 7593   3.264   0.037   1.390
 1787SOL    EPW 7594   3.283   0.064   1.308
 1788SOL      O 7595   3.558   1.667   1.781
 1788SOL     H1 7596   3.539   1.619   1.861
 1788SOL     H2 7597   3.646   1.702   1.795
 1788SOL    EPW 7598   3.566   1.666   1.791
 1789SOL      O 7599   2.289   0.500   0.774
 1789SOL     H1 7600   2.305   0.406   0.769
 1789SOL     H2 7601   2.259   0.514   0.864
 1789SOL    EPW 7602   2.287   0.492   0.783
 1790SOL      O 7603   1.909   1.805   1.880
 1790SOL     H1 7604   1.966   1.784   1.806
 1790SOL     H2 7605   1.899   1.900   1.877
 1790SOL    EPW 7606   1.914   1.813   1.872
 1791SOL      O 7607   2.704   1.522   0.907
 1791SOL     H1 7608   2.631   1.464   0.930
 1791SOL     H2 7609   2.668   1.610   0.917
 1791SOL    EPW 7610   2.692   1.525   0.910
 1792SOL      O 7611   2.910   0.369   0.502
 1792SOL     H1 7612   2.952   0.321   0.431
 1792SOL     H2 7613   2.819   0.380   0.474
 1792SOL    EPW 7614   2.905   0.365   0.492
 1793SOL      O 7615   2.156   0.077   0.396
 1793SOL     H1 7616   2.182   0.112   0.310
 1793SOL     H2 7617   2.114   5.870   0.376
 1793SOL    EPW 7618   2.154   0.072   0.385
 1794SOL      O 7619   1.893   0.552   1.592
 1794SOL     H1 7620   1.939   0.613   1.534
 1794SOL     H2 7621   1.803   0.552   1.560
 1794SOL    EPW 7622   1.888   0.558   1.582
 1795SOL      O 7623   3.628   1.466   0.531
 1795SOL     H1 7624   3.596   1.400   0.594
 1795SOL     H2 7625   3.722   1.470   0.546
 1795SOL    EPW 7626   3.635   1.459   0.540
 1796SOL      O 7627   3.194   1.201   0.472
 1796SOL     H1 7628   3.136   1.245   0.535
 1796SOL     H2 7629   3.140   1.131   0.436
 1796SOL    EPW 7630   3.182   1.198   0.475
 1797SOL      O 7631   2.882   0.045   0.477
 1797SOL     H1 7632   2.941   0.065   0.549
 1797SOL     H2 7633   2.921   0.088   0.401
 1797SOL    EPW 7634   2.892   0.052   0.477
 1798SOL      O 7635   3.669   0.944   0.929
 1798SOL     H1 7636   3.654   0.962   0.836
 1798SOL     H2 7637   3.684   0.850   0.933
 1798SOL    EPW 7638   3.669   0.936   0.919
 1799SOL      O 7639   2.099   0.721   1.489
 1799SOL     H1 7640   2.135   0.796   1.443
 1799SOL     H2 7641   2.171   0.657   1.491
 1799SOL    EPW 7642   2.111   0.722   1.484
 1800SOL      O 7643   3.606   0.949   0.662
 1800SOL     H1 7644   3.696   0.936   0.631
 1800SOL     H2 7645   3.565   1.004   0.595
 1800SOL    EPW 7646   3.611   0.954   0.651
 1801SOL      O 7647   2.119   0.765   1.762
 1801SOL     H1 7648   2.037   0.733   1.799
 1801SOL     H2 7649   2.112   0.747   1.668
 1801SOL    EPW 7650   2.109   0.759   1.756
 1802SOL      O 7651   2.255   0.070   1.297
 1802SOL     H1 7652   2.249   0.166   1.294
 1802SOL     H2 7653   2.222   0.042   1.212
 1802SOL    EPW 7654   2.251   0.078   1.288
 1803SOL      O 7655   2.315   0.767   0.397
 1803SOL     H1 7656   2.320   0.863   0.401
 1803SOL     H2 7657   2.353   0.738   0.479
 1803SOL    EPW 7658   2.320   0.774   0.406
 1804SOL      O 7659   3.067   0.644   1.529
 1804SOL     H1 7660   3.096   0.598   1.450
 1804SOL     H2 7661   2.989   0.692   1.503
 1804SOL    EPW 7662   3.062   0.644   1.518
 1805SOL      O 7663   2.061   0.499   0.624
 1805SOL     H1 7664   2.138   0.512   0.680
 1805SOL     H2 7665   2.057   0.404   0.612
 1805SOL    EPW 7666   2.069   0.490   0.629
 1806SOL      O 7667   2.693   0.720   1.179
 1806SOL     H1 7668   2.626   0.674   1.128
 1806SOL     H2 7669   2.685   0.682   1.267
 1806SOL    EPW 7670   2.685   0.711   1.183
 1807SOL      O 7671   3.278   1.852   1.646
 1807SOL     H1 7672   3.317   1.777   1.600
 1807SOL     H2 7673   3.336   1.866   1.721
 1807SOL    EPW 7674   3.288   1.845   1.649
 1808SOL      O 7675   2.538   0.305   1.367
 1808SOL     H1 7676   2.444   0.310   1.350
 1808SOL     H2 7677   2.548   0.228   1.424
 1808SOL    EPW 7678   2.529   0.297   1.371
 1809SOL      O 7679   1.874   1.106   0.198
 1809SOL     H1 7680   1.820   1.163   0.254
 1809SOL     H2 7681   1.823   1.025   0.191
 1809SOL    EPW 7682   1.863   1.104   0.204
 1810SOL      O 7683   3.268   0.134   0.909
 1810SOL     H1 7684   3.351   0.151   0.952
 1810SOL     H2 7685   3.273   0.042   0.883
 1810SOL    EPW 7686   3.278   0.126   0.910
 1811SOL      O 7687   3.368   0.817   0.726
 1811SOL     H1 7688   3.458   0.834   0.696
 1811SOL     H2 7689   3.366   0.722   0.742
 1811SOL    EPW 7690   3.378   0.808   0.724
 1812SOL      O 7691   2.375   1.892   0.132
 1812SOL     H1 7692   2.367   1.840   0.052
 1812SOL     H2 7693   2.394   1.828   0.201
 1812SOL    EPW 7694   2.376   1.880   0.131
 1813SOL      O 7695   2.855   0.797   1.460
 1813SOL     H1 7696   2.886   0.855   1.391
 1813SOL     H2 7697   2.811   0.855   1.522
 1813SOL    EPW 7698   2.854   0.809   1.459
 1814SOL      O 7699   2.216   1.017   1.751
 1814SOL     H1 7700   2.173   0.932   1.749
 1814SOL     H2 7701   2.285   1.011   1.685
 1814SOL    EPW 7702   2.219   1.008   1.744
 1815SOL      O 7703   2.390   1.423   0.652
 1815SOL     H1 7704   2.470   1.373   0.665
 1815SOL     H2 7705   2.419   1.515   0.651
 1815SOL    EPW 7706   2.401   1.428   0.653
 1816SOL      O 7707   2.651   0.592   0.805
 1816SOL     H1 7708   2.597   0.591   0.884
 1816SOL     H2 7709   2.645   0.503   0.771
 1816SOL    EPW 7710   2.645   0.583   0.810
 1817SOL      O 7711   3.576   0.067   1.435
 1817SOL     H1 7712   3.505   0.118   1.474
 1817SOL     H2 7713   3.614   0.126   1.370
 1817SOL    EPW 7714   3.573   0.079   1.432
 1818SOL      O 7715   2.959   1.149   0.859
 1818SOL     H1 7716   3.028   1.095   0.896
 1818SOL     H2 7717   2.901   1.087   0.815
 1818SOL    EPW 7718   2.960   1.137   0.858
 1819SOL      O 7719   2.737   1.001   0.248
 1819SOL     H1 7720   2.730   0.908   0.225
 1819SOL     H2 7721   2.677   1.045   0.189
 1819SOL    EPW 7722   2.730   0.996   0.239
 1820SOL      O 7723   3.248   1.386   0.971
 1820SOL     H1 7724   3.209   1.449   0.911
 1820SOL     H2 7725   3.183   1.376   1.041
 1820SOL    EPW 7726   3.237   1.391   0.972
 1821SOL      O 7727   3.086   1.346   1.200
 1821SOL     H1 7728   3.140   1.270   1.222
 1821SOL     H2 7729   3.004   1.309   1.168
 1821SOL    EPW 7730   3.083   1.334   1.199
 1822SOL      O 7731   2.158   0.679   0.965
 1822SOL     H1 7732   2.127   0.680   1.056
 1822SOL     H2 7733   2.209   0.760   0.957
 1822SOL    EPW 7734   2.160   0.688   0.974
 1823SOL      O 7735   3.248   1.419   1.763
 1823SOL     H1 7736   3.225   1.501   1.805
 1823SOL     H2 7737   3.250   1.438   1.670
 1823SOL    EPW 7738   3.246   1.429   1.758
 1824SOL      O 7739   2.655   0.695   0.497
 1824SOL     H1 7740   2.632   0.721   0.408
 1824SOL     H2 7741   2.751   0.691   0.496
 1824SOL    EPW 7742   2.663   0.698   0.487
 1825SOL      O 7743   2.066   0.383   1.728
 1825SOL     H1 7744   2.013   0.432   1.665
 1825SOL     H2 7745   2.133   0.341   1.674
 1825SOL    EPW 7746   2.068   0.384   1.715
 1826SOL      O 7747   3.197   1.087   1.256
 1826SOL     H1 7748   3.256   1.030   1.306
 1826SOL     H2 7749   3.110   1.058   1.281
 1826SOL    EPW 7750   3.194   1.078   1.264
 1827SOL      O 7751   2.697   1.690   0.469
 1827SOL     H1 7752   2.747   1.761   0.507
 1827SOL     H2 7753   2.720   1.613   0.521
 1827SOL    EPW 7754   2.705   1.689   0.479
 1828SOL      O 7755   3.513   0.164   1.023
 1828SOL     H1 7756   3.538   0.074   1.004
 1828SOL     H2 7757   3.561   0.187   1.103
 1828SOL    EPW 7758   3.520   0.157   1.029
 1829SOL      O 7759   1.904   0.008   1.068
 1829SOL     H1 7760   1.914   5.794   1.096
 1829SOL     H2 7761   1.990   0.031   1.033
 1829SOL    EPW 7762   1.915   5.877   1.068
 1830SOL      O 7763   3.605   1.266   0.725
 1830SOL     H1 7764   3.554   1.211   0.665
 1830SOL     H2 7765   3.694   1.232   0.717
 1830SOL    EPW 7766   3.609   1.256   0.718
 1831SOL      O 7767   2.269   1.324   1.472
 1831SOL     H1 7768   2.190   1.271   1.483
 1831SOL     H2 7769   2.338   1.273   1.515
 1831SOL    EPW 7770   2.268   1.312   1.478
 1832SOL      O 7771   2.216   0.180   0.150
 1832SOL     H1 7772   2.125   0.204   0.139
 1832SOL     H2 7773   2.256   0.196   0.064
 1832SOL    EPW 7774   2.211   0.184   0.140
 1833SOL      O 7775   3.312   0.596   1.071
 1833SOL     H1 7776   3.236   0.644   1.037
 1833SOL     H2 7777   3.362   0.662   1.119
 1833SOL    EPW 7778   3.309   0.608   1.072
 1834SOL      O 7779   1.953   0.252   0.107
 1834SOL     H1 7780   1.911   0.315   0.165
 1834SOL     H2 7781   2.006   0.306   0.048
 1834SOL    EPW 7782   1.954   0.265   0.107
 1835SOL      O 7783   1.888   1.448   0.154
 1835SOL     H1 7784   1.946   1.524   0.151
 1835SOL     H2 7785   1.933   1.382   0.100
 1835SOL    EPW 7786   1.899   1.449   0.148
 1836SOL      O 7787   3.558   0.857   2.145
 1836SOL     H1 7788   3.589   0.795   2.211
 1836SOL     H2 7789   3.470   0.880   2.173
 1836SOL    EPW 7790   3.552   0.853   2.155
 1837SOL      O 7791   3.483   0.744   3.109
 1837SOL     H1 7792   3.440   0.807   3.168
 1837SOL     H2 7793   3.570   0.782   3.094
 1837SOL    EPW 7794   3.488   0.755   3.114
 1838SOL      O 7795   2.421   0.998   2.305
 1838SOL     H1 7796   2.513   1.008   2.332
 1838SOL     H2 7797   2.392   1.088   2.290
 1838SOL    EPW 7798   2.428   1.009   2.307
 1839SOL      O 7799   3.516   1.692   2.562
 1839SOL     H1 7800   3.523   1.656   2.650
 1839SOL     H2 7801   3.545   1.622   2.505
 1839SOL    EPW 7802   3.520   1.681   2.566
 1840SOL      O 7803   2.843   1.681   3.490
 1840SOL     H1 7804   2.900   1.676   3.414
 1840SOL     H2 7805   2.881   1.620   3.553
 1840SOL    EPW 7806   2.853   1.674   3.489
 1841SOL      O 7807   3.481   1.186   3.052
 1841SOL     H1 7808   3.401   1.133   3.057
 1841SOL     H2 7809   3.470   1.238   2.972
 1841SOL    EPW 7810   3.471   1.186   3.044
 1842SOL      O 7811   2.721   0.506   2.337
 1842SOL     H1 7812   2.733   0.523   2.431
 1842SOL     H2 7813   2.772   0.575   2.294
 1842SOL    EPW 7814   2.728   0.515   2.342
 1843SOL      O 7815   2.220   0.579   2.317
 1843SOL     H1 7816   2.223   0.669   2.349
 1843SOL     H2 7817   2.162   0.534   2.377
 1843SOL    EPW 7818   2.214   0.584   2.327
 1844SOL      O 7819   2.191   0.940   3.236
 1844SOL     H1 7820   2.243   1.002   3.287
 1844SOL     H2 7821   2.174   0.985   3.153
 1844SOL    EPW 7822   2.195   0.951   3.233
 1845SOL      O 7823   2.468   0.421   2.314
 1845SOL     H1 7824   2.560   0.446   2.324
 1845SOL     H2 7825   2.466   0.328   2.335
 1845SOL    EPW 7826   2.478   0.414   2.317
 1846SOL      O 7827   2.579   1.165   2.591
 1846SOL     H1 7828   2.648   1.216   2.634
 1846SOL     H2 7829   2.614   1.146   2.504
 1846SOL    EPW 7830   2.590   1.169   2.586
 1847SOL      O 7831   2.626   1.503   3.451
 1847SOL     H1 7832   2.695   1.563   3.480
 1847SOL     H2 7833   2.662   1.464   3.371
 1847SOL    EPW 7834   2.637   1.505   3.445
 1848SOL      O 7835   2.459   0.684   2.532
 1848SOL     H1 7836   2.412   0.622   2.588
 1848SOL     H2 7837   2.476   0.759   2.590
 1848SOL    EPW 7838   2.456   0.685   2.544
 1849SOL      O 7839   2.724   1.384   3.220
 1849SOL     H1 7840   2.684   1.447   3.160
 1849SOL     H2 7841   2.665   1.309   3.219
 1849SOL    EPW 7842   2.714   1.383   3.213
 1850SOL      O 7843   2.634   0.589   3.090
 1850SOL     H1 7844   2.575   0.659   3.061
 1850SOL     H2 7845   2.621   0.519   3.027
 1850SOL    EPW 7846   2.626   0.589   3.081
 1851SOL      O 7847   2.237   0.956   2.771
 1851SOL     H1 7848   2.219   1.027   2.711
 1851SOL     H2 7849   2.213   0.990   2.857
 1851SOL    EPW 7850   2.233   0.967   2.774
 1852SOL      O 7851   2.022   1.819   2.737
 1852SOL     H1 7852   2.117   1.815   2.745
 1852SOL     H2 7853   1.993   1.728   2.736
 1852SOL    EPW 7854   2.029   1.809   2.738
 1853SOL      O 7855   3.226   1.182   2.095
 1853SOL     H1 7856   3.145   1.224   2.065
 1853SOL     H2 7857   3.294   1.222   2.042
 1853SOL    EPW 7858   3.224   1.191   2.086
 1854SOL      O 7859   2.245   1.271   2.679
 1854SOL     H1 7860   2.210   1.337   2.739
 1854SOL     H2 7861   2.303   1.319   2.620
 1854SOL    EPW 7862   2.247   1.283   2.679
 1855SOL      O 7863   2.778   0.927   2.591
 1855SOL     H1 7864   2.694   0.912   2.635
 1855SOL     H2 7865   2.834   0.855   2.620
 1855SOL    EPW 7866   2.775   0.918   2.599
 1856SOL      O 7867   2.197   1.608   3.344
 1856SOL     H1 7868   2.111   1.588   3.307
 1856SOL     H2 7869   2.240   1.523   3.352
 1856SOL    EPW 7870   2.193   1.597   3.341
 1857SOL      O 7871   2.826   1.281   2.267
 1857SOL     H1 7872   2.820   1.351   2.332
 1857SOL     H2 7873   2.770   1.211   2.302
 1857SOL    EPW 7874   2.820   1.281   2.278
 1858SOL      O 7875   3.633   0.271   2.681
 1858SOL     H1 7876   3.588   0.235   2.757
 1858SOL     H2 7877   3.648   0.195   2.624
 1858SOL    EPW 7878   3.630   0.259   2.683
 1859SOL      O 7879   2.255   0.368   2.133
 1859SOL     H1 7880   2.245   0.321   2.050
 1859SOL     H2 7881   2.221   0.307   2.199
 1859SOL    EPW 7882   2.251   0.356   2.131
 1860SOL      O 7883   2.106   1.232   2.279
 1860SOL     H1 7884   2.070   1.300   2.222
 1860SOL     H2 7885   2.100   1.151   2.227
 1860SOL    EPW 7886   2.102   1.230   2.267
 1861SOL      O 7887   2.821   1.707   2.094
 1861SOL     H1 7888   2.778   1.711   2.179
 1861SOL     H2 7889   2.758   1.662   2.037
 1861SOL    EPW 7890   2.809   1.703   2.097
 1862SOL      O 7891   3.716   0.467   2.018
 1862SOL     H1 7892   3.648   0.427   2.072
 1862SOL     H2 7893   3.791   0.477   2.078
 1862SOL    EPW 7894   3.717   0.464   2.031
 1863SOL      O 7895   3.485   1.127   2.377
 1863SOL     H1 7896   3.391   1.147   2.382
 1863SOL     H2 7897   3.518   1.186   2.309
 1863SOL    EPW 7898   3.478   1.135   2.370
 1864SOL      O 7899   3.314   0.681   3.390
 1864SOL     H1 7900   3.400   0.639   3.389
 1864SOL     H2 7901   3.269   0.645   3.314
 1864SOL    EPW 7902   3.318   0.673   3.382
 1865SOL      O 7903   2.032   1.610   3.009
 1865SOL     H1 7904   2.001   1.572   3.092
 1865SOL     H2 7905   2.008   1.702   3.015
 1865SOL    EPW 7906   2.026   1.616   3.019
 1866SOL      O 7907   2.999   1.105   3.391
 1866SOL     H1 7908   3.003   1.197   3.364
 1866SOL     H2 7909   3.056   1.101   3.468
 1866SOL    EPW 7910   3.006   1.115   3.396
 1867SOL      O 7911   2.866   0.570   3.662
 1867SOL     H1 7912   2.957   0.597   3.649
 1867SOL     H2 7913   2.866   0.475   3.647
 1867SOL    EPW 7914   2.876   0.562   3.659
 1868SOL      O 7915   3.379   1.027   2.709
 1868SOL     H1 7916   3.370   0.956   2.647
 1868SOL     H2 7917   3.466   1.016   2.747
 1868SOL    EPW 7918   3.387   1.018   2.707
 1869SOL      O 7919   3.625   1.313   2.211
 1869SOL     H1 7920   3.609   1.370   2.286
 1869SOL     H2 7921   3.699   1.353   2.166
 1869SOL    EPW 7922   3.631   1.323   2.214
 1870SOL      O 7923   2.607   0.364   3.550
 1870SOL     H1 7924   2.596   0.277   3.511
 1870SOL     H2 7925   2.588   0.350   3.643
 1870SOL    EPW 7926   2.604   0.353   3.556
 1871SOL      O 7927   2.326   1.703   2.514
 1871SOL     H1 7928   2.335   1.799   2.513
 1871SOL     H2 7929   2.271   1.683   2.439
 1871SOL    EPW 7930   2.321   1.711   2.506
 1872SOL      O 7931   3.641   0.034   2.547
 1872SOL     H1 7932   3.678   5.827   2.574
 1872SOL     H2 7933   3.559   0.012   2.503
 1872SOL    EPW 7934   3.636   0.023   2.545
 1873SOL      O 7935   2.064   1.796   2.111
 1873SOL     H1 7936   2.120   1.865   2.077
 1873SOL     H2 7937   2.007   1.772   2.038
 1873SOL    EPW 7938   2.064   1.801   2.100
 1874SOL      O 7939   2.848   0.072   2.979
 1874SOL     H1 7940   2.795   0.069   2.900
 1874SOL     H2 7941   2.937   0.084   2.948
 1874SOL    EPW 7942   2.852   0.073   2.968
 1875SOL      O 7943   3.456   1.580   2.021
 1875SOL     H1 7944   3.483   1.647   2.084
 1875SOL     H2 7945   3.370   1.610   1.991
 1875SOL    EPW 7946   3.449   1.591   2.024
 1876SOL      O 7947   2.879   0.773   1.972
 1876SOL     H1 7948   2.860   0.690   1.927
 1876SOL     H2 7949   2.947   0.814   1.918
 1876SOL    EPW 7950   2.884   0.768   1.961
 1877SOL      O 7951   3.272   0.593   2.367
 1877SOL     H1 7952   3.314   0.567   2.449
 1877SOL     H2 7953   3.211   0.663   2.392
 1877SOL    EPW 7954   3.270   0.598   2.378
 1878SOL      O 7955   2.747   1.002   3.411
 1878SOL     H1 7956   2.726   0.990   3.503
 1878SOL     H2 7957   2.834   1.042   3.410
 1878SOL    EPW 7958   2.754   1.005   3.421
 1879SOL      O 7959   2.811   0.048   3.251
 1879SOL     H1 7960   2.816   0.058   3.156
 1879SOL     H2 7961   2.878   0.108   3.285
 1879SOL    EPW 7962   2.818   0.055   3.244
 1880SOL      O 7963   2.914   0.610   3.055
 1880SOL     H1 7964   2.933   0.528   3.009
 1880SOL     H2 7965   2.965   0.675   3.008
 1880SOL    EPW 7966   2.921   0.608   3.045
 1881SOL      O 7967   3.540   0.544   3.305
 1881SOL     H1 7968   3.494   0.463   3.281
 1881SOL     H2 7969   3.535   0.599   3.227
 1881SOL    EPW 7970   3.534   0.541   3.294
 1882SOL      O 7971   3.611   1.681   3.227
 1882SOL     H1 7972   3.541   1.655   3.288
 1882SOL     H2 7973   3.631   1.772   3.251
 1882SOL    EPW 7974   3.605   1.688   3.236
 1883SOL      O 7975   2.986   0.234   3.354
 1883SOL     H1 7976   2.942   0.249   3.438
 1883SOL     H2 7977   3.043   0.158   3.370
 1883SOL    EPW 7978   2.988   0.227   3.365
 1884SOL      O 7979   3.372   1.146   3.443
 1884SOL     H1 7980   3.440   1.197   3.488
 1884SOL     H2 7981   3.330   1.095   3.512
 1884SOL    EPW 7982   3.374   1.146   3.455
 1885SOL      O 7983   3.669   0.518   2.553
 1885SOL     H1 7984   3.761   0.501   2.532
 1885SOL     H2 7985   3.638   0.437   2.593
 1885SOL    EPW 7986   3.675   0.508   2.555
 1886SOL      O 7987   2.013   0.214   2.466
 1886SOL     H1 7988   2.045   0.186   2.380
 1886SOL     H2 7989   1.946   0.150   2.489
 1886SOL    EPW 7990   2.009   0.204   2.459
 1887SOL      O 7991   2.988   1.318   2.051
 1887SOL     H1 7992   2.923   1.301   2.119
 1887SOL     H2 7993   2.937   1.347   1.975
 1887SOL    EPW 7994   2.976   1.319   2.050
 1888SOL      O 7995   1.978   0.391   2.828
 1888SOL     H1 7996   1.922   0.435   2.891
 1888SOL     H2 7997   1.920   0.330   2.783
 1888SOL    EPW 7998   1.966   0.389   2.830
 1889SOL      O 7999   2.445   1.725   2.182
 1889SOL     H1 8000   2.371   1.679   2.223
 1889SOL     H2 8001   2.518   1.711   2.242
 1889SOL    EPW 8002   2.445   1.718   2.193
 1890SOL      O 8003   3.569   1.273   3.575
 1890SOL     H1 8004   3.600   1.189   3.611
 1890SOL     H2 8005   3.513   1.309   3.644
 1890SOL    EPW 8006   3.566   1.268   3.587
 1891SOL      O 8007   2.553   1.097   1.968
 1891SOL     H1 8008   2.475   1.041   1.981
 1891SOL     H2 8009   2.525   1.183   1.998
 1891SOL    EPW 8010   2.541   1.100   1.973
 1892SOL      O 8011   3.721   0.884   3.127
 1892SOL     H1 8012   3.733   0.954   3.063
 1892SOL     H2 8013   3.717   0.929   3.211
 1892SOL    EPW 8014   3.722   0.896   3.129
 1893SOL      O 8015   3.551   1.572   2.800
 1893SOL     H1 8016   3.519   1.624   2.874
 1893SOL     H2 8017   3.515   1.485   2.813
 1893SOL    EPW 8018   3.544   1.569   2.809
 1894SOL      O 8019   3.205   1.642   1.923
 1894SOL     H1 8020   3.150   1.617   1.997
 1894SOL     H2 8021   3.148   1.698   1.870
 1894SOL    EPW 8022   3.193   1.645   1.925
 1895SOL      O 8023   2.039   0.684   3.042
 1895SOL     H1 8024   2.070   0.660   3.129
 1895SOL     H2 8025   1.976   0.754   3.058
 1895SOL    EPW 8026   2.036   0.689   3.053
 1896SOL      O 8027   3.418   1.308   1.942
 1896SOL     H1 8028   3.358   1.341   1.876
 1896SOL     H2 8029   3.448   1.387   1.988
 1896SOL    EPW 8030   3.415   1.320   1.940
 1897SOL      O 8031   2.585   0.218   2.045
 1897SOL     H1 8032   2.580   0.163   1.967
 1897SOL     H2 8033   2.643   0.170   2.104
 1897SOL    EPW 8034   2.591   0.207   2.043
 1898SOL      O 8035   2.050   1.796   3.492
 1898SOL     H1 8036   1.994   1.841   3.428
 1898SOL     H2 8037   2.100   1.733   3.440
 1898SOL    EPW 8038   2.049   1.794   3.480
 1899SOL      O 8039   2.144   1.084   3.001
 1899SOL     H1 8040   2.182   1.169   3.022
 1899SOL     H2 8041   2.050   1.103   2.988
 1899SOL    EPW 8042   2.138   1.095   3.002
 1900SOL      O 8043   2.600   1.023   2.999
 1900SOL     H1 8044   2.687   1.061   2.992
 1900SOL     H2 8045   2.544   1.081   2.947
 1900SOL    EPW 8046   2.603   1.034   2.993
 1901SOL      O 8047   1.974   0.844   2.328
 1901SOL     H1 8048   2.057   0.834   2.374
 1901SOL     H2 8049   1.950   0.755   2.302
 1901SOL    EPW 8050   1.980   0.833   2.330
 1902SOL      O 8051   2.235   0.559   3.653
 1902SOL     H1 8052   2.180   0.637   3.651
 1902SOL     H2 8053   2.289   0.570   3.732
 1902SOL    EPW 8054   2.235   0.568   3.661
 1903SOL      O 8055   2.634   0.110   3.463
 1903SOL     H1 8056   2.602   0.034   3.513
 1903SOL     H2 8057   2.682   0.072   3.390
 1903SOL    EPW 8058   2.636   0.098   3.461
 1904SOL      O 8059   2.316   0.582   3.389
 1904SOL     H1 8060   2.377   0.655   3.398
 1904SOL     H2 8061   2.296   0.556   3.479
 1904SOL    EPW 8062   2.320   0.587   3.400
 1905SOL      O 8063   2.702   1.686   2.816
 1905SOL     H1 8064   2.765   1.742   2.862
 1905SOL     H2 8065   2.651   1.747   2.762
 1905SOL    EPW 8066   2.703   1.698   2.815
 1906SOL      O 8067   3.191   0.205   3.721
 1906SOL     H1 8068   3.252   0.140   3.756
 1906SOL     H2 8069   3.179   0.268   3.793
 1906SOL    EPW 8070   3.196   0.205   3.733
 1907SOL      O 8071   2.004   1.514   2.480
 1907SOL     H1 8072   1.996   1.546   2.570
 1907SOL     H2 8073   2.011   1.419   2.490
 1907SOL    EPW 8074   2.004   1.507   2.491
 1908SOL      O 8075   2.822   1.469   2.472
 1908SOL     H1 8076   2.909   1.439   2.497
 1908SOL     H2 8077   2.769   1.457   2.551
 1908SOL    EPW 8078   2.825   1.465   2.483
 1909SOL      O 8079   3.699   0.671   2.784
 1909SOL     H1 8080   3.793   0.681   2.792
 1909SOL     H2 8081   3.687   0.622   2.702
 1909SOL    EPW 8082   3.707   0.667   2.776
 1910SOL      O 8083   3.498   0.815   3.728
 1910SOL     H1 8084   3.572   0.758   3.708
 1910SOL     H2 8085   3.514   0.843   3.818
 1910SOL    EPW 8086   3.508   0.812   3.736
 1911SOL      O 8087   2.626   1.577   1.944
 1911SOL     H1 8088   2.578   1.659   1.930
 1911SOL     H2 8089   2.562   1.518   1.983
 1911SOL    EPW 8090   2.614   1.579   1.947
 1912SOL      O 8091   2.972   0.203   2.167
 1912SOL     H1 8092   2.940   0.177   2.080
 1912SOL     H2 8093   3.056   0.157   2.176
 1912SOL    EPW 8094   2.978   0.195   2.159
 1913SOL      O 8095   2.799   0.389   3.216
 1913SOL     H1 8096   2.723   0.331   3.213
 1913SOL     H2 8097   2.869   0.334   3.252
 1913SOL    EPW 8098   2.798   0.377   3.220
 1914SOL      O 8099   3.073   0.772   2.894
 1914SOL     H1 8100   3.094   0.865   2.883
 1914SOL     H2 8101   3.027   0.748   2.813
 1914SOL    EPW 8102   3.070   0.779   2.884
 1915SOL      O 8103   2.498   0.917   2.672
 1915SOL     H1 8104   2.420   0.925   2.726
 1915SOL     H2 8105   2.519   1.007   2.647
 1915SOL    EPW 8106   2.492   0.928   2.675
 1916SOL      O 8107   3.326   0.560   2.650
 1916SOL     H1 8108   3.299   0.469   2.637
 1916SOL     H2 8109   3.322   0.572   2.745
 1916SOL    EPW 8110   3.323   0.552   2.659
 1917SOL      O 8111   2.204   0.198   3.393
 1917SOL     H1 8112   2.148   0.253   3.447
 1917SOL     H2 8113   2.251   0.260   3.337
 1917SOL    EPW 8114   2.203   0.210   3.393
 1918SOL      O 8115   2.940   0.723   2.663
 1918SOL     H1 8116   2.878   0.654   2.639
 1918SOL     H2 8117   2.999   0.730   2.587
 1918SOL    EPW 8118   2.940   0.717   2.652
 1919SOL      O 8119   2.179   1.621   2.293
 1919SOL     H1 8120   2.136   1.689   2.240
 1919SOL     H2 8121   2.112   1.592   2.354
 1919SOL    EPW 8122   2.167   1.625   2.294
 1920SOL      O 8123   2.685   1.053   2.360
 1920SOL     H1 8124   2.714   1.020   2.275
 1920SOL     H2 8125   2.736   1.003   2.424
 1920SOL    EPW 8126   2.694   1.044   2.358
 1921SOL      O 8127   3.215   1.644   3.111
 1921SOL     H1 8128   3.138   1.674   3.160
 1921SOL     H2 8129   3.195   1.553   3.089
 1921SOL    EPW 8130   3.204   1.637   3.114
 1922SOL      O 8131   3.262   1.780   2.553
 1922SOL     H1 8132   3.223   1.723   2.487
 1922SOL     H2 8133   3.354   1.753   2.556
 1922SOL    EPW 8134   3.268   1.771   2.546
 1923SOL      O 8135   3.241   0.308   2.552
 1923SOL     H1 8136   3.272   0.237   2.608
 1923SOL     H2 8137   3.148   0.292   2.542
 1923SOL    EPW 8138   3.235   0.299   2.557
 1924SOL      O 8139   2.007   1.244   2.532
 1924SOL     H1 8140   2.087   1.243   2.585
 1924SOL     H2 8141   2.037   1.226   2.443
 1924SOL    EPW 8142   2.019   1.242   2.528
 1925SOL      O 8143   2.478   1.287   3.553
 1925SOL     H1 8144   2.534   1.361   3.531
 1925SOL     H2 8145   2.518   1.249   3.632
 1925SOL    EPW 8146   2.488   1.291   3.559
 1926SOL      O 8147   2.045   1.483   3.717
 1926SOL     H1 8148   2.123   1.427   3.714
 1926SOL     H2 8149   1.998   1.464   3.636
 1926SOL    EPW 8150   2.048   1.475   3.708
 1927SOL      O 8151   3.224   0.408   2.006
 1927SOL     H1 8152   3.185   0.454   1.932
 1927SOL     H2 8153   3.254   0.325   1.970
 1927SOL    EPW 8154   3.223   0.404   1.994
 1928SOL      O 8155   2.885   0.093   1.930
 1928SOL     H1 8156   2.953   0.072   1.865
 1928SOL     H2 8157   2.843   0.010   1.948
 1928SOL    EPW 8158   2.888   0.082   1.925
 1929SOL      O 8159   3.296   0.926   2.194
 1929SOL     H1 8160   3.271   1.000   2.139
 1929SOL     H2 8161   3.291   0.959   2.284
 1929SOL    EPW 8162   3.293   0.937   2.198
 1930SOL      O 8163   2.989   1.357   3.285
 1930SOL     H1 8164   2.896   1.372   3.267
 1930SOL     H2 8165   3.015   1.430   3.341
 1930SOL    EPW 8166   2.982   1.367   3.289
 1931SOL      O 8167   2.205   0.063   3.649
 1931SOL     H1 8168   2.247   5.854   3.651
 1931SOL     H2 8169   2.223   0.096   3.561
 1931SOL    EPW 8170   2.211   0.057   3.639
 1932SOL      O 8171   2.299   1.579   2.985
 1932SOL     H1 8172   2.344   1.638   3.045
 1932SOL     H2 8173   2.205   1.594   3.001
 1932SOL    EPW 8174   2.293   1.587   2.993
 1933SOL      O 8175   3.711   1.044   3.354
 1933SOL     H1 8176   3.641   1.104   3.327
 1933SOL     H2 8177   3.693   1.026   3.446
 1933SOL    EPW 8178   3.702   1.048   3.361
 1934SOL      O 8179   2.634   1.586   3.062
 1934SOL     H1 8180   2.655   1.617   2.974
 1934SOL     H2 8181   2.570   1.650   3.095
 1934SOL    EPW 8182   2.629   1.596   3.056
 1935SOL      O 8183   2.316   0.923   1.996
 1935SOL     H1 8184   2.244   0.955   2.051
 1935SOL     H2 8185   2.290   0.947   1.906
 1935SOL    EPW 8186   2.306   0.929   1.992
 1936SOL      O 8187   2.987   0.969   2.293
 1936SOL     H1 8188   2.928   0.998   2.223
 1936SOL     H2 8189   3.038   1.047   2.315
 1936SOL    EPW 8190   2.986   0.980   2.288
 1937SOL      O 8191   2.460   1.227   2.871
 1937SOL     H1 8192   2.407   1.258   2.944
 1937SOL     H2 8193   2.400   1.223   2.797
 1937SOL    EPW 8194   2.448   1.230   2.871
 1938SOL      O 8195   3.353   0.337   3.257
 1938SOL     H1 8196   3.316   0.329   3.344
 1938SOL     H2 8197   3.342   0.250   3.218
 1938SOL    EPW 8198   3.348   0.327   3.262
 1939SOL      O 8199   3.651   0.222   3.104
 1939SOL     H1 8200   3.668   0.310   3.070
 1939SOL     H2 8201   3.720   0.168   3.065
 1939SOL    EPW 8202   3.660   0.226   3.096
 1940SOL      O 8203   1.919   1.397   3.488
 1940SOL     H1 8204   1.972   1.319   3.473
 1940SOL     H2 8205   1.837   1.364   3.525
 1940SOL    EPW 8206   1.916   1.385   3.491
 1941SOL      O 8207   2.629   0.093   2.591
 1941SOL     H1 8208   2.565   0.120   2.656
 1941SOL     H2 8209   2.642   5.876   2.607
 1941SOL    EPW 8210   2.624   0.086   2.600
 1942SOL      O 8211   2.373   1.276   2.286
 1942SOL     H1 8212   2.394   1.330   2.362
 1942SOL     H2 8213   2.278   1.272   2.285
 1942SOL    EPW 8214   2.365   1.282   2.294
 1943SOL      O 8215   2.969   1.695   3.243
 1943SOL     H1 8216   2.908   1.662   3.176
 1943SOL     H2 8217   2.951   1.789   3.246
 1943SOL    EPW 8218   2.961   1.702   3.236
 1944SOL      O 8219   3.157   1.658   2.776
 1944SOL     H1 8220   3.190   1.704   2.698
 1944SOL     H2 8221   3.142   1.727   2.840
 1944SOL    EPW 8222   3.159   1.670   2.774
 1945SOL      O 8223   3.457   1.718   3.006
 1945SOL     H1 8224   3.516   1.704   3.080
 1945SOL     H2 8225   3.370   1.695   3.040
 1945SOL    EPW 8226   3.454   1.714   3.018
 1946SOL      O 8227   2.597   0.714   3.685
 1946SOL     H1 8228   2.672   0.654   3.689
 1946SOL     H2 8229   2.538   0.682   3.753
 1946SOL    EPW 8230   2.599   0.704   3.693
 1947SOL      O 8231   3.376   0.924   3.287
 1947SOL     H1 8232   3.379   0.999   3.346
 1947SOL     H2 8233   3.348   0.851   3.343
 1947SOL    EPW 8234   3.373   0.924   3.300
 1948SOL      O 8235   2.978   0.048   3.626
 1948SOL     H1 8236   2.979   5.831   3.641
 1948SOL     H2 8237   3.052   0.082   3.677
 1948SOL    EPW 8238   2.986   0.042   3.633
 1949SOL      O 8239   3.448   1.324   2.822
 1949SOL     H1 8240   3.489   1.288   2.744
 1949SOL     H2 8241   3.356   1.338   2.797
 1949SOL    EPW 8242   3.442   1.322   2.811
 1950SOL      O 8243   2.974   0.979   3.152
 1950SOL     H1 8244   2.985   1.021   3.237
 1950SOL     H2 8245   2.928   1.044   3.099
 1950SOL    EPW 8246   2.970   0.990   3.155
 1951SOL      O 8247   3.449   0.531   2.136
 1951SOL     H1 8248   3.462   0.565   2.048
 1951SOL     H2 8249   3.521   0.568   2.187
 1951SOL    EPW 8250   3.458   0.539   2.132
 1952SOL      O 8251   2.277   0.233   2.559
 1952SOL     H1 8252   2.329   0.191   2.490
 1952SOL     H2 8253   2.187   0.207   2.541
 1952SOL    EPW 8254   2.273   0.226   2.550
 1953SOL      O 8255   2.076   1.185   3.421
 1953SOL     H1 8256   2.108   1.133   3.494
 1953SOL     H2 8257   2.007   1.131   3.382
 1953SOL    EPW 8258   2.072   1.173   3.425
 1954SOL      O 8259   2.669   0.579   3.380
 1954SOL     H1 8260   2.609   0.649   3.405
 1954SOL     H2 8261   2.647   0.507   3.439
 1954SOL    EPW 8262   2.660   0.579   3.389
 1955SOL      O 8263   3.211   0.678   2.102
 1955SOL     H1 8264   3.248   0.684   2.014
 1955SOL     H2 8265   3.224   0.766   2.139
 1955SOL    EPW 8266   3.216   0.688   2.097
 1956SOL      O 8267   2.234   0.829   2.420
 1956SOL     H1 8268   2.288   0.898   2.379
 1956SOL     H2 8269   2.288   0.797   2.492
 1956SOL    EPW 8270   2.246   0.833   2.423
 1957SOL      O 8271   3.315   0.330   2.289
 1957SOL     H1 8272   3.292   0.312   2.380
 1957SOL     H2 8273   3.388   0.272   2.270
 1957SOL    EPW 8274   3.320   0.322   2.296
 1958SOL      O 8275   2.979   0.238   2.515
 1958SOL     H1 8276   2.932   0.250   2.432
 1958SOL     H2 8277   2.916   0.263   2.582
 1958SOL    EPW 8278   2.967   0.242   2.513
 1959SOL      O 8279   2.839   1.435   1.848
 1959SOL     H1 8280   2.868   1.487   1.773
 1959SOL     H2 8281   2.762   1.481   1.881
 1959SOL    EPW 8282   2.834   1.445   1.844
 1960SOL      O 8283   3.656   1.016   3.623
 1960SOL     H1 8284   3.592   0.949   3.646
 1960SOL     H2 8285   3.705   1.032   3.704
 1960SOL    EPW 8286   3.655   1.011   3.634
 1961SOL      O 8287   1.960   1.554   2.752
 1961SOL     H1 8288   1.989   1.561   2.843
 1961SOL     H2 8289   1.865   1.541   2.758
 1961SOL    EPW 8290   1.953   1.554   2.763
 1962SOL      O 8291   1.879   0.585   2.278
 1962SOL     H1 8292   1.786   0.572   2.301
 1962SOL     H2 8293   1.926   0.541   2.349
 1962SOL    EPW 8294   1.874   0.579   2.288
 1963SOL      O 8295   3.427   1.857   3.650
 1963SOL     H1 8296   3.467   1.772   3.628
 1963SOL     H2 8297   3.466   1.880   3.734
 1963SOL    EPW 8298   3.435   1.850   3.656
 1964SOL      O 8299   3.088   1.369   2.513
 1964SOL     H1 8300   3.114   1.369   2.605
 1964SOL     H2 8301   3.130   1.447   2.476
 1964SOL    EPW 8302   3.096   1.377   2.519
 1965SOL      O 8303   2.324   0.370   3.208
 1965SOL     H1 8304   2.321   0.451   3.259
 1965SOL     H2 8305   2.287   0.394   3.123
 1965SOL    EPW 8306   2.320   0.381   3.204
 1966SOL      O 8307   2.236   0.378   2.928
 1966SOL     H1 8308   2.246   0.283   2.925
 1966SOL     H2 8309   2.147   0.394   2.898
 1966SOL    EPW 8310   2.228   0.370   2.924
 1967SOL      O 8311   3.134   0.592   3.574
 1967SOL     H1 8312   3.157   0.501   3.553
 1967SOL     H2 8313   3.194   0.644   3.520
 1967SOL    EPW 8314   3.143   0.588   3.566
 1968SOL      O 8315   3.202   0.345   3.487
 1968SOL     H1 8316   3.125   0.313   3.440
 1968SOL     H2 8317   3.207   0.291   3.565
 1968SOL    EPW 8318   3.194   0.336   3.490
 1969SOL      O 8319   2.467   0.203   2.772
 1969SOL     H1 8320   2.475   0.130   2.834
 1969SOL     H2 8321   2.379   0.195   2.737
 1969SOL    EPW 8322   2.459   0.194   2.775
 1970SOL      O 8323   2.476   1.729   3.406
 1970SOL     H1 8324   2.387   1.720   3.443
 1970SOL     H2 8325   2.520   1.648   3.429
 1970SOL    EPW 8326   2.471   1.720   3.413
 1971SOL      O 8327   3.624   0.481   2.970
 1971SOL     H1 8328   3.528   0.476   2.961
 1971SOL     H2 8329   3.648   0.556   2.916
 1971SOL    EPW 8330   3.616   0.489   2.963
 1972SOL      O 8331   3.743   1.094   2.957
 1972SOL     H1 8332   3.716   1.050   2.876
 1972SOL     H2 8333   3.665   1.139   2.988
 1972SOL    EPW 8334   3.732   1.094   2.952
 1973SOL      O 8335   3.138   1.036   2.835
 1973SOL     H1 8336   3.169   1.054   2.924
 1973SOL     H2 8337   3.218   1.040   2.781
 1973SOL    EPW 8338   3.150   1.038   2.838
 1974SOL      O 8339   3.196   0.546   3.183
 1974SOL     H1 8340   3.221   0.570   3.094
 1974SOL     H2 8341   3.245   0.467   3.202
 1974SOL    EPW 8342   3.204   0.540   3.176
 1975SOL      O 8343   3.716   0.655   3.672
 1975SOL     H1 8344   3.720   0.589   3.741
 1975SOL     H2 8345   3.726   0.606   3.591
 1975SOL    EPW 8346   3.718   0.643   3.671
 1976SOL      O 8347   3.275   0.983   3.634
 1976SOL     H1 8348   3.337   0.923   3.675
 1976SOL     H2 8349   3.243   1.038   3.706
 1976SOL    EPW 8350   3.278   0.983   3.646
 1977SOL      O 8351   3.220   0.080   2.149
 1977SOL     H1 8352   3.309   0.096   2.181
 1977SOL     H2 8353   3.214   5.862   2.140
 1977SOL    EPW 8354   3.229   0.072   2.151
 1978SOL      O 8355   3.111   0.788   2.457
 1978SOL     H1 8356   3.074   0.861   2.407
 1978SOL     H2 8357   3.191   0.823   2.495
 1978SOL    EPW 8358   3.115   0.800   2.455
 1979SOL      O 8359   2.288   1.317   3.065
 1979SOL     H1 8360   2.294   1.321   3.161
 1979SOL     H2 8361   2.292   1.409   3.037
 1979SOL    EPW 8362   2.289   1.327   3.072
 1980SOL      O 8363   2.625   0.358   2.932
 1980SOL     H1 8364   2.609   0.309   3.012
 1980SOL     H2 8365   2.558   0.326   2.871
 1980SOL    EPW 8366   2.616   0.349   2.934
 1981SOL      O 8367   2.439   1.769   3.142
 1981SOL     H1 8368   2.477   1.856   3.135
 1981SOL     H2 8369   2.441   1.748   3.235
 1981SOL    EPW 8370   2.443   1.776   3.151
 1982SOL      O 8371   3.380   1.349   3.254
 1982SOL     H1 8372   3.360   1.282   3.319
 1982SOL     H2 8373   3.433   1.303   3.188
 1982SOL    EPW 8374   3.384   1.337   3.253
 1983SOL      O 8375   2.408   1.047   3.421
 1983SOL     H1 8376   2.456   1.074   3.343
 1983SOL     H2 8377   2.429   1.113   3.486
 1983SOL    EPW 8378   2.415   1.057   3.419
 1984SOL      O 8379   2.586   1.144   3.240
 1984SOL     H1 8380   2.647   1.098   3.297
 1984SOL     H2 8381   2.587   1.095   3.158
 1984SOL    EPW 8382   2.592   1.134   3.237
 1985SOL      O 8383   2.506   0.482   2.041
 1985SOL     H1 8384   2.535   0.527   1.961
 1985SOL     H2 8385   2.542   0.394   2.033
 1985SOL    EPW 8386   2.513   0.478   2.031
 1986SOL      O 8387   3.411   1.593   3.396
 1986SOL     H1 8388   3.471   1.579   3.469
 1986SOL     H2 8389   3.406   1.509   3.352
 1986SOL    EPW 8390   3.417   1.583   3.399
 1987SOL      O 8391   3.112   0.151   2.937
 1987SOL     H1 8392   3.170   0.132   2.863
 1987SOL     H2 8393   3.162   0.123   3.014
 1987SOL    EPW 8394   3.124   0.146   2.938
 1988SOL      O 8395   2.089   1.002   2.135
 1988SOL     H1 8396   2.015   1.036   2.085
 1988SOL     H2 8397   2.049   0.943   2.199
 1988SOL    EPW 8398   2.077   0.999   2.137
 1989SOL      O 8399   2.458   1.349   2.029
 1989SOL     H1 8400   2.431   1.336   2.120
 1989SOL     H2 8401   2.378   1.338   1.979
 1989SOL    EPW 8402   2.447   1.347   2.034
 1990SOL      O 8403   3.053   1.568   2.136
 1990SOL     H1 8404   3.032   1.479   2.109
 1990SOL     H2 8405   2.972   1.617   2.125
 1990SOL    EPW 8406   3.042   1.564   2.132
 1991SOL      O 8407   2.284   1.767   2.785
 1991SOL     H1 8408   2.300   1.696   2.847
 1991SOL     H2 8409   2.310   1.730   2.700
 1991SOL    EPW 8410   2.289   1.755   2.783
 1992SOL      O 8411   2.836   1.161   3.003
 1992SOL     H1 8412   2.826   1.253   3.026
 1992SOL     H2 8413   2.856   1.161   2.910
 1992SOL    EPW 8414   2.837   1.171   2.996
 1993SOL      O 8415   1.950   1.532   3.257
 1993SOL     H1 8416   1.937   1.483   3.338
 1993SOL     H2 8417   1.870   1.583   3.247
 1993SOL    EPW 8418   1.940   1.532   3.264
 1994SOL      O 8419   2.945   0.366   2.951
 1994SOL     H1 8420   2.871   0.310   2.975
 1994SOL     H2 8421   3.018   0.305   2.941
 1994SOL    EPW 8422   2.944   0.353   2.952
 1995SOL      O 8423   2.498   0.781   3.441
 1995SOL     H1 8424   2.473   0.873   3.434
 1995SOL     H2 8425   2.524   0.770   3.533
 1995SOL    EPW 8426   2.498   0.790   3.450
 1996SOL      O 8427   2.262   1.316   3.723
 1996SOL     H1 8428   2.332   1.311   3.658
 1996SOL     H2 8429   2.264   1.232   3.768
 1996SOL    EPW 8430   2.270   1.307   3.721
 1997SOL      O 8431   3.260   0.081   3.165
 1997SOL     H1 8432   3.307   0.002   3.141
 1997SOL     H2 8433   3.213   0.057   3.246
 1997SOL    EPW 8434   3.260   0.070   3.171
 1998SOL      O 8435   3.566   1.621   3.622
 1998SOL     H1 8436   3.547   1.597   3.713
 1998SOL     H2 8437   3.645   1.674   3.627
 1998SOL    EPW 8438   3.572   1.624   3.632
 1999SOL      O 8439   2.331   0.483   2.673
 1999SOL     H1 8440   2.320   0.399   2.629
 1999SOL     H2 8441   2.305   0.466   2.764
 1999SOL    EPW 8442   2.327   0.472   2.678
 2000SOL      O 8443   1.886   1.809   3.708
 2000SOL     H1 8444   1.947   1.798   3.635
 2000SOL     H2 8445   1.878   1.904   3.717
 2000SOL    EPW 8446   1.892   1.818   3.701
 2001SOL      O 8447   2.641   1.444   2.694
 2001SOL     H1 8448   2.601   1.395   2.766
 2001SOL     H2 8449   2.666   1.528   2.733
 2001SOL    EPW 8450   2.640   1.447   2.706
 2002SOL      O 8451   3.058   0.461   2.228
 2002SOL     H1 8452   3.011   0.380   2.205
 2002SOL     H2 8453   2.990   0.528   2.232
 2002SOL    EPW 8454   3.046   0.459   2.226
 2003SOL      O 8455   2.132   0.131   2.234
 2003SOL     H1 8456   2.145   0.133   2.139
 2003SOL     H2 8457   2.105   0.041   2.252
 2003SOL    EPW 8458   2.130   0.121   2.226
 2004SOL      O 8459   1.888   0.536   3.431
 2004SOL     H1 8460   1.940   0.594   3.375
 2004SOL     H2 8461   1.803   0.531   3.387
 2004SOL    EPW 8462   1.885   0.542   3.420
 2005SOL      O 8463   3.604   1.472   2.430
 2005SOL     H1 8464   3.591   1.404   2.496
 2005SOL     H2 8465   3.696   1.497   2.439
 2005SOL    EPW 8466   3.612   1.467   2.438
 2006SOL      O 8467   3.199   1.154   2.367
 2006SOL     H1 8468   3.159   1.225   2.417
 2006SOL     H2 8469   3.202   1.186   2.277
 2006SOL    EPW 8470   3.195   1.165   2.362
 2007SOL      O 8471   2.732   0.079   2.243
 2007SOL     H1 8472   2.748   5.869   2.278
 2007SOL     H2 8473   2.819   0.115   2.225
 2007SOL    EPW 8474   2.743   0.074   2.245
 2008SOL      O 8475   3.642   0.939   2.752
 2008SOL     H1 8476   3.650   0.942   2.656
 2008SOL     H2 8477   3.658   0.847   2.774
 2008SOL    EPW 8478   3.645   0.929   2.744
 2009SOL      O 8479   2.085   0.704   3.321
 2009SOL     H1 8480   2.113   0.789   3.288
 2009SOL     H2 8481   2.167   0.659   3.342
 2009SOL    EPW 8482   2.097   0.708   3.319
 2010SOL      O 8483   3.629   0.912   2.475
 2010SOL     H1 8484   3.719   0.906   2.443
 2010SOL     H2 8485   3.592   0.987   2.430
 2010SOL    EPW 8486   3.635   0.919   2.467
 2011SOL      O 8487   2.069   0.770   3.590
 2011SOL     H1 8488   1.982   0.753   3.625
 2011SOL     H2 8489   2.061   0.753   3.496
 2011SOL    EPW 8490   2.059   0.766   3.583
 2012SOL      O 8491   2.213   0.006   3.193
 2012SOL     H1 8492   2.203   0.071   3.263
 2012SOL     H2 8493   2.224   0.058   3.113
 2012SOL    EPW 8494   2.213   0.018   3.192
 2013SOL      O 8495   2.462   0.701   2.248
 2013SOL     H1 8496   2.459   0.794   2.225
 2013SOL     H2 8497   2.480   0.701   2.342
 2013SOL    EPW 8498   2.463   0.711   2.255
 2014SOL      O 8499   2.966   0.587   3.331
 2014SOL     H1 8500   3.047   0.572   3.282
 2014SOL     H2 8501   2.995   0.597   3.422
 2014SOL    EPW 8502   2.978   0.586   3.336
 2015SOL      O 8503   2.025   0.484   2.501
 2015SOL     H1 8504   2.064   0.503   2.586
 2015SOL     H2 8505   2.022   0.388   2.497
 2015SOL    EPW 8506   2.029   0.475   2.509
 2016SOL      O 8507   3.623   1.926   2.093
 2016SOL     H1 8508   3.682   1.883   2.031
 2016SOL     H2 8509   3.680   1.960   2.161
 2016SOL    EPW 8510   3.635   1.925   2.093
 2017SOL      O 8511   3.377   1.873   3.367
 2017SOL     H1 8512   3.372   1.777   3.366
 2017SOL     H2 8513   3.386   1.896   3.459
 2017SOL    EPW 8514   3.377   1.865   3.376
 2018SOL      O 8515   2.568   0.251   3.175
 2018SOL     H1 8516   2.483   0.292   3.193
 2018SOL     H2 8517   2.553   0.157   3.190
 2018SOL    EPW 8518   2.557   0.245   3.178
 2019SOL      O 8519   1.848   1.095   2.046
 2019SOL     H1 8520   1.812   1.175   2.085
 2019SOL     H2 8521   1.796   1.024   2.083
 2019SOL    EPW 8522   1.839   1.096   2.054
 2020SOL      O 8523   3.287   0.101   2.732
 2020SOL     H1 8524   3.364   0.120   2.785
 2020SOL     H2 8525   3.286   0.006   2.723
 2020SOL    EPW 8526   3.295   0.093   2.736
 2021SOL      O 8527   3.374   0.816   2.542
 2021SOL     H1 8528   3.466   0.832   2.517
 2021SOL     H2 8529   3.376   0.733   2.588
 2021SOL    EPW 8530   3.384   0.809   2.544
 2022SOL      O 8531   2.512   1.836   1.936
 2022SOL     H1 8532   2.435   1.855   1.882
 2022SOL     H2 8533   2.476   1.812   2.021
 2022SOL    EPW 8534   2.500   1.835   1.939
 2023SOL      O 8535   2.789   0.796   3.235
 2023SOL     H1 8536   2.853   0.851   3.190
 2023SOL     H2 8537   2.755   0.851   3.306
 2023SOL    EPW 8538   2.792   0.808   3.238
 2024SOL      O 8539   2.190   1.011   3.595
 2024SOL     H1 8540   2.144   0.927   3.597
 2024SOL     H2 8541   2.262   0.997   3.534
 2024SOL    EPW 8542   2.192   1.000   3.589
 2025SOL      O 8543   3.371   0.643   1.886
 2025SOL     H1 8544   3.331   0.623   1.802
 2025SOL     H2 8545   3.431   0.716   1.868
 2025SOL    EPW 8546   3.373   0.649   1.875
 2026SOL      O 8547   2.410   1.432   2.524
 2026SOL     H1 8548   2.495   1.429   2.569
 2026SOL     H2 8549   2.389   1.525   2.519
 2026SOL    EPW 8550   2.417   1.442   2.528
 2027SOL      O 8551   2.735   0.553   2.601
 2027SOL     H1 8552   2.642   0.572   2.613
 2027SOL     H2 8553   2.745   0.464   2.637
 2027SOL    EPW 8554   2.726   0.545   2.606
 2028SOL      O 8555   3.647   0.044   3.318
 2028SOL     H1 8556   3.659   0.100   3.395
 2028SOL     H2 8557   3.645   0.105   3.244
 2028SOL    EPW 8558   3.648   0.057   3.318
 2029SOL      O 8559   2.892   1.133   2.740
 2029SOL     H1 8560   2.982   1.108   2.757
 2029SOL     H2 8561   2.857   1.063   2.685
 2029SOL    EPW 8562   2.898   1.123   2.736
 2030SOL      O 8563   2.762   0.983   2.110
 2030SOL     H1 8564   2.790   0.910   2.055
 2030SOL     H2 8565   2.696   1.029   2.057
 2030SOL    EPW 8566   2.758   0.980   2.098
 2031SOL      O 8567   3.182   1.390   2.785
 2031SOL     H1 8568   3.174   1.485   2.783
 2031SOL     H2 8569   3.164   1.366   2.876
 2031SOL    EPW 8570   3.179   1.397   2.795
 2032SOL      O 8571   3.167   1.374   3.075
 2032SOL     H1 8572   3.247   1.362   3.127
 2032SOL     H2 8573   3.096   1.362   3.137
 2032SOL    EPW 8574   3.168   1.372   3.087
 2033SOL      O 8575   2.079   0.718   2.773
 2033SOL     H1 8576   2.080   0.696   2.866
 2033SOL     H2 8577   2.132   0.797   2.766
 2033SOL    EPW 8578   2.084   0.724   2.782
 2034SOL      O 8579   3.215   1.504   3.579
 2034SOL     H1 8580   3.184   1.569   3.642
 2034SOL     H2 8581   3.269   1.554   3.518
 2034SOL    EPW 8582   3.218   1.516   3.579
 2035SOL      O 8583   3.503   0.147   2.234
 2035SOL     H1 8584   3.486   0.080   2.300
 2035SOL     H2 8585   3.597   0.141   2.218
 2035SOL    EPW 8586   3.511   0.139   2.239
 2036SOL      O 8587   2.899   0.688   2.231
 2036SOL     H1 8588   2.891   0.713   2.139
 2036SOL     H2 8589   2.926   0.768   2.275
 2036SOL    EPW 8590   2.901   0.699   2.226
 2037SOL      O 8591   2.059   0.365   3.558
 2037SOL     H1 8592   1.997   0.422   3.512
 2037SOL     H2 8593   2.119   0.425   3.601
 2037SOL    EPW 8594   2.059   0.377   3.558
 2038SOL      O 8595   3.233   1.039   3.092
 2038SOL     H1 8596   3.284   0.996   3.160
 2038SOL     H2 8597   3.142   1.020   3.114
 2038SOL    EPW 8598   3.229   1.033   3.101
 2039SOL      O 8599   2.693   1.699   2.333
 2039SOL     H1 8600   2.709   1.782   2.379
 2039SOL     H2 8601   2.736   1.633   2.388
 2039SOL    EPW 8602   2.699   1.701   2.344
 2040SOL      O 8603   3.505   0.139   2.889
 2040SOL     H1 8604   3.523   0.045   2.888
 2040SOL     H2 8605   3.545   0.171   2.970
 2040SOL    EPW 8606   3.511   0.133   2.897
 2041SOL      O 8607   1.973   0.046   3.030
 2041SOL     H1 8608   1.896   5.866   3.018
 2041SOL     H2 8609   2.007   0.022   3.117
 2041SOL    EPW 8610   1.968   0.037   3.038
 2042SOL      O 8611   3.596   1.257   2.597
 2042SOL     H1 8612   3.559   1.197   2.533
 2042SOL     H2 8613   3.690   1.242   2.592
 2042SOL    EPW 8614   3.602   1.249   2.590
 2043SOL      O 8615   2.290   1.343   3.342
 2043SOL     H1 8616   2.214   1.292   3.370
 2043SOL     H2 8617   2.357   1.323   3.406
 2043SOL    EPW 8618   2.289   1.336   3.352
 2044SOL      O 8619   2.177   0.169   1.967
 2044SOL     H1 8620   2.089   0.185   1.933
 2044SOL     H2 8621   2.220   0.119   1.897
 2044SOL    EPW 8622   2.172   0.165   1.956
 2045SOL      O 8623   3.302   0.624   2.933
 2045SOL     H1 8624   3.229   0.684   2.917
 2045SOL     H2 8625   3.366   0.677   2.980
 2045SOL    EPW 8626   3.301   0.636   2.936
 2046SOL      O 8627   1.921   0.230   1.894
 2046SOL     H1 8628   1.879   0.294   1.951
 2046SOL     H2 8629   1.962   0.282   1.825
 2046SOL    EPW 8630   1.921   0.242   1.893
 2047SOL      O 8631   2.010   1.434   2.125
 2047SOL     H1 8632   2.065   1.506   2.155
 2047SOL     H2 8633   2.016   1.439   2.029
 2047SOL    EPW 8634   2.016   1.443   2.118
 2048SOL      O 8635   3.201   1.577   2.368
 2048SOL     H1 8636   3.286   1.554   2.333
 2048SOL     H2 8637   3.143   1.579   2.292
 2048SOL    EPW 8638   3.204   1.575   2.356
 2049SOL      O 8639   3.541   0.908   3.981
 2049SOL     H1 8640   3.579   0.921   4.068
 2049SOL     H2 8641   3.448   0.928   3.993
 2049SOL    EPW 8642   3.535   0.911   3.992
 2050SOL      O 8643   5.310   3.974   0.003
 2050SOL     H1 8644   2.464   1.027   4.134
 2050SOL     H2 8645   2.352   1.129   4.147
 2050SOL    EPW 8646   2.379   1.045   4.155
 2051SOL      O 8647   0.656   4.499   0.263
 2051SOL     H1 8648   0.577   4.465   0.305
 2051SOL     H2 8649   0.625   4.574   0.212
 2051SOL    EPW 8650   0.644   4.504   0.262
 2052SOL      O 8651   5.577   3.395   0.112
 2052SOL     H1 8652   5.496   3.420   0.156
 2052SOL     H2 8653   5.561   3.415   0.020
 2052SOL    EPW 8654   5.567   3.400   0.107
 2053SOL      O 8655   2.155   0.550   4.140
 2053SOL     H1 8656   2.217   0.624   4.140
 2053SOL     H2 8657   5.080   3.469   0.077
 2053SOL    EPW 8658   2.160   0.556   4.149
 2054SOL      O 8659   5.440   3.156   0.076
 2054SOL     H1 8660   5.499   3.229   0.094
 2054SOL     H2 8661   5.371   3.193   0.021
 2054SOL    EPW 8662   5.439   3.167   0.072
 2055SOL      O 8663   5.565   4.072   0.208
 2055SOL     H1 8664   5.650   4.114   0.220
 2055SOL     H2 8665   5.502   4.143   0.215
 2055SOL    EPW 8666   5.567   4.084   0.210
 2056SOL      O 8667   3.207   1.164   3.829
 2056SOL     H1 8668   3.124   1.210   3.839
 2056SOL     H2 8669   3.271   1.233   3.813
 2056SOL    EPW 8670   3.205   1.176   3.828
 2057SOL      O 8671   2.785   1.265   4.052
 2057SOL     H1 8672   2.812   1.283   4.142
 2057SOL     H2 8673   2.730   1.187   4.058
 2057SOL    EPW 8674   2.782   1.259   4.062
 2058SOL      O 8675   2.316   0.334   4.070
 2058SOL     H1 8676   2.265   0.289   4.003
 2058SOL     H2 8677   2.263   0.410   4.094
 2058SOL    EPW 8678   2.305   0.337   4.066
 2059SOL      O 8679   2.088   1.283   4.151
 2059SOL     H1 8680   2.050   1.352   4.098
 2059SOL     H2 8681   2.084   1.205   4.096
 2059SOL    EPW 8682   2.084   1.282   4.140
 2060SOL      O 8683   2.825   1.709   3.947
 2060SOL     H1 8684   2.776   1.734   4.026
 2060SOL     H2 8685   2.760   1.668   3.890
 2060SOL    EPW 8686   2.813   1.708   3.950
 2061SOL      O 8687   3.719   0.458   3.869
 2061SOL     H1 8688   3.632   0.444   3.905
 2061SOL     H2 8689   3.776   0.463   3.945
 2061SOL    EPW 8690   3.716   0.457   3.881
 2062SOL      O 8691   0.467   4.031   0.049
 2062SOL     H1 8692   0.439   4.121   0.069
 2062SOL     H2 8693   0.559   4.028   0.075
 2062SOL    EPW 8694   0.474   4.040   0.054
 2063SOL      O 8695   3.758   1.283   4.019
 2063SOL     H1 8696   3.703   1.293   4.096
 2063SOL     H2 8697   3.776   1.373   3.990
 2063SOL    EPW 8698   3.754   1.294   4.024
 2064SOL      O 8699   5.258   4.646   0.291
 2064SOL     H1 8700   5.261   4.742   0.297
 2064SOL     H2 8701   5.214   4.630   0.207
 2064SOL    EPW 8702   5.253   4.655   0.282
 2065SOL      O 8703   1.952   1.759   3.969
 2065SOL     H1 8704   2.024   1.817   3.994
 2065SOL     H2 8705   1.944   1.769   3.875
 2065SOL    EPW 8706   1.959   1.766   3.962
 2066SOL      O 8707   3.472   1.588   3.889
 2066SOL     H1 8708   3.501   1.679   3.895
 2066SOL     H2 8709   3.415   1.576   3.965
 2066SOL    EPW 8710   3.469   1.596   3.898
 2067SOL      O 8711   2.851   0.638   3.926
 2067SOL     H1 8712   2.852   0.619   3.832
 2067SOL     H2 8713   2.942   0.658   3.948
 2067SOL    EPW 8714   2.861   0.638   3.918
 2068SOL      O 8715   5.007   3.143   0.229
 2068SOL     H1 8716   4.995   3.133   0.134
 2068SOL     H2 8717   4.927   3.105   0.267
 2068SOL    EPW 8718   4.997   3.138   0.223
 2069SOL      O 8719   2.985   1.319   3.880
 2069SOL     H1 8720   2.909   1.293   3.932
 2069SOL     H2 8721   2.948   1.371   3.808
 2069SOL    EPW 8722   2.973   1.322   3.878
 2070SOL      O 8723   2.404   1.733   4.036
 2070SOL     H1 8724   2.337   1.698   4.095
 2070SOL     H2 8725   2.484   1.732   4.088
 2070SOL    EPW 8726   2.405   1.729   4.048
 2071SOL      O 8727   2.548   1.163   3.787
 2071SOL     H1 8728   2.471   1.115   3.817
 2071SOL     H2 8729   2.549   1.243   3.841
 2071SOL    EPW 8730   2.540   1.167   3.796
 2072SOL      O 8731   3.121   1.670   3.779
 2072SOL     H1 8732   3.108   1.624   3.862
 2072SOL     H2 8733   3.161   1.753   3.804
 2072SOL    EPW 8734   3.123   1.674   3.790
 2073SOL      O 8735   3.379   1.366   3.749
 2073SOL     H1 8736   3.318   1.411   3.690
 2073SOL     H2 8737   3.411   1.436   3.807
 2073SOL    EPW 8738   3.376   1.378   3.749
 2074SOL      O 8739   2.616   0.277   3.822
 2074SOL     H1 8740   2.545   0.226   3.861
 2074SOL     H2 8741   2.694   0.224   3.836
 2074SOL    EPW 8742   2.616   0.266   3.827
 2075SOL      O 8743   4.933   3.844   0.066
 2075SOL     H1 8744   5.008   3.836   0.124
 2075SOL     H2 8745   4.914   3.754   0.040
 2075SOL    EPW 8746   4.939   3.833   0.069
 2076SOL      O 8747   4.947   4.443   0.214
 2076SOL     H1 8748   4.964   4.485   0.299
 2076SOL     H2 8749   4.964   4.350   0.230
 2076SOL    EPW 8750   4.951   4.438   0.225
 2077SOL      O 8751   5.750   4.518   0.151
 2077SOL     H1 8752   5.780   4.428   0.163
 2077SOL     H2 8753   5.676   4.527   0.211
 2077SOL    EPW 8754   5.745   4.509   0.158
 2078SOL      O 8755   2.637   1.597   3.786
 2078SOL     H1 8756   2.584   1.676   3.778
 2078SOL     H2 8757   2.581   1.534   3.831
 2078SOL    EPW 8758   2.626   1.599   3.790
 2079SOL      O 8759   3.035   0.175   4.051
 2079SOL     H1 8760   2.954   0.152   4.005
 2079SOL     H2 8761   3.064   0.256   4.008
 2079SOL    EPW 8762   3.029   0.181   4.041
 2080SOL      O 8763   5.125   4.605   0.060
 2080SOL     H1 8764   5.078   4.687   0.042
 2080SOL     H2 8765   5.057   4.546   0.095
 2080SOL    EPW 8766   5.112   4.607   0.062
 2081SOL      O 8767   2.639   1.039   4.113
 2081SOL     H1 8768   2.684   0.955   4.116
 2081SOL     H2 8769   5.578   4.009   0.047
 2081SOL    EPW 8770   2.644   1.034   4.123
 2082SOL      O 8771   4.951   4.174   0.260
 2082SOL     H1 8772   5.017   4.128   0.312
 2082SOL     H2 8773   4.981   4.166   0.170
 2082SOL    EPW 8774   4.961   4.168   0.256
 2083SOL      O 8775   3.166   0.386   3.935
 2083SOL     H1 8776   3.133   0.473   3.955
 2083SOL     H2 8777   3.257   0.387   3.965
 2083SOL    EPW 8778   3.172   0.395   3.940
 2084SOL      O 8779   2.814   0.098   3.892
 2084SOL     H1 8780   2.825   0.025   3.830
 2084SOL     H2 8781   2.740   0.071   3.947
 2084SOL    EPW 8782   2.807   0.087   3.891
 2085SOL      O 8783   3.262   0.928   3.976
 2085SOL     H1 8784   3.237   1.015   3.946
 2085SOL     H2 8785   3.255   0.933   4.072
 2085SOL    EPW 8786   3.259   0.938   3.983
 2086SOL      O 8787   2.300   1.060   3.837
 2086SOL     H1 8788   2.238   1.050   3.908
 2086SOL     H2 8789   2.254   1.028   3.759
 2086SOL    EPW 8790   2.289   1.056   3.836
 2087SOL      O 8791   5.595   3.039   0.281
 2087SOL     H1 8792   5.536   3.073   0.213
 2087SOL     H2 8793   5.581   2.945   0.279
 2087SOL    EPW 8794   5.587   3.033   0.273
 2088SOL      O 8795   2.358   1.309   4.131
 2088SOL     H1 8796   5.334   4.274   0.059
 2088SOL     H2 8797   2.264   1.318   4.142
 2088SOL    EPW 8798   2.352   1.313   4.141
 2089SOL      O 8799   2.414   0.624   3.871
 2089SOL     H1 8800   2.378   0.679   3.940
 2089SOL     H2 8801   2.475   0.565   3.917
 2089SOL    EPW 8802   2.417   0.623   3.884
 2090SOL      O 8803   3.454   0.429   3.962
 2090SOL     H1 8804   3.419   0.498   3.905
 2090SOL     H2 8805   3.480   0.475   4.042
 2090SOL    EPW 8806   3.453   0.441   3.964
 2091SOL      O 8807   5.262   3.019   0.255
 2091SOL     H1 8808   5.314   3.072   0.194
 2091SOL     H2 8809   5.179   3.066   0.263
 2091SOL    EPW 8810   5.259   3.030   0.249
 2092SOL      O 8811   3.125   0.677   3.953
 2092SOL     H1 8812   3.196   0.654   3.894
 2092SOL     H2 8813   3.143   0.768   3.978
 2092SOL    EPW 8814   3.135   0.684   3.949
 2093SOL      O 8815   5.162   3.871   0.216
 2093SOL     H1 8816   5.217   3.916   0.152
 2093SOL     H2 8817   5.161   3.930   0.292
 2093SOL    EPW 8818   5.168   3.882   0.218
 2094SOL      O 8819   2.892   1.515   3.702
 2094SOL     H1 8820   2.949   1.581   3.741
 2094SOL     H2 8821   2.804   1.539   3.731
 2094SOL    EPW 8822   2.889   1.525   3.709
 2095SOL      O 8823   1.904   0.656   4.105
 2095SOL     H1 8824   4.796   3.555   0.024
 2095SOL     H2 8825   1.991   0.615   4.107
 2095SOL    EPW 8826   1.908   0.647   4.113
 2096SOL      O 8827   3.227   0.007   3.960
 2096SOL     H1 8828   3.308   0.052   3.983
 2096SOL     H2 8829   3.157   0.060   3.999
 2096SOL    EPW 8830   3.228   0.017   3.967
 2097SOL      O 8831   2.624   0.492   3.993
 2097SOL     H1 8832   2.707   0.536   3.975
 2097SOL     H2 8833   2.626   0.413   3.939
 2097SOL    EPW 8834   2.633   0.488   3.985
 2098SOL      O 8835   2.085   1.049   4.010
 2098SOL     H1 8836   2.005   1.061   3.959
 2098SOL     H2 8837   2.059   0.996   4.084
 2098SOL    EPW 8838   2.074   1.045   4.012
 2099SOL      O 8839   2.467   1.405   3.894
 2099SOL     H1 8840   2.441   1.384   3.984
 2099SOL     H2 8841   2.385   1.399   3.844
 2099SOL    EPW 8842   2.455   1.402   3.898
 2100SOL      O 8843   3.054   1.550   4.011
 2100SOL     H1 8844   3.023   1.466   3.978
 2100SOL     H2 8845   2.976   1.605   4.017
 2100SOL    EPW 8846   3.043   1.547   4.008
 2101SOL      O 8847   2.014   0.157   4.123
 2101SOL     H1 8848   2.070   0.171   4.047
 2101SOL     H2 8849   2.019   0.062   4.139
 2101SOL    EPW 8850   2.021   0.148   4.117
 2102SOL      O 8851   3.096   1.176   4.135
 2102SOL     H1 8852   0.114   4.164   0.048
 2102SOL     H2 8853   3.094   1.234   4.059
 2102SOL    EPW 8854   3.092   1.188   4.134
 2103SOL      O 8855   2.338   0.757   4.111
 2103SOL     H1 8856   2.323   0.852   4.106
 2103SOL     H2 8857   5.333   3.684   0.032
 2103SOL    EPW 8858   2.342   0.766   4.119
 2104SOL      O 8859   5.005   3.416   0.235
 2104SOL     H1 8860   5.052   3.447   0.312
 2104SOL     H2 8861   5.011   3.320   0.240
 2104SOL    EPW 8862   5.011   3.409   0.244
 2105SOL      O 8863   3.561   1.847   3.899
 2105SOL     H1 8864   3.654   1.841   3.920
 2105SOL     H2 8865   3.528   1.916   3.957
 2105SOL    EPW 8866   3.567   1.854   3.908
 2106SOL      O 8867   1.849   1.081   3.886
 2106SOL     H1 8868   1.814   1.161   3.926
 2106SOL     H2 8869   1.800   1.010   3.928
 2106SOL    EPW 8870   1.840   1.082   3.895
 2107SOL      O 8871   2.484   1.832   3.795
 2107SOL     H1 8872   2.407   1.849   3.741
 2107SOL     H2 8873   2.448   1.802   3.879
 2107SOL    EPW 8874   2.472   1.830   3.799
 2108SOL      O 8875   3.327   0.608   3.784
 2108SOL     H1 8876   3.265   0.601   3.711
 2108SOL     H2 8877   3.381   0.684   3.762
 2108SOL    EPW 8878   3.326   0.616   3.774
 2109SOL      O 8879   5.409   4.305   0.218
 2109SOL     H1 8880   5.360   4.300   0.300
 2109SOL     H2 8881   5.456   4.388   0.222
 2109SOL    EPW 8882   5.409   4.313   0.227
 2110SOL      O 8883   2.707   0.969   3.674
 2110SOL     H1 8884   2.670   0.885   3.703
 2110SOL     H2 8885   2.663   1.034   3.729
 2110SOL    EPW 8886   2.698   0.967   3.683
 2111SOL      O 8887   3.459   0.147   3.994
 2111SOL     H1 8888   3.517   0.122   4.066
 2111SOL     H2 8889   3.465   0.242   3.989
 2111SOL    EPW 8890   3.466   0.154   4.001
 2112SOL      O 8891   2.729   0.781   4.134
 2112SOL     H1 8892   2.760   0.747   4.051
 2112SOL     H2 8893   5.731   3.686   0.043
 2112SOL    EPW 8894   2.739   0.774   4.132
 2113SOL      O 8895   2.658   1.746   4.154
 2113SOL     H1 8896   5.603   4.757   0.061
 2113SOL     H2 8897   5.641   4.612   0.041
 2113SOL    EPW 8898   5.602   4.685   0.010
 2114SOL      O 8899   2.157   0.202   3.889
 2114SOL     H1 8900   2.073   0.235   3.857
 2114SOL     H2 8901   2.193   0.152   3.816
 2114SOL    EPW 8902   2.152   0.201   3.878
 2115SOL      O 8903   1.920   0.269   3.777
 2115SOL     H1 8904   1.876   0.344   3.816
 2115SOL     H2 8905   1.960   0.303   3.697
 2115SOL    EPW 8906   1.920   0.280   3.773
 2116SOL      O 8907   1.982   1.479   3.980
 2116SOL     H1 8908   1.973   1.572   4.001
 2116SOL     H2 8909   2.006   1.478   3.887
 2116SOL    EPW 8910   1.984   1.489   3.972
 2117SOL      O 8911   3.314   1.572   4.112
 2117SOL     H1 8912   0.383   4.430   0.007
 2117SOL     H2 8913   3.221   1.576   4.089
 2117SOL    EPW 8914   3.305   1.564   4.115
 2118SOL      O 8915   3.469   2.623   1.261
 2118SOL     H1 8916   3.428   2.678   1.329
 2118SOL     H2 8917   3.553   2.664   1.244
 2118SOL    EPW 8918   3.474   2.633   1.267
 2119SOL      O 8919   2.394   2.982   0.508
 2119SOL     H1 8920   2.484   2.956   0.495
 2119SOL     H2 8921   2.384   3.063   0.457
 2119SOL    EPW 8922   2.402   2.988   0.501
 2120SOL      O 8923   3.503   3.507   0.698
 2120SOL     H1 8924   3.515   3.470   0.786
 2120SOL     H2 8925   3.533   3.438   0.639
 2120SOL    EPW 8926   3.507   3.496   0.701
 2121SOL      O 8927   2.872   3.430   1.629
 2121SOL     H1 8928   2.856   3.495   1.561
 2121SOL     H2 8929   2.929   3.365   1.587
 2121SOL    EPW 8930   2.877   3.430   1.617
 2122SOL      O 8931   3.454   3.042   1.239
 2122SOL     H1 8932   3.380   2.983   1.227
 2122SOL     H2 8933   3.474   3.073   1.151
 2122SOL    EPW 8934   3.448   3.039   1.228
 2123SOL      O 8935   2.640   2.310   0.448
 2123SOL     H1 8936   2.655   2.404   0.460
 2123SOL     H2 8937   2.619   2.300   0.356
 2123SOL    EPW 8938   2.639   2.319   0.440
 2124SOL      O 8939   2.040   2.401   0.382
 2124SOL     H1 8940   2.119   2.455   0.385
 2124SOL     H2 8941   2.034   2.363   0.469
 2124SOL    EPW 8942   2.048   2.403   0.392
 2125SOL      O 8943   2.197   2.806   1.382
 2125SOL     H1 8944   2.271   2.851   1.422
 2125SOL     H2 8945   2.183   2.852   1.299
 2125SOL    EPW 8946   2.203   2.816   1.377
 2126SOL      O 8947   2.419   2.209   0.575
 2126SOL     H1 8948   2.501   2.243   0.539
 2126SOL     H2 8949   2.359   2.210   0.500
 2126SOL    EPW 8950   2.421   2.213   0.563
 2127SOL      O 8951   2.601   3.073   0.754
 2127SOL     H1 8952   2.686   3.106   0.783
 2127SOL     H2 8953   2.619   3.031   0.670
 2127SOL    EPW 8954   2.612   3.072   0.748
 2128SOL      O 8955   2.600   3.349   1.584
 2128SOL     H1 8956   2.674   3.387   1.632
 2128SOL     H2 8957   2.640   3.307   1.508
 2128SOL    EPW 8958   2.612   3.349   1.581
 2129SOL      O 8959   2.366   2.608   0.664
 2129SOL     H1 8960   2.331   2.528   0.702
 2129SOL     H2 8961   2.460   2.603   0.679
 2129SOL    EPW 8962   2.372   2.599   0.669
 2130SOL      O 8963   2.720   3.231   1.372
 2130SOL     H1 8964   2.716   3.281   1.291
 2130SOL     H2 8965   2.684   3.145   1.349
 2130SOL    EPW 8966   2.715   3.227   1.361
 2131SOL      O 8967   2.514   2.399   1.069
 2131SOL     H1 8968   2.419   2.391   1.055
 2131SOL     H2 8969   2.545   2.308   1.074
 2131SOL    EPW 8970   2.507   2.388   1.068
 2132SOL      O 8971   2.287   2.813   0.948
 2132SOL     H1 8972   2.257   2.850   0.865
 2132SOL     H2 8973   2.244   2.866   1.015
 2132SOL    EPW 8974   2.279   2.822   0.946
 2133SOL      O 8975   2.008   3.674   0.873
 2133SOL     H1 8976   2.103   3.660   0.870
 2133SOL     H2 8977   1.972   3.585   0.878
 2133SOL    EPW 8978   2.014   3.663   0.873
 2134SOL      O 8979   2.209   3.213   0.840
 2134SOL     H1 8980   2.224   3.265   0.919
 2134SOL     H2 8981   2.283   3.233   0.783
 2134SOL    EPW 8982   2.218   3.221   0.842
 2135SOL      O 8983   2.791   2.817   0.740
 2135SOL     H1 8984   2.715   2.804   0.797
 2135SOL     H2 8985   2.839   2.734   0.746
 2135SOL    EPW 8986   2.788   2.807   0.747
 2136SOL      O 8987   2.207   3.476   1.471
 2136SOL     H1 8988   2.120   3.459   1.433
 2136SOL     H2 8989   2.243   3.389   1.487
 2136SOL    EPW 8990   2.201   3.465   1.469
 2137SOL      O 8991   2.721   3.199   0.419
 2137SOL     H1 8992   2.746   3.255   0.493
 2137SOL     H2 8993   2.720   3.110   0.456
 2137SOL    EPW 8994   2.724   3.195   0.431
 2138SOL      O 8995   3.689   2.204   0.860
 2138SOL     H1 8996   3.621   2.231   0.922
 2138SOL     H2 8997   3.667   2.114   0.837
 2138SOL    EPW 8998   3.680   2.198   0.864
 2139SOL      O 8999   2.236   2.202   0.375
 2139SOL     H1 9000   2.212   2.129   0.318
 2139SOL     H2 9001   2.167   2.267   0.362
 2139SOL    EPW 9002   2.226   2.201   0.368
 2140SOL      O 9003   2.088   3.129   0.366
 2140SOL     H1 9004   2.053   3.185   0.297
 2140SOL     H2 9005   2.173   3.169   0.387
 2140SOL    EPW 9006   2.094   3.139   0.361
 2141SOL      O 9007   2.800   3.594   0.223
 2141SOL     H1 9008   2.783   3.604   0.316
 2141SOL     H2 9009   2.792   3.500   0.207
 2141SOL    EPW 9010   2.797   3.585   0.231
 2142SOL      O 9011   3.443   2.967   0.553
 2142SOL     H1 9012   3.352   2.973   0.582
 2142SOL     H2 9013   3.440   2.995   0.461
 2142SOL    EPW 9014   3.433   2.970   0.546
 2143SOL      O 9015   3.308   2.540   1.611
 2143SOL     H1 9016   3.371   2.492   1.556
 2143SOL     H2 9017   3.223   2.523   1.569
 2143SOL    EPW 9018   3.306   2.533   1.600
 2144SOL      O 9019   2.023   3.489   1.146
 2144SOL     H1 9020   1.996   3.454   1.231
 2144SOL     H2 9021   2.008   3.583   1.153
 2144SOL    EPW 9022   2.019   3.495   1.156
 2145SOL      O 9023   3.024   2.991   1.549
 2145SOL     H1 9024   3.010   3.083   1.528
 2145SOL     H2 9025   3.112   2.988   1.587
 2145SOL    EPW 9026   3.032   3.000   1.551
 2146SOL      O 9027   2.762   2.409   1.776
 2146SOL     H1 9028   2.855   2.393   1.758
 2146SOL     H2 9029   2.717   2.334   1.738
 2146SOL    EPW 9030   2.767   2.399   1.770
 2147SOL      O 9031   3.382   2.814   0.857
 2147SOL     H1 9032   3.383   2.748   0.787
 2147SOL     H2 9033   3.474   2.822   0.883
 2147SOL    EPW 9034   3.392   2.807   0.852
 2148SOL      O 9035   2.952   2.493   0.515
 2148SOL     H1 9036   3.022   2.526   0.458
 2148SOL     H2 9037   2.950   2.399   0.499
 2148SOL    EPW 9038   2.960   2.487   0.507
 2149SOL      O 9039   2.648   2.177   1.673
 2149SOL     H1 9040   2.621   2.107   1.614
 2149SOL     H2 9041   2.650   2.137   1.760
 2149SOL    EPW 9042   2.645   2.166   1.676
 2150SOL      O 9043   2.313   3.582   0.622
 2150SOL     H1 9044   2.295   3.677   0.624
 2150SOL     H2 9045   2.246   3.547   0.563
 2150SOL    EPW 9046   2.304   3.589   0.616
 2151SOL      O 9047   3.694   1.941   0.752
 2151SOL     H1 9048   3.765   1.893   0.796
 2151SOL     H2 9049   3.639   1.872   0.714
 2151SOL    EPW 9050   3.696   1.928   0.753
 2152SOL      O 9051   1.970   3.527   0.233
 2152SOL     H1 9052   2.026   3.588   0.185
 2152SOL     H2 9053   1.886   3.572   0.238
 2152SOL    EPW 9054   1.967   3.538   0.229
 2153SOL      O 9055   2.858   1.928   1.054
 2153SOL     H1 9056   2.864   2.009   1.003
 2153SOL     H2 9057   2.948   1.899   1.064
 2153SOL    EPW 9058   2.868   1.934   1.050
 2154SOL      O 9059   3.382   3.446   0.261
 2154SOL     H1 9060   3.440   3.522   0.261
 2154SOL     H2 9061   3.441   3.370   0.262
 2154SOL    EPW 9062   3.394   3.446   0.261
 2155SOL      O 9063   2.841   2.622   0.185
 2155SOL     H1 9064   2.834   2.533   0.149
 2155SOL     H2 9065   2.930   2.626   0.219
 2155SOL    EPW 9066   2.849   2.613   0.185
 2156SOL      O 9067   3.457   2.370   0.432
 2156SOL     H1 9068   3.509   2.392   0.509
 2156SOL     H2 9069   3.446   2.453   0.386
 2156SOL    EPW 9070   3.462   2.381   0.435
 2157SOL      O 9071   2.771   2.876   1.584
 2157SOL     H1 9072   2.738   2.887   1.673
 2157SOL     H2 9073   2.858   2.916   1.586
 2157SOL    EPW 9074   2.777   2.881   1.594
 2158SOL      O 9075   2.805   1.984   1.314
 2158SOL     H1 9076   2.818   1.967   1.221
 2158SOL     H2 9077   2.825   2.078   1.324
 2158SOL    EPW 9078   2.809   1.992   1.305
 2159SOL      O 9079   2.901   2.406   1.111
 2159SOL     H1 9080   2.975   2.459   1.080
 2159SOL     H2 9081   2.833   2.469   1.131
 2159SOL    EPW 9082   2.902   2.418   1.110
 2160SOL      O 9083   3.501   2.423   1.450
 2160SOL     H1 9084   3.459   2.342   1.420
 2160SOL     H2 9085   3.496   2.481   1.374
 2160SOL    EPW 9086   3.496   2.420   1.438
 2161SOL      O 9087   3.612   3.587   1.379
 2161SOL     H1 9088   3.541   3.549   1.431
 2161SOL     H2 9089   3.626   3.674   1.416
 2161SOL    EPW 9090   3.606   3.592   1.388
 2162SOL      O 9091   2.963   2.149   1.579
 2162SOL     H1 9092   2.940   2.194   1.498
 2162SOL     H2 9093   2.888   2.091   1.595
 2162SOL    EPW 9094   2.952   2.147   1.572
 2163SOL      O 9095   3.317   2.995   1.620
 2163SOL     H1 9096   3.397   3.044   1.642
 2163SOL     H2 9097   3.294   2.948   1.700
 2163SOL    EPW 9098   3.323   2.996   1.631
 2164SOL      O 9099   3.701   2.405   0.664
 2164SOL     H1 9100   3.794   2.383   0.656
 2164SOL     H2 9101   3.664   2.335   0.718
 2164SOL    EPW 9102   3.707   2.395   0.669
 2165SOL      O 9103   2.048   2.013   0.584
 2165SOL     H1 9104   2.041   1.964   0.503
 2165SOL     H2 9105   1.972   1.986   0.636
 2165SOL    EPW 9106   2.039   2.005   0.581
 2166SOL      O 9107   1.980   2.255   1.017
 2166SOL     H1 9108   1.925   2.316   1.067
 2166SOL     H2 9109   1.918   2.210   0.958
 2166SOL    EPW 9110   1.967   2.257   1.016
 2167SOL      O 9111   2.480   3.605   0.408
 2167SOL     H1 9112   2.430   3.595   0.489
 2167SOL     H2 9113   2.572   3.602   0.435
 2167SOL    EPW 9114   2.484   3.604   0.420
 2168SOL      O 9115   3.545   3.127   1.696
 2168SOL     H1 9116   3.602   3.059   1.732
 2168SOL     H2 9117   3.505   3.168   1.772
 2168SOL    EPW 9118   3.547   3.124   1.708
 2169SOL      O 9119   5.460   0.041   4.127
 2169SOL     H1 9120   2.489   2.897   0.007
 2169SOL     H2 9121   2.569   3.020   0.044
 2169SOL    EPW 9122   5.461   0.036   4.139
 2170SOL      O 9123   3.714   2.748   1.250
 2170SOL     H1 9124   3.728   2.821   1.191
 2170SOL     H2 9125   3.724   2.785   1.338
 2170SOL    EPW 9126   3.717   2.759   1.253
 2171SOL      O 9127   3.528   3.411   0.957
 2171SOL     H1 9128   3.456   3.444   1.011
 2171SOL     H2 9129   3.524   3.316   0.968
 2171SOL    EPW 9130   3.520   3.404   0.964
 2172SOL      O 9131   2.014   2.540   1.197
 2172SOL     H1 9132   2.057   2.524   1.281
 2172SOL     H2 9133   1.951   2.609   1.215
 2172SOL    EPW 9134   2.012   2.546   1.208
 2173SOL      O 9135   2.580   2.063   0.087
 2173SOL     H1 9136   2.509   2.004   0.110
 2173SOL     H2 9137   2.659   2.009   0.088
 2173SOL    EPW 9138   2.581   2.051   0.089
 2174SOL      O 9139   2.049   3.658   1.625
 2174SOL     H1 9140   1.986   3.694   1.562
 2174SOL     H2 9141   2.101   3.595   1.573
 2174SOL    EPW 9142   2.048   3.655   1.612
 2175SOL      O 9143   2.159   2.954   1.148
 2175SOL     H1 9144   2.212   3.031   1.169
 2175SOL     H2 9145   2.069   2.984   1.156
 2175SOL    EPW 9146   2.155   2.965   1.151
 2176SOL      O 9147   2.677   2.841   1.132
 2176SOL     H1 9148   2.693   2.748   1.150
 2176SOL     H2 9149   2.632   2.841   1.047
 2176SOL    EPW 9150   2.674   2.831   1.125
 2177SOL      O 9151   2.060   2.718   0.512
 2177SOL     H1 9152   2.117   2.766   0.573
 2177SOL     H2 9153   2.119   2.657   0.468
 2177SOL    EPW 9154   2.072   2.717   0.514
 2178SOL      O 9155   2.227   2.430   1.792
 2178SOL     H1 9156   2.175   2.510   1.788
 2178SOL     H2 9157   2.285   2.444   1.867
 2178SOL    EPW 9158   2.228   2.440   1.800
 2179SOL      O 9159   2.606   1.961   1.504
 2179SOL     H1 9160   2.565   1.875   1.499
 2179SOL     H2 9161   2.678   1.957   1.440
 2179SOL    EPW 9162   2.610   1.951   1.496
 2180SOL      O 9163   2.315   2.450   1.530
 2180SOL     H1 9164   2.386   2.514   1.532
 2180SOL     H2 9165   2.299   2.429   1.622
 2180SOL    EPW 9166   2.321   2.455   1.540
 2181SOL      O 9167   2.621   3.676   0.961
 2181SOL     H1 9168   2.701   3.717   0.993
 2181SOL     H2 9169   2.597   3.726   0.883
 2181SOL    EPW 9170   2.627   3.685   0.956
 2182SOL      O 9171   3.287   2.123   1.908
 2182SOL     H1 9172   3.338   2.043   1.899
 2182SOL     H2 9173   3.261   2.145   1.819
 2182SOL    EPW 9174   3.289   2.116   1.898
 2183SOL      O 9175   1.991   3.322   0.653
 2183SOL     H1 9176   1.974   3.361   0.738
 2183SOL     H2 9177   2.056   3.253   0.670
 2183SOL    EPW 9178   1.996   3.319   0.664
 2184SOL      O 9179   2.793   3.361   0.630
 2184SOL     H1 9180   2.876   3.322   0.659
 2184SOL     H2 9181   2.746   3.382   0.711
 2184SOL    EPW 9182   2.797   3.359   0.642
 2185SOL      O 9183   3.724   2.534   0.908
 2185SOL     H1 9184   3.818   2.538   0.920
 2185SOL     H2 9185   3.712   2.497   0.821
 2185SOL    EPW 9186   3.732   2.531   0.900
 2186SOL      O 9187   3.530   2.723   1.872
 2186SOL     H1 9188   3.587   2.656   1.833
 2186SOL     H2 9189   3.561   2.730   1.963
 2186SOL    EPW 9190   3.539   2.716   1.878
 2187SOL      O 9191   2.439   3.450   0.032
 2187SOL     H1 9192   2.447   3.532   0.081
 2187SOL     H2 9193   2.464   3.382   0.095
 2187SOL    EPW 9194   2.443   3.452   0.044
 2188SOL      O 9195   2.856   2.254   1.347
 2188SOL     H1 9196   2.782   2.306   1.379
 2188SOL     H2 9197   2.891   2.305   1.274
 2188SOL    EPW 9198   2.852   2.265   1.343
 2189SOL      O 9199   3.083   2.583   0.985
 2189SOL     H1 9200   3.101   2.677   0.990
 2189SOL     H2 9201   3.030   2.574   0.906
 2189SOL    EPW 9202   3.079   2.592   0.977
 2190SOL      O 9203   2.555   2.836   0.888
 2190SOL     H1 9204   2.464   2.820   0.911
 2190SOL     H2 9205   2.554   2.921   0.843
 2190SOL    EPW 9206   2.545   2.844   0.886
 2191SOL      O 9207   3.390   2.386   0.806
 2191SOL     H1 9208   3.329   2.315   0.784
 2191SOL     H2 9209   3.364   2.413   0.894
 2191SOL    EPW 9210   3.380   2.381   0.813
 2192SOL      O 9211   2.262   2.109   1.586
 2192SOL     H1 9212   2.183   2.148   1.624
 2192SOL     H2 9213   2.267   2.147   1.498
 2192SOL    EPW 9214   2.254   2.117   1.580
 2193SOL      O 9215   2.908   2.573   0.772
 2193SOL     H1 9216   2.829   2.523   0.793
 2193SOL     H2 9217   2.933   2.543   0.685
 2193SOL    EPW 9218   2.902   2.564   0.765
 2194SOL      O 9219   2.134   3.455   0.453
 2194SOL     H1 9220   2.075   3.487   0.384
 2194SOL     H2 9221   2.075   3.414   0.517
 2194SOL    EPW 9222   2.121   3.454   0.452
 2195SOL      O 9223   2.673   2.937   0.519
 2195SOL     H1 9224   2.703   2.910   0.432
 2195SOL     H2 9225   2.721   2.880   0.579
 2195SOL    EPW 9226   2.681   2.928   0.516
 2196SOL      O 9227   3.287   3.480   1.103
 2196SOL     H1 9228   3.296   3.560   1.156
 2196SOL     H2 9229   3.242   3.418   1.161
 2196SOL    EPW 9230   3.283   3.482   1.115
 2197SOL      O 9231   3.273   3.644   0.711
 2197SOL     H1 9232   3.260   3.689   0.627
 2197SOL     H2 9233   3.355   3.596   0.700
 2197SOL    EPW 9234   3.280   3.644   0.701
 2198SOL      O 9235   3.218   2.170   0.743
 2198SOL     H1 9236   3.248   2.092   0.789
 2198SOL     H2 9237   3.123   2.161   0.740
 2198SOL    EPW 9238   3.211   2.161   0.748
 2199SOL      O 9239   2.023   3.017   0.772
 2199SOL     H1 9240   2.076   3.085   0.814
 2199SOL     H2 9241   2.086   2.960   0.729
 2199SOL    EPW 9242   2.035   3.018   0.772
 2200SOL      O 9243   2.485   3.121   1.698
 2200SOL     H1 9244   2.536   3.199   1.674
 2200SOL     H2 9245   2.532   3.085   1.774
 2200SOL    EPW 9246   2.496   3.126   1.704
 2201SOL      O 9247   2.048   3.331   1.870
 2201SOL     H1 9248   2.128   3.280   1.862
 2201SOL     H2 9249   2.004   3.320   1.786
 2201SOL    EPW 9250   2.052   3.324   1.860
 2202SOL      O 9251   2.797   1.901   0.070
 2202SOL     H1 9252   5.766   4.822   4.136
 2202SOL     H2 9253   2.806   1.818   0.116
 2202SOL    EPW 9254   2.801   1.891   0.065
 2203SOL      O 9255   2.978   3.241   1.458
 2203SOL     H1 9256   2.888   3.240   1.424
 2203SOL     H2 9257   3.029   3.286   1.391
 2203SOL    EPW 9258   2.973   3.246   1.447
 2204SOL      O 9259   2.290   1.913   1.777
 2204SOL     H1 9260   2.220   1.858   1.742
 2204SOL     H2 9261   2.301   1.982   1.712
 2204SOL    EPW 9262   2.284   1.915   1.767
 2205SOL      O 9263   2.261   3.390   1.063
 2205SOL     H1 9264   2.333   3.440   1.102
 2205SOL     H2 9265   2.182   3.430   1.100
 2205SOL    EPW 9266   2.260   3.400   1.071
 2206SOL      O 9267   3.722   2.889   1.494
 2206SOL     H1 9268   3.661   2.957   1.466
 2206SOL     H2 9269   3.716   2.890   1.590
 2206SOL    EPW 9270   3.715   2.896   1.501
 2207SOL      O 9271   2.720   3.427   1.177
 2207SOL     H1 9272   2.763   3.421   1.092
 2207SOL     H2 9273   2.629   3.448   1.157
 2207SOL    EPW 9274   2.715   3.429   1.166
 2208SOL      O 9275   2.400   2.734   0.026
 2208SOL     H1 9276   2.406   2.660   0.087
 2208SOL     H2 9277   5.258   5.656   4.132
 2208SOL    EPW 9278   2.392   2.724   0.027
 2209SOL      O 9279   2.519   3.223   1.009
 2209SOL     H1 9280   2.467   3.194   1.084
 2209SOL     H2 9281   2.508   3.155   0.943
 2209SOL    EPW 9282   2.513   3.213   1.010
 2210SOL      O 9283   3.344   2.200   1.403
 2210SOL     H1 9284   3.311   2.177   1.490
 2210SOL     H2 9285   3.337   2.120   1.352
 2210SOL    EPW 9286   3.340   2.189   1.407
 2211SOL      O 9287   3.684   2.065   1.190
 2211SOL     H1 9288   3.727   2.146   1.163
 2211SOL     H2 9289   3.746   1.996   1.169
 2211SOL    EPW 9290   3.695   2.067   1.185
 2212SOL      O 9291   1.927   3.268   1.628
 2212SOL     H1 9292   1.980   3.190   1.612
 2212SOL     H2 9293   1.845   3.235   1.664
 2212SOL    EPW 9294   1.924   3.256   1.630
 2213SOL      O 9295   2.624   1.938   0.740
 2213SOL     H1 9296   2.564   1.997   0.695
 2213SOL     H2 9297   2.694   1.921   0.677
 2213SOL    EPW 9298   2.625   1.942   0.729
 2214SOL      O 9299   2.326   3.256   0.424
 2214SOL     H1 9300   2.374   3.264   0.506
 2214SOL     H2 9301   2.274   3.336   0.417
 2214SOL    EPW 9302   2.326   3.265   0.432
 2215SOL      O 9303   2.820   3.572   1.400
 2215SOL     H1 9304   2.794   3.528   1.320
 2215SOL     H2 9305   2.840   3.662   1.373
 2215SOL    EPW 9306   2.819   3.577   1.389
 2216SOL      O 9307   3.161   3.434   0.858
 2216SOL     H1 9308   3.187   3.503   0.796
 2216SOL     H2 9309   3.191   3.466   0.943
 2216SOL    EPW 9310   3.167   3.445   0.860
 2217SOL      O 9311   2.576   2.610   1.813
 2217SOL     H1 9312   2.640   2.539   1.802
 2217SOL     H2 9313   2.516   2.577   1.879
 2217SOL    EPW 9314   2.576   2.599   1.819
 2218SOL      O 9315   3.353   2.769   1.465
 2218SOL     H1 9316   3.350   2.848   1.519
 2218SOL     H2 9317   3.336   2.697   1.527
 2218SOL    EPW 9318   3.351   2.770   1.478
 2219SOL      O 9319   3.038   1.787   1.760
 2219SOL     H1 9320   2.989   1.724   1.707
 2219SOL     H2 9321   3.111   1.813   1.705
 2219SOL    EPW 9322   3.041   1.783   1.749
 2220SOL      O 9323   2.397   2.506   0.180
 2220SOL     H1 9324   2.332   2.465   0.123
 2220SOL     H2 9325   2.469   2.442   0.182
 2220SOL    EPW 9326   2.398   2.495   0.174
 2221SOL      O 9327   3.495   3.138   0.984
 2221SOL     H1 9328   3.530   3.118   0.897
 2221SOL     H2 9329   3.401   3.147   0.971
 2221SOL    EPW 9330   3.489   3.137   0.973
 2222SOL      O 9331   2.972   2.854   1.319
 2222SOL     H1 9332   2.989   2.905   1.398
 2222SOL     H2 9333   2.939   2.919   1.256
 2222SOL    EPW 9334   2.970   2.867   1.321
 2223SOL      O 9335   2.311   1.981   0.674
 2223SOL     H1 9336   2.350   2.058   0.632
 2223SOL     H2 9337   2.219   1.984   0.647
 2223SOL    EPW 9338   2.305   1.990   0.666
 2224SOL      O 9339   2.082   3.053   1.566
 2224SOL     H1 9340   2.123   2.997   1.632
 2224SOL     H2 9341   2.015   2.997   1.526
 2224SOL    EPW 9342   2.079   3.041   1.568
 2225SOL      O 9343   2.639   2.382   1.457
 2225SOL     H1 9344   2.613   2.469   1.488
 2225SOL     H2 9345   2.617   2.324   1.530
 2225SOL    EPW 9346   2.633   2.385   1.468
 2226SOL      O 9347   3.098   2.616   0.283
 2226SOL     H1 9348   3.161   2.581   0.220
 2226SOL     H2 9349   3.152   2.640   0.359
 2226SOL    EPW 9350   3.111   2.615   0.285
 2227SOL      O 9351   2.231   2.848   0.677
 2227SOL     H1 9352   2.285   2.902   0.619
 2227SOL     H2 9353   2.276   2.764   0.682
 2227SOL    EPW 9354   2.241   2.845   0.672
 2228SOL      O 9355   3.230   2.210   0.464
 2228SOL     H1 9356   3.229   2.197   0.559
 2228SOL     H2 9357   3.309   2.262   0.449
 2228SOL    EPW 9358   3.239   2.214   0.473
 2229SOL      O 9359   2.952   2.112   0.725
 2229SOL     H1 9360   2.928   2.162   0.647
 2229SOL     H2 9361   2.900   2.151   0.795
 2229SOL    EPW 9362   2.944   2.121   0.724
 2230SOL      O 9363   5.735   0.454   4.099
 2230SOL     H1 9364   5.784   0.535   4.113
 2230SOL     H2 9365   2.794   3.351   0.030
 2230SOL    EPW 9366   5.740   0.458   4.110
 2231SOL      O 9367   3.697   2.917   1.777
 2231SOL     H1 9368   3.635   2.851   1.808
 2231SOL     H2 9369   3.744   2.944   1.856
 2231SOL    EPW 9370   3.695   2.913   1.789
 2232SOL      O 9371   1.919   3.419   0.902
 2232SOL     H1 9372   1.958   3.425   0.990
 2232SOL     H2 9373   1.825   3.431   0.917
 2232SOL    EPW 9374   1.913   3.421   0.913
 2233SOL      O 9375   1.808   2.533   0.319
 2233SOL     H1 9376   1.744   2.492   0.376
 2233SOL     H2 9377   1.892   2.495   0.344
 2233SOL    EPW 9378   1.811   2.525   0.327
 2234SOL      O 9379   3.446   3.743   1.822
 2234SOL     H1 9380   3.490   3.668   1.783
 2234SOL     H2 9381   3.486   3.753   1.908
 2234SOL    EPW 9382   3.455   3.736   1.827
 2235SOL      O 9383   3.020   3.227   0.715
 2235SOL     H1 9384   3.006   3.157   0.779
 2235SOL     H2 9385   3.071   3.293   0.761
 2235SOL    EPW 9386   3.024   3.227   0.726
 2236SOL      O 9387   2.292   2.250   1.342
 2236SOL     H1 9388   2.310   2.327   1.396
 2236SOL     H2 9389   2.267   2.286   1.257
 2236SOL    EPW 9390   2.291   2.262   1.339
 2237SOL      O 9391   2.255   2.285   1.021
 2237SOL     H1 9392   2.284   2.196   1.000
 2237SOL     H2 9393   2.159   2.279   1.022
 2237SOL    EPW 9394   2.248   2.275   1.018
 2238SOL      O 9395   3.026   2.349   1.752
 2238SOL     H1 9396   3.003   2.271   1.703
 2238SOL     H2 9397   3.049   2.414   1.685
 2238SOL    EPW 9398   3.026   2.348   1.740
 2239SOL      O 9399   3.228   2.119   1.637
 2239SOL     H1 9400   3.137   2.129   1.609
 2239SOL     H2 9401   3.247   2.026   1.626
 2239SOL    EPW 9402   3.221   2.110   1.633
 2240SOL      O 9403   2.352   2.042   0.940
 2240SOL     H1 9404   2.323   1.971   0.997
 2240SOL     H2 9405   2.337   2.010   0.852
 2240SOL    EPW 9406   2.348   2.031   0.937
 2241SOL      O 9407   2.479   3.560   1.438
 2241SOL     H1 9408   2.386   3.548   1.458
 2241SOL     H2 9409   2.524   3.494   1.491
 2241SOL    EPW 9410   2.474   3.552   1.446
 2242SOL      O 9411   3.574   2.354   1.063
 2242SOL     H1 9412   3.484   2.386   1.073
 2242SOL     H2 9413   3.620   2.425   1.018
 2242SOL    EPW 9414   3.569   2.365   1.059
 2243SOL      O 9415   3.763   2.961   1.080
 2243SOL     H1 9416   3.733   2.912   1.003
 2243SOL     H2 9417   3.708   3.039   1.081
 2243SOL    EPW 9418   3.754   2.964   1.072
 2244SOL      O 9419   3.149   2.850   0.985
 2244SOL     H1 9420   3.180   2.865   1.074
 2244SOL     H2 9421   3.229   2.845   0.932
 2244SOL    EPW 9422   3.161   2.851   0.989
 2245SOL      O 9423   3.180   2.388   1.296
 2245SOL     H1 9424   3.222   2.416   1.215
 2245SOL     H2 9425   3.234   2.316   1.328
 2245SOL    EPW 9426   3.190   2.383   1.291
 2246SOL      O 9427   3.706   2.528   1.797
 2246SOL     H1 9428   3.706   2.459   1.865
 2246SOL     H2 9429   3.712   2.480   1.715
 2246SOL    EPW 9430   3.706   2.515   1.796
 2247SOL      O 9431   3.272   2.856   1.848
 2247SOL     H1 9432   3.357   2.819   1.870
 2247SOL     H2 9433   3.254   2.919   1.918
 2247SOL    EPW 9434   3.279   2.859   1.857
 2248SOL      O 9435   3.191   2.701   0.521
 2248SOL     H1 9436   3.171   2.781   0.570
 2248SOL     H2 9437   3.269   2.666   0.563
 2248SOL    EPW 9438   3.197   2.706   0.531
 2249SOL      O 9439   2.322   3.166   1.206
 2249SOL     H1 9440   2.321   3.183   1.300
 2249SOL     H2 9441   2.291   3.247   1.166
 2249SOL    EPW 9442   2.319   3.176   1.212
 2250SOL      O 9443   2.584   2.135   1.059
 2250SOL     H1 9444   2.561   2.103   1.147
 2250SOL     H2 9445   2.518   2.096   1.002
 2250SOL    EPW 9446   2.575   2.127   1.063
 2251SOL      O 9447   2.464   3.550   1.161
 2251SOL     H1 9448   2.519   3.611   1.111
 2251SOL     H2 9449   2.487   3.565   1.252
 2251SOL    EPW 9450   2.472   3.558   1.165
 2252SOL      O 9451   3.338   3.205   1.423
 2252SOL     H1 9452   3.315   3.143   1.493
 2252SOL     H2 9453   3.393   3.153   1.363
 2252SOL    EPW 9454   3.342   3.193   1.424
 2253SOL      O 9455   2.422   2.902   1.532
 2253SOL     H1 9456   2.482   2.924   1.461
 2253SOL     H2 9457   2.439   2.968   1.599
 2253SOL    EPW 9458   2.430   2.911   1.531
 2254SOL      O 9459   2.623   2.971   1.365
 2254SOL     H1 9460   2.684   2.935   1.430
 2254SOL     H2 9461   2.640   2.920   1.286
 2254SOL    EPW 9462   2.631   2.962   1.363
 2255SOL      O 9463   2.598   2.316   0.182
 2255SOL     H1 9464   2.687   2.335   0.151
 2255SOL     H2 9465   2.581   2.227   0.151
 2255SOL    EPW 9466   2.606   2.309   0.175
 2256SOL      O 9467   3.417   3.455   1.543
 2256SOL     H1 9468   3.482   3.451   1.612
 2256SOL     H2 9469   3.414   3.366   1.507
 2256SOL    EPW 9470   3.424   3.445   1.546
 2257SOL      O 9471   3.117   1.851   1.095
 2257SOL     H1 9472   3.162   1.875   1.014
 2257SOL     H2 9473   3.165   1.898   1.163
 2257SOL    EPW 9474   3.127   1.859   1.093
 2258SOL      O 9475   1.950   2.904   0.352
 2258SOL     H1 9476   2.008   2.980   0.348
 2258SOL     H2 9477   2.004   2.834   0.387
 2258SOL    EPW 9478   1.962   2.905   0.355
 2259SOL      O 9479   2.451   3.212   0.172
 2259SOL     H1 9480   2.416   3.229   0.260
 2259SOL     H2 9481   2.375   3.183   0.121
 2259SOL    EPW 9482   2.439   3.211   0.176
 2260SOL      O 9483   2.270   3.604   0.890
 2260SOL     H1 9484   2.275   3.519   0.934
 2260SOL     H2 9485   2.297   3.585   0.800
 2260SOL    EPW 9486   2.273   3.593   0.885
 2261SOL      O 9487   2.879   3.029   1.134
 2261SOL     H1 9488   2.803   2.970   1.129
 2261SOL     H2 9489   2.911   3.032   1.044
 2261SOL    EPW 9490   2.874   3.023   1.124
 2262SOL      O 9491   1.951   3.407   1.395
 2262SOL     H1 9492   1.941   3.357   1.476
 2262SOL     H2 9493   1.865   3.446   1.381
 2262SOL    EPW 9494   1.941   3.406   1.402
 2263SOL      O 9495   2.818   2.205   0.944
 2263SOL     H1 9496   2.737   2.176   0.986
 2263SOL     H2 9497   2.855   2.269   1.005
 2263SOL    EPW 9498   2.813   2.208   0.955
 2264SOL      O 9499   2.517   2.631   1.552
 2264SOL     H1 9500   2.492   2.722   1.536
 2264SOL     H2 9501   2.538   2.629   1.646
 2264SOL    EPW 9502   2.516   2.641   1.560
 2265SOL      O 9503   2.274   3.173   1.869
 2265SOL     H1 9504   2.341   3.165   1.801
 2265SOL     H2 9505   2.271   3.087   1.910
 2265SOL    EPW 9506   2.281   3.163   1.866
 2266SOL      O 9507   3.302   1.963   1.271
 2266SOL     H1 9508   3.362   1.968   1.196
 2266SOL     H2 9509   3.337   1.891   1.323
 2266SOL    EPW 9510   3.312   1.956   1.268
 2267SOL      O 9511   3.575   3.503   1.761
 2267SOL     H1 9512   3.546   3.483   1.850
 2267SOL     H2 9513   3.655   3.554   1.773
 2267SOL    EPW 9514   3.580   3.506   1.772
 2268SOL      O 9515   2.271   2.365   0.750
 2268SOL     H1 9516   2.332   2.307   0.705
 2268SOL     H2 9517   2.273   2.336   0.841
 2268SOL    EPW 9518   2.278   2.356   0.755
 2269SOL      O 9519   1.915   3.670   1.863
 2269SOL     H1 9520   1.966   3.658   1.783
 2269SOL     H2 9521   1.905   3.765   1.872
 2269SOL    EPW 9522   1.919   3.679   1.856
 2270SOL      O 9523   2.627   3.418   0.845
 2270SOL     H1 9524   2.588   3.362   0.912
 2270SOL     H2 9525   2.622   3.506   0.882
 2270SOL    EPW 9526   2.622   3.422   0.856
 2271SOL      O 9527   2.899   2.228   0.484
 2271SOL     H1 9528   2.926   2.155   0.429
 2271SOL     H2 9529   2.806   2.240   0.464
 2271SOL    EPW 9530   2.892   2.221   0.476
 2272SOL      O 9531   1.999   1.844   0.357
 2272SOL     H1 9532   2.044   1.908   0.302
 2272SOL     H2 9533   1.907   1.850   0.332
 2272SOL    EPW 9534   1.994   1.851   0.349
 2273SOL      O 9535   1.879   2.402   1.564
 2273SOL     H1 9536   1.936   2.458   1.511
 2273SOL     H2 9537   1.797   2.398   1.516
 2273SOL    EPW 9538   1.876   2.407   1.553
 2274SOL      O 9539   3.603   3.307   0.547
 2274SOL     H1 9540   3.587   3.235   0.609
 2274SOL     H2 9541   3.696   3.326   0.556
 2274SOL    EPW 9542   3.611   3.301   0.555
 2275SOL      O 9543   3.163   2.996   0.590
 2275SOL     H1 9544   3.127   3.078   0.624
 2275SOL     H2 9545   3.116   2.981   0.508
 2275SOL    EPW 9546   3.154   3.003   0.585
 2276SOL      O 9547   2.853   1.904   0.573
 2276SOL     H1 9548   2.889   1.961   0.641
 2276SOL     H2 9549   2.910   1.917   0.497
 2276SOL    EPW 9550   2.863   1.912   0.572
 2277SOL      O 9551   3.658   2.799   0.887
 2277SOL     H1 9552   3.659   2.805   0.791
 2277SOL     H2 9553   3.678   2.707   0.905
 2277SOL    EPW 9554   3.660   2.790   0.879
 2278SOL      O 9555   2.085   2.573   1.465
 2278SOL     H1 9556   2.114   2.658   1.432
 2278SOL     H2 9557   2.166   2.526   1.484
 2278SOL    EPW 9558   2.097   2.577   1.464
 2279SOL      O 9559   3.634   2.781   0.616
 2279SOL     H1 9560   3.712   2.797   0.563
 2279SOL     H2 9561   3.568   2.841   0.581
 2279SOL    EPW 9562   3.635   2.789   0.607
 2280SOL      O 9563   2.064   2.641   1.730
 2280SOL     H1 9564   1.979   2.616   1.766
 2280SOL     H2 9565   2.057   2.621   1.637
 2280SOL    EPW 9566   2.054   2.636   1.724
 2281SOL      O 9567   2.279   1.895   1.174
 2281SOL     H1 9568   2.340   1.951   1.222
 2281SOL     H2 9569   2.326   1.813   1.163
 2281SOL    EPW 9570   2.291   1.893   1.178
 2282SOL      O 9571   2.257   2.560   0.408
 2282SOL     H1 9572   2.315   2.545   0.334
 2282SOL     H2 9573   2.316   2.570   0.483
 2282SOL    EPW 9574   2.269   2.560   0.408
 2283SOL      O 9575   3.055   2.492   1.515
 2283SOL     H1 9576   3.087   2.455   1.432
 2283SOL     H2 9577   2.978   2.543   1.490
 2283SOL    EPW 9578   3.050   2.493   1.503
 2284SOL      O 9579   2.035   2.289   0.628
 2284SOL     H1 9580   2.114   2.315   0.676
 2284SOL     H2 9581   2.046   2.195   0.612
 2284SOL    EPW 9582   2.044   2.282   0.631
 2285SOL      O 9583   3.547   3.661   0.212
 2285SOL     H1 9584   3.627   3.695   0.252
 2285SOL     H2 9585   3.479   3.724   0.236
 2285SOL    EPW 9586   3.548   3.671   0.219
 2286SOL      O 9587   2.704   2.575   1.189
 2286SOL     H1 9588   2.628   2.518   1.177
 2286SOL     H2 9589   2.721   2.573   1.283
 2286SOL    EPW 9590   2.697   2.569   1.198
 2287SOL      O 9591   3.288   3.699   1.542
 2287SOL     H1 9592   3.331   3.613   1.547
 2287SOL     H2 9593   3.329   3.750   1.612
 2287SOL    EPW 9594   3.297   3.695   1.550
 2288SOL      O 9595   2.467   2.052   1.291
 2288SOL     H1 9596   2.412   2.127   1.314
 2288SOL     H2 9597   2.509   2.026   1.373
 2288SOL    EPW 9598   2.466   2.058   1.302
 2289SOL      O 9599   3.264   1.930   0.874
 2289SOL     H1 9600   3.348   1.936   0.920
 2289SOL     H2 9601   3.279   1.870   0.802
 2289SOL    EPW 9602   3.274   1.924   0.871
 2290SOL      O 9603   3.408   2.620   0.664
 2290SOL     H1 9604   3.500   2.645   0.648
 2290SOL     H2 9605   3.414   2.537   0.710
 2290SOL    EPW 9606   3.419   2.614   0.667
 2291SOL      O 9607   2.427   3.693   0.159
 2291SOL     H1 9608   2.334   3.718   0.158
 2291SOL     H2 9609   2.443   3.666   0.249
 2291SOL    EPW 9610   2.419   3.693   0.169
 2292SOL      O 9611   2.837   2.644   1.432
 2292SOL     H1 9612   2.887   2.706   1.379
 2292SOL     H2 9613   2.796   2.699   1.500
 2292SOL    EPW 9614   2.838   2.657   1.434
 2293SOL      O 9615   2.209   2.869   1.723
 2293SOL     H1 9616   2.155   2.791   1.727
 2293SOL     H2 9617   2.276   2.849   1.657
 2293SOL    EPW 9618   2.211   2.859   1.717
 2294SOL      O 9619   2.427   3.273   0.681
 2294SOL     H1 9620   2.489   3.201   0.697
 2294SOL     H2 9621   2.476   3.352   0.705
 2294SOL    EPW 9622   2.439   3.273   0.685
 2295SOL      O 9623   2.683   2.430   0.842
 2295SOL     H1 9624   2.622   2.441   0.915
 2295SOL     H2 9625   2.728   2.347   0.861
 2295SOL    EPW 9626   2.682   2.422   0.852
 2296SOL      O 9627   3.616   1.979   1.441
 2296SOL     H1 9628   3.650   2.042   1.505
 2296SOL     H2 9629   3.636   2.019   1.356
 2296SOL    EPW 9630   3.621   1.990   1.438
 2297SOL      O 9631   2.952   3.006   0.869
 2297SOL     H1 9632   3.031   2.961   0.899
 2297SOL     H2 9633   2.904   2.940   0.820
 2297SOL    EPW 9634   2.955   2.994   0.867
 2298SOL      O 9635   2.782   2.882   0.273
 2298SOL     H1 9636   2.788   2.793   0.239
 2298SOL     H2 9637   2.794   2.938   0.197
 2298SOL    EPW 9638   2.784   2.878   0.262
 2299SOL      O 9639   3.229   3.192   0.972
 2299SOL     H1 9640   3.215   3.272   0.922
 2299SOL     H2 9641   3.203   3.214   1.061
 2299SOL    EPW 9642   3.225   3.203   0.976
 2300SOL      O 9643   3.150   3.255   1.231
 2300SOL     H1 9644   3.216   3.236   1.298
 2300SOL     H2 9645   3.094   3.177   1.230
 2300SOL    EPW 9646   3.151   3.245   1.238
 2301SOL      O 9647   2.065   2.644   0.952
 2301SOL     H1 9648   2.062   2.601   1.038
 2301SOL     H2 9649   2.151   2.686   0.950
 2301SOL    EPW 9650   2.074   2.644   0.961
 2302SOL      O 9651   3.234   3.365   1.741
 2302SOL     H1 9652   3.213   3.436   1.802
 2302SOL     H2 9653   3.283   3.408   1.670
 2302SOL    EPW 9654   3.237   3.377   1.740
 2303SOL      O 9655   2.706   2.576   0.437
 2303SOL     H1 9656   2.724   2.594   0.344
 2303SOL     H2 9657   2.793   2.557   0.474
 2303SOL    EPW 9658   2.717   2.576   0.431
 2304SOL      O 9659   2.050   2.234   1.708
 2304SOL     H1 9660   1.989   2.284   1.653
 2304SOL     H2 9661   2.108   2.301   1.745
 2304SOL    EPW 9662   2.050   2.247   1.706
 2305SOL      O 9663   3.229   2.877   1.247
 2305SOL     H1 9664   3.275   2.834   1.319
 2305SOL     H2 9665   3.136   2.865   1.269
 2305SOL    EPW 9666   3.224   2.871   1.257
 2306SOL      O 9667   2.743   3.599   0.487
 2306SOL     H1 9668   2.783   3.676   0.529
 2306SOL     H2 9669   2.775   3.525   0.539
 2306SOL    EPW 9670   2.751   3.599   0.497
 2307SOL      O 9671   3.471   1.953   1.057
 2307SOL     H1 9672   3.489   1.862   1.080
 2307SOL     H2 9673   3.545   2.001   1.094
 2307SOL    EPW 9674   3.481   1.949   1.064
 2308SOL      O 9675   2.007   1.892   1.153
 2308SOL     H1 9676   2.002   1.880   1.058
 2308SOL     H2 9677   2.100   1.904   1.171
 2308SOL    EPW 9678   2.016   1.892   1.145
 2309SOL      O 9679   3.597   3.104   0.735
 2309SOL     H1 9680   3.551   3.047   0.674
 2309SOL     H2 9681   3.689   3.078   0.725
 2309SOL    EPW 9682   3.602   3.095   0.727
 2310SOL      O 9683   2.294   3.212   1.480
 2310SOL     H1 9684   2.220   3.157   1.507
 2310SOL     H2 9685   2.363   3.192   1.543
 2310SOL    EPW 9686   2.294   3.204   1.489
 2311SOL      O 9687   2.142   2.011   0.206
 2311SOL     H1 9688   2.112   2.071   0.137
 2311SOL     H2 9689   2.223   1.973   0.171
 2311SOL    EPW 9690   2.148   2.013   0.195
 2312SOL      O 9691   3.321   2.479   1.072
 2312SOL     H1 9692   3.243   2.522   1.037
 2312SOL     H2 9693   3.364   2.546   1.125
 2312SOL    EPW 9694   3.318   2.490   1.074
 2313SOL      O 9695   2.034   2.196   0.035
 2313SOL     H1 9696   1.957   2.237   0.074
 2313SOL     H2 9697   4.943   5.104   4.105
 2313SOL    EPW 9698   2.023   2.198   0.030
 2314SOL      O 9699   1.927   3.249   0.174
 2314SOL     H1 9700   1.937   3.344   0.178
 2314SOL     H2 9701   1.924   3.229   0.081
 2314SOL    EPW 9702   1.928   3.257   0.165
 2315SOL      O 9703   3.632   2.727   2.120
 2315SOL     H1 9704   3.672   2.654   2.166
 2315SOL     H2 9705   3.549   2.742   2.166
 2315SOL    EPW 9706   3.627   2.721   2.130
 2316SOL      O 9707   3.476   2.609   3.122
 2316SOL     H1 9708   3.433   2.676   3.175
 2316SOL     H2 9709   3.558   2.649   3.095
 2316SOL    EPW 9710   3.480   2.620   3.125
 2317SOL      O 9711   2.400   2.887   2.322
 2317SOL     H1 9712   2.493   2.878   2.343
 2317SOL     H2 9713   2.389   2.980   2.302
 2317SOL    EPW 9714   2.408   2.896   2.322
 2318SOL      O 9715   3.541   3.535   2.583
 2318SOL     H1 9716   3.536   3.495   2.669
 2318SOL     H2 9717   3.582   3.469   2.528
 2318SOL    EPW 9718   3.545   3.524   2.586
 2319SOL      O 9719   2.880   3.410   3.491
 2319SOL     H1 9720   2.908   3.493   3.453
 2319SOL     H2 9721   2.916   3.343   3.433
 2319SOL    EPW 9722   2.887   3.411   3.481
 2320SOL      O 9723   3.384   3.098   3.071
 2320SOL     H1 9724   3.290   3.110   3.054
 2320SOL     H2 9725   3.425   3.113   2.986
 2320SOL    EPW 9726   3.378   3.101   3.060
 2321SOL      O 9727   2.673   2.317   2.307
 2321SOL     H1 9728   2.677   2.411   2.326
 2321SOL     H2 9729   2.647   2.312   2.216
 2321SOL    EPW 9730   2.671   2.326   2.300
 2322SOL      O 9731   2.171   2.399   2.282
 2322SOL     H1 9732   2.232   2.471   2.266
 2322SOL     H2 9733   2.158   2.399   2.377
 2322SOL    EPW 9734   2.176   2.407   2.290
 2323SOL      O 9735   2.204   2.797   3.237
 2323SOL     H1 9736   2.278   2.846   3.273
 2323SOL     H2 9737   2.186   2.838   3.153
 2323SOL    EPW 9738   2.210   2.806   3.232
 2324SOL      O 9739   2.501   2.116   2.377
 2324SOL     H1 9740   2.552   2.196   2.364
 2324SOL     H2 9741   2.428   2.124   2.315
 2324SOL    EPW 9742   2.498   2.125   2.369
 2325SOL      O 9743   2.623   3.024   2.601
 2325SOL     H1 9744   2.705   3.042   2.648
 2325SOL     H2 9745   2.652   2.993   2.515
 2325SOL    EPW 9746   2.635   3.023   2.596
 2326SOL      O 9747   2.613   3.348   3.440
 2326SOL     H1 9748   2.695   3.377   3.478
 2326SOL     H2 9749   2.636   3.318   3.352
 2326SOL    EPW 9750   2.624   3.348   3.435
 2327SOL      O 9751   2.395   2.575   2.520
 2327SOL     H1 9752   2.383   2.499   2.576
 2327SOL     H2 9753   2.449   2.634   2.572
 2327SOL    EPW 9754   2.399   2.573   2.531
 2328SOL      O 9755   2.706   3.265   3.199
 2328SOL     H1 9756   2.700   3.311   3.115
 2328SOL     H2 9757   2.673   3.177   3.181
 2328SOL    EPW 9758   2.702   3.261   3.188
 2329SOL      O 9759   2.545   2.376   2.936
 2329SOL     H1 9760   2.451   2.368   2.947
 2329SOL     H2 9761   2.578   2.287   2.950
 2329SOL    EPW 9762   2.539   2.365   2.939
 2330SOL      O 9763   2.250   2.765   2.776
 2330SOL     H1 9764   2.219   2.806   2.695
 2330SOL     H2 9765   2.227   2.828   2.845
 2330SOL    EPW 9766   2.244   2.776   2.774
 2331SOL      O 9767   2.035   3.702   2.756
 2331SOL     H1 9768   2.129   3.687   2.758
 2331SOL     H2 9769   1.996   3.615   2.754
 2331SOL    EPW 9770   2.041   3.691   2.756
 2332SOL      O 9771   3.232   3.047   2.045
 2332SOL     H1 9772   3.145   3.086   2.038
 2332SOL     H2 9773   3.290   3.110   2.003
 2332SOL    EPW 9774   3.229   3.058   2.040
 2333SOL      O 9775   2.260   3.170   2.706
 2333SOL     H1 9776   2.252   3.241   2.770
 2333SOL     H2 9777   2.328   3.200   2.645
 2333SOL    EPW 9778   2.266   3.181   2.706
 2334SOL      O 9779   2.780   2.765   2.576
 2334SOL     H1 9780   2.697   2.749   2.621
 2334SOL     H2 9781   2.832   2.686   2.593
 2334SOL    EPW 9782   2.777   2.755   2.583
 2335SOL      O 9783   2.212   3.467   3.366
 2335SOL     H1 9784   2.131   3.462   3.315
 2335SOL     H2 9785   2.245   3.377   3.366
 2335SOL    EPW 9786   2.207   3.457   3.360
 2336SOL      O 9787   2.817   3.123   2.261
 2336SOL     H1 9788   2.815   3.194   2.325
 2336SOL     H2 9789   2.761   3.055   2.299
 2336SOL    EPW 9790   2.811   3.123   2.272
 2337SOL      O 9791   3.663   2.200   2.671
 2337SOL     H1 9792   3.621   2.244   2.746
 2337SOL     H2 9793   3.631   2.110   2.675
 2337SOL    EPW 9794   3.655   2.195   2.679
 2338SOL      O 9795   2.274   2.146   2.226
 2338SOL     H1 9796   2.252   2.119   2.138
 2338SOL     H2 9797   2.238   2.235   2.234
 2338SOL    EPW 9798   2.268   2.153   2.218
 2339SOL      O 9799   2.116   3.116   2.296
 2339SOL     H1 9800   2.077   3.184   2.241
 2339SOL     H2 9801   2.108   3.036   2.244
 2339SOL    EPW 9802   2.111   3.115   2.284
 2340SOL      O 9803   2.819   3.572   2.081
 2340SOL     H1 9804   2.779   3.571   2.168
 2340SOL     H2 9805   2.755   3.527   2.026
 2340SOL    EPW 9806   2.808   3.567   2.085
 2341SOL      O 9807   3.679   2.330   1.995
 2341SOL     H1 9808   3.584   2.327   2.006
 2341SOL     H2 9809   3.711   2.378   2.071
 2341SOL    EPW 9810   3.672   2.335   2.004
 2342SOL      O 9811   3.513   2.979   2.372
 2342SOL     H1 9812   3.422   3.006   2.365
 2342SOL     H2 9813   3.561   3.040   2.316
 2342SOL    EPW 9814   3.509   2.988   2.365
 2343SOL      O 9815   3.318   2.574   3.468
 2343SOL     H1 9816   3.378   2.514   3.423
 2343SOL     H2 9817   3.232   2.555   3.430
 2343SOL    EPW 9818   3.315   2.566   3.459
 2344SOL      O 9819   2.042   3.474   3.012
 2344SOL     H1 9820   2.013   3.436   3.094
 2344SOL     H2 9821   2.021   3.567   3.019
 2344SOL    EPW 9822   2.037   3.480   3.021
 2345SOL      O 9823   3.036   3.001   3.389
 2345SOL     H1 9824   3.017   3.089   3.359
 2345SOL     H2 9825   3.127   3.004   3.418
 2345SOL    EPW 9826   3.044   3.010   3.389
 2346SOL      O 9827   2.794   2.386   3.657
 2346SOL     H1 9828   2.876   2.366   3.611
 2346SOL     H2 9829   2.734   2.317   3.631
 2346SOL    EPW 9830   2.797   2.377   3.649
 2347SOL      O 9831   3.366   2.869   2.717
 2347SOL     H1 9832   3.372   2.789   2.665
 2347SOL     H2 9833   3.447   2.870   2.768
 2347SOL    EPW 9834   3.375   2.861   2.717
 2348SOL      O 9835   2.978   2.497   2.354
 2348SOL     H1 9836   3.066   2.534   2.347
 2348SOL     H2 9837   2.987   2.407   2.322
 2348SOL    EPW 9838   2.988   2.491   2.349
 2349SOL      O 9839   3.688   3.160   2.243
 2349SOL     H1 9840   3.671   3.212   2.321
 2349SOL     H2 9841   3.765   3.201   2.203
 2349SOL    EPW 9842   3.694   3.170   2.247
 2350SOL      O 9843   2.619   2.188   3.574
 2350SOL     H1 9844   2.626   2.110   3.518
 2350SOL     H2 9845   2.608   2.152   3.662
 2350SOL    EPW 9846   2.619   2.176   3.577
 2351SOL      O 9847   2.325   3.584   2.523
 2351SOL     H1 9848   2.317   3.679   2.519
 2351SOL     H2 9849   2.277   3.552   2.446
 2351SOL    EPW 9850   2.319   3.591   2.514
 2352SOL      O 9851   3.644   1.929   2.626
 2352SOL     H1 9852   3.731   1.901   2.656
 2352SOL     H2 9853   3.602   1.848   2.598
 2352SOL    EPW 9854   3.649   1.917   2.627
 2353SOL      O 9855   2.064   3.658   2.103
 2353SOL     H1 9856   2.127   3.720   2.068
 2353SOL     H2 9857   2.010   3.633   2.027
 2353SOL    EPW 9858   2.065   3.662   2.091
 2354SOL      O 9859   2.844   1.877   2.956
 2354SOL     H1 9860   2.805   1.957   2.920
 2354SOL     H2 9861   2.937   1.887   2.940
 2354SOL    EPW 9862   2.849   1.887   2.951
 2355SOL      O 9863   3.460   3.468   2.010
 2355SOL     H1 9864   3.505   3.543   2.049
 2355SOL     H2 9865   3.371   3.500   1.992
 2355SOL    EPW 9866   3.455   3.480   2.012
 2356SOL      O 9867   2.820   2.538   2.015
 2356SOL     H1 9868   2.816   2.512   1.922
 2356SOL     H2 9869   2.911   2.567   2.027
 2356SOL    EPW 9870   2.830   2.538   2.006
 2357SOL      O 9871   3.438   2.450   2.319
 2357SOL     H1 9872   3.508   2.441   2.384
 2357SOL     H2 9873   3.397   2.534   2.339
 2357SOL    EPW 9874   3.441   2.458   2.328
 2358SOL      O 9875   2.787   2.890   3.447
 2358SOL     H1 9876   2.764   2.915   3.537
 2358SOL     H2 9877   2.875   2.924   3.435
 2358SOL    EPW 9878   2.794   2.896   3.455
 2359SOL      O 9879   2.850   1.947   3.221
 2359SOL     H1 9880   2.841   1.921   3.129
 2359SOL     H2 9881   2.855   2.043   3.219
 2359SOL    EPW 9882   2.850   1.955   3.211
 2360SOL      O 9883   2.899   2.419   2.976
 2360SOL     H1 9884   2.976   2.468   2.948
 2360SOL     H2 9885   2.832   2.485   2.991
 2360SOL    EPW 9886   2.900   2.431   2.974
 2361SOL      O 9887   3.503   2.424   3.323
 2361SOL     H1 9888   3.459   2.344   3.293
 2361SOL     H2 9889   3.500   2.483   3.247
 2361SOL    EPW 9890   3.498   2.422   3.312
 2362SOL      O 9891   3.601   3.554   3.235
 2362SOL     H1 9892   3.540   3.531   3.306
 2362SOL     H2 9893   3.619   3.647   3.249
 2362SOL    EPW 9894   3.596   3.562   3.244
 2363SOL      O 9895   2.928   2.196   3.466
 2363SOL     H1 9896   2.891   2.204   3.379
 2363SOL     H2 9897   2.900   2.110   3.497
 2363SOL    EPW 9898   2.921   2.188   3.460
 2364SOL      O 9899   3.311   2.997   3.474
 2364SOL     H1 9900   3.390   3.039   3.506
 2364SOL     H2 9901   3.283   2.940   3.546
 2364SOL    EPW 9902   3.316   2.996   3.485
 2365SOL      O 9903   3.663   2.417   2.494
 2365SOL     H1 9904   3.758   2.416   2.498
 2365SOL     H2 9905   3.635   2.346   2.551
 2365SOL    EPW 9906   3.670   2.409   2.500
 2366SOL      O 9907   2.086   2.110   2.564
 2366SOL     H1 9908   2.069   2.062   2.483
 2366SOL     H2 9909   2.005   2.104   2.614
 2366SOL    EPW 9910   2.076   2.104   2.561
 2367SOL      O 9911   2.985   3.172   2.051
 2367SOL     H1 9912   2.923   3.153   2.121
 2367SOL     H2 9913   2.930   3.202   1.978
 2367SOL    EPW 9914   2.973   3.173   2.051
 2368SOL      O 9915   2.007   2.253   2.939
 2368SOL     H1 9916   1.980   2.336   2.977
 2368SOL     H2 9917   1.950   2.242   2.863
 2368SOL    EPW 9918   1.998   2.260   2.935
 2369SOL      O 9919   2.440   3.589   2.187
 2369SOL     H1 9920   2.372   3.542   2.234
 2369SOL     H2 9921   2.518   3.581   2.243
 2369SOL    EPW 9922   2.441   3.583   2.198
 2370SOL      O 9923   3.540   3.108   3.582
 2370SOL     H1 9924   3.591   3.031   3.608
 2370SOL     H2 9925   3.504   3.143   3.663
 2370SOL    EPW 9926   3.542   3.104   3.593
 2371SOL      O 9927   2.568   2.987   1.941
 2371SOL     H1 9928   2.481   2.952   1.958
 2371SOL     H2 9929   2.569   3.071   1.988
 2371SOL    EPW 9930   2.559   2.992   1.948
 2372SOL      O 9931   3.710   2.732   3.060
 2372SOL     H1 9932   3.694   2.783   2.980
 2372SOL     H2 9933   3.727   2.799   3.127
 2372SOL    EPW 9934   3.710   2.745   3.059
 2373SOL      O 9935   3.532   3.411   2.820
 2373SOL     H1 9936   3.491   3.459   2.892
 2373SOL     H2 9937   3.491   3.324   2.823
 2373SOL    EPW 9938   3.523   3.407   2.828
 2374SOL      O 9939   3.204   3.545   1.951
 2374SOL     H1 9940   3.148   3.501   2.014
 2374SOL     H2 9941   3.211   3.635   1.983
 2374SOL    EPW 9942   3.199   3.550   1.961
 2375SOL      O 9943   2.007   2.515   3.050
 2375SOL     H1 9944   2.054   2.513   3.133
 2375SOL     H2 9945   1.948   2.590   3.057
 2375SOL    EPW 9946   2.006   2.522   3.060
 2376SOL      O 9947   3.392   3.220   1.906
 2376SOL     H1 9948   3.331   3.264   1.847
 2376SOL     H2 9949   3.432   3.290   1.957
 2376SOL    EPW 9950   3.390   3.232   1.905
 2377SOL      O 9951   2.679   2.063   1.923
 2377SOL     H1 9952   2.618   1.990   1.931
 2377SOL     H2 9953   2.765   2.024   1.937
 2377SOL    EPW 9954   2.682   2.051   1.925
 2378SOL      O 9955   2.057   3.655   3.510
 2378SOL     H1 9956   2.004   3.693   3.440
 2378SOL     H2 9957   2.108   3.586   3.467
 2378SOL    EPW 9958   2.057   3.652   3.498
 2379SOL      O 9959   2.154   2.924   2.995
 2379SOL     H1 9960   2.198   3.007   3.014
 2379SOL     H2 9961   2.062   2.948   2.982
 2379SOL    EPW 9962   2.149   2.936   2.995
 2380SOL      O 9963   2.639   2.874   3.004
 2380SOL     H1 9964   2.648   2.780   2.988
 2380SOL     H2 9965   2.569   2.901   2.944
 2380SOL    EPW 9966   2.633   2.867   2.996
 2381SOL      O 9967   1.986   2.732   2.334
 2381SOL     H1 9968   2.061   2.735   2.394
 2381SOL     H2 9969   1.979   2.640   2.310
 2381SOL    EPW 9970   1.993   2.723   2.338
 2382SOL      O 9971   2.236   2.416   3.651
 2382SOL     H1 9972   2.185   2.496   3.647
 2382SOL     H2 9973   2.296   2.430   3.725
 2382SOL    EPW 9974   2.237   2.426   3.659
 2383SOL      O 9975   2.637   1.965   3.408
 2383SOL     H1 9976   2.590   1.884   3.425
 2383SOL     H2 9977   2.718   1.937   3.365
 2383SOL    EPW 9978   2.641   1.953   3.405
 2384SOL      O 9979   2.328   2.438   3.392
 2384SOL     H1 9980   2.401   2.499   3.400
 2384SOL     H2 9981   2.305   2.416   3.483
 2384SOL    EPW 9982   2.334   2.442   3.403
 2385SOL      O 9983   2.619   3.662   2.727
 2385SOL     H1 9984   2.690   3.679   2.788
 2385SOL     H2 9985   2.619   3.737   2.668
 2385SOL    EPW 9986   2.627   3.672   2.727
 2386SOL      O 9987   3.182   1.983   3.647
 2386SOL     H1 9988   3.262   1.931   3.658
 2386SOL     H2 9989   3.179   2.038   3.725
 2386SOL    EPW 9990   3.190   1.983   3.657
 2387SOL      O 9991   1.995   3.397   2.493
 2387SOL     H1 9992   1.981   3.433   2.580
 2387SOL     H2 9993   2.012   3.304   2.508
 2387SOL    EPW 9994   1.995   3.391   2.504
 2388SOL      O 9995   2.817   3.326   2.457
 2388SOL     H1 9996   2.908   3.305   2.480
 2388SOL     H2 9997   2.775   3.345   2.541
 2388SOL    EPW 9998   2.822   3.326   2.468
 2389SOL      O 9999   3.686   2.586   2.727
 2389SOL     H110000   3.778   2.574   2.751
 2389SOL     H210001   3.679   2.550   2.639
 2389SOL    EPW10002   3.695   2.581   2.720
 2390SOL      O10003   3.499   2.692   3.751
 2390SOL     H110004   3.569   2.633   3.724
 2390SOL     H210005   3.519   2.712   3.842
 2390SOL    EPW10006   3.509   2.688   3.758
 2391SOL      O10007   2.623   3.446   1.936
 2391SOL     H110008   2.571   3.526   1.926
 2391SOL     H210009   2.567   3.386   1.984
 2391SOL    EPW10010   2.612   3.448   1.940
 2392SOL      O10011   3.091   2.088   2.123
 2392SOL     H110012   3.041   2.028   2.067
 2392SOL     H210013   3.026   2.126   2.182
 2392SOL    EPW10014   3.079   2.086   2.123
 2393SOL      O10015   2.833   2.227   3.208
 2393SOL     H110016   2.760   2.277   3.245
 2393SOL     H210017   2.881   2.290   3.154
 2393SOL    EPW10018   2.831   2.239   3.206
 2394SOL      O10019   3.088   2.574   2.832
 2394SOL     H110020   3.099   2.669   2.838
 2394SOL     H210021   3.035   2.561   2.753
 2394SOL    EPW10022   3.083   2.583   2.824
 2395SOL      O10023   2.516   2.774   2.677
 2395SOL     H110024   2.437   2.776   2.731
 2395SOL     H210025   2.539   2.866   2.665
 2395SOL    EPW10026   2.510   2.784   2.682
 2396SOL      O10027   3.354   2.390   2.652
 2396SOL     H110028   3.281   2.332   2.630
 2396SOL     H210029   3.346   2.402   2.747
 2396SOL    EPW10030   3.345   2.385   2.660
 2397SOL      O10031   2.248   2.078   3.431
 2397SOL     H110032   2.176   2.126   3.470
 2397SOL     H210033   2.282   2.136   3.363
 2397SOL    EPW10034   2.244   2.089   3.428
 2398SOL      O10035   2.920   2.536   2.617
 2398SOL     H110036   2.844   2.482   2.636
 2398SOL     H210037   2.939   2.519   2.525
 2398SOL    EPW10038   2.914   2.529   2.609
 2399SOL      O10039   2.173   3.491   2.299
 2399SOL     H110040   2.130   3.558   2.245
 2399SOL     H210041   2.107   3.469   2.365
 2399SOL    EPW10042   2.161   3.496   2.300
 2400SOL      O10043   2.679   2.896   2.354
 2400SOL     H110044   2.686   2.855   2.268
 2400SOL     H210045   2.719   2.833   2.414
 2400SOL    EPW10046   2.684   2.885   2.351
 2401SOL      O10047   3.280   3.621   2.597
 2401SOL     H110048   3.239   3.580   2.521
 2401SOL     H210049   3.374   3.601   2.587
 2401SOL    EPW10050   3.286   3.615   2.588
 2402SOL      O10051   3.161   2.199   2.541
 2402SOL     H110052   3.200   2.135   2.599
 2402SOL     H210053   3.068   2.202   2.566
 2402SOL    EPW10054   3.155   2.193   2.550
 2403SOL      O10055   2.023   3.131   2.553
 2403SOL     H110056   2.100   3.134   2.610
 2403SOL     H210057   2.058   3.110   2.467
 2403SOL    EPW10058   2.035   3.129   2.550
 2404SOL      O10059   2.474   3.134   3.551
 2404SOL     H110060   2.531   3.205   3.521
 2404SOL     H210061   2.517   3.102   3.631
 2404SOL    EPW10062   2.485   3.139   3.557
 2405SOL      O10063   2.057   3.374   3.711
 2405SOL     H110064   2.137   3.321   3.709
 2405SOL     H210065   2.008   3.346   3.634
 2405SOL    EPW10066   2.060   3.365   3.703
 2406SOL      O10067   3.128   2.348   2.011
 2406SOL     H110068   3.092   2.345   1.922
 2406SOL     H210069   3.118   2.439   2.038
 2406SOL    EPW10070   3.123   2.357   2.004
 2407SOL      O10071   2.925   1.931   1.968
 2407SOL     H110072   2.961   1.889   1.890
 2407SOL     H210073   2.886   1.858   2.017
 2407SOL    EPW10074   2.924   1.918   1.965
 2408SOL      O10075   3.356   2.771   2.149
 2408SOL     H110076   3.325   2.862   2.147
 2408SOL     H210077   3.307   2.732   2.222
 2408SOL    EPW10078   3.347   2.777   2.157
 2409SOL      O10079   2.964   3.243   3.294
 2409SOL     H110080   2.880   3.252   3.250
 2409SOL     H210081   3.023   3.301   3.246
 2409SOL    EPW10082   2.961   3.250   3.284
 2410SOL      O10083   2.262   1.900   3.641
 2410SOL     H110084   2.186   1.852   3.607
 2410SOL     H210085   2.278   1.969   3.577
 2410SOL    EPW10086   2.255   1.903   3.631
 2411SOL      O10087   2.300   3.403   2.967
 2411SOL     H110088   2.357   3.462   3.017
 2411SOL     H210089   2.211   3.431   2.988
 2411SOL    EPW10090   2.297   3.413   2.974
 2412SOL      O10091   3.731   2.928   3.258
 2412SOL     H110092   3.702   2.997   3.198
 2412SOL     H210093   3.663   2.925   3.326
 2412SOL    EPW10094   3.721   2.935   3.259
 2413SOL      O10095   2.679   3.439   2.980
 2413SOL     H110096   2.748   3.504   2.968
 2413SOL     H210097   2.603   3.489   3.011
 2413SOL    EPW10098   2.678   3.451   2.982
 2414SOL      O10099   2.302   2.920   1.972
 2414SOL     H110100   2.233   2.904   2.036
 2414SOL     H210101   2.266   2.889   1.889
 2414SOL    EPW10102   2.291   2.915   1.970
 2415SOL      O10103   3.045   2.835   2.253
 2415SOL     H110104   2.959   2.876   2.244
 2415SOL     H210105   3.103   2.906   2.280
 2415SOL    EPW10106   3.042   2.847   2.255
 2416SOL      O10107   2.433   3.011   2.871
 2416SOL     H110108   2.405   3.056   2.951
 2416SOL     H210109   2.384   3.053   2.801
 2416SOL    EPW10110   2.425   3.020   2.872
 2417SOL      O10111   3.342   2.210   3.255
 2417SOL     H110112   3.296   2.201   3.339
 2417SOL     H210113   3.315   2.133   3.205
 2417SOL    EPW10114   3.334   2.201   3.259
 2418SOL      O10115   3.682   2.063   3.043
 2418SOL     H110116   3.734   2.140   3.024
 2418SOL     H210117   3.741   1.989   3.028
 2418SOL    EPW10118   3.694   2.063   3.040
 2419SOL      O10119   1.924   3.266   3.494
 2419SOL     H110120   1.976   3.188   3.476
 2419SOL     H210121   1.843   3.233   3.532
 2419SOL    EPW10122   1.921   3.255   3.496
 2420SOL      O10123   2.584   1.873   2.661
 2420SOL     H110124   2.496   1.906   2.644
 2420SOL     H210125   2.635   1.901   2.584
 2420SOL    EPW10126   2.580   1.880   2.651
 2421SOL      O10127   2.385   3.161   2.290
 2421SOL     H110128   2.415   3.200   2.372
 2421SOL     H210129   2.289   3.161   2.297
 2421SOL    EPW10130   2.378   3.165   2.299
 2422SOL      O10131   2.973   3.620   3.335
 2422SOL     H110132   2.923   3.678   3.278
 2422SOL     H210133   3.030   3.571   3.276
 2422SOL    EPW10134   2.973   3.621   3.323
 2423SOL      O10135   3.139   3.465   2.781
 2423SOL     H110136   3.189   3.533   2.737
 2423SOL     H210137   3.142   3.490   2.874
 2423SOL    EPW10138   3.144   3.475   2.786
 2424SOL      O10139   3.424   3.548   3.027
 2424SOL     H110140   3.485   3.542   3.100
 2424SOL     H210141   3.340   3.518   3.062
 2424SOL    EPW10142   3.421   3.544   3.038
 2425SOL      O10143   2.619   2.604   3.707
 2425SOL     H110144   2.682   2.534   3.693
 2425SOL     H210145   2.549   2.563   3.759
 2425SOL    EPW10146   2.618   2.592   3.711
 2426SOL      O10147   3.359   2.785   3.300
 2426SOL     H110148   3.348   2.868   3.346
 2426SOL     H210149   3.344   2.718   3.367
 2426SOL    EPW10150   3.356   2.787   3.312
 2427SOL      O10151   2.914   1.940   3.590
 2427SOL     H110152   2.891   1.852   3.558
 2427SOL     H210153   3.009   1.937   3.601
 2427SOL    EPW10154   2.922   1.930   3.588
 2428SOL      O10155   2.410   2.485   1.997
 2428SOL     H110156   2.394   2.530   2.080
 2428SOL     H210157   2.475   2.418   2.019
 2428SOL    EPW10158   2.416   2.483   2.008
 2429SOL      O10159   3.454   3.153   2.806
 2429SOL     H110160   3.505   3.112   2.735
 2429SOL     H210161   3.365   3.159   2.770
 2429SOL    EPW10162   3.450   3.149   2.794
 2430SOL      O10163   2.954   2.858   3.172
 2430SOL     H110164   2.989   2.912   3.243
 2430SOL     H210165   2.929   2.921   3.104
 2430SOL    EPW10166   2.955   2.870   3.172
 2431SOL      O10167   3.405   2.343   2.066
 2431SOL     H110168   3.387   2.410   2.001
 2431SOL     H210169   3.437   2.392   2.142
 2431SOL    EPW10170   3.407   2.355   2.067
 2432SOL      O10171   2.341   1.988   2.561
 2432SOL     H110172   2.391   2.040   2.498
 2432SOL     H210173   2.253   2.026   2.559
 2432SOL    EPW10174   2.337   1.998   2.554
 2433SOL      O10175   2.072   3.046   3.427
 2433SOL     H110176   2.114   2.985   3.489
 2433SOL     H210177   2.006   2.994   3.383
 2433SOL    EPW10178   2.069   3.034   3.429
 2434SOL      O10179   2.633   2.357   3.342
 2434SOL     H110180   2.626   2.449   3.368
 2434SOL     H210181   2.617   2.308   3.423
 2434SOL    EPW10182   2.631   2.362   3.354
 2435SOL      O10183   3.086   2.620   2.056
 2435SOL     H110184   3.155   2.654   1.999
 2435SOL     H210185   3.072   2.688   2.121
 2435SOL    EPW10186   3.092   2.631   2.056
 2436SOL      O10187   2.208   2.773   2.490
 2436SOL     H110188   2.265   2.830   2.438
 2436SOL     H210189   2.262   2.695   2.507
 2436SOL    EPW10190   2.220   2.771   2.486
 2437SOL      O10191   3.236   2.276   2.286
 2437SOL     H110192   3.200   2.245   2.368
 2437SOL     H210193   3.301   2.342   2.312
 2437SOL    EPW10194   3.239   2.280   2.297
 2438SOL      O10195   2.871   2.169   2.560
 2438SOL     H110196   2.807   2.240   2.554
 2438SOL     H210197   2.879   2.152   2.654
 2438SOL    EPW10198   2.865   2.174   2.569
 2439SOL      O10199   2.823   3.278   1.855
 2439SOL     H110200   2.860   3.331   1.784
 2439SOL     H210201   2.751   3.331   1.889
 2439SOL    EPW10202   2.819   3.289   1.851
 2440SOL      O10203   3.672   2.882   3.642
 2440SOL     H110204   3.607   2.814   3.659
 2440SOL     H210205   3.713   2.897   3.727
 2440SOL    EPW10206   3.669   2.876   3.653
 2441SOL      O10207   1.933   3.453   2.761
 2441SOL     H110208   1.974   3.441   2.846
 2441SOL     H210209   1.839   3.453   2.780
 2441SOL    EPW10210   1.927   3.451   2.772
 2442SOL      O10211   1.910   2.473   2.248
 2442SOL     H110212   1.867   2.440   2.328
 2442SOL     H210213   1.999   2.439   2.253
 2442SOL    EPW10214   1.915   2.466   2.257
 2443SOL      O10215   3.455   3.750   3.697
 2443SOL     H110216   3.479   3.660   3.674
 2443SOL     H210217   3.495   3.764   3.783
 2443SOL    EPW10218   3.462   3.742   3.704
 2444SOL      O10219   3.099   3.225   2.473
 2444SOL     H110220   3.125   3.213   2.564
 2444SOL     H210221   3.140   3.307   2.446
 2444SOL    EPW10222   3.106   3.232   2.479
 2445SOL      O10223   2.333   2.223   3.212
 2445SOL     H110224   2.347   2.302   3.263
 2445SOL     H210225   2.307   2.254   3.125
 2445SOL    EPW10226   2.332   2.235   3.208
 2446SOL      O10227   2.279   2.275   2.941
 2446SOL     H110228   2.306   2.189   2.908
 2446SOL     H210229   2.183   2.272   2.940
 2446SOL    EPW10230   2.272   2.265   2.938
 2447SOL      O10231   3.107   2.402   3.626
 2447SOL     H110232   3.144   2.328   3.577
 2447SOL     H210233   3.080   2.464   3.558
 2447SOL    EPW10234   3.108   2.401   3.613
 2448SOL      O10235   3.195   2.193   3.479
 2448SOL     H110236   3.101   2.196   3.459
 2448SOL     H210237   3.205   2.116   3.535
 2448SOL    EPW10238   3.186   2.185   3.483
 2449SOL      O10239   2.373   2.045   2.829
 2449SOL     H110240   2.337   1.964   2.866
 2449SOL     H210241   2.356   2.038   2.735
 2449SOL    EPW10242   2.367   2.035   2.823
 2450SOL      O10243   2.476   3.578   3.368
 2450SOL     H110244   2.384   3.555   3.379
 2450SOL     H210245   2.524   3.501   3.400
 2450SOL    EPW10246   2.471   3.567   3.373
 2451SOL      O10247   3.585   2.371   2.870
 2451SOL     H110248   3.502   2.395   2.911
 2451SOL     H210249   3.616   2.452   2.829
 2451SOL    EPW10250   3.580   2.382   2.870
 2452SOL      O10251   3.757   3.047   2.974
 2452SOL     H110252   3.706   2.996   2.912
 2452SOL     H210253   3.761   3.135   2.935
 2452SOL    EPW10254   3.752   3.051   2.964
 2453SOL      O10255   3.122   2.849   2.828
 2453SOL     H110256   3.146   2.840   2.921
 2453SOL     H210257   3.204   2.868   2.784
 2453SOL    EPW10258   3.133   2.850   2.833
 2454SOL      O10259   3.171   2.397   3.158
 2454SOL     H110260   3.215   2.431   3.080
 2454SOL     H210261   3.229   2.328   3.190
 2454SOL    EPW10262   3.182   2.394   3.153
 2455SOL      O10263   3.703   2.524   3.684
 2455SOL     H110264   3.715   2.453   3.747
 2455SOL     H210265   3.708   2.481   3.598
 2455SOL    EPW10266   3.705   2.512   3.682
 2456SOL      O10267   3.247   2.839   3.690
 2456SOL     H110268   3.333   2.802   3.710
 2456SOL     H210269   3.238   2.912   3.752
 2456SOL    EPW10270   3.256   2.843   3.699
 2457SOL      O10271   3.214   2.642   2.352
 2457SOL     H110272   3.152   2.715   2.345
 2457SOL     H210273   3.257   2.656   2.436
 2457SOL    EPW10274   3.212   2.651   2.361
 2458SOL      O10275   2.303   3.150   3.073
 2458SOL     H110276   2.304   3.164   3.167
 2458SOL     H210277   2.306   3.238   3.035
 2458SOL    EPW10278   2.303   3.161   3.079
 2459SOL      O10279   2.622   2.105   2.934
 2459SOL     H110280   2.602   2.081   3.024
 2459SOL     H210281   2.547   2.075   2.884
 2459SOL    EPW10282   2.612   2.099   2.938
 2460SOL      O10283   2.466   3.587   3.095
 2460SOL     H110284   2.490   3.678   3.080
 2460SOL     H210285   2.474   3.576   3.190
 2460SOL    EPW10286   2.470   3.595   3.104
 2461SOL      O10287   3.414   3.225   3.315
 2461SOL     H110288   3.354   3.164   3.360
 2461SOL     H210289   3.411   3.197   3.224
 2461SOL    EPW10290   3.407   3.215   3.310
 2462SOL      O10291   2.432   2.893   3.408
 2462SOL     H110292   2.491   2.918   3.337
 2462SOL     H210293   2.440   2.963   3.472
 2462SOL    EPW10294   2.439   2.903   3.407
 2463SOL      O10295   2.622   2.993   3.244
 2463SOL     H110296   2.691   2.960   3.302
 2463SOL     H210297   2.633   2.944   3.163
 2463SOL    EPW10298   2.630   2.985   3.242
 2464SOL      O10299   2.624   2.314   2.044
 2464SOL     H110300   2.696   2.372   2.019
 2464SOL     H210301   2.644   2.231   2.000
 2464SOL    EPW10302   2.634   2.311   2.036
 2465SOL      O10303   3.426   3.472   3.431
 2465SOL     H110304   3.486   3.456   3.505
 2465SOL     H210305   3.421   3.387   3.387
 2465SOL    EPW10306   3.432   3.461   3.435
 2466SOL      O10307   3.112   1.896   2.918
 2466SOL     H110308   3.155   1.948   2.850
 2466SOL     H210309   3.158   1.920   2.999
 2466SOL    EPW10310   3.121   1.904   2.920
 2467SOL      O10311   2.085   2.896   2.140
 2467SOL     H110312   2.005   2.924   2.096
 2467SOL     H210313   2.056   2.833   2.206
 2467SOL    EPW10314   2.074   2.892   2.142
 2468SOL      O10315   2.479   3.236   2.042
 2468SOL     H110316   2.453   3.219   2.133
 2468SOL     H210317   2.398   3.229   1.992
 2468SOL    EPW10318   2.468   3.233   2.047
 2469SOL      O10319   3.046   3.427   2.137
 2469SOL     H110320   3.025   3.338   2.110
 2469SOL     H210321   2.967   3.477   2.119
 2469SOL    EPW10322   3.035   3.423   2.132
 2470SOL      O10323   2.292   3.618   2.793
 2470SOL     H110324   2.309   3.538   2.843
 2470SOL     H210325   2.321   3.597   2.704
 2470SOL    EPW10326   2.297   3.607   2.789
 2471SOL      O10327   2.862   3.030   2.980
 2471SOL     H110328   2.779   2.984   2.990
 2471SOL     H210329   2.882   3.024   2.886
 2471SOL    EPW10330   2.855   3.025   2.971
 2472SOL      O10331   1.960   3.409   3.263
 2472SOL     H110332   1.944   3.357   3.342
 2472SOL     H210333   1.875   3.451   3.246
 2472SOL    EPW10334   1.949   3.408   3.270
 2473SOL      O10335   2.856   2.190   2.834
 2473SOL     H110336   2.775   2.162   2.875
 2473SOL     H210337   2.889   2.260   2.891
 2473SOL    EPW10338   2.851   2.194   2.844
 2474SOL      O10339   2.531   2.621   3.446
 2474SOL     H110340   2.505   2.712   3.430
 2474SOL     H210341   2.561   2.620   3.537
 2474SOL    EPW10342   2.532   2.631   3.454
 2475SOL      O10343   2.271   3.202   3.728
 2475SOL     H110344   2.335   3.190   3.658
 2475SOL     H210345   2.260   3.115   3.766
 2475SOL    EPW10346   2.277   3.192   3.725
 2476SOL      O10347   3.270   1.979   3.130
 2476SOL     H110348   3.342   1.980   3.067
 2476SOL     H210349   3.306   1.933   3.206
 2476SOL    EPW10350   3.282   1.975   3.131
 2477SOL      O10351   3.565   3.496   3.672
 2477SOL     H110352   3.548   3.458   3.758
 2477SOL     H210353   3.651   3.537   3.680
 2477SOL    EPW10354   3.573   3.497   3.682
 2478SOL      O10355   2.363   2.353   2.678
 2478SOL     H110356   2.449   2.313   2.693
 2478SOL     H210357   2.318   2.346   2.762
 2478SOL    EPW10358   2.368   2.348   2.688
 2479SOL      O10359   1.914   3.679   3.743
 2479SOL     H110360   1.967   3.656   3.667
 2479SOL     H210361   1.910   3.774   3.742
 2479SOL    EPW10362   1.919   3.686   3.735
 2480SOL      O10363   2.654   3.396   2.683
 2480SOL     H110364   2.670   3.375   2.775
 2480SOL     H210365   2.637   3.490   2.683
 2480SOL    EPW10366   2.654   3.404   2.693
 2481SOL      O10367   2.931   2.225   2.295
 2481SOL     H110368   2.931   2.191   2.384
 2481SOL     H210369   2.843   2.257   2.281
 2481SOL    EPW10370   2.922   2.224   2.303
 2482SOL      O10371   2.086   1.974   2.329
 2482SOL     H110372   2.153   2.030   2.290
 2482SOL     H210373   2.060   1.915   2.258
 2482SOL    EPW10374   2.090   1.973   2.317
 2483SOL      O10375   1.887   2.400   3.415
 2483SOL     H110376   1.943   2.454   3.359
 2483SOL     H210377   1.801   2.404   3.373
 2483SOL    EPW10378   1.884   2.406   3.405
 2484SOL      O10379   3.658   3.298   2.479
 2484SOL     H110380   3.639   3.226   2.538
 2484SOL     H210381   3.744   3.330   2.507
 2484SOL    EPW10382   3.665   3.294   2.488
 2485SOL      O10383   3.230   3.027   2.323
 2485SOL     H110384   3.186   3.093   2.377
 2485SOL     H210385   3.230   3.064   2.235
 2485SOL    EPW10386   3.225   3.038   2.319
 2486SOL      O10387   2.719   1.958   2.441
 2486SOL     H110388   2.778   2.023   2.479
 2486SOL     H210389   2.646   2.009   2.405
 2486SOL    EPW10390   2.718   1.971   2.441
 2487SOL      O10391   3.637   2.850   2.805
 2487SOL     H110392   3.648   2.909   2.730
 2487SOL     H210393   3.655   2.763   2.769
 2487SOL    EPW10394   3.640   2.847   2.793
 2488SOL      O10395   2.099   2.558   3.311
 2488SOL     H110396   2.128   2.644   3.282
 2488SOL     H210397   2.180   2.512   3.334
 2488SOL    EPW10398   2.111   2.562   3.310
 2489SOL      O10399   3.599   2.722   2.422
 2489SOL     H110400   3.694   2.726   2.410
 2489SOL     H210401   3.569   2.812   2.403
 2489SOL    EPW10402   3.606   2.732   2.419
 2490SOL      O10403   2.073   2.626   3.581
 2490SOL     H110404   1.986   2.605   3.615
 2490SOL     H210405   2.068   2.607   3.487
 2490SOL    EPW10406   2.063   2.622   3.575
 2491SOL      O10407   2.225   1.946   3.097
 2491SOL     H110408   2.229   2.014   3.164
 2491SOL     H210409   2.288   1.880   3.126
 2491SOL    EPW10410   2.232   1.946   3.107
 2492SOL      O10411   2.359   2.605   2.246
 2492SOL     H110412   2.360   2.700   2.240
 2492SOL     H210413   2.391   2.586   2.334
 2492SOL    EPW10414   2.362   2.613   2.255
 2493SOL      O10415   3.057   2.524   3.373
 2493SOL     H110416   3.090   2.481   3.294
 2493SOL     H210417   2.975   2.566   3.346
 2493SOL    EPW10418   3.052   2.524   3.362
 2494SOL      O10419   2.080   2.387   2.542
 2494SOL     H110420   2.109   2.430   2.623
 2494SOL     H210421   2.093   2.294   2.558
 2494SOL    EPW10422   2.084   2.382   2.552
 2495SOL      O10423   3.567   3.715   2.076
 2495SOL     H110424   3.662   3.717   2.092
 2495SOL     H210425   3.533   3.791   2.124
 2495SOL    EPW10426   3.574   3.724   2.083
 2496SOL      O10427   2.696   2.597   3.026
 2496SOL     H110428   2.632   2.526   3.020
 2496SOL     H210429   2.718   2.602   3.119
 2496SOL    EPW10430   2.691   2.590   3.035
 2497SOL      O10431   3.379   3.749   3.411
 2497SOL     H110432   3.377   3.654   3.407
 2497SOL     H210433   3.414   3.768   3.498
 2497SOL    EPW10434   3.383   3.741   3.420
 2498SOL      O10435   2.523   2.029   3.172
 2498SOL     H110436   2.461   2.100   3.188
 2498SOL     H210437   2.566   2.016   3.257
 2498SOL    EPW10438   2.521   2.036   3.183
 2499SOL      O10439   1.842   2.967   2.042
 2499SOL     H110440   1.808   3.042   2.092
 2499SOL     H210441   1.796   2.892   2.078
 2499SOL    EPW10442   1.834   2.967   2.051
 2500SOL      O10443   3.261   2.010   2.713
 2500SOL     H110444   3.337   2.007   2.771
 2500SOL     H210445   3.270   1.932   2.658
 2500SOL    EPW10446   3.270   2.001   2.713
 2501SOL      O10447   3.380   2.646   2.563
 2501SOL     H110448   3.468   2.662   2.529
 2501SOL     H210449   3.385   2.558   2.600
 2501SOL    EPW10450   3.390   2.638   2.563
 2502SOL      O10451   2.482   3.685   1.930
 2502SOL     H110452   2.401   3.695   1.880
 2502SOL     H210453   2.453   3.663   2.018
 2502SOL    EPW10454   2.470   3.684   1.934
 2503SOL      O10455   2.817   2.648   3.278
 2503SOL     H110456   2.866   2.716   3.232
 2503SOL     H210457   2.777   2.694   3.352
 2503SOL    EPW10458   2.818   2.660   3.281
 2504SOL      O10459   2.206   2.863   3.579
 2504SOL     H110460   2.156   2.781   3.582
 2504SOL     H210461   2.275   2.846   3.515
 2504SOL    EPW10462   2.208   2.852   3.573
 2505SOL      O10463   3.343   2.525   1.882
 2505SOL     H110464   3.322   2.523   1.789
 2505SOL     H210465   3.402   2.600   1.891
 2505SOL    EPW10466   3.347   2.533   1.873
 2506SOL      O10467   2.466   3.238   2.544
 2506SOL     H110468   2.522   3.163   2.565
 2506SOL     H210469   2.514   3.314   2.578
 2506SOL    EPW10470   2.477   3.238   2.549
 2507SOL      O10471   2.711   2.376   2.692
 2507SOL     H110472   2.653   2.421   2.752
 2507SOL     H210473   2.765   2.319   2.748
 2507SOL    EPW10474   2.711   2.375   2.704
 2508SOL      O10475   3.643   1.940   3.291
 2508SOL     H110476   3.553   1.953   3.318
 2508SOL     H210477   3.655   1.999   3.217
 2508SOL    EPW10478   3.635   1.947   3.286
 2509SOL      O10479   2.898   2.970   2.714
 2509SOL     H110480   2.984   2.940   2.744
 2509SOL     H210481   2.862   2.896   2.665
 2509SOL    EPW10482   2.903   2.959   2.712
 2510SOL      O10483   2.696   2.780   2.104
 2510SOL     H110484   2.728   2.710   2.047
 2510SOL     H210485   2.660   2.845   2.044
 2510SOL    EPW10486   2.696   2.780   2.092
 2511SOL      O10487   3.191   3.206   2.736
 2511SOL     H110488   3.178   3.300   2.746
 2511SOL     H210489   3.162   3.169   2.819
 2511SOL    EPW10490   3.187   3.212   2.746
 2512SOL      O10491   3.121   3.153   2.999
 2512SOL     H110492   3.125   3.243   3.032
 2512SOL     H210493   3.028   3.129   3.006
 2512SOL    EPW10494   3.111   3.161   3.003
 2513SOL      O10495   2.103   2.534   2.789
 2513SOL     H110496   2.086   2.524   2.883
 2513SOL     H210497   2.157   2.613   2.782
 2513SOL    EPW10498   2.107   2.541   2.798
 2514SOL      O10499   3.255   3.376   3.633
 2514SOL     H110500   3.235   3.453   3.686
 2514SOL     H210501   3.291   3.412   3.552
 2514SOL    EPW10502   3.257   3.388   3.630
 2515SOL      O10503   3.388   2.070   2.170
 2515SOL     H110504   3.387   2.054   2.265
 2515SOL     H210505   3.467   2.026   2.139
 2515SOL    EPW10506   3.396   2.063   2.177
 2516SOL      O10507   2.716   2.585   2.316
 2516SOL     H110508   2.702   2.638   2.238
 2516SOL     H210509   2.811   2.573   2.320
 2516SOL    EPW10510   2.724   2.589   2.308
 2517SOL      O10511   2.055   2.227   3.556
 2517SOL     H110512   1.994   2.282   3.506
 2517SOL     H210513   2.113   2.290   3.599
 2517SOL    EPW10514   2.055   2.240   3.555
 2518SOL      O10515   3.188   2.764   3.080
 2518SOL     H110516   3.251   2.785   3.149
 2518SOL     H210517   3.103   2.789   3.116
 2518SOL    EPW10518   3.186   2.769   3.091
 2519SOL      O10519   2.704   3.559   2.326
 2519SOL     H110520   2.746   3.634   2.368
 2519SOL     H210521   2.740   3.483   2.372
 2519SOL    EPW10522   2.712   3.559   2.336
 2520SOL      O10523   3.449   1.977   2.922
 2520SOL     H110524   3.462   1.884   2.941
 2520SOL     H210525   3.529   2.019   2.955
 2520SOL    EPW10526   3.459   1.971   2.927
 2521SOL      O10527   1.983   1.877   3.000
 2521SOL     H110528   1.993   1.874   2.905
 2521SOL     H210529   2.068   1.907   3.033
 2521SOL    EPW10530   1.993   1.880   2.993
 2522SOL      O10531   3.642   3.046   2.609
 2522SOL     H110532   3.600   3.016   2.528
 2522SOL     H210533   3.735   3.052   2.587
 2522SOL    EPW10534   3.648   3.044   2.598
 2523SOL      O10535   2.287   3.200   3.345
 2523SOL     H110536   2.211   3.147   3.371
 2523SOL     H210537   2.355   3.174   3.407
 2523SOL    EPW10538   2.286   3.191   3.355
 2524SOL      O10539   2.177   2.019   2.002
 2524SOL     H110540   2.093   2.052   1.972
 2524SOL     H210541   2.221   1.990   1.922
 2524SOL    EPW10542   2.173   2.020   1.990
 2525SOL      O10543   3.324   2.476   2.931
 2525SOL     H110544   3.247   2.523   2.899
 2525SOL     H210545   3.367   2.538   2.990
 2525SOL    EPW10546   3.320   2.488   2.934
 2526SOL      O10547   1.930   2.096   1.911
 2526SOL     H110548   1.887   2.168   1.957
 2526SOL     H210549   1.965   2.137   1.832
 2526SOL    EPW10550   1.929   2.108   1.907
 2527SOL      O10551   2.011   3.312   2.138
 2527SOL     H110552   2.068   3.380   2.175
 2527SOL     H210553   2.020   3.322   2.044
 2527SOL    EPW10554   2.018   3.320   2.132
 2528SOL      O10555   3.206   3.457   2.365
 2528SOL     H110556   3.292   3.476   2.328
 2528SOL     H210557   3.146   3.458   2.290
 2528SOL    EPW10558   3.209   3.459   2.353
 2529SOL      O10559   3.521   2.759   4.018
 2529SOL     H110560   3.533   2.711   4.100
 2529SOL     H210561   3.429   2.786   4.020
 2529SOL    EPW10562   3.512   2.757   4.027
 2530SOL      O10563   5.438   5.863   0.107
 2530SOL     H110564   5.522   5.860   0.061
 2530SOL     H210565   5.388   0.055   0.063
 2530SOL    EPW10566   5.442   5.870   0.097
 2531SOL      O10567   5.587   5.234   0.086
 2531SOL     H110568   5.511   5.273   0.130
 2531SOL     H210569   2.634   2.313   4.149
 2531SOL    EPW10570   5.577   5.240   0.081
 2532SOL      O10571   5.100   5.299   0.001
 2532SOL     H110572   2.216   2.438   4.142
 2532SOL     H210573   5.092   5.294   0.096
 2532SOL    EPW10574   5.105   5.307   0.010
 2533SOL      O10575   5.431   5.008   0.094
 2533SOL     H110576   5.488   5.084   0.089
 2533SOL     H210577   5.365   5.022   0.026
 2533SOL    EPW10578   5.430   5.017   0.086
 2534SOL      O10579   5.604   0.184   0.218
 2534SOL     H110580   5.656   0.168   0.297
 2534SOL     H210581   5.548   0.107   0.210
 2534SOL    EPW10582   5.604   0.174   0.225
 2535SOL      O10583   3.200   3.037   3.878
 2535SOL     H110584   3.116   3.083   3.884
 2535SOL     H210585   3.263   3.105   3.855
 2535SOL    EPW10586   3.198   3.049   3.876
 2536SOL      O10587   5.772   0.271   0.011
 2536SOL     H110588   5.765   0.361   0.044
 2536SOL     H210589   5.710   0.222   0.064
 2536SOL    EPW10590   5.765   0.275   0.021
 2537SOL      O10591   2.271   2.117   4.087
 2537SOL     H110592   2.240   2.094   3.999
 2537SOL     H210593   2.235   2.204   4.103
 2537SOL    EPW10594   2.264   2.124   4.079
 2538SOL      O10595   2.088   3.100   4.140
 2538SOL     H110596   2.061   3.166   4.075
 2538SOL     H210597   2.093   3.019   4.089
 2538SOL    EPW10598   2.085   3.099   4.127
 2539SOL      O10599   2.814   3.602   3.925
 2539SOL     H110600   2.774   3.627   4.008
 2539SOL     H210601   2.745   3.555   3.878
 2539SOL    EPW10602   2.803   3.600   3.929
 2540SOL      O10603   3.719   2.312   3.860
 2540SOL     H110604   3.633   2.308   3.901
 2540SOL     H210605   3.780   2.324   3.933
 2540SOL    EPW10606   3.716   2.313   3.872
 2541SOL      O10607   3.716   3.157   4.027
 2541SOL     H110608   3.671   3.174   4.110
 2541SOL     H210609   3.740   3.244   3.995
 2541SOL    EPW10610   3.713   3.168   4.032
 2542SOL      O10611   5.245   0.637   0.264
 2542SOL     H110612   5.250   0.732   0.270
 2542SOL     H210613   5.251   0.618   0.171
 2542SOL    EPW10614   5.246   0.645   0.255
 2543SOL      O10615   2.086   3.656   3.963
 2543SOL     H110616   2.138   3.730   3.932
 2543SOL     H210617   2.027   3.636   3.890
 2543SOL    EPW10618   2.085   3.662   3.952
 2544SOL      O10619   3.451   3.447   3.938
 2544SOL     H110620   3.509   3.519   3.963
 2544SOL     H210621   3.374   3.491   3.901
 2544SOL    EPW10622   3.449   3.459   3.937
 2545SOL      O10623   2.878   2.478   3.902
 2545SOL     H110624   2.859   2.445   3.814
 2545SOL     H210625   2.953   2.536   3.890
 2545SOL    EPW10626   2.884   2.481   3.891
 2546SOL      O10627   5.008   4.970   0.261
 2546SOL     H110628   5.031   4.934   0.175
 2546SOL     H210629   4.918   4.940   0.276
 2546SOL    EPW10630   5.001   4.963   0.253
 2547SOL      O10631   2.951   3.162   3.916
 2547SOL     H110632   2.894   3.167   3.992
 2547SOL     H210633   2.896   3.190   3.843
 2547SOL    EPW10634   2.939   3.166   3.916
 2548SOL      O10635   2.449   3.643   4.026
 2548SOL     H110636   2.389   3.586   4.073
 2548SOL     H210637   2.529   3.643   4.079
 2548SOL    EPW10638   2.451   3.637   4.036
 2549SOL      O10639   2.544   3.026   3.796
 2549SOL     H110640   2.458   2.987   3.814
 2549SOL     H210641   2.544   3.108   3.845
 2549SOL    EPW10642   2.535   3.030   3.803
 2550SOL      O10643   3.223   3.557   3.845
 2550SOL     H110644   3.144   3.511   3.873
 2550SOL     H210645   3.220   3.641   3.892
 2550SOL    EPW10646   3.214   3.561   3.853
 2551SOL      O10647   3.393   3.211   3.795
 2551SOL     H110648   3.343   3.264   3.733
 2551SOL     H210649   3.428   3.275   3.857
 2551SOL    EPW10650   3.392   3.224   3.795
 2552SOL      O10651   2.617   2.078   3.828
 2552SOL     H110652   2.562   2.000   3.823
 2552SOL     H210653   2.705   2.043   3.844
 2552SOL    EPW10654   2.621   2.066   3.829
 2553SOL      O10655   4.972   5.698   0.105
 2553SOL     H110656   5.045   5.730   0.159
 2553SOL     H210657   4.965   5.605   0.128
 2553SOL    EPW10658   4.979   5.691   0.114
 2554SOL      O10659   4.945   0.473   0.103
 2554SOL     H110660   4.945   0.557   0.149
 2554SOL     H210661   4.946   0.408   0.173
 2554SOL    EPW10662   4.945   0.475   0.115
 2555SOL      O10663   5.770   0.514   0.137
 2555SOL     H110664   5.863   0.531   0.153
 2555SOL     H210665   5.727   0.534   0.220
 2555SOL    EPW10666   5.775   0.518   0.148
 2556SOL      O10667   2.614   3.466   3.798
 2556SOL     H110668   2.565   3.546   3.777
 2556SOL     H210669   2.553   3.414   3.850
 2556SOL    EPW10670   2.603   3.469   3.802
 2557SOL      O10671   3.059   2.072   4.032
 2557SOL     H110672   2.979   2.039   3.991
 2557SOL     H210673   3.097   2.131   3.967
 2557SOL    EPW10674   3.055   2.075   4.021
 2558SOL      O10675   2.238   3.513   4.148
 2558SOL     H110676   2.190   3.561   4.080
 2558SOL     H210677   5.110   0.520   0.034
 2558SOL    EPW10678   2.226   3.512   4.145
 2559SOL      O10679   2.745   2.905   4.141
 2559SOL     H110680   2.735   2.895   4.046
 2559SOL     H210681   5.778   5.837  -0.000
 2559SOL    EPW10682   2.754   2.903   4.132
 2560SOL      O10683   4.911   0.328   0.338
 2560SOL     H110684   4.989   0.295   0.384
 2560SOL     H210685   4.868   0.249   0.304
 2560SOL    EPW10686   4.915   0.316   0.339
 2561SOL      O10687   3.179   2.211   3.827
 2561SOL     H110688   3.135   2.278   3.776
 2561SOL     H210689   3.263   2.249   3.851
 2561SOL    EPW10690   3.183   2.222   3.824
 2562SOL      O10691   2.865   1.966   3.861
 2562SOL     H110692   2.882   1.960   3.767
 2562SOL     H210693   2.854   1.876   3.889
 2562SOL    EPW10694   2.865   1.956   3.854
 2563SOL      O10695   3.249   2.812   4.015
 2563SOL     H110696   3.239   2.896   3.970
 2563SOL     H210697   3.203   2.749   3.960
 2563SOL    EPW10698   3.243   2.814   4.004
 2564SOL      O10699   2.284   2.944   3.826
 2564SOL     H110700   2.227   2.908   3.894
 2564SOL     H210701   2.252   2.905   3.744
 2564SOL    EPW10702   2.275   2.936   3.824
 2565SOL      O10703   5.606   4.840   0.225
 2565SOL     H110704   5.537   4.897   0.190
 2565SOL     H210705   5.558   4.765   0.261
 2565SOL    EPW10706   5.593   4.838   0.225
 2566SOL      O10707   2.363   3.137   4.149
 2566SOL     H110708   5.324   0.261   0.062
 2566SOL     H210709   2.267   3.129   4.154
 2566SOL    EPW10710   5.293   0.204   0.001
 2567SOL      O10711   2.423   2.478   3.857
 2567SOL     H110712   2.379   2.519   3.931
 2567SOL     H210713   2.484   2.417   3.897
 2567SOL    EPW10714   2.425   2.476   3.869
 2568SOL      O10715   3.459   2.311   3.957
 2568SOL     H110716   3.422   2.383   3.906
 2568SOL     H210717   3.491   2.352   4.037
 2568SOL    EPW10718   3.459   2.323   3.960
 2569SOL      O10719   5.281   4.917   0.301
 2569SOL     H110720   5.324   4.961   0.228
 2569SOL     H210721   5.191   4.950   0.299
 2569SOL    EPW10722   5.276   4.925   0.293
 2570SOL      O10723   3.110   2.644   3.853
 2570SOL     H110724   3.177   2.578   3.836
 2570SOL     H210725   3.119   2.706   3.781
 2570SOL    EPW10726   3.118   2.644   3.844
 2571SOL      O10727   5.194   5.776   0.244
 2571SOL     H110728   5.276   5.812   0.210
 2571SOL     H210729   5.190   5.807   0.334
 2571SOL    EPW10730   5.203   5.783   0.250
 2572SOL      O10731   2.805   3.284   3.723
 2572SOL     H110732   2.847   3.325   3.648
 2572SOL     H210733   2.735   3.345   3.748
 2572SOL    EPW10734   2.802   3.295   3.718
 2573SOL      O10735   1.903   2.393   4.078
 2573SOL     H110736   4.800   5.354   0.005
 2573SOL     H210737   1.996   2.385   4.099
 2573SOL    EPW10738   1.909   2.395   4.089
 2574SOL      O10739   3.227   1.883   3.922
 2574SOL     H110740   3.308   1.926   3.952
 2574SOL     H210741   3.157   1.931   3.966
 2574SOL    EPW10742   3.229   1.893   3.930
 2575SOL      O10743   2.624   2.320   3.966
 2575SOL     H110744   2.712   2.352   3.943
 2575SOL     H210745   2.618   2.234   3.924
 2575SOL    EPW10746   2.633   2.314   3.959
 2576SOL      O10747   2.101   2.853   4.016
 2576SOL     H110748   2.019   2.867   3.969
 2576SOL     H210749   2.075   2.818   4.100
 2576SOL    EPW10750   2.090   2.851   4.020
 2577SOL      O10751   2.461   3.263   3.918
 2577SOL     H110752   2.430   3.230   4.002
 2577SOL     H210753   2.385   3.257   3.860
 2577SOL    EPW10754   2.450   3.259   3.920
 2578SOL      O10755   3.020   3.425   3.959
 2578SOL     H110756   2.987   3.339   3.932
 2578SOL     H210757   2.945   3.483   3.949
 2578SOL    EPW10758   3.008   3.422   3.955
 2579SOL      O10759   5.026   4.865   0.012
 2579SOL     H110760   2.152   1.986   4.129
 2579SOL     H210761   2.003   1.970   4.153
 2579SOL    EPW10762   5.024   4.876   0.006
 2580SOL      O10763   2.302   2.590   4.083
 2580SOL     H110764   2.256   2.673   4.071
 2580SOL     H210765   2.371   2.610   4.147
 2580SOL    EPW10766   2.305   2.601   4.089
 2581SOL      O10767   4.990   5.245   0.259
 2581SOL     H110768   5.004   5.269   0.350
 2581SOL     H210769   4.995   5.149   0.258
 2581SOL    EPW10770   4.992   5.237   0.268
 2582SOL      O10771   3.600   3.692   3.939
 2582SOL     H110772   3.671   3.677   3.877
 2582SOL     H210773   3.640   3.742   4.010
 2582SOL    EPW10774   3.612   3.696   3.940
 2583SOL      O10775   1.859   2.916   3.906
 2583SOL     H110776   1.822   2.997   3.940
 2583SOL     H210777   1.802   2.847   3.940
 2583SOL    EPW10778   1.849   2.917   3.913
 2584SOL      O10779   2.495   3.719   3.770
 2584SOL     H110780   2.415   3.732   3.719
 2584SOL     H210781   2.465   3.701   3.859
 2584SOL    EPW10782   2.483   3.718   3.774
 2585SOL      O10783   3.324   2.486   3.787
 2585SOL     H110784   3.275   2.465   3.707
 2585SOL     H210785   3.383   2.557   3.761
 2585SOL    EPW10786   3.325   2.491   3.776
 2586SOL      O10787   5.393   0.354   0.194
 2586SOL     H110788   5.476   0.306   0.205
 2586SOL     H210789   5.374   0.388   0.281
 2586SOL    EPW10790   5.400   0.352   0.205
 2587SOL      O10791   2.690   2.812   3.888
 2587SOL     H110792   2.672   2.741   3.826
 2587SOL     H210793   2.644   2.888   3.851
 2587SOL    EPW10794   2.683   2.812   3.877
 2588SOL      O10795   3.427   2.045   4.029
 2588SOL     H110796   3.370   2.051   4.107
 2588SOL     H210797   3.440   2.136   4.002
 2588SOL    EPW10798   3.422   2.055   4.035
 2589SOL      O10799   2.738   2.611   4.100
 2589SOL     H110800   2.728   2.697   4.059
 2589SOL     H210801   2.783   2.559   4.034
 2589SOL    EPW10802   2.742   2.615   4.089
 2590SOL      O10803   5.629   0.709   0.010
 2590SOL     H110804   5.635   0.779   0.075
 2590SOL     H210805   5.673   0.635   0.049
 2590SOL    EPW10806   5.634   0.709   0.021
 2591SOL      O10807   2.142   2.010   3.869
 2591SOL     H110808   2.059   2.041   3.833
 2591SOL     H210809   2.188   1.972   3.795
 2591SOL    EPW10810   2.138   2.009   3.858
 2592SOL      O10811   1.911   2.090   3.744
 2592SOL     H110812   1.860   2.160   3.784
 2592SOL     H210813   1.958   2.132   3.673
 2592SOL    EPW10814   1.911   2.102   3.741
 2593SOL      O10815   2.007   3.300   3.966
 2593SOL     H110816   2.020   3.378   4.020
 2593SOL     H210817   2.023   3.330   3.877
 2593SOL    EPW10818   2.010   3.311   3.962
 2594SOL      O10819   3.233   3.350   4.110
 2594SOL     H110820   3.315   3.387   4.077
 2594SOL     H210821   3.166   3.385   4.051
 2594SOL    EPW10822   3.235   3.358   4.101
 2595SOL      O10823   3.591   4.549   0.232
 2595SOL     H110824   3.649   4.578   0.302
 2595SOL     H210825   3.505   4.583   0.257
 2595SOL    EPW10826   3.588   4.556   0.242
 2596SOL      O10827   2.390   4.787   0.502
 2596SOL     H110828   2.484   4.774   0.494
 2596SOL     H210829   2.375   4.876   0.472
 2596SOL    EPW10830   2.398   4.795   0.498
 2597SOL      O10831   3.527   5.399   0.632
 2597SOL     H110832   3.540   5.349   0.713
 2597SOL     H210833   3.537   5.334   0.562
 2597SOL    EPW10834   3.529   5.387   0.633
 2598SOL      O10835   2.830   5.400   1.626
 2598SOL     H110836   2.874   5.391   1.541
 2598SOL     H210837   2.868   5.331   1.680
 2598SOL    EPW10838   2.838   5.392   1.623
 2599SOL      O10839   2.695   4.196   0.499
 2599SOL     H110840   2.689   4.285   0.463
 2599SOL     H210841   2.730   4.143   0.428
 2599SOL    EPW10842   2.698   4.200   0.488
 2600SOL      O10843   2.158   4.252   0.471
 2600SOL     H110844   2.203   4.333   0.450
 2600SOL     H210845   2.153   4.252   0.567
 2600SOL    EPW10846   2.162   4.261   0.479
 2601SOL      O10847   2.192   4.671   1.390
 2601SOL     H110848   2.265   4.715   1.433
 2601SOL     H210849   2.187   4.710   1.303
 2601SOL    EPW10850   2.199   4.680   1.385
 2602SOL      O10851   2.494   4.081   0.639
 2602SOL     H110852   2.569   4.124   0.600
 2602SOL     H210853   2.434   4.066   0.566
 2602SOL    EPW10854   2.495   4.084   0.627
 2603SOL      O10855   2.624   4.941   0.713
 2603SOL     H110856   2.710   4.953   0.753
 2603SOL     H210857   2.642   4.902   0.628
 2603SOL    EPW10858   2.635   4.938   0.709
 2604SOL      O10859   2.602   5.240   1.591
 2604SOL     H110860   2.673   5.297   1.622
 2604SOL     H210861   2.642   5.188   1.522
 2604SOL    EPW10862   2.614   5.241   1.587
 2605SOL      O10863   2.471   4.499   0.614
 2605SOL     H110864   2.548   4.480   0.561
 2605SOL     H210865   2.503   4.562   0.680
 2605SOL    EPW10866   2.483   4.504   0.616
 2606SOL      O10867   2.719   5.092   1.399
 2606SOL     H110868   2.719   5.137   1.314
 2606SOL     H210869   2.675   5.009   1.381
 2606SOL    EPW10870   2.715   5.088   1.388
 2607SOL      O10871   2.317   4.630   0.950
 2607SOL     H110872   2.271   4.652   0.868
 2607SOL     H210873   2.282   4.692   1.014
 2607SOL    EPW10874   2.308   4.639   0.948
 2608SOL      O10875   2.001   5.465   0.899
 2608SOL     H110876   2.096   5.464   0.887
 2608SOL     H210877   1.977   5.374   0.915
 2608SOL    EPW10878   2.009   5.455   0.899
 2609SOL      O10879   2.284   5.035   0.865
 2609SOL     H110880   2.270   5.106   0.928
 2609SOL     H210881   2.326   5.078   0.791
 2609SOL    EPW10882   2.287   5.047   0.864
 2610SOL      O10883   2.811   4.678   0.680
 2610SOL     H110884   2.742   4.640   0.733
 2610SOL     H210885   2.875   4.608   0.669
 2610SOL    EPW10886   2.811   4.667   0.685
 2611SOL      O10887   2.211   5.333   1.498
 2611SOL     H110888   2.129   5.319   1.452
 2611SOL     H210889   2.250   5.246   1.506
 2611SOL    EPW10890   2.207   5.322   1.494
 2612SOL      O10891   2.804   5.040   0.382
 2612SOL     H110892   2.810   5.093   0.461
 2612SOL     H210893   2.760   4.960   0.409
 2612SOL    EPW10894   2.800   5.037   0.393
 2613SOL      O10895   2.309   4.030   0.439
 2613SOL     H110896   2.340   4.025   0.348
 2613SOL     H210897   2.258   4.111   0.442
 2613SOL    EPW10898   2.307   4.038   0.429
 2614SOL      O10899   2.099   5.015   0.366
 2614SOL     H110900   2.045   5.055   0.298
 2614SOL     H210901   2.102   4.922   0.343
 2614SOL    EPW10902   2.093   5.009   0.356
 2615SOL      O10903   2.736   5.474   0.167
 2615SOL     H110904   2.743   5.442   0.256
 2615SOL     H210905   2.666   5.421   0.128
 2615SOL    EPW10906   2.729   5.465   0.172
 2616SOL      O10907   3.520   4.910   0.457
 2616SOL     H110908   3.444   4.913   0.399
 2616SOL     H210909   3.594   4.902   0.397
 2616SOL    EPW10910   3.520   4.910   0.444
 2617SOL      O10911   2.088   5.361   1.181
 2617SOL     H110912   2.037   5.317   1.249
 2617SOL     H210913   2.044   5.445   1.169
 2617SOL    EPW10914   2.078   5.365   1.187
 2618SOL      O10915   2.989   4.851   1.559
 2618SOL     H110916   3.009   4.944   1.548
 2618SOL     H210917   3.045   4.823   1.632
 2618SOL    EPW10918   2.997   4.858   1.566
 2619SOL      O10919   2.817   4.259   1.814
 2619SOL     H110920   2.896   4.303   1.781
 2619SOL     H210921   2.820   4.172   1.775
 2619SOL    EPW10922   2.826   4.254   1.807
 2620SOL      O10923   3.353   4.802   0.800
 2620SOL     H110924   3.367   4.710   0.777
 2620SOL     H210925   3.439   4.843   0.788
 2620SOL    EPW10926   3.364   4.797   0.796
 2621SOL      O10927   2.546   4.027   1.648
 2621SOL     H110928   2.570   3.951   1.596
 2621SOL     H210929   2.575   4.005   1.737
 2621SOL    EPW10930   2.552   4.016   1.652
 2622SOL      O10931   2.332   5.449   0.620
 2622SOL     H110932   2.322   5.545   0.625
 2622SOL     H210933   2.256   5.420   0.571
 2622SOL    EPW10934   2.323   5.456   0.615
 2623SOL      O10935   3.650   3.723   0.613
 2623SOL     H110936   3.732   3.713   0.662
 2623SOL     H210937   3.597   3.647   0.637
 2623SOL    EPW10938   3.653   3.714   0.621
 2624SOL      O10939   1.988   5.408   0.219
 2624SOL     H110940   2.030   5.473   0.162
 2624SOL     H210941   1.896   5.433   0.220
 2624SOL    EPW10942   1.983   5.418   0.213
 2625SOL      O10943   2.839   3.821   1.050
 2625SOL     H110944   2.833   3.914   1.027
 2625SOL     H210945   2.933   3.804   1.058
 2625SOL    EPW10946   2.848   3.829   1.048
 2626SOL      O10947   3.418   5.343   0.272
 2626SOL     H110948   3.485   5.409   0.254
 2626SOL     H210949   3.467   5.266   0.302
 2626SOL    EPW10950   3.430   5.342   0.274
 2627SOL      O10951   2.768   4.468   0.096
 2627SOL     H110952   2.762   4.464   0.000
 2627SOL     H210953   2.859   4.447   0.115
 2627SOL    EPW10954   2.777   4.465   0.088
 2628SOL      O10955   3.311   4.264   0.412
 2628SOL     H110956   3.394   4.275   0.364
 2628SOL     H210957   3.291   4.351   0.444
 2628SOL    EPW10958   3.318   4.274   0.410
 2629SOL      O10959   2.752   4.719   1.591
 2629SOL     H110960   2.743   4.687   1.681
 2629SOL     H210961   2.835   4.766   1.589
 2629SOL    EPW10962   2.760   4.720   1.600
 2630SOL      O10963   2.815   3.838   1.318
 2630SOL     H110964   2.826   3.823   1.225
 2630SOL     H210965   2.827   3.932   1.329
 2630SOL    EPW10966   2.818   3.846   1.310
 2631SOL      O10967   2.951   4.342   1.071
 2631SOL     H110968   3.015   4.313   1.137
 2631SOL     H210969   3.001   4.400   1.014
 2631SOL    EPW10970   2.963   4.345   1.072
 2632SOL      O10971   2.887   4.028   1.663
 2632SOL     H110972   2.869   4.020   1.569
 2632SOL     H210973   2.925   3.943   1.687
 2632SOL    EPW10974   2.889   4.018   1.655
 2633SOL      O10975   3.590   4.241   0.616
 2633SOL     H110976   3.637   4.183   0.676
 2633SOL     H210977   3.500   4.241   0.649
 2633SOL    EPW10978   3.586   4.235   0.626
 2634SOL      O10979   2.007   3.952   0.630
 2634SOL     H110980   2.015   3.928   0.538
 2634SOL     H210981   1.932   3.903   0.662
 2634SOL    EPW10982   2.000   3.945   0.624
 2635SOL      O10983   1.977   4.170   0.973
 2635SOL     H110984   1.934   4.253   0.993
 2635SOL     H210985   1.907   4.114   0.939
 2635SOL    EPW10986   1.965   4.173   0.971
 2636SOL      O10987   2.484   5.446   0.394
 2636SOL     H110988   2.437   5.444   0.477
 2636SOL     H210989   2.576   5.435   0.418
 2636SOL    EPW10990   2.489   5.444   0.405
 2637SOL      O10991   2.571   4.897   0.084
 2637SOL     H110992   2.499   4.835   0.095
 2637SOL     H210993   2.543   4.975   0.131
 2637SOL    EPW10994   2.560   4.899   0.090
 2638SOL      O10995   3.570   5.269   0.871
 2638SOL     H110996   3.535   5.336   0.929
 2638SOL     H210997   3.542   5.186   0.909
 2638SOL    EPW10998   3.563   5.267   0.881
 2639SOL      O10999   2.050   4.407   1.186
 2639SOL     H111000   2.055   4.403   1.281
 2639SOL     H211001   1.989   4.479   1.168
 2639SOL    EPW11002   2.044   4.414   1.194
 2640SOL      O11003   2.580   3.899   0.068
 2640SOL     H111004   2.539   3.820   0.103
 2640SOL     H211005   2.674   3.887   0.085
 2640SOL    EPW11006   2.586   3.889   0.073
 2641SOL      O11007   2.081   5.541   1.624
 2641SOL     H111008   2.022   5.577   1.557
 2641SOL     H211009   2.124   5.467   1.581
 2641SOL    EPW11010   2.079   5.537   1.612
 2642SOL      O11011   2.198   4.792   1.144
 2642SOL     H111012   2.246   4.872   1.167
 2642SOL     H211013   2.114   4.824   1.111
 2642SOL    EPW11014   2.194   4.804   1.143
 2643SOL      O11015   2.649   4.744   1.143
 2643SOL     H111016   2.662   4.654   1.113
 2643SOL     H211017   2.587   4.782   1.081
 2643SOL    EPW11018   2.644   4.739   1.133
 2644SOL      O11019   2.004   4.638   0.533
 2644SOL     H111020   2.081   4.628   0.590
 2644SOL     H211021   1.989   4.549   0.499
 2644SOL    EPW11022   2.011   4.627   0.536
 2645SOL      O11023   2.234   4.296   1.788
 2645SOL     H111024   2.180   4.376   1.788
 2645SOL     H211025   2.296   4.310   1.860
 2645SOL    EPW11026   2.235   4.306   1.796
 2646SOL      O11027   2.598   3.812   1.482
 2646SOL     H111028   2.569   3.721   1.484
 2646SOL     H211029   2.680   3.810   1.432
 2646SOL    EPW11030   2.604   3.802   1.476
 2647SOL      O11031   2.294   4.320   1.519
 2647SOL     H111032   2.367   4.381   1.518
 2647SOL     H211033   2.283   4.297   1.611
 2647SOL    EPW11034   2.300   4.324   1.529
 2648SOL      O11035   2.671   5.511   0.968
 2648SOL     H111036   2.743   5.540   1.025
 2648SOL     H211037   2.668   5.576   0.898
 2648SOL    EPW11038   2.679   5.521   0.966
 2649SOL      O11039   3.246   3.933   1.803
 2649SOL     H111040   3.320   3.874   1.817
 2649SOL     H211041   3.242   3.986   1.882
 2649SOL    EPW11042   3.253   3.932   1.813
 2650SOL      O11043   1.988   5.186   0.645
 2650SOL     H111044   1.974   5.198   0.739
 2650SOL     H211045   2.005   5.092   0.636
 2650SOL    EPW11046   1.988   5.177   0.654
 2651SOL      O11047   2.830   5.195   0.613
 2651SOL     H111048   2.913   5.157   0.639
 2651SOL     H211049   2.787   5.218   0.696
 2651SOL    EPW11050   2.834   5.193   0.625
 2652SOL      O11051   3.692   4.446   0.765
 2652SOL     H111052   3.756   4.403   0.822
 2652SOL     H211053   3.656   4.375   0.712
 2652SOL    EPW11054   3.695   4.434   0.765
 2653SOL      O11055   2.507   5.355   0.040
 2653SOL     H111056   2.460   5.429   0.079
 2653SOL     H211057   2.486   5.281   0.096
 2653SOL    EPW11058   2.499   5.355   0.050
 2654SOL      O11059   2.808   4.111   1.326
 2654SOL     H111060   2.727   4.144   1.365
 2654SOL     H211061   2.876   4.172   1.354
 2654SOL    EPW11062   2.806   4.121   1.333
 2655SOL      O11063   3.101   4.505   0.917
 2655SOL     H111064   3.121   4.597   0.934
 2655SOL     H211065   3.079   4.502   0.824
 2655SOL    EPW11066   3.101   4.514   0.909
 2656SOL      O11067   2.553   4.678   0.807
 2656SOL     H111068   2.481   4.672   0.870
 2656SOL     H211069   2.564   4.772   0.791
 2656SOL    EPW11070   2.547   4.687   0.812
 2657SOL      O11071   3.351   4.253   0.755
 2657SOL     H111072   3.299   4.176   0.732
 2657SOL     H211073   3.325   4.272   0.846
 2657SOL    EPW11074   3.342   4.247   0.762
 2658SOL      O11075   2.284   3.974   1.576
 2658SOL     H111076   2.211   4.021   1.616
 2658SOL     H211077   2.362   4.014   1.614
 2658SOL    EPW11078   2.285   3.983   1.584
 2659SOL      O11079   3.008   4.489   0.661
 2659SOL     H111080   2.986   4.399   0.638
 2659SOL     H211081   3.076   4.514   0.598
 2659SOL    EPW11082   3.013   4.482   0.652
 2660SOL      O11083   2.111   5.376   0.476
 2660SOL     H111084   2.071   5.370   0.389
 2660SOL     H211085   2.065   5.309   0.528
 2660SOL    EPW11086   2.102   5.368   0.473
 2661SOL      O11087   2.676   4.803   0.476
 2661SOL     H111088   2.685   4.764   0.390
 2661SOL     H211089   2.733   4.751   0.533
 2661SOL    EPW11090   2.683   4.794   0.473
 2662SOL      O11091   3.298   5.547   0.678
 2662SOL     H111092   3.277   5.593   0.597
 2662SOL     H211093   3.375   5.495   0.657
 2662SOL    EPW11094   3.304   5.547   0.667
 2663SOL      O11095   3.206   4.019   0.719
 2663SOL     H111096   3.240   3.961   0.787
 2663SOL     H211097   3.111   4.020   0.734
 2663SOL    EPW11098   3.200   4.013   0.728
 2664SOL      O11099   1.938   4.909   0.730
 2664SOL     H111100   1.950   4.909   0.825
 2664SOL     H211101   1.993   4.837   0.699
 2664SOL    EPW11102   1.945   4.901   0.737
 2665SOL      O11103   2.479   5.006   1.697
 2665SOL     H111104   2.533   5.082   1.675
 2665SOL     H211105   2.528   4.962   1.767
 2665SOL    EPW11106   2.490   5.009   1.702
 2666SOL      O11107   2.046   5.206   1.858
 2666SOL     H111108   2.130   5.159   1.856
 2666SOL     H211109   2.003   5.181   1.776
 2666SOL    EPW11110   2.050   5.198   1.849
 2667SOL      O11111   2.843   3.850   0.136
 2667SOL     H111112   2.935   3.851   0.108
 2667SOL     H211113   2.827   3.759   0.162
 2667SOL    EPW11114   2.851   3.840   0.136
 2668SOL      O11115   2.989   5.104   1.434
 2668SOL     H111116   2.895   5.086   1.430
 2668SOL     H211117   2.994   5.200   1.439
 2668SOL    EPW11118   2.979   5.112   1.434
 2669SOL      O11119   2.267   3.766   1.757
 2669SOL     H111120   2.193   3.719   1.720
 2669SOL     H211121   2.287   3.834   1.693
 2669SOL    EPW11122   2.261   3.768   1.747
 2670SOL      O11123   2.303   5.242   1.068
 2670SOL     H111124   2.373   5.292   1.110
 2670SOL     H211125   2.223   5.278   1.106
 2670SOL    EPW11126   2.302   5.251   1.077
 2671SOL      O11127   2.747   5.272   1.190
 2671SOL     H111128   2.774   5.259   1.099
 2671SOL     H211129   2.662   5.316   1.184
 2671SOL    EPW11130   2.740   5.275   1.180
 2672SOL      O11131   2.357   4.722   0.138
 2672SOL     H111132   2.284   4.746   0.195
 2672SOL     H211133   2.319   4.661   0.075
 2672SOL    EPW11134   2.345   4.718   0.137
 2673SOL      O11135   2.930   4.616   0.380
 2673SOL     H111136   2.878   4.668   0.319
 2673SOL     H211137   2.985   4.680   0.425
 2673SOL    EPW11138   2.931   4.628   0.378
 2674SOL      O11139   2.476   4.906   1.008
 2674SOL     H111140   2.446   4.941   1.092
 2674SOL     H211141   2.412   4.938   0.945
 2674SOL    EPW11142   2.466   4.913   1.011
 2675SOL      O11143   3.861   3.975   1.335
 2675SOL     H111144   3.889   4.056   1.376
 2675SOL     H211145   3.928   3.956   1.270
 2675SOL    EPW11146   3.871   3.981   1.333
 2676SOL      O11147   1.916   5.126   1.631
 2676SOL     H111148   1.969   5.050   1.607
 2676SOL     H211149   1.832   5.090   1.657
 2676SOL    EPW11150   1.913   5.114   1.631
 2677SOL      O11151   2.596   3.839   0.736
 2677SOL     H111152   2.553   3.920   0.707
 2677SOL     H211153   2.673   3.832   0.681
 2677SOL    EPW11154   2.599   3.847   0.727
 2678SOL      O11155   2.361   5.047   0.424
 2678SOL     H111156   2.377   5.091   0.507
 2678SOL     H211157   2.266   5.050   0.414
 2678SOL    EPW11158   2.353   5.052   0.432
 2679SOL      O11159   2.944   5.369   1.374
 2679SOL     H111160   2.880   5.348   1.306
 2679SOL     H211161   3.020   5.402   1.327
 2679SOL    EPW11162   2.945   5.370   1.362
 2680SOL      O11163   3.195   5.420   0.904
 2680SOL     H111164   3.215   5.462   0.820
 2680SOL     H211165   3.160   5.490   0.958
 2680SOL    EPW11166   3.194   5.432   0.900
 2681SOL      O11167   3.433   5.442   1.038
 2681SOL     H111168   3.426   5.357   1.083
 2681SOL     H211169   3.354   5.447   0.984
 2681SOL    EPW11170   3.424   5.433   1.037
 2682SOL      O11171   2.594   4.422   1.780
 2682SOL     H111172   2.668   4.362   1.787
 2682SOL     H211173   2.540   4.403   1.856
 2682SOL    EPW11174   2.596   4.414   1.789
 2683SOL      O11175   3.020   3.798   1.736
 2683SOL     H111176   3.049   3.723   1.685
 2683SOL     H211177   3.101   3.842   1.763
 2683SOL    EPW11178   3.032   3.795   1.734
 2684SOL      O11179   2.317   4.284   0.112
 2684SOL     H111180   2.294   4.367   0.069
 2684SOL     H211181   2.412   4.289   0.125
 2684SOL    EPW11182   2.324   4.294   0.109
 2685SOL      O11183   2.986   4.735   1.311
 2685SOL     H111184   2.993   4.784   1.393
 2685SOL     H211185   2.955   4.799   1.248
 2685SOL    EPW11186   2.984   4.747   1.313
 2686SOL      O11187   2.261   3.849   0.652
 2686SOL     H111188   2.297   3.899   0.578
 2686SOL     H211189   2.168   3.872   0.652
 2686SOL    EPW11190   2.255   3.857   0.644
 2687SOL      O11191   2.077   4.919   1.560
 2687SOL     H111192   2.109   4.858   1.626
 2687SOL     H211193   2.018   4.867   1.505
 2687SOL    EPW11194   2.074   4.907   1.561
 2688SOL      O11195   2.592   4.219   1.447
 2688SOL     H111196   2.591   4.309   1.479
 2688SOL     H211197   2.577   4.166   1.526
 2688SOL    EPW11198   2.590   4.223   1.459
 2689SOL      O11199   2.235   4.646   0.684
 2689SOL     H111200   2.280   4.714   0.633
 2689SOL     H211201   2.291   4.569   0.676
 2689SOL    EPW11202   2.246   4.645   0.678
 2690SOL      O11203   3.296   3.993   0.461
 2690SOL     H111204   3.265   3.991   0.551
 2690SOL     H211205   3.317   4.085   0.444
 2690SOL    EPW11206   3.295   4.002   0.469
 2691SOL      O11207   2.933   4.030   0.756
 2691SOL     H111208   2.937   4.107   0.700
 2691SOL     H211209   2.893   4.060   0.837
 2691SOL    EPW11210   2.930   4.041   0.758
 2692SOL      O11211   5.767   2.345   4.065
 2692SOL     H111212   5.799   2.435   4.069
 2692SOL     H211213   5.771   2.314   4.155
 2692SOL    EPW11214   5.770   2.351   4.075
 2693SOL      O11215   1.920   5.202   0.915
 2693SOL     H111216   1.929   5.119   0.963
 2693SOL     H211217   1.831   5.232   0.934
 2693SOL    EPW11218   1.912   5.196   0.922
 2694SOL      O11219   1.924   4.388   0.439
 2694SOL     H111220   1.865   4.349   0.503
 2694SOL     H211221   2.000   4.331   0.438
 2694SOL    EPW11222   1.926   4.378   0.446
 2695SOL      O11223   3.048   5.050   0.703
 2695SOL     H111224   3.001   4.983   0.753
 2695SOL     H211225   3.113   5.084   0.764
 2695SOL    EPW11226   3.050   5.046   0.715
 2696SOL      O11227   2.393   4.232   1.263
 2696SOL     H111228   2.472   4.221   1.317
 2696SOL     H211229   2.325   4.255   1.326
 2696SOL    EPW11230   2.394   4.233   1.276
 2697SOL      O11231   2.210   4.095   1.078
 2697SOL     H111232   2.217   4.006   1.042
 2697SOL     H211233   2.120   4.122   1.058
 2697SOL    EPW11234   2.201   4.088   1.072
 2698SOL      O11235   3.038   4.354   1.691
 2698SOL     H111236   3.115   4.299   1.700
 2698SOL     H211237   3.012   4.344   1.599
 2698SOL    EPW11238   3.043   4.347   1.682
 2699SOL      O11239   3.152   4.105   1.602
 2699SOL     H111240   3.062   4.088   1.630
 2699SOL     H211241   3.205   4.054   1.662
 2699SOL    EPW11242   3.148   4.098   1.611
 2700SOL      O11243   2.309   3.878   0.922
 2700SOL     H111244   2.302   3.785   0.944
 2700SOL     H211245   2.306   3.881   0.827
 2700SOL    EPW11246   2.308   3.868   0.914
 2701SOL      O11247   2.463   5.439   1.458
 2701SOL     H111248   2.372   5.411   1.467
 2701SOL     H211249   2.513   5.372   1.504
 2701SOL    EPW11250   2.459   5.429   1.464
 2702SOL      O11251   3.699   4.907   1.046
 2702SOL     H111252   3.696   4.829   0.990
 2702SOL     H211253   3.642   4.885   1.120
 2702SOL    EPW11254   3.692   4.896   1.048
 2703SOL      O11255   3.149   4.768   0.968
 2703SOL     H111256   3.186   4.747   1.054
 2703SOL     H211257   3.224   4.790   0.914
 2703SOL    EPW11258   3.161   4.768   0.972
 2704SOL      O11259   3.158   4.266   1.247
 2704SOL     H111260   3.213   4.278   1.169
 2704SOL     H211261   3.209   4.208   1.304
 2704SOL    EPW11262   3.169   4.261   1.245
 2705SOL      O11263   3.585   4.307   1.759
 2705SOL     H111264   3.643   4.271   1.827
 2705SOL     H211265   3.641   4.367   1.710
 2705SOL    EPW11266   3.597   4.310   1.761
 2706SOL      O11267   3.137   4.756   1.768
 2706SOL     H111268   3.215   4.706   1.745
 2706SOL     H211269   3.152   4.783   1.858
 2706SOL    EPW11270   3.147   4.753   1.775
 2707SOL      O11271   3.227   4.511   0.492
 2707SOL     H111272   3.262   4.569   0.424
 2707SOL     H211273   3.281   4.531   0.569
 2707SOL    EPW11274   3.237   4.520   0.493
 2708SOL      O11275   2.343   5.015   1.223
 2708SOL     H111276   2.332   5.038   1.315
 2708SOL     H211277   2.322   5.096   1.176
 2708SOL    EPW11278   2.339   5.026   1.227
 2709SOL      O11279   2.475   4.019   1.086
 2709SOL     H111280   2.463   3.981   1.173
 2709SOL     H211281   2.446   3.951   1.025
 2709SOL    EPW11282   2.471   4.008   1.089
 2710SOL      O11283   2.501   5.393   1.183
 2710SOL     H111284   2.529   5.471   1.134
 2710SOL     H211285   2.488   5.424   1.272
 2710SOL    EPW11286   2.503   5.405   1.187
 2711SOL      O11287   2.410   4.763   1.551
 2711SOL     H111288   2.469   4.787   1.479
 2711SOL     H211289   2.429   4.827   1.620
 2711SOL    EPW11290   2.418   4.773   1.551
 2712SOL      O11291   2.608   4.843   1.390
 2712SOL     H111292   2.667   4.799   1.451
 2712SOL     H211293   2.624   4.799   1.306
 2712SOL    EPW11294   2.616   4.834   1.387
 2713SOL      O11295   2.596   4.247   0.115
 2713SOL     H111296   2.644   4.329   0.120
 2713SOL     H211297   2.664   4.179   0.114
 2713SOL    EPW11298   2.608   4.248   0.115
 2714SOL      O11299   3.103   3.787   1.098
 2714SOL     H111300   3.162   3.810   1.027
 2714SOL     H211301   3.161   3.764   1.171
 2714SOL    EPW11302   3.116   3.787   1.098
 2715SOL      O11303   2.113   4.744   0.304
 2715SOL     H111304   2.037   4.757   0.247
 2715SOL     H211305   2.076   4.715   0.387
 2715SOL    EPW11306   2.101   4.742   0.307
 2716SOL      O11307   2.432   5.120   0.170
 2716SOL     H111308   2.418   5.107   0.264
 2716SOL     H211309   2.346   5.104   0.130
 2716SOL    EPW11310   2.421   5.117   0.176
 2717SOL      O11311   2.273   5.449   0.888
 2717SOL     H111312   2.291   5.368   0.935
 2717SOL     H211313   2.298   5.431   0.798
 2717SOL    EPW11314   2.277   5.439   0.883
 2718SOL      O11315   2.869   4.896   1.113
 2718SOL     H111316   2.787   4.848   1.127
 2718SOL     H211317   2.888   4.883   1.020
 2718SOL    EPW11318   2.862   4.890   1.104
 2719SOL      O11319   1.961   5.275   1.407
 2719SOL     H111320   1.941   5.219   1.482
 2719SOL     H211321   1.881   5.326   1.393
 2719SOL    EPW11322   1.951   5.275   1.414
 2720SOL      O11323   2.804   4.115   1.043
 2720SOL     H111324   2.798   4.099   1.137
 2720SOL     H211325   2.862   4.190   1.035
 2720SOL    EPW11326   2.809   4.121   1.052
 2721SOL      O11327   2.506   4.487   1.537
 2721SOL     H111328   2.485   4.581   1.537
 2721SOL     H211329   2.539   4.470   1.625
 2721SOL    EPW11330   2.507   4.496   1.546
 2722SOL      O11331   2.279   5.063   1.878
 2722SOL     H111332   2.342   5.053   1.806
 2722SOL     H211333   2.271   4.975   1.915
 2722SOL    EPW11334   2.285   5.053   1.874
 2723SOL      O11335   3.315   3.705   1.264
 2723SOL     H111336   3.404   3.734   1.247
 2723SOL     H211337   3.304   3.714   1.359
 2723SOL    EPW11338   3.323   3.709   1.272
 2724SOL      O11339   2.362   4.181   0.857
 2724SOL     H111340   2.421   4.153   0.787
 2724SOL     H211341   2.276   4.189   0.814
 2724SOL    EPW11342   2.359   4.179   0.845
 2725SOL      O11343   1.898   5.491   1.820
 2725SOL     H111344   1.967   5.492   1.754
 2725SOL     H211345   1.854   5.575   1.810
 2725SOL    EPW11346   1.901   5.500   1.812
 2726SOL      O11347   2.693   5.258   0.854
 2726SOL     H111348   2.616   5.212   0.887
 2726SOL     H211349   2.684   5.347   0.887
 2726SOL    EPW11350   2.684   5.263   0.861
 2727SOL      O11351   2.949   4.236   0.580
 2727SOL     H111352   2.998   4.224   0.499
 2727SOL     H211353   2.857   4.228   0.554
 2727SOL    EPW11354   2.944   4.234   0.569
 2728SOL      O11355   2.089   3.874   0.384
 2728SOL     H111356   2.166   3.929   0.398
 2728SOL     H211357   2.099   3.842   0.294
 2728SOL    EPW11358   2.099   3.877   0.376
 2729SOL      O11359   1.880   4.258   1.561
 2729SOL     H111360   1.932   4.321   1.512
 2729SOL     H211361   1.795   4.258   1.518
 2729SOL    EPW11362   1.876   4.265   1.551
 2730SOL      O11363   3.582   5.185   0.460
 2730SOL     H111364   3.547   5.096   0.466
 2730SOL     H211365   3.675   5.176   0.476
 2730SOL    EPW11366   3.588   5.175   0.462
 2731SOL      O11367   3.074   4.825   0.499
 2731SOL     H111368   3.095   4.876   0.577
 2731SOL     H211369   3.088   4.886   0.426
 2731SOL    EPW11370   3.078   4.837   0.499
 2732SOL      O11371   2.823   3.852   0.575
 2732SOL     H111372   2.869   3.902   0.641
 2732SOL     H211373   2.830   3.904   0.495
 2732SOL    EPW11374   2.829   3.863   0.573
 2733SOL      O11375   3.670   4.688   0.885
 2733SOL     H111376   3.643   4.750   0.817
 2733SOL     H211377   3.671   4.603   0.842
 2733SOL    EPW11378   3.667   4.686   0.873
 2734SOL      O11379   2.065   4.442   1.460
 2734SOL     H111380   2.094   4.529   1.432
 2734SOL     H211381   2.146   4.395   1.479
 2734SOL    EPW11382   2.077   4.446   1.459
 2735SOL      O11383   3.539   4.642   0.534
 2735SOL     H111384   3.635   4.636   0.537
 2735SOL     H211385   3.521   4.732   0.508
 2735SOL    EPW11386   3.548   4.651   0.532
 2736SOL      O11387   2.057   4.500   1.730
 2736SOL     H111388   1.973   4.473   1.765
 2736SOL     H211389   2.049   4.487   1.635
 2736SOL    EPW11390   2.047   4.496   1.723
 2737SOL      O11391   2.261   3.742   1.190
 2737SOL     H111392   2.305   3.803   1.249
 2737SOL     H211393   2.324   3.670   1.180
 2737SOL    EPW11394   2.273   3.740   1.195
 2738SOL      O11395   2.271   4.494   0.419
 2738SOL     H111396   2.244   4.579   0.384
 2738SOL     H211397   2.341   4.515   0.481
 2738SOL    EPW11398   2.275   4.505   0.422
 2739SOL      O11399   2.955   4.316   1.429
 2739SOL     H111400   3.035   4.318   1.376
 2739SOL     H211401   2.911   4.399   1.410
 2739SOL    EPW11402   2.959   4.325   1.422
 2740SOL      O11403   2.102   4.187   0.736
 2740SOL     H111404   2.061   4.189   0.823
 2740SOL     H211405   2.074   4.104   0.698
 2740SOL    EPW11406   2.095   4.178   0.741
 2741SOL      O11407   3.598   5.547   0.219
 2741SOL     H111408   3.663   5.532   0.151
 2741SOL     H211409   3.646   5.593   0.288
 2741SOL    EPW11410   3.610   5.551   0.219
 2742SOL      O11411   2.719   4.476   1.135
 2742SOL     H111412   2.802   4.439   1.106
 2742SOL     H211413   2.734   4.498   1.227
 2742SOL    EPW11414   2.729   4.474   1.142
 2743SOL      O11415   2.405   3.922   1.333
 2743SOL     H111416   2.347   3.952   1.403
 2743SOL     H211417   2.479   3.881   1.378
 2743SOL    EPW11418   2.407   3.921   1.345
 2744SOL      O11419   1.859   4.799   0.210
 2744SOL     H111420   1.823   4.874   0.258
 2744SOL     H211421   1.809   4.724   0.243
 2744SOL    EPW11422   1.850   4.799   0.219
 2745SOL      O11423   3.287   3.841   0.905
 2745SOL     H111424   3.376   3.861   0.933
 2745SOL     H211425   3.296   3.767   0.845
 2745SOL    EPW11426   3.297   3.836   0.901
 2746SOL      O11427   3.374   4.536   0.719
 2746SOL     H111428   3.449   4.560   0.664
 2746SOL     H211429   3.383   4.442   0.732
 2746SOL    EPW11430   3.383   4.529   0.715
 2747SOL      O11431   2.385   5.560   0.169
 2747SOL     H111432   2.293   5.582   0.183
 2747SOL     H211433   2.416   5.526   0.253
 2747SOL    EPW11434   2.379   5.559   0.179
 2748SOL      O11435   2.810   4.544   1.383
 2748SOL     H111436   2.875   4.607   1.352
 2748SOL     H211437   2.777   4.581   1.464
 2748SOL    EPW11438   2.814   4.554   1.388
 2749SOL      O11439   2.190   4.736   1.728
 2749SOL     H111440   2.139   4.656   1.732
 2749SOL     H211441   2.259   4.718   1.665
 2749SOL    EPW11442   2.192   4.726   1.722
 2750SOL      O11443   2.442   5.144   0.669
 2750SOL     H111444   2.512   5.080   0.683
 2750SOL     H211445   2.487   5.227   0.655
 2750SOL    EPW11446   2.454   5.146   0.669
 2751SOL      O11447   2.571   4.275   1.037
 2751SOL     H111448   2.612   4.355   1.069
 2751SOL     H211449   2.644   4.214   1.026
 2751SOL    EPW11450   2.583   4.277   1.039
 2752SOL      O11451   3.652   3.844   1.459
 2752SOL     H111452   3.604   3.919   1.493
 2752SOL     H211453   3.731   3.881   1.419
 2752SOL    EPW11454   3.656   3.856   1.458
 2753SOL      O11455   2.924   4.859   0.848
 2753SOL     H111456   3.006   4.824   0.883
 2753SOL     H211457   2.891   4.791   0.789
 2753SOL    EPW11458   2.929   4.848   0.846
 2754SOL      O11459   2.725   4.710   0.224
 2754SOL     H111460   2.730   4.630   0.172
 2754SOL     H211461   2.685   4.774   0.166
 2754SOL    EPW11462   2.721   4.708   0.212
 2755SOL      O11463   3.182   5.149   0.933
 2755SOL     H111464   3.178   5.243   0.919
 2755SOL     H211465   3.119   5.132   1.003
 2755SOL    EPW11466   3.175   5.157   0.939
 2756SOL      O11467   3.026   5.112   1.164
 2756SOL     H111468   3.020   5.109   1.259
 2756SOL     H211469   2.970   5.040   1.134
 2756SOL    EPW11470   3.020   5.104   1.171
 2757SOL      O11471   2.280   4.377   1.047
 2757SOL     H111472   2.198   4.391   1.094
 2757SOL     H211473   2.301   4.463   1.010
 2757SOL    EPW11474   2.274   4.388   1.048
 2758SOL      O11475   2.692   4.463   0.440
 2758SOL     H111476   2.637   4.485   0.365
 2758SOL     H211477   2.774   4.509   0.425
 2758SOL    EPW11478   2.695   4.470   0.431
 2759SOL      O11479   2.067   4.098   1.699
 2759SOL     H111480   2.002   4.145   1.646
 2759SOL     H211481   2.118   4.167   1.741
 2759SOL    EPW11482   2.066   4.110   1.698
 2760SOL      O11483   3.235   4.679   1.211
 2760SOL     H111484   3.289   4.624   1.268
 2760SOL     H211485   3.153   4.689   1.260
 2760SOL    EPW11486   3.232   4.674   1.223
 2761SOL      O11487   2.755   5.413   0.445
 2761SOL     H111488   2.800   5.491   0.479
 2761SOL     H211489   2.789   5.341   0.498
 2761SOL    EPW11490   2.763   5.414   0.454
 2762SOL      O11491   1.999   3.768   1.129
 2762SOL     H111492   1.998   3.748   1.036
 2762SOL     H211493   2.091   3.767   1.153
 2762SOL    EPW11494   2.009   3.765   1.122
 2763SOL      O11495   3.606   4.898   0.719
 2763SOL     H111496   3.574   4.907   0.629
 2763SOL     H211497   3.701   4.910   0.712
 2763SOL    EPW11498   3.613   4.900   0.709
 2764SOL      O11499   2.297   5.072   1.490
 2764SOL     H111500   2.221   5.018   1.509
 2764SOL     H211501   2.363   5.044   1.553
 2764SOL    EPW11502   2.296   5.063   1.499
 2765SOL      O11503   2.163   3.820   0.124
 2765SOL     H111504   2.082   3.855   0.086
 2765SOL     H211505   2.218   3.896   0.139
 2765SOL    EPW11506   2.160   3.832   0.122
 2766SOL      O11507   3.285   4.323   1.008
 2766SOL     H111508   3.234   4.399   0.978
 2766SOL     H211509   3.371   4.359   1.031
 2766SOL    EPW11510   3.289   4.335   1.007
 2767SOL      O11511   4.895   0.987   4.139
 2767SOL     H111512   4.800   1.001   4.147
 2767SOL     H211513   4.932   1.074   4.155
 2767SOL    EPW11514   4.889   0.998   4.142
 2768SOL      O11515   1.943   5.131   0.166
 2768SOL     H111516   1.959   5.225   0.167
 2768SOL     H211517   1.945   5.107   0.073
 2768SOL    EPW11518   1.945   5.138   0.156
 2769SOL      O11519   3.528   4.502   2.033
 2769SOL     H111520   3.584   4.508   2.110
 2769SOL     H211521   3.448   4.547   2.057
 2769SOL    EPW11522   3.526   4.507   2.043
 2770SOL      O11523   3.488   4.509   3.110
 2770SOL     H111524   3.457   4.575   3.172
 2770SOL     H211525   3.563   4.550   3.066
 2770SOL    EPW11526   3.493   4.520   3.112
 2771SOL      O11527   2.398   4.742   2.310
 2771SOL     H111528   2.492   4.739   2.329
 2771SOL     H211529   2.380   4.833   2.289
 2771SOL    EPW11530   2.406   4.751   2.310
 2772SOL      O11531   3.502   5.484   2.563
 2772SOL     H111532   3.513   5.419   2.633
 2772SOL     H211533   3.498   5.431   2.483
 2772SOL    EPW11534   3.503   5.471   2.562
 2773SOL      O11535   2.898   5.289   3.487
 2773SOL     H111536   2.908   5.342   3.407
 2773SOL     H211537   2.935   5.204   3.464
 2773SOL    EPW11538   2.903   5.286   3.476
 2774SOL      O11539   3.315   5.011   3.095
 2774SOL     H111540   3.302   4.916   3.085
 2774SOL     H211541   3.366   5.035   3.018
 2774SOL    EPW11542   3.319   5.003   3.085
 2775SOL      O11543   2.649   4.176   2.303
 2775SOL     H111544   2.674   4.268   2.313
 2775SOL     H211545   2.641   4.164   2.208
 2775SOL    EPW11546   2.651   4.185   2.294
 2776SOL      O11547   2.149   4.279   2.250
 2776SOL     H111548   2.221   4.342   2.247
 2776SOL     H211549   2.137   4.260   2.343
 2776SOL    EPW11550   2.156   4.284   2.259
 2777SOL      O11551   2.182   4.668   3.200
 2777SOL     H111552   2.277   4.661   3.202
 2777SOL     H211553   2.163   4.711   3.116
 2777SOL    EPW11554   2.190   4.672   3.191
 2778SOL      O11555   2.437   4.050   2.423
 2778SOL     H111556   2.512   4.099   2.390
 2778SOL     H211557   2.380   4.040   2.347
 2778SOL    EPW11558   2.439   4.054   2.411
 2779SOL      O11559   2.634   4.947   2.572
 2779SOL     H111560   2.720   4.945   2.615
 2779SOL     H211561   2.644   4.890   2.495
 2779SOL    EPW11562   2.644   4.940   2.568
 2780SOL      O11563   2.625   5.223   3.434
 2780SOL     H111564   2.703   5.259   3.476
 2780SOL     H211565   2.659   5.167   3.363
 2780SOL    EPW11566   2.637   5.221   3.431
 2781SOL      O11567   2.434   4.417   2.513
 2781SOL     H111568   2.389   4.347   2.560
 2781SOL     H211569   2.526   4.407   2.538
 2781SOL    EPW11570   2.439   4.409   2.521
 2782SOL      O11571   2.744   5.072   3.244
 2782SOL     H111572   2.744   5.123   3.162
 2782SOL     H211573   2.693   4.994   3.224
 2782SOL    EPW11574   2.739   5.069   3.233
 2783SOL      O11575   2.546   4.230   2.932
 2783SOL     H111576   2.455   4.206   2.920
 2783SOL     H211577   2.593   4.146   2.932
 2783SOL    EPW11578   2.542   4.218   2.931
 2784SOL      O11579   2.291   4.653   2.772
 2784SOL     H111580   2.253   4.661   2.684
 2784SOL     H211581   2.238   4.710   2.827
 2784SOL    EPW11582   2.281   4.660   2.768
 2785SOL      O11583   2.024   5.540   2.723
 2785SOL     H111584   2.118   5.528   2.734
 2785SOL     H211585   1.988   5.451   2.720
 2785SOL    EPW11586   2.030   5.529   2.724
 2786SOL      O11587   3.181   4.865   2.027
 2786SOL     H111588   3.141   4.888   2.112
 2786SOL     H211589   3.222   4.947   1.998
 2786SOL    EPW11590   3.181   4.876   2.033
 2787SOL      O11591   2.213   5.105   2.682
 2787SOL     H111592   2.241   5.148   2.763
 2787SOL     H211593   2.289   5.110   2.624
 2787SOL    EPW11594   2.224   5.110   2.684
 2788SOL      O11595   2.770   4.674   2.601
 2788SOL     H111596   2.703   4.659   2.668
 2788SOL     H211597   2.826   4.596   2.606
 2788SOL    EPW11598   2.769   4.664   2.609
 2789SOL      O11599   2.208   5.325   3.343
 2789SOL     H111600   2.119   5.313   3.310
 2789SOL     H211601   2.245   5.237   3.345
 2789SOL    EPW11602   2.203   5.315   3.340
 2790SOL      O11603   2.744   5.032   2.261
 2790SOL     H111604   2.780   5.081   2.335
 2790SOL     H211605   2.728   4.945   2.297
 2790SOL    EPW11606   2.746   5.028   2.273
 2791SOL      O11607   3.584   3.945   2.734
 2791SOL     H111608   3.644   4.015   2.709
 2791SOL     H211609   3.634   3.865   2.722
 2791SOL    EPW11610   3.595   3.944   2.730
 2792SOL      O11611   2.251   4.022   2.221
 2792SOL     H111612   2.253   3.986   2.133
 2792SOL     H211613   2.217   4.111   2.210
 2792SOL    EPW11614   2.248   4.028   2.210
 2793SOL      O11615   2.093   5.024   2.281
 2793SOL     H111616   2.050   5.083   2.218
 2793SOL     H211617   2.085   4.937   2.241
 2793SOL    EPW11618   2.088   5.021   2.270
 2794SOL      O11619   2.774   5.480   2.119
 2794SOL     H111620   2.733   5.453   2.201
 2794SOL     H211621   2.740   5.420   2.053
 2794SOL    EPW11622   2.766   5.471   2.121
 2795SOL      O11623   3.725   4.178   1.970
 2795SOL     H111624   3.647   4.189   2.024
 2795SOL     H211625   3.797   4.181   2.033
 2795SOL    EPW11626   3.724   4.179   1.983
 2796SOL      O11627   3.374   4.867   2.354
 2796SOL     H111628   3.441   4.837   2.415
 2796SOL     H211629   3.394   4.960   2.341
 2796SOL    EPW11630   3.383   4.874   2.359
 2797SOL      O11631   3.287   4.494   3.455
 2797SOL     H111632   3.350   4.430   3.421
 2797SOL     H211633   3.202   4.464   3.420
 2797SOL    EPW11634   3.284   4.484   3.447
 2798SOL      O11635   2.029   5.315   3.003
 2798SOL     H111636   2.003   5.279   3.088
 2798SOL     H211637   1.994   5.404   3.003
 2798SOL    EPW11638   2.023   5.320   3.012
 2799SOL      O11639   3.015   4.797   3.433
 2799SOL     H111640   3.018   4.892   3.424
 2799SOL     H211641   3.082   4.777   3.499
 2799SOL    EPW11642   3.023   4.805   3.439
 2800SOL      O11643   2.801   4.261   3.663
 2800SOL     H111644   2.892   4.250   3.633
 2800SOL     H211645   2.752   4.194   3.615
 2800SOL    EPW11646   2.806   4.252   3.654
 2801SOL      O11647   3.014   4.379   2.379
 2801SOL     H111648   3.039   4.406   2.290
 2801SOL     H211649   2.999   4.285   2.372
 2801SOL    EPW11650   3.015   4.372   2.369
 2802SOL      O11651   2.609   4.073   3.536
 2802SOL     H111652   2.612   3.994   3.483
 2802SOL     H211653   2.604   4.041   3.626
 2802SOL    EPW11654   2.609   4.061   3.540
 2803SOL      O11655   2.348   5.451   2.509
 2803SOL     H111656   2.387   5.527   2.465
 2803SOL     H211657   2.282   5.419   2.448
 2803SOL    EPW11658   2.346   5.456   2.498
 2804SOL      O11659   3.720   3.705   2.724
 2804SOL     H111660   3.806   3.677   2.694
 2804SOL     H211661   3.659   3.658   2.667
 2804SOL    EPW11662   3.723   3.697   2.715
 2805SOL      O11663   1.985   5.474   2.082
 2805SOL     H111664   2.036   5.554   2.065
 2805SOL     H211665   1.962   5.441   1.996
 2805SOL    EPW11666   1.988   5.479   2.071
 2806SOL      O11667   2.798   3.711   2.931
 2806SOL     H111668   2.759   3.798   2.942
 2806SOL     H211669   2.892   3.726   2.942
 2806SOL    EPW11670   2.804   3.722   2.933
 2807SOL      O11671   2.814   4.454   2.026
 2807SOL     H111672   2.816   4.396   1.949
 2807SOL     H211673   2.906   4.462   2.052
 2807SOL    EPW11674   2.824   4.448   2.020
 2808SOL      O11675   3.424   4.299   2.431
 2808SOL     H111676   3.408   4.297   2.525
 2808SOL     H211677   3.387   4.383   2.402
 2808SOL    EPW11678   3.419   4.308   2.438
 2809SOL      O11679   2.755   4.716   3.442
 2809SOL     H111680   2.734   4.690   3.532
 2809SOL     H211681   2.846   4.746   3.447
 2809SOL    EPW11682   2.762   4.717   3.452
 2810SOL      O11683   2.850   3.855   3.212
 2810SOL     H111684   2.915   3.838   3.145
 2810SOL     H211685   2.832   3.949   3.206
 2810SOL    EPW11686   2.855   3.863   3.205
 2811SOL      O11687   2.893   4.283   2.975
 2811SOL     H111688   2.974   4.330   2.957
 2811SOL     H211689   2.826   4.350   2.979
 2811SOL    EPW11690   2.894   4.295   2.974
 2812SOL      O11691   3.474   4.331   3.328
 2812SOL     H111692   3.436   4.246   3.306
 2812SOL     H211693   3.484   4.374   3.243
 2812SOL    EPW11694   3.471   4.326   3.316
 2813SOL      O11695   3.607   5.424   3.215
 2813SOL     H111696   3.546   5.392   3.281
 2813SOL     H211697   3.640   5.507   3.250
 2813SOL    EPW11698   3.604   5.430   3.226
 2814SOL      O11699   2.924   4.066   3.454
 2814SOL     H111700   2.893   4.086   3.366
 2814SOL     H211701   2.914   3.971   3.462
 2814SOL    EPW11702   2.920   4.058   3.445
 2815SOL      O11703   3.370   4.894   3.470
 2815SOL     H111704   3.449   4.921   3.516
 2815SOL     H211705   3.323   4.840   3.533
 2815SOL    EPW11706   3.374   4.891   3.481
 2816SOL      O11707   2.027   3.955   2.502
 2816SOL     H111708   2.013   3.928   2.411
 2816SOL     H211709   1.954   3.915   2.550
 2816SOL    EPW11710   2.017   3.948   2.498
 2817SOL      O11711   2.939   5.098   2.082
 2817SOL     H111712   2.868   5.062   2.135
 2817SOL     H211713   2.925   5.061   1.994
 2817SOL    EPW11714   2.930   5.090   2.078
 2818SOL      O11715   2.017   4.131   2.913
 2818SOL     H111716   1.988   4.212   2.956
 2818SOL     H211717   1.953   4.117   2.843
 2818SOL    EPW11718   2.007   4.138   2.910
 2819SOL      O11719   2.436   5.484   2.225
 2819SOL     H111720   2.360   5.431   2.247
 2819SOL     H211721   2.509   5.441   2.271
 2819SOL    EPW11722   2.436   5.474   2.233
 2820SOL      O11723   3.588   4.977   3.607
 2820SOL     H111724   3.635   4.896   3.628
 2820SOL     H211725   3.535   4.994   3.685
 2820SOL    EPW11726   3.588   4.970   3.618
 2821SOL      O11727   2.555   4.866   1.929
 2821SOL     H111728   2.470   4.827   1.949
 2821SOL     H211729   2.556   4.947   1.980
 2821SOL    EPW11730   2.546   4.871   1.936
 2822SOL      O11731   3.701   4.676   3.036
 2822SOL     H111732   3.701   4.700   2.943
 2822SOL     H211733   3.788   4.637   3.051
 2822SOL    EPW11734   3.710   4.674   3.028
 2823SOL      O11735   3.523   5.331   2.796
 2823SOL     H111736   3.485   5.382   2.868
 2823SOL     H211737   3.486   5.243   2.808
 2823SOL    EPW11738   3.515   5.327   2.805
 2824SOL      O11739   3.137   5.469   2.023
 2824SOL     H111740   3.099   5.409   2.087
 2824SOL     H211741   3.169   5.413   1.953
 2824SOL    EPW11742   3.136   5.457   2.023
 2825SOL      O11743   2.001   4.393   3.057
 2825SOL     H111744   2.037   4.389   3.146
 2825SOL     H211745   1.945   4.471   3.058
 2825SOL    EPW11746   1.999   4.401   3.067
 2826SOL      O11747   3.290   5.108   1.962
 2826SOL     H111748   3.265   5.184   1.910
 2826SOL     H211749   3.336   5.145   2.037
 2826SOL    EPW11750   3.292   5.120   1.964
 2827SOL      O11751   2.620   3.923   1.898
 2827SOL     H111752   2.566   3.845   1.911
 2827SOL     H211753   2.710   3.893   1.914
 2827SOL    EPW11754   2.624   3.911   1.901
 2828SOL      O11755   2.114   5.545   3.496
 2828SOL     H111756   2.046   5.577   3.437
 2828SOL     H211757   2.149   5.467   3.453
 2828SOL    EPW11758   2.111   5.540   3.485
 2829SOL      O11759   2.160   4.806   2.960
 2829SOL     H111760   2.211   4.883   2.984
 2829SOL     H211761   2.071   4.839   2.947
 2829SOL    EPW11762   2.156   4.818   2.962
 2830SOL      O11763   2.667   4.723   3.004
 2830SOL     H111764   2.677   4.628   3.007
 2830SOL     H211765   2.620   4.740   2.923
 2830SOL    EPW11766   2.663   4.715   2.996
 2831SOL      O11767   1.997   4.609   2.353
 2831SOL     H111768   2.075   4.597   2.407
 2831SOL     H211769   1.978   4.522   2.318
 2831SOL    EPW11770   2.004   4.598   2.355
 2832SOL      O11771   2.214   4.308   3.680
 2832SOL     H111772   2.168   4.392   3.685
 2832SOL     H211773   2.288   4.317   3.740
 2832SOL    EPW11774   2.217   4.318   3.687
 2833SOL      O11775   2.616   3.836   3.381
 2833SOL     H111776   2.580   3.750   3.398
 2833SOL     H211777   2.702   3.819   3.341
 2833SOL    EPW11778   2.621   3.825   3.378
 2834SOL      O11779   2.295   4.356   3.424
 2834SOL     H111780   2.380   4.400   3.428
 2834SOL     H211781   2.279   4.325   3.513
 2834SOL    EPW11782   2.302   4.357   3.434
 2835SOL      O11783   2.639   5.531   2.846
 2835SOL     H111784   2.717   5.568   2.887
 2835SOL     H211785   2.630   5.579   2.764
 2835SOL    EPW11786   2.646   5.540   2.842
 2836SOL      O11787   3.211   3.867   3.699
 2836SOL     H111788   3.300   3.833   3.695
 2836SOL     H211789   3.220   3.952   3.743
 2836SOL    EPW11790   3.221   3.873   3.703
 2837SOL      O11791   2.003   5.232   2.455
 2837SOL     H111792   2.001   5.231   2.551
 2837SOL     H211793   2.032   5.145   2.430
 2837SOL    EPW11794   2.006   5.223   2.462
 2838SOL      O11795   2.857   5.203   2.458
 2838SOL     H111796   2.948   5.201   2.431
 2838SOL     H211797   2.858   5.172   2.548
 2838SOL    EPW11798   2.866   5.200   2.465
 2839SOL      O11799   3.497   4.571   3.697
 2839SOL     H111800   3.554   4.495   3.708
 2839SOL     H211801   3.471   4.595   3.786
 2839SOL    EPW11802   3.500   4.565   3.707
 2840SOL      O11803   2.660   5.302   1.948
 2840SOL     H111804   2.593   5.367   1.927
 2840SOL     H211805   2.612   5.230   1.989
 2840SOL    EPW11806   2.648   5.301   1.950
 2841SOL      O11807   3.006   3.964   2.146
 2841SOL     H111808   2.956   3.922   2.076
 2841SOL     H211809   3.068   4.021   2.100
 2841SOL    EPW11810   3.007   3.966   2.134
 2842SOL      O11811   2.816   4.128   3.205
 2842SOL     H111812   2.739   4.179   3.231
 2842SOL     H211813   2.856   4.180   3.135
 2842SOL    EPW11814   2.812   4.139   3.200
 2843SOL      O11815   3.065   4.488   2.860
 2843SOL     H111816   3.092   4.579   2.844
 2843SOL     H211817   3.022   4.462   2.778
 2843SOL    EPW11818   3.064   4.495   2.849
 2844SOL      O11819   2.541   4.773   2.768
 2844SOL     H111820   2.456   4.730   2.763
 2844SOL     H211821   2.549   4.819   2.685
 2844SOL    EPW11822   2.533   4.773   2.759
 2845SOL      O11823   3.324   4.300   2.687
 2845SOL     H111824   3.285   4.215   2.670
 2845SOL     H211825   3.337   4.301   2.782
 2845SOL    EPW11826   3.321   4.291   2.696
 2846SOL      O11827   2.240   3.951   3.393
 2846SOL     H111828   2.177   4.003   3.444
 2846SOL     H211829   2.281   4.015   3.334
 2846SOL    EPW11830   2.237   3.963   3.392
 2847SOL      O11831   2.912   4.446   2.630
 2847SOL     H111832   2.834   4.390   2.637
 2847SOL     H211833   2.955   4.418   2.549
 2847SOL    EPW11834   2.908   4.437   2.622
 2848SOL      O11835   2.174   5.386   2.303
 2848SOL     H111836   2.122   5.410   2.226
 2848SOL     H211837   2.115   5.330   2.354
 2848SOL    EPW11838   2.162   5.382   2.300
 2849SOL      O11839   2.668   4.774   2.356
 2849SOL     H111840   2.690   4.742   2.268
 2849SOL     H211841   2.720   4.719   2.415
 2849SOL    EPW11842   2.676   4.764   2.353
 2850SOL      O11843   3.174   5.343   3.111
 2850SOL     H111844   3.099   5.375   3.162
 2850SOL     H211845   3.144   5.262   3.072
 2850SOL    EPW11846   3.163   5.338   3.112
 2851SOL      O11847   3.234   5.500   2.520
 2851SOL     H111848   3.213   5.452   2.440
 2851SOL     H211849   3.328   5.487   2.532
 2851SOL    EPW11850   3.242   5.493   2.513
 2852SOL      O11851   3.210   4.053   2.625
 2852SOL     H111852   3.246   3.984   2.682
 2852SOL     H211853   3.120   4.026   2.610
 2852SOL    EPW11854   3.205   4.042   2.630
 2853SOL      O11855   1.998   4.955   2.592
 2853SOL     H111856   2.069   5.003   2.634
 2853SOL     H211857   2.041   4.890   2.537
 2853SOL    EPW11858   2.010   4.953   2.591
 2854SOL      O11859   2.498   5.004   3.560
 2854SOL     H111860   2.551   5.079   3.532
 2854SOL     H211861   2.546   4.969   3.635
 2854SOL    EPW11862   2.509   5.008   3.565
 2855SOL      O11863   2.066   5.214   3.704
 2855SOL     H111864   2.143   5.157   3.700
 2855SOL     H211865   2.014   5.188   3.628
 2855SOL    EPW11866   2.069   5.205   3.695
 2856SOL      O11867   3.210   4.109   2.016
 2856SOL     H111868   3.238   4.182   1.959
 2856SOL     H211869   3.275   4.108   2.086
 2856SOL    EPW11870   3.220   4.117   2.017
 2857SOL      O11871   2.865   3.818   1.962
 2857SOL     H111872   2.921   3.800   1.886
 2857SOL     H211873   2.852   3.732   2.003
 2857SOL    EPW11874   2.870   3.807   1.958
 2858SOL      O11875   3.298   4.620   2.114
 2858SOL     H111876   3.273   4.711   2.097
 2858SOL     H211877   3.304   4.614   2.209
 2858SOL    EPW11878   3.296   4.629   2.122
 2859SOL      O11879   2.991   5.061   3.367
 2859SOL     H111880   2.913   5.062   3.312
 2859SOL     H211881   3.061   5.093   3.310
 2859SOL    EPW11882   2.990   5.065   3.355
 2860SOL      O11883   2.270   3.792   3.623
 2860SOL     H111884   2.198   3.737   3.593
 2860SOL     H211885   2.287   3.851   3.549
 2860SOL    EPW11886   2.264   3.793   3.612
 2861SOL      O11887   2.278   5.256   2.914
 2861SOL     H111888   2.349   5.296   2.965
 2861SOL     H211889   2.198   5.283   2.959
 2861SOL    EPW11890   2.277   5.263   2.924
 2862SOL      O11891   3.748   4.792   3.294
 2862SOL     H111892   3.729   4.771   3.203
 2862SOL     H211893   3.675   4.753   3.343
 2862SOL    EPW11894   3.738   4.785   3.290
 2863SOL      O11895   2.749   5.276   3.057
 2863SOL     H111896   2.773   5.257   2.967
 2863SOL     H211897   2.656   5.300   3.053
 2863SOL    EPW11898   2.742   5.277   3.047
 2864SOL      O11899   2.286   4.807   1.972
 2864SOL     H111900   2.222   4.789   2.041
 2864SOL     H211901   2.247   4.771   1.892
 2864SOL    EPW11902   2.275   4.801   1.971
 2865SOL      O11903   2.947   4.693   2.258
 2865SOL     H111904   2.887   4.726   2.191
 2865SOL     H211905   3.003   4.768   2.279
 2865SOL    EPW11906   2.946   4.704   2.253
 2866SOL      O11907   2.545   5.050   2.870
 2866SOL     H111908   2.476   5.036   2.936
 2866SOL     H211909   2.556   4.964   2.830
 2866SOL    EPW11910   2.539   5.039   2.873
 2867SOL      O11911   3.338   4.094   3.290
 2867SOL     H111912   3.291   4.081   3.372
 2867SOL     H211913   3.317   4.017   3.237
 2867SOL    EPW11914   3.331   4.085   3.293
 2868SOL      O11915   3.674   3.962   3.050
 2868SOL     H111916   3.687   4.038   2.993
 2868SOL     H211917   3.733   3.896   3.015
 2868SOL    EPW11918   3.682   3.963   3.040
 2869SOL      O11919   1.921   5.123   3.489
 2869SOL     H111920   1.977   5.050   3.461
 2869SOL     H211921   1.845   5.081   3.530
 2869SOL    EPW11922   1.919   5.111   3.491
 2870SOL      O11923   2.623   3.876   2.555
 2870SOL     H111924   2.565   3.931   2.503
 2870SOL     H211925   2.694   3.853   2.495
 2870SOL    EPW11926   2.624   3.880   2.543
 2871SOL      O11927   2.365   5.016   2.279
 2871SOL     H111928   2.394   5.058   2.360
 2871SOL     H211929   2.270   5.027   2.278
 2871SOL    EPW11930   2.358   5.022   2.287
 2872SOL      O11931   2.929   5.400   3.237
 2872SOL     H111932   2.873   5.356   3.173
 2872SOL     H211933   2.898   5.490   3.237
 2872SOL    EPW11934   2.920   5.405   3.230
 2873SOL      O11935   3.075   5.396   2.720
 2873SOL     H111936   3.126   5.425   2.644
 2873SOL     H211937   2.989   5.376   2.684
 2873SOL    EPW11938   3.071   5.397   2.708
 2874SOL      O11939   3.411   5.454   3.022
 2874SOL     H111940   3.480   5.427   3.083
 2874SOL     H211941   3.334   5.405   3.049
 2874SOL    EPW11942   3.410   5.446   3.031
 2875SOL      O11943   2.636   4.483   3.694
 2875SOL     H111944   2.694   4.407   3.683
 2875SOL     H211945   2.565   4.450   3.749
 2875SOL    EPW11946   2.634   4.471   3.698
 2876SOL      O11947   3.389   4.687   3.292
 2876SOL     H111948   3.389   4.766   3.345
 2876SOL     H211949   3.353   4.619   3.350
 2876SOL    EPW11950   3.385   4.688   3.304
 2877SOL      O11951   2.978   3.799   3.546
 2877SOL     H111952   2.985   3.736   3.475
 2877SOL     H211953   3.064   3.799   3.587
 2877SOL    EPW11954   2.988   3.792   3.543
 2878SOL      O11955   2.426   4.342   1.990
 2878SOL     H111956   2.409   4.386   2.074
 2878SOL     H211957   2.490   4.275   2.011
 2878SOL    EPW11958   2.431   4.340   2.001
 2879SOL      O11959   3.424   5.088   2.856
 2879SOL     H111960   3.473   5.012   2.824
 2879SOL     H211961   3.341   5.085   2.809
 2879SOL    EPW11962   3.421   5.079   2.848
 2880SOL      O11963   2.989   4.696   3.174
 2880SOL     H111964   3.004   4.739   3.258
 2880SOL     H211965   2.956   4.766   3.117
 2880SOL    EPW11966   2.987   4.708   3.177
 2881SOL      O11967   3.493   4.215   2.106
 2881SOL     H111968   3.483   4.303   2.070
 2881SOL     H211969   3.546   4.227   2.184
 2881SOL    EPW11970   3.498   4.225   2.110
 2882SOL      O11971   2.281   3.858   2.547
 2882SOL     H111972   2.333   3.918   2.494
 2882SOL     H211973   2.191   3.889   2.537
 2882SOL    EPW11974   2.277   3.868   2.540
 2883SOL      O11975   2.081   4.925   3.399
 2883SOL     H111976   2.116   4.866   3.466
 2883SOL     H211977   2.016   4.872   3.353
 2883SOL    EPW11978   2.078   4.913   3.401
 2884SOL      O11979   2.584   4.243   3.313
 2884SOL     H111980   2.580   4.333   3.346
 2884SOL     H211981   2.588   4.189   3.391
 2884SOL    EPW11982   2.584   4.247   3.325
 2885SOL      O11983   3.059   4.486   2.134
 2885SOL     H111984   3.149   4.509   2.110
 2885SOL     H211985   3.026   4.564   2.179
 2885SOL    EPW11986   3.065   4.497   2.136
 2886SOL      O11987   2.239   4.622   2.498
 2886SOL     H111988   2.288   4.675   2.436
 2886SOL     H211989   2.295   4.546   2.515
 2886SOL    EPW11990   2.250   4.619   2.493
 2887SOL      O11991   3.292   4.070   2.361
 2887SOL     H111992   3.266   4.045   2.450
 2887SOL     H211993   3.341   4.151   2.372
 2887SOL    EPW11994   3.295   4.076   2.371
 2888SOL      O11995   2.954   3.975   2.573
 2888SOL     H111996   2.942   4.036   2.500
 2888SOL     H211997   2.908   4.017   2.646
 2888SOL    EPW11998   2.948   3.986   2.573
 2889SOL      O11999   2.892   5.214   1.813
 2889SOL     H112000   2.970   5.240   1.862
 2889SOL     H212001   2.819   5.242   1.868
 2889SOL    EPW12002   2.892   5.220   1.824
 2890SOL      O12003   3.705   4.739   3.670
 2890SOL     H112004   3.627   4.684   3.671
 2890SOL     H212005   3.778   4.678   3.658
 2890SOL    EPW12006   3.705   4.727   3.669
 2891SOL      O12007   1.932   5.287   2.736
 2891SOL     H112008   1.973   5.263   2.819
 2891SOL     H212009   1.838   5.292   2.757
 2891SOL    EPW12010   1.926   5.285   2.747
 2892SOL      O12011   1.892   4.366   2.236
 2892SOL     H112012   1.850   4.323   2.311
 2892SOL     H212013   1.980   4.330   2.234
 2892SOL    EPW12014   1.897   4.358   2.244
 2893SOL      O12015   3.465   5.624   3.707
 2893SOL     H112016   3.484   5.534   3.681
 2893SOL     H212017   3.499   5.630   3.796
 2893SOL    EPW12018   3.471   5.615   3.714
 2894SOL      O12019   3.151   5.146   2.442
 2894SOL     H112020   3.175   5.114   2.529
 2894SOL     H212021   3.233   5.147   2.393
 2894SOL    EPW12022   3.162   5.143   2.446
 2895SOL      O12023   2.364   4.100   3.192
 2895SOL     H112024   2.430   4.163   3.222
 2895SOL     H212025   2.336   4.132   3.107
 2895SOL    EPW12026   2.368   4.110   3.186
 2896SOL      O12027   2.293   4.120   2.904
 2896SOL     H112028   2.314   4.030   2.880
 2896SOL     H212029   2.197   4.121   2.908
 2896SOL    EPW12030   2.285   4.111   2.902
 2897SOL      O12031   3.084   4.283   3.623
 2897SOL     H112032   3.122   4.202   3.587
 2897SOL     H212033   3.060   4.335   3.547
 2897SOL    EPW12034   3.086   4.280   3.611
 2898SOL      O12035   3.185   4.062   3.509
 2898SOL     H112036   3.095   4.057   3.476
 2898SOL     H212037   3.198   3.981   3.558
 2898SOL    EPW12038   3.177   4.053   3.510
 2899SOL      O12039   2.382   3.881   2.802
 2899SOL     H112040   2.372   3.790   2.828
 2899SOL     H212041   2.356   3.882   2.710
 2899SOL    EPW12042   2.378   3.872   2.795
 2900SOL      O12043   2.469   5.415   3.307
 2900SOL     H112044   2.378   5.391   3.323
 2900SOL     H212045   2.520   5.349   3.354
 2900SOL    EPW12046   2.465   5.405   3.314
 2901SOL      O12047   3.811   4.975   2.900
 2901SOL     H112048   3.867   4.928   2.837
 2901SOL     H212049   3.723   4.945   2.880
 2901SOL    EPW12050   3.808   4.966   2.891
 2902SOL      O12051   3.160   4.741   2.802
 2902SOL     H112052   3.208   4.748   2.884
 2902SOL     H212053   3.220   4.696   2.743
 2902SOL    EPW12054   3.171   4.737   2.804
 2903SOL      O12055   3.170   4.279   3.183
 2903SOL     H112056   3.210   4.306   3.100
 2903SOL     H212057   3.224   4.206   3.213
 2903SOL    EPW12058   3.180   4.274   3.177
 2904SOL      O12059   3.678   4.360   3.678
 2904SOL     H112060   3.683   4.289   3.742
 2904SOL     H212061   3.684   4.317   3.593
 2904SOL    EPW12062   3.679   4.348   3.676
 2905SOL      O12063   3.223   4.713   3.615
 2905SOL     H112064   3.249   4.634   3.569
 2905SOL     H212065   3.255   4.701   3.704
 2905SOL    EPW12066   3.229   4.703   3.620
 2906SOL      O12067   3.213   3.782   2.090
 2906SOL     H112068   3.292   3.831   2.113
 2906SOL     H212069   3.142   3.835   2.125
 2906SOL    EPW12070   3.214   3.793   2.096
 2907SOL      O12071   3.266   4.525   2.381
 2907SOL     H112072   3.187   4.474   2.397
 2907SOL     H212073   3.289   4.561   2.467
 2907SOL    EPW12074   3.260   4.523   2.392
 2908SOL      O12075   2.322   5.017   3.041
 2908SOL     H112076   2.323   5.033   3.135
 2908SOL     H212077   2.299   5.101   3.002
 2908SOL    EPW12078   2.320   5.027   3.047
 2909SOL      O12079   2.633   3.953   2.918
 2909SOL     H112080   2.597   3.927   3.003
 2909SOL     H212081   2.568   3.922   2.855
 2909SOL    EPW12082   2.622   3.947   2.920
 2910SOL      O12083   2.490   5.375   3.034
 2910SOL     H112084   2.530   5.448   2.987
 2910SOL     H212085   2.487   5.405   3.125
 2910SOL    EPW12086   2.494   5.386   3.039
 2911SOL      O12087   3.292   5.123   3.348
 2911SOL     H112088   3.317   5.044   3.397
 2911SOL     H212089   3.306   5.100   3.256
 2911SOL    EPW12090   3.296   5.112   3.343
 2912SOL      O12091   2.431   4.763   3.435
 2912SOL     H112092   2.475   4.782   3.352
 2912SOL     H212093   2.460   4.833   3.494
 2912SOL    EPW12094   2.439   4.772   3.433
 2913SOL      O12095   2.605   4.835   3.241
 2913SOL     H112096   2.665   4.794   3.303
 2913SOL     H212097   2.622   4.791   3.158
 2913SOL    EPW12098   2.613   4.826   3.239
 2914SOL      O12099   2.631   4.163   2.029
 2914SOL     H112100   2.710   4.197   1.986
 2914SOL     H212101   2.620   4.075   1.992
 2914SOL    EPW12102   2.638   4.157   2.020
 2915SOL      O12103   3.425   5.357   3.402
 2915SOL     H112104   3.464   5.339   3.488
 2915SOL     H212105   3.378   5.276   3.380
 2915SOL    EPW12106   3.424   5.346   3.409
 2916SOL      O12107   3.052   3.813   2.995
 2916SOL     H112108   3.102   3.819   2.914
 2916SOL     H212109   3.117   3.819   3.064
 2916SOL    EPW12110   3.064   3.814   2.994
 2917SOL      O12111   2.076   4.784   2.154
 2917SOL     H112112   1.996   4.795   2.102
 2917SOL     H212113   2.052   4.719   2.220
 2917SOL    EPW12114   2.065   4.778   2.156
 2918SOL      O12115   2.491   5.107   2.047
 2918SOL     H112116   2.463   5.080   2.135
 2918SOL     H212117   2.411   5.108   1.995
 2918SOL    EPW12118   2.480   5.104   2.051
 2919SOL      O12119   2.992   5.332   2.205
 2919SOL     H112120   2.984   5.245   2.168
 2919SOL     H212121   2.918   5.381   2.167
 2919SOL    EPW12122   2.983   5.328   2.197
 2920SOL      O12123   2.285   5.490   2.768
 2920SOL     H112124   2.289   5.406   2.813
 2920SOL     H212125   2.313   5.470   2.678
 2920SOL    EPW12126   2.288   5.479   2.763
 2921SOL      O12127   2.891   4.881   2.992
 2921SOL     H112128   2.810   4.832   3.000
 2921SOL     H212129   2.911   4.880   2.898
 2921SOL    EPW12130   2.885   4.875   2.983
 2922SOL      O12131   1.953   5.268   3.262
 2922SOL     H112132   1.935   5.214   3.339
 2922SOL     H212133   1.871   5.315   3.246
 2922SOL    EPW12134   1.942   5.267   3.269
 2923SOL      O12135   2.818   4.106   2.773
 2923SOL     H112136   2.767   4.041   2.820
 2923SOL     H212137   2.860   4.158   2.841
 2923SOL    EPW12138   2.817   4.105   2.785
 2924SOL      O12139   2.527   4.496   3.445
 2924SOL     H112140   2.500   4.588   3.440
 2924SOL     H212141   2.566   4.488   3.532
 2924SOL    EPW12142   2.528   4.505   3.454
 2925SOL      O12143   2.270   5.031   3.710
 2925SOL     H112144   2.348   5.035   3.655
 2925SOL     H212145   2.235   4.943   3.697
 2925SOL    EPW12146   2.274   5.022   3.703
 2926SOL      O12147   3.251   3.858   3.184
 2926SOL     H112148   3.315   3.845   3.114
 2926SOL     H212149   3.285   3.807   3.258
 2926SOL    EPW12150   3.261   3.851   3.184
 2927SOL      O12151   3.548   5.372   3.647
 2927SOL     H112152   3.525   5.333   3.731
 2927SOL     H212153   3.635   5.409   3.661
 2927SOL    EPW12154   3.555   5.372   3.657
 2928SOL      O12155   2.311   4.208   2.635
 2928SOL     H112156   2.362   4.141   2.589
 2928SOL     H212157   2.307   4.178   2.726
 2928SOL    EPW12158   2.316   4.198   2.640
 2929SOL      O12159   1.914   5.500   3.683
 2929SOL     H112160   1.990   5.498   3.625
 2929SOL     H212161   1.884   5.591   3.681
 2929SOL    EPW12162   1.919   5.509   3.677
 2930SOL      O12163   2.718   5.257   2.778
 2930SOL     H112164   2.653   5.191   2.803
 2930SOL     H212165   2.675   5.341   2.794
 2930SOL    EPW12166   2.706   5.259   2.782
 2931SOL      O12167   2.917   4.125   2.352
 2931SOL     H112168   2.952   4.072   2.280
 2931SOL     H212169   2.823   4.132   2.332
 2931SOL    EPW12170   2.910   4.120   2.342
 2932SOL      O12171   2.010   3.887   2.244
 2932SOL     H112172   2.095   3.930   2.233
 2932SOL     H212173   2.022   3.801   2.203
 2932SOL    EPW12174   2.021   3.882   2.239
 2933SOL      O12175   1.898   4.263   3.429
 2933SOL     H112176   1.952   4.326   3.381
 2933SOL     H212177   1.816   4.258   3.379
 2933SOL    EPW12178   1.895   4.270   3.419
 2934SOL      O12179   3.111   4.905   2.300
 2934SOL     H112180   3.104   4.992   2.339
 2934SOL     H212181   3.200   4.876   2.321
 2934SOL    EPW12182   3.120   4.911   2.306
 2935SOL      O12183   2.841   3.796   2.398
 2935SOL     H112184   2.890   3.837   2.470
 2935SOL     H212185   2.888   3.822   2.319
 2935SOL    EPW12186   2.851   3.803   2.397
 2936SOL      O12187   2.069   4.457   3.327
 2936SOL     H112188   2.096   4.535   3.280
 2936SOL     H212189   2.152   4.415   3.353
 2936SOL    EPW12190   2.081   4.461   3.325
 2937SOL      O12191   2.036   4.540   3.590
 2937SOL     H112192   1.969   4.483   3.627
 2937SOL     H212193   2.044   4.513   3.499
 2937SOL    EPW12194   2.030   4.531   3.584
 2938SOL      O12195   2.207   3.774   3.180
 2938SOL     H112196   2.211   3.831   3.257
 2938SOL     H212197   2.299   3.751   3.162
 2938SOL    EPW12198   2.218   3.778   3.186
 2939SOL      O12199   2.364   4.458   2.244
 2939SOL     H112200   2.369   4.554   2.242
 2939SOL     H212201   2.405   4.434   2.327
 2939SOL    EPW12202   2.369   4.466   2.252
 2940SOL      O12203   3.038   4.402   3.382
 2940SOL     H112204   3.077   4.354   3.309
 2940SOL     H212205   2.954   4.431   3.348
 2940SOL    EPW12206   3.033   4.400   3.370
 2941SOL      O12207   2.071   4.222   2.503
 2941SOL     H112208   2.144   4.233   2.563
 2941SOL     H212209   2.051   4.129   2.506
 2941SOL    EPW12210   2.076   4.214   2.510
 2942SOL      O12211   2.684   4.453   3.026
 2942SOL     H112212   2.627   4.377   3.015
 2942SOL     H212213   2.712   4.449   3.117
 2942SOL    EPW12214   2.681   4.445   3.035
 2943SOL      O12215   3.419   5.632   3.423
 2943SOL     H112216   3.404   5.537   3.415
 2943SOL     H212217   3.429   5.647   3.517
 2943SOL    EPW12218   3.418   5.623   3.432
 2944SOL      O12219   2.496   3.866   3.140
 2944SOL     H112220   2.441   3.944   3.152
 2944SOL     H212221   2.541   3.856   3.224
 2944SOL    EPW12222   2.495   3.874   3.150
 2945SOL      O12223   1.839   4.820   2.023
 2945SOL     H112224   1.792   4.888   2.072
 2945SOL     H212225   1.801   4.738   2.055
 2945SOL    EPW12226   1.830   4.819   2.032
 2946SOL      O12227   3.242   3.829   2.783
 2946SOL     H112228   3.320   3.834   2.837
 2946SOL     H212229   3.264   3.764   2.715
 2946SOL    EPW12230   3.252   3.822   2.781
 2947SOL      O12231   3.315   4.580   2.645
 2947SOL     H112232   3.403   4.617   2.637
 2947SOL     H212233   3.329   4.487   2.663
 2947SOL    EPW12234   3.326   4.574   2.646
 2948SOL      O12235   2.464   5.496   1.951
 2948SOL     H112236   2.382   5.534   1.919
 2948SOL     H212237   2.455   5.498   2.046
 2948SOL    EPW12238   2.454   5.500   1.958
 2949SOL      O12239   2.811   4.507   3.266
 2949SOL     H112240   2.875   4.562   3.221
 2949SOL     H212241   2.774   4.564   3.334
 2949SOL    EPW12242   2.814   4.519   3.268
 2950SOL      O12243   2.200   4.763   3.587
 2950SOL     H112244   2.148   4.683   3.588
 2950SOL     H212245   2.272   4.744   3.526
 2950SOL    EPW12246   2.202   4.752   3.580
 2951SOL      O12247   3.313   4.306   1.844
 2951SOL     H112248   3.293   4.399   1.842
 2951SOL     H212249   3.406   4.301   1.821
 2951SOL    EPW12250   3.321   4.315   1.841
 2952SOL      O12251   2.435   5.133   2.519
 2952SOL     H112252   2.509   5.078   2.544
 2952SOL     H212253   2.470   5.222   2.518
 2952SOL    EPW12254   2.447   5.136   2.521
 2953SOL      O12255   2.667   4.313   2.674
 2953SOL     H112256   2.616   4.322   2.754
 2953SOL     H212257   2.717   4.232   2.687
 2953SOL    EPW12258   2.667   4.305   2.684
 2954SOL      O12259   3.637   3.818   3.289
 2954SOL     H112260   3.546   3.834   3.314
 2954SOL     H212261   3.651   3.874   3.212
 2954SOL    EPW12262   3.629   3.826   3.283
 2955SOL      O12263   2.924   4.867   2.719
 2955SOL     H112264   3.014   4.838   2.730
 2955SOL     H212265   2.880   4.795   2.674
 2955SOL    EPW12266   2.929   4.856   2.715
 2956SOL      O12267   2.725   4.714   2.091
 2956SOL     H112268   2.744   4.629   2.051
 2956SOL     H212269   2.673   4.760   2.025
 2956SOL    EPW12270   2.722   4.710   2.079
 2957SOL      O12271   3.165   5.142   2.770
 2957SOL     H112272   3.142   5.234   2.757
 2957SOL     H212273   3.121   5.118   2.851
 2957SOL    EPW12274   3.158   5.150   2.777
 2958SOL      O12275   3.067   5.095   3.031
 2958SOL     H112276   3.150   5.053   3.054
 2958SOL     H212277   3.005   5.023   3.024
 2958SOL    EPW12278   3.070   5.083   3.033
 2959SOL      O12279   2.097   4.448   2.805
 2959SOL     H112280   2.087   4.428   2.898
 2959SOL     H212281   2.173   4.506   2.800
 2959SOL    EPW12282   2.104   4.452   2.814
 2960SOL      O12283   3.272   5.208   3.655
 2960SOL     H112284   3.239   5.294   3.681
 2960SOL     H212285   3.245   5.198   3.564
 2960SOL    EPW12286   3.266   5.217   3.648
 2961SOL      O12287   3.429   3.942   2.163
 2961SOL     H112288   3.390   3.970   2.246
 2961SOL     H212289   3.471   4.021   2.129
 2961SOL    EPW12290   3.430   3.953   2.168
 2962SOL      O12291   2.745   4.429   2.298
 2962SOL     H112292   2.759   4.442   2.204
 2962SOL     H212293   2.834   4.431   2.336
 2962SOL    EPW12294   2.756   4.431   2.292
 2963SOL      O12295   2.070   4.094   3.564
 2963SOL     H112296   2.008   4.145   3.511
 2963SOL     H212297   2.122   4.161   3.609
 2963SOL    EPW12298   2.069   4.107   3.563
 2964SOL      O12299   3.237   4.749   3.072
 2964SOL     H112300   3.298   4.719   3.140
 2964SOL     H212301   3.152   4.717   3.100
 2964SOL    EPW12302   3.235   4.742   3.082
 2965SOL      O12303   2.680   5.406   2.364
 2965SOL     H112304   2.719   5.481   2.409
 2965SOL     H212305   2.735   5.332   2.390
 2965SOL    EPW12306   2.690   5.406   2.372
 2966SOL      O12307   3.428   3.825   2.986
 2966SOL     H112308   3.451   3.732   2.988
 2966SOL     H212309   3.512   3.870   2.975
 2966SOL    EPW12310   3.439   3.820   2.985
 2967SOL      O12311   1.989   3.743   3.022
 2967SOL     H112312   2.015   3.748   2.930
 2967SOL     H212313   2.069   3.761   3.071
 2967SOL    EPW12314   2.000   3.746   3.018
 2968SOL      O12315   2.304   5.067   3.319
 2968SOL     H112316   2.228   5.013   3.341
 2968SOL     H212317   2.373   5.036   3.378
 2968SOL    EPW12318   2.304   5.058   3.328
 2969SOL      O12319   2.187   3.880   1.991
 2969SOL     H112320   2.100   3.911   1.968
 2969SOL     H212321   2.223   3.846   1.909
 2969SOL    EPW12322   2.182   3.879   1.980
 2970SOL      O12323   3.296   4.364   2.958
 2970SOL     H112324   3.229   4.422   2.921
 2970SOL     H212325   3.362   4.423   2.993
 2970SOL    EPW12326   3.296   4.376   2.958
 2971SOL      O12327   1.940   3.958   1.900
 2971SOL     H112328   1.896   4.028   1.948
 2971SOL     H212329   1.978   4.002   1.824
 2971SOL    EPW12330   1.940   3.970   1.897
 2972SOL      O12331   1.954   5.188   2.109
 2972SOL     H112332   1.954   5.282   2.129
 2972SOL     H212333   1.986   5.184   2.018
 2972SOL    EPW12334   1.958   5.198   2.101
 2973SOL      O12335   5.345   1.767   0.042
 2973SOL     H112336   5.440   1.766   0.040
 2973SOL     H212337   5.322   1.860   0.032
 2973SOL    EPW12338   5.352   1.777   0.040
 2974SOL      O12339   5.609   1.202   0.057
 2974SOL     H112340   5.596   1.288   0.097
 2974SOL     H212341   2.652   4.153   4.120
 2974SOL    EPW12342   5.605   1.212   0.052
 2975SOL      O12343   5.121   1.299   0.004
 2975SOL     H112344   2.234   4.317   4.153
 2975SOL     H212345   5.095   1.295   0.096
 2975SOL    EPW12346   5.123   1.307   0.013
 2976SOL      O12347   5.424   1.015   0.141
 2976SOL     H112348   5.484   1.084   0.113
 2976SOL     H212349   5.356   1.014   0.072
 2976SOL    EPW12350   5.423   1.023   0.131
 2977SOL      O12351   5.596   2.007   0.187
 2977SOL     H112352   5.660   2.004   0.258
 2977SOL     H212353   5.602   1.921   0.145
 2977SOL    EPW12354   5.603   1.997   0.190
 2978SOL      O12355   3.196   4.918   3.934
 2978SOL     H112356   3.121   4.978   3.927
 2978SOL     H212357   3.268   4.965   3.892
 2978SOL    EPW12358   3.195   4.930   3.929
 2979SOL      O12359   5.751   2.153   0.009
 2979SOL     H112360   5.745   2.238   0.053
 2979SOL     H212361   5.692   2.096   0.059
 2979SOL    EPW12362   5.744   2.156   0.019
 2980SOL      O12363   2.269   3.976   4.121
 2980SOL     H112364   2.257   3.955   4.028
 2980SOL     H212365   2.241   4.068   4.128
 2980SOL    EPW12366   2.265   3.984   4.111
 2981SOL      O12367   2.063   4.971   4.129
 2981SOL     H112368   2.042   5.043   4.070
 2981SOL     H212369   2.077   4.896   4.071
 2981SOL    EPW12370   2.062   4.970   4.116
 2982SOL      O12371   2.778   5.469   3.922
 2982SOL     H112372   2.772   5.486   4.016
 2982SOL     H212373   2.711   5.402   3.905
 2982SOL    EPW12374   2.770   5.464   3.930
 2983SOL      O12375   3.674   4.175   3.889
 2983SOL     H112376   3.584   4.189   3.918
 2983SOL     H212377   3.727   4.198   3.965
 2983SOL    EPW12378   3.670   4.179   3.900
 2984SOL      O12379   3.646   5.061   3.986
 2984SOL     H112380   3.644   5.033   4.078
 2984SOL     H212381   3.721   5.120   3.981
 2984SOL    EPW12382   3.653   5.064   3.996
 2985SOL      O12383   5.353   2.547   0.098
 2985SOL     H112384   5.332   2.607   0.169
 2985SOL     H212385   5.269   2.512   0.070
 2985SOL    EPW12386   5.342   2.550   0.102
 2986SOL      O12387   1.995   5.474   3.946
 2986SOL     H112388   2.041   5.558   3.940
 2986SOL     H212389   1.973   5.452   3.856
 2986SOL    EPW12390   1.997   5.481   3.936
 2987SOL      O12391   3.440   5.330   3.903
 2987SOL     H112392   3.486   5.407   3.935
 2987SOL     H212393   3.360   5.363   3.864
 2987SOL    EPW12394   3.437   5.341   3.902
 2988SOL      O12395   2.856   4.358   3.922
 2988SOL     H112396   2.853   4.329   3.831
 2988SOL     H212397   2.947   4.382   3.937
 2988SOL    EPW12398   2.865   4.357   3.914
 2989SOL      O12399   4.860   1.029   0.216
 2989SOL     H112400   4.899   0.974   0.148
 2989SOL     H212401   4.794   0.972   0.257
 2989SOL    EPW12402   4.857   1.017   0.213
 2990SOL      O12403   2.962   5.072   3.930
 2990SOL     H112404   2.896   5.067   3.999
 2990SOL     H212405   2.912   5.088   3.850
 2990SOL    EPW12406   2.949   5.073   3.929
 2991SOL      O12407   2.539   5.644   4.074
 2991SOL     H112408   2.482   5.593   4.132
 2991SOL     H212409   2.628   5.623   4.102
 2991SOL    EPW12410   2.542   5.636   4.083
 2992SOL      O12411   2.568   4.869   3.797
 2992SOL     H112412   2.495   4.808   3.806
 2992SOL     H212413   2.545   4.944   3.852
 2992SOL    EPW12414   2.558   4.871   3.804
 2993SOL      O12415   3.214   5.448   3.805
 2993SOL     H112416   3.142   5.406   3.851
 2993SOL     H212417   3.241   5.520   3.862
 2993SOL    EPW12418   3.209   5.451   3.816
 2994SOL      O12419   3.414   5.031   3.812
 2994SOL     H112420   3.370   5.102   3.764
 2994SOL     H212421   3.474   5.076   3.871
 2994SOL    EPW12422   3.416   5.044   3.813
 2995SOL      O12423   2.624   3.965   3.790
 2995SOL     H112424   2.569   3.887   3.787
 2995SOL     H212425   2.714   3.930   3.792
 2995SOL    EPW12426   2.628   3.953   3.790
 2996SOL      O12427   4.952   1.647   0.027
 2996SOL     H112428   5.018   1.637   0.096
 2996SOL     H212429   4.933   1.557   0.000
 2996SOL    EPW12430   4.957   1.636   0.032
 2997SOL      O12431   4.916   2.328   0.150
 2997SOL     H112432   4.914   2.414   0.191
 2997SOL     H212433   4.929   2.267   0.222
 2997SOL    EPW12434   4.917   2.331   0.162
 2998SOL      O12435   5.760   2.376   0.173
 2998SOL     H112436   5.831   2.338   0.225
 2998SOL     H212437   5.693   2.399   0.237
 2998SOL    EPW12438   5.760   2.374   0.185
 2999SOL      O12439   2.596   5.281   3.835
 2999SOL     H112440   2.536   5.355   3.828
 2999SOL     H212441   2.545   5.213   3.878
 2999SOL    EPW12442   2.584   5.282   3.839
 3000SOL      O12443   2.999   3.973   3.997
 3000SOL     H112444   2.946   3.931   3.930
 3000SOL     H212445   3.058   4.031   3.949
 3000SOL    EPW12446   3.000   3.975   3.985
 3001SOL      O12447   5.102   2.476   0.013
 3001SOL     H112448   2.125   5.429   4.082
 3001SOL     H212449   5.056   2.400   0.048
 3001SOL    EPW12450   5.093   2.470   0.008
 3002SOL      O12451   5.621   1.773   0.029
 3002SOL     H112452   2.705   4.731   4.093
 3002SOL     H212453   5.666   1.690   0.047
 3002SOL    EPW12454   5.628   1.766   0.021
 3003SOL      O12455   4.902   2.135   0.354
 3003SOL     H112456   4.989   2.104   0.380
 3003SOL     H212457   4.875   2.076   0.283
 3003SOL    EPW12458   4.908   2.125   0.349
 3004SOL      O12459   3.189   4.103   3.838
 3004SOL     H112460   3.152   4.175   3.787
 3004SOL     H212461   3.267   4.142   3.879
 3004SOL    EPW12462   3.194   4.115   3.837
 3005SOL      O12463   2.866   3.840   3.797
 3005SOL     H112464   2.897   3.822   3.709
 3005SOL     H212465   2.849   3.754   3.835
 3005SOL    EPW12466   2.868   3.829   3.792
 3006SOL      O12467   3.344   4.684   3.906
 3006SOL     H112468   3.302   4.769   3.915
 3006SOL     H212469   3.342   4.646   3.994
 3006SOL    EPW12470   3.339   4.689   3.916
 3007SOL      O12471   2.330   4.733   3.825
 3007SOL     H112472   2.261   4.740   3.891
 3007SOL     H212473   2.284   4.732   3.742
 3007SOL    EPW12474   2.318   4.734   3.824
 3008SOL      O12475   3.030   4.723   4.045
 3008SOL     H112476   2.943   4.732   4.006
 3008SOL     H212477   3.082   4.792   4.004
 3008SOL    EPW12478   3.027   4.732   4.037
 3009SOL      O12479   5.632   0.867   0.249
 3009SOL     H112480   5.546   0.902   0.225
 3009SOL     H212481   5.614   0.781   0.287
 3009SOL    EPW12482   5.621   0.862   0.250
 3010SOL      O12483   5.275   2.038   0.018
 3010SOL     H112484   5.298   2.079   0.101
 3010SOL     H212485   5.180   2.042   0.014
 3010SOL    EPW12486   5.267   2.043   0.026
 3011SOL      O12487   2.432   4.365   3.846
 3011SOL     H112488   2.393   4.410   3.921
 3011SOL     H212489   2.489   4.299   3.885
 3011SOL    EPW12490   2.434   4.363   3.858
 3012SOL      O12491   3.402   4.241   3.949
 3012SOL     H112492   3.370   4.308   3.889
 3012SOL     H212493   3.364   4.264   4.033
 3012SOL    EPW12494   3.395   4.251   3.951
 3013SOL      O12495   5.221   0.901   0.295
 3013SOL     H112496   5.282   0.967   0.263
 3013SOL     H212497   5.177   0.942   0.369
 3013SOL    EPW12498   5.223   0.912   0.299
 3014SOL      O12499   3.110   4.466   3.975
 3014SOL     H112500   3.167   4.469   3.898
 3014SOL     H212501   3.084   4.557   3.990
 3014SOL    EPW12502   3.113   4.476   3.968
 3015SOL      O12503   5.158   1.643   0.206
 3015SOL     H112504   5.228   1.691   0.162
 3015SOL     H212505   5.202   1.592   0.274
 3015SOL    EPW12506   5.170   1.643   0.208
 3016SOL      O12507   2.814   5.158   3.719
 3016SOL     H112508   2.848   5.215   3.650
 3016SOL     H212509   2.737   5.205   3.752
 3016SOL    EPW12510   2.809   5.169   3.715
 3017SOL      O12511   1.940   4.335   4.083
 3017SOL     H112512   1.883   4.304   4.154
 3017SOL     H212513   2.024   4.291   4.100
 3017SOL    EPW12514   1.943   4.327   4.093
 3018SOL      O12515   3.208   3.802   3.965
 3018SOL     H112516   3.210   3.821   3.872
 3018SOL     H212517   3.128   3.844   3.997
 3018SOL    EPW12518   3.199   3.808   3.959
 3019SOL      O12519   0.369   1.634   0.003
 3019SOL     H112520   3.247   4.512   4.115
 3019SOL     H212521   0.316   1.677   0.070
 3019SOL    EPW12522   0.357   1.632   0.005
 3020SOL      O12523   2.622   4.193   3.950
 3020SOL     H112524   2.707   4.234   3.934
 3020SOL     H212525   2.624   4.113   3.898
 3020SOL    EPW12526   2.631   4.189   3.942
 3021SOL      O12527   2.098   4.742   3.981
 3021SOL     H112528   2.016   4.766   3.936
 3021SOL     H212529   2.069   4.689   4.055
 3021SOL    EPW12530   2.086   4.739   3.984
 3022SOL      O12531   2.443   5.072   3.932
 3022SOL     H112532   2.410   5.046   4.017
 3022SOL     H212533   2.368   5.062   3.873
 3022SOL    EPW12534   2.432   5.068   3.934
 3023SOL      O12535   3.016   5.340   3.946
 3023SOL     H112536   2.999   5.246   3.941
 3023SOL     H212537   2.930   5.381   3.934
 3023SOL    EPW12538   3.005   5.335   3.945
 3024SOL      O12539   4.995   0.873   0.036
 3024SOL     H112540   5.073   0.927   0.024
 3024SOL     H212541   2.055   3.756   4.114
 3024SOL    EPW12542   5.004   0.873   0.026
 3025SOL      O12543   2.299   4.487   4.058
 3025SOL     H112544   2.224   4.530   4.017
 3025SOL     H212545   2.344   4.557   4.105
 3025SOL    EPW12546   2.296   4.499   4.058
 3026SOL      O12547   5.002   1.255   0.252
 3026SOL     H112548   5.033   1.251   0.343
 3026SOL     H212549   4.959   1.170   0.239
 3026SOL    EPW12550   5.001   1.245   0.261
 3027SOL      O12551   3.576   5.562   3.965
 3027SOL     H112552   3.669   5.540   3.969
 3027SOL     H212553   3.553   5.589   4.054
 3027SOL    EPW12554   3.583   5.562   3.975
 3028SOL      O12555   1.851   4.825   3.898
 3028SOL     H112556   1.805   4.901   3.934
 3028SOL     H212557   1.800   4.750   3.927
 3028SOL    EPW12558   1.841   4.825   3.905
 3029SOL      O12559   2.450   5.510   3.844
 3029SOL     H112560   2.392   5.568   3.795
 3029SOL     H212561   2.477   5.561   3.920
 3029SOL    EPW12562   2.447   5.521   3.847
 3030SOL      O12563   3.282   4.408   3.764
 3030SOL     H112564   3.221   4.373   3.700
 3030SOL     H212565   3.345   4.459   3.712
 3030SOL    EPW12566   3.283   4.410   3.751
 3031SOL      O12567   5.352   2.139   0.271
 3031SOL     H112568   5.439   2.103   0.255
 3031SOL     H212569   5.368   2.222   0.315
 3031SOL    EPW12570   5.363   2.144   0.274
 3032SOL      O12571   2.768   4.720   3.920
 3032SOL     H112572   2.755   4.635   3.879
 3032SOL     H212573   2.709   4.779   3.873
 3032SOL    EPW12574   2.760   4.717   3.911
 3033SOL      O12575   5.759   1.528   0.026
 3033SOL     H112576   2.818   4.428   4.094
 3033SOL     H212577   5.850   1.519   0.053
 3033SOL    EPW12578   5.768   1.523   0.019
 3034SOL      O12579   5.719   2.605   0.029
 3034SOL     H112580   5.789   2.666   0.054
 3034SOL     H212581   5.738   2.525   0.077
 3034SOL    EPW12582   5.729   2.603   0.037
 3035SOL      O12583   2.188   3.891   3.866
 3035SOL     H112584   2.101   3.925   3.843
 3035SOL     H212585   2.227   3.866   3.783
 3035SOL    EPW12586   2.183   3.892   3.855
 3036SOL      O12587   1.939   3.963   3.769
 3036SOL     H112588   1.894   4.037   3.811
 3036SOL     H212589   1.979   4.001   3.691
 3036SOL    EPW12590   1.939   3.975   3.765
 3037SOL      O12591   1.987   5.185   3.960
 3037SOL     H112592   1.986   5.277   3.985
 3037SOL     H212593   2.016   5.185   3.868
 3037SOL    EPW12594   1.990   5.194   3.953
 3038SOL      O12595   3.272   5.240   4.108
 3038SOL     H112596   3.337   5.263   4.042
 3038SOL     H212597   3.241   5.325   4.142
 3038SOL    EPW12598   3.276   5.252   4.105
 3039SOL      O12599   2.447   5.875   0.475
 3039SOL     H112600   2.430   0.092   0.469
 3039SOL     H212601   2.416   5.839   0.392
 3039SOL    EPW12602   2.442   0.004   0.466
 3040SOL      O12603   2.765   0.288   1.764
 3040SOL     H112604   2.828   0.283   1.693
 3040SOL     H212605   2.789   0.217   1.824
 3040SOL    EPW12606   2.774   0.280   1.763
 3041SOL      O12607   2.583   0.036   1.825
 3041SOL     H112608   2.607   0.057   1.734
 3041SOL     H212609   2.633   5.834   1.845
 3041SOL    EPW12610   2.591   0.030   1.817
 3042SOL      O12611   3.728   5.589   0.662
 3042SOL     H112612   3.775   5.552   0.737
 3042SOL     H212613   3.656   5.528   0.646
 3042SOL    EPW12614   3.726   5.579   0.668
 3043SOL      O12615   2.870   5.616   1.131
 3043SOL     H112616   2.847   5.709   1.129
 3043SOL     H212617   2.962   5.613   1.106
 3043SOL    EPW12618   2.877   5.626   1.128
 3044SOL      O12619   2.817   5.695   1.397
 3044SOL     H112620   2.837   5.643   1.319
 3044SOL     H212621   2.854   5.781   1.378
 3044SOL    EPW12622   2.823   5.698   1.386
 3045SOL      O12623   2.021   5.770   0.631
 3045SOL     H112624   2.026   5.760   0.536
 3045SOL     H212625   1.963   5.698   0.659
 3045SOL    EPW12626   2.015   5.761   0.624
 3046SOL      O12627   2.567   5.692   1.502
 3046SOL     H112628   2.531   5.603   1.494
 3046SOL     H212629   2.658   5.683   1.474
 3046SOL    EPW12630   2.573   5.681   1.498
 3047SOL      O12631   3.287   5.763   1.855
 3047SOL     H112632   3.281   5.685   1.801
 3047SOL     H212633   3.279   5.731   1.945
 3047SOL    EPW12634   3.286   5.752   1.859
 3048SOL      O12635   2.716   5.704   0.021
 3048SOL     H112636   5.727   2.738   4.120
 3048SOL     H212637   2.708   5.633   0.085
 3048SOL    EPW12638   2.723   5.693   0.022
 3049SOL      O12639   2.278   5.640   1.784
 3049SOL     H112640   2.208   5.606   1.728
 3049SOL     H212641   2.359   5.618   1.738
 3049SOL    EPW12642   2.279   5.634   1.773
 3050SOL      O12643   2.701   5.701   0.765
 3050SOL     H112644   2.669   5.787   0.737
 3050SOL     H212645   2.741   5.664   0.687
 3050SOL    EPW12646   2.702   5.706   0.754
 3051SOL      O12647   2.973   5.610   1.737
 3051SOL     H112648   2.921   5.543   1.692
 3051SOL     H212649   3.063   5.579   1.729
 3051SOL    EPW12650   2.977   5.600   1.731
 3052SOL      O12651   2.293   5.721   0.646
 3052SOL     H112652   2.338   5.782   0.587
 3052SOL     H212653   2.201   5.747   0.641
 3052SOL    EPW12654   2.288   5.730   0.639
 3053SOL      O12655   3.412   5.847   0.509
 3053SOL     H112656   3.393   5.794   0.431
 3053SOL     H212657   3.366   0.052   0.494
 3053SOL    EPW12658   3.405   5.850   0.499
 3054SOL      O12659   2.968   5.802   0.763
 3054SOL     H112660   2.977   0.020   0.769
 3054SOL     H212661   2.879   5.784   0.793
 3054SOL    EPW12662   2.960   5.810   0.767
 3055SOL      O12663   2.191   0.005   1.035
 3055SOL     H112664   2.241   5.812   0.994
 3055SOL     H212665   2.235   0.086   1.008
 3055SOL    EPW12666   2.201   0.006   1.028
 3056SOL      O12667   3.256   5.858   1.556
 3056SOL     H112668   3.178   5.865   1.611
 3056SOL     H212669   3.295   5.774   1.581
 3056SOL    EPW12670   3.252   5.849   1.565
 3057SOL      O12671   2.358   5.707   0.908
 3057SOL     H112672   2.339   5.614   0.918
 3057SOL     H212673   2.342   5.725   0.815
 3057SOL    EPW12674   2.354   5.699   0.899
 3058SOL      O12675   2.572   5.852   1.018
 3058SOL     H112676   2.548   5.828   1.108
 3058SOL     H212677   2.525   5.789   0.964
 3058SOL    EPW12678   2.564   5.843   1.022
 3059SOL      O12679   3.139   5.632   1.069
 3059SOL     H112680   3.174   5.687   1.000
 3059SOL     H212681   3.203   5.638   1.140
 3059SOL    EPW12682   3.149   5.638   1.069
 3060SOL      O12683   3.401   5.664   1.198
 3060SOL     H112684   3.414   5.582   1.151
 3060SOL     H212685   3.467   5.663   1.267
 3060SOL    EPW12686   3.409   5.656   1.201
 3061SOL      O12687   2.048   5.697   0.367
 3061SOL     H112688   2.071   5.683   0.275
 3061SOL     H212689   2.018   5.611   0.397
 3061SOL    EPW12690   2.047   5.686   0.360
 3062SOL      O12691   2.866   5.647   0.549
 3062SOL     H112692   2.930   5.670   0.616
 3062SOL     H212693   2.858   5.726   0.495
 3062SOL    EPW12694   2.872   5.658   0.550
 3063SOL      O12695   2.474   5.785   1.262
 3063SOL     H112696   2.398   5.839   1.284
 3063SOL     H212697   2.504   5.750   1.345
 3063SOL    EPW12698   2.469   5.787   1.273
 3064SOL      O12699   3.305   5.742   0.875
 3064SOL     H112700   3.397   5.748   0.901
 3064SOL     H212701   3.305   5.686   0.797
 3064SOL    EPW12702   3.315   5.737   0.869
 3065SOL      O12703   2.649   0.322   0.751
 3065SOL     H112704   2.721   0.320   0.814
 3065SOL     H212705   2.649   0.235   0.712
 3065SOL    EPW12706   2.657   0.312   0.754
 3066SOL      O12707   3.602   5.677   1.379
 3066SOL     H112708   3.597   5.768   1.409
 3066SOL     H212709   3.694   5.666   1.353
 3066SOL    EPW12710   3.612   5.686   1.379
 3067SOL      O12711   3.551   5.771   0.994
 3067SOL     H112712   3.624   5.712   0.977
 3067SOL     H212713   3.508   5.735   1.072
 3067SOL    EPW12714   3.554   5.761   1.001
 3068SOL      O12715   1.988   5.620   1.121
 3068SOL     H112716   1.983   5.575   1.037
 3068SOL     H212717   2.075   5.660   1.121
 3068SOL    EPW12718   1.997   5.619   1.112
 3069SOL      O12719   2.109   5.651   0.103
 3069SOL     H112720   2.042   5.716   0.082
 3069SOL     H212721   2.173   5.657   0.032
 3069SOL    EPW12722   2.108   5.658   0.093
 3070SOL      O12723   1.959   5.865   0.015
 3070SOL     H112724   1.954   0.073   0.059
 3070SOL     H212725   4.947   2.944   4.090
 3070SOL    EPW12726   1.964   5.876   0.011
 3071SOL      O12727   2.477   0.149   2.372
 3071SOL     H112728   2.536   0.132   2.445
 3071SOL     H212729   2.528   0.125   2.295
 3071SOL    EPW12730   2.489   0.145   2.372
 3072SOL      O12731   2.870   0.302   3.587
 3072SOL     H112732   2.887   0.216   3.625
 3072SOL     H212733   2.775   0.306   3.577
 3072SOL    EPW12734   2.862   0.293   3.590
 3073SOL      O12735   2.546   5.757   3.596
 3073SOL     H112736   2.566   5.711   3.514
 3073SOL     H212737   2.617   5.732   3.655
 3073SOL    EPW12738   2.556   5.750   3.593
 3074SOL      O12739   3.722   5.651   2.592
 3074SOL     H112740   3.776   5.592   2.644
 3074SOL     H212741   3.643   5.601   2.571
 3074SOL    EPW12742   3.719   5.639   2.595
 3075SOL      O12743   2.854   5.667   2.961
 3075SOL     H112744   2.842   5.762   2.964
 3075SOL     H212745   2.949   5.655   2.950
 3075SOL    EPW12746   2.863   5.676   2.960
 3076SOL      O12747   2.825   5.652   3.228
 3076SOL     H112748   2.833   5.649   3.132
 3076SOL     H212749   2.836   5.744   3.250
 3076SOL    EPW12750   2.827   5.661   3.220
 3077SOL      O12751   2.127   5.766   2.528
 3077SOL     H112752   2.095   5.757   2.439
 3077SOL     H212753   2.072   5.707   2.580
 3077SOL    EPW12754   2.118   5.759   2.524
 3078SOL      O12755   2.582   5.658   3.345
 3078SOL     H112756   2.539   5.573   3.335
 3078SOL     H212757   2.669   5.646   3.307
 3078SOL    EPW12758   2.587   5.648   3.340
 3079SOL      O12759   3.238   5.773   3.712
 3079SOL     H112760   3.317   5.718   3.710
 3079SOL     H212761   3.233   5.804   3.803
 3079SOL    EPW12762   3.246   5.771   3.722
 3080SOL      O12763   2.793   5.707   1.935
 3080SOL     H112764   2.854   5.670   1.872
 3080SOL     H212765   2.779   5.637   1.999
 3080SOL    EPW12766   2.798   5.696   1.935
 3081SOL      O12767   2.296   5.681   3.681
 3081SOL     H112768   2.251   5.632   3.613
 3081SOL     H212769   2.383   5.700   3.645
 3081SOL    EPW12770   2.301   5.678   3.670
 3082SOL      O12771   2.635   5.693   2.609
 3082SOL     H112772   2.548   5.698   2.569
 3082SOL     H212773   2.695   5.684   2.535
 3082SOL    EPW12774   2.632   5.693   2.597
 3083SOL      O12775   3.006   5.648   3.639
 3083SOL     H112776   3.009   5.554   3.620
 3083SOL     H212777   3.094   5.669   3.671
 3083SOL    EPW12778   3.016   5.640   3.641
 3084SOL      O12779   2.391   5.754   2.499
 3084SOL     H112780   2.411   5.812   2.426
 3084SOL     H212781   2.296   5.751   2.503
 3084SOL    EPW12782   2.383   5.760   2.492
 3085SOL      O12783   3.415   5.835   2.417
 3085SOL     H112784   3.356   5.803   2.485
 3085SOL     H212785   3.435   5.758   2.364
 3085SOL    EPW12786   3.411   5.824   2.418
 3086SOL      O12787   2.977   5.834   2.529
 3086SOL     H112788   2.987   0.053   2.528
 3086SOL     H212789   3.046   5.803   2.587
 3086SOL    EPW12790   2.985   5.841   2.535
 3087SOL      O12791   2.223   0.097   2.926
 3087SOL     H112792   2.255   0.020   2.880
 3087SOL     H212793   2.130   0.081   2.938
 3087SOL    EPW12794   2.217   0.087   2.922
 3088SOL      O12795   3.147   0.019   3.414
 3088SOL     H112796   3.086   0.014   3.487
 3088SOL     H212797   3.219   5.838   3.438
 3088SOL    EPW12798   3.148   0.012   3.424
 3089SOL      O12799   2.342   5.759   2.785
 3089SOL     H112800   2.327   5.665   2.795
 3089SOL     H212801   2.351   5.771   2.691
 3089SOL    EPW12802   2.341   5.750   2.776
 3090SOL      O12803   3.245   5.693   2.116
 3090SOL     H112804   3.323   5.662   2.162
 3090SOL     H212805   3.201   5.613   2.087
 3090SOL    EPW12806   3.248   5.681   2.118
 3091SOL      O12807   2.557   5.870   2.919
 3091SOL     H112808   2.539   5.861   3.013
 3091SOL     H212809   2.500   5.805   2.877
 3091SOL    EPW12810   2.549   5.862   2.924
 3092SOL      O12811   3.129   5.698   2.950
 3092SOL     H112812   3.178   5.680   2.869
 3092SOL     H212813   3.190   5.678   3.020
 3092SOL    EPW12814   3.141   5.694   2.949
 3093SOL      O12815   3.363   5.692   3.139
 3093SOL     H112816   3.375   5.604   3.102
 3093SOL     H212817   3.384   5.681   3.232
 3093SOL    EPW12818   3.366   5.681   3.145
 3094SOL      O12819   2.049   5.747   2.267
 3094SOL     H112820   2.075   5.733   2.176
 3094SOL     H212821   1.974   5.690   2.279
 3094SOL    EPW12822   2.044   5.739   2.258
 3095SOL      O12823   2.800   5.689   2.381
 3095SOL     H112824   2.870   5.733   2.429
 3095SOL     H212825   2.844   5.645   2.309
 3095SOL    EPW12826   2.812   5.689   2.379
 3096SOL      O12827   2.487   5.859   3.184
 3096SOL     H112828   2.392   5.857   3.196
 3096SOL     H212829   2.520   5.791   3.242
 3096SOL    EPW12830   2.481   5.852   3.192
 3097SOL      O12831   3.288   5.705   2.709
 3097SOL     H112832   3.372   5.682   2.749
 3097SOL     H212833   3.267   5.630   2.653
 3097SOL    EPW12834   3.295   5.694   2.707
 3098SOL      O12835   2.774   0.299   2.690
 3098SOL     H112836   2.742   0.311   2.779
 3098SOL     H212837   2.723   0.225   2.656
 3098SOL    EPW12838   2.765   0.293   2.695
 3099SOL      O12839   3.690   5.649   3.351
 3099SOL     H112840   3.605   5.639   3.393
 3099SOL     H212841   3.695   5.741   3.326
 3099SOL    EPW12842   3.682   5.658   3.353
 3100SOL      O12843   3.473   5.629   2.253
 3100SOL     H112844   3.455   5.539   2.280
 3100SOL     H212845   3.556   5.623   2.206
 3100SOL    EPW12846   3.480   5.618   2.251
 3101SOL      O12847   3.520   5.743   2.907
 3101SOL     H112848   3.605   5.700   2.916
 3101SOL     H212849   3.476   5.727   2.990
 3101SOL    EPW12850   3.524   5.737   2.917
 3102SOL      O12851   1.957   5.580   2.985
 3102SOL     H112852   1.979   5.576   2.892
 3102SOL     H212853   2.032   5.625   3.025
 3102SOL    EPW12854   1.968   5.584   2.979
 3103SOL      O12855   2.099   5.708   1.998
 3103SOL     H112856   2.034   5.752   1.944
 3103SOL     H212857   2.170   5.687   1.938
 3103SOL    EPW12858   2.100   5.711   1.986
 3104SOL      O12859   1.913   5.832   1.834
 3104SOL     H112860   1.902   0.047   1.858
 3104SOL     H212861   1.893   5.829   1.741
 3104SOL    EPW12862   1.909   5.842   1.827
 3105SOL      O12863   2.580   0.043   4.023
 3105SOL     H112864   2.553   0.092   4.100
 3105SOL     H212865   2.555   5.829   4.041
 3105SOL    EPW12866   2.575   0.039   4.033
 3106SOL      O12867   4.992   2.846   0.312
 3106SOL     H112868   5.035   2.878   0.233
 3106SOL     H212869   4.906   2.889   0.311
 3106SOL    EPW12870   4.987   2.854   0.303
 3107SOL      O12871   2.764   5.696   3.759
 3107SOL     H112872   2.845   5.674   3.713
 3107SOL     H212873   2.751   5.624   3.821
 3107SOL    EPW12874   2.771   5.686   3.761
 3108SOL      O12875   5.589   2.755   0.269
 3108SOL     H112876   5.495   2.754   0.285
 3108SOL     H212877   5.610   2.665   0.243
 3108SOL    EPW12878   5.581   2.746   0.268
 3109SOL      O12879   5.312   2.741   0.288
 3109SOL     H112880   5.280   2.832   0.283
 3109SOL     H212881   5.257   2.700   0.355
 3109SOL    EPW12882   5.303   2.747   0.295
 3110SOL      O12883   3.281   5.621   4.013
 3110SOL     H112884   3.239   5.707   4.009
 3110SOL     H212885   3.238   5.577   4.086
 3110SOL    EPW12886   3.272   5.625   4.021
 3111SOL      O12887   4.997   2.831   0.016
 3111SOL     H112888   2.093   5.747   4.085
 3111SOL     H212889   4.937   2.759   0.037
 3111SOL    EPW12890   4.994   2.821   0.009
 3112SOL      O12891   2.114   5.713   3.904
 3112SOL     H112892   2.052   5.767   3.855
 3112SOL     H212893   2.187   5.700   3.844
 3112SOL    EPW12894   2.115   5.718   3.893
 3113SOL      O12895   1.956   5.862   3.735
 3113SOL     H112896   1.914   0.067   3.763
 3113SOL     H212897   2.037   0.012   3.692
 3113SOL    EPW12898   1.960   5.874   3.734
 3114SOL      O12899   5.348   0.743   1.275
 3114SOL     H112900   5.307   0.809   1.330
 3114SOL     H212901   5.429   0.784   1.244
 3114SOL    EPW12902   5.352   0.754   1.277
 3115SOL      O12903   4.272   1.044   0.506
 3115SOL     H112904   4.368   1.043   0.505
 3115SOL     H212905   4.249   1.129   0.469
 3115SOL    EPW12906   4.280   1.053   0.502
 3116SOL      O12907   5.382   1.709   0.713
 3116SOL     H112908   5.387   1.673   0.801
 3116SOL     H212909   5.405   1.636   0.656
 3116SOL    EPW12910   5.385   1.697   0.716
 3117SOL      O12911   4.785   1.593   1.605
 3117SOL     H112912   4.781   1.641   1.522
 3117SOL     H212913   4.827   1.510   1.582
 3117SOL    EPW12914   4.789   1.589   1.593
 3118SOL      O12915   5.342   1.196   1.255
 3118SOL     H112916   5.261   1.146   1.242
 3118SOL     H212917   5.363   1.230   1.169
 3118SOL    EPW12918   5.335   1.195   1.245
 3119SOL      O12919   4.513   0.540   0.460
 3119SOL     H112920   4.464   0.600   0.516
 3119SOL     H212921   4.461   0.459   0.460
 3119SOL    EPW12922   4.502   0.537   0.466
 3120SOL      O12923   3.942   0.545   0.412
 3120SOL     H112924   4.005   0.616   0.405
 3120SOL     H212925   3.944   0.520   0.505
 3120SOL    EPW12926   3.949   0.550   0.421
 3121SOL      O12927   4.082   0.923   1.307
 3121SOL     H112928   4.155   0.883   1.260
 3121SOL     H212929   4.047   0.989   1.247
 3121SOL    EPW12930   4.086   0.926   1.296
 3122SOL      O12931   4.382   0.303   0.490
 3122SOL     H112932   4.447   0.304   0.561
 3122SOL     H212933   4.299   0.283   0.533
 3122SOL    EPW12934   4.380   0.301   0.502
 3123SOL      O12935   4.497   1.259   0.674
 3123SOL     H112936   4.566   1.324   0.665
 3123SOL     H212937   4.521   1.189   0.613
 3123SOL    EPW12938   4.507   1.258   0.667
 3124SOL      O12939   4.503   1.497   1.596
 3124SOL     H112940   4.584   1.534   1.633
 3124SOL     H212941   4.532   1.452   1.517
 3124SOL    EPW12942   4.515   1.496   1.592
 3125SOL      O12943   4.308   0.662   0.676
 3125SOL     H112944   4.257   0.595   0.721
 3125SOL     H212945   4.395   0.657   0.717
 3125SOL    EPW12946   4.312   0.654   0.685
 3126SOL      O12947   4.593   1.368   1.379
 3126SOL     H112948   4.578   1.427   1.305
 3126SOL     H212949   4.539   1.291   1.360
 3126SOL    EPW12950   4.586   1.366   1.369
 3127SOL      O12951   4.412   0.562   1.025
 3127SOL     H112952   4.334   0.546   0.971
 3127SOL     H212953   4.435   0.476   1.059
 3127SOL    EPW12954   4.406   0.551   1.023
 3128SOL      O12955   4.162   0.918   0.959
 3128SOL     H112956   4.145   0.919   0.864
 3128SOL     H212957   4.107   0.988   0.993
 3128SOL    EPW12958   4.154   0.925   0.952
 3129SOL      O12959   3.901   1.804   0.865
 3129SOL     H112960   3.996   1.801   0.863
 3129SOL     H212961   3.874   1.712   0.864
 3129SOL    EPW12962   3.908   1.794   0.865
 3130SOL      O12963   4.103   1.299   0.829
 3130SOL     H112964   4.057   1.370   0.875
 3130SOL     H212965   4.156   1.344   0.763
 3130SOL    EPW12966   4.103   1.312   0.827
 3131SOL      O12967   4.668   0.971   0.759
 3131SOL     H112968   4.585   0.969   0.808
 3131SOL     H212969   4.706   0.884   0.772
 3131SOL    EPW12970   4.663   0.961   0.765
 3132SOL      O12971   4.087   1.607   1.508
 3132SOL     H112972   4.001   1.602   1.466
 3132SOL     H212973   4.122   1.518   1.501
 3132SOL    EPW12974   4.081   1.597   1.503
 3133SOL      O12975   5.532   0.213   0.806
 3133SOL     H112976   5.487   0.191   0.888
 3133SOL     H212977   5.493   0.156   0.740
 3133SOL    EPW12978   5.523   0.205   0.808
 3134SOL      O12979   5.351   1.140   0.521
 3134SOL     H112980   5.258   1.163   0.524
 3134SOL     H212981   5.387   1.196   0.452
 3134SOL    EPW12982   5.345   1.149   0.514
 3135SOL      O12983   5.162   0.720   1.605
 3135SOL     H112984   5.224   0.656   1.570
 3135SOL     H212985   5.077   0.692   1.571
 3135SOL    EPW12986   5.160   0.710   1.598
 3136SOL      O12987   3.905   1.600   1.148
 3136SOL     H112988   3.878   1.570   1.235
 3136SOL     H212989   3.879   1.692   1.145
 3136SOL    EPW12990   3.899   1.606   1.157
 3137SOL      O12991   4.867   1.100   1.560
 3137SOL     H112992   4.868   1.194   1.544
 3137SOL     H212993   4.937   1.085   1.624
 3137SOL    EPW12994   4.875   1.108   1.565
 3138SOL      O12995   4.667   0.482   1.829
 3138SOL     H112996   4.760   0.502   1.815
 3138SOL     H212997   4.653   0.401   1.780
 3138SOL    EPW12998   4.676   0.475   1.822
 3139SOL      O12999   5.255   0.972   0.861
 3139SOL     H113000   5.240   0.903   0.796
 3139SOL     H213001   5.348   0.968   0.880
 3139SOL    EPW13002   5.263   0.964   0.856
 3140SOL      O13003   4.872   0.722   0.492
 3140SOL     H113004   4.916   0.717   0.407
 3140SOL     H213005   4.842   0.632   0.509
 3140SOL    EPW13006   4.873   0.712   0.485
 3141SOL      O13007   5.454   1.342   0.362
 3141SOL     H113008   5.442   1.395   0.441
 3141SOL     H213009   5.536   1.375   0.325
 3141SOL    EPW13010   5.462   1.351   0.367
 3142SOL      O13011   4.366   0.383   1.702
 3142SOL     H113012   4.289   0.342   1.663
 3142SOL     H213013   4.399   0.317   1.764
 3142SOL    EPW13014   4.362   0.371   1.705
 3143SOL      O13015   4.224   1.703   0.580
 3143SOL     H113016   4.194   1.791   0.600
 3143SOL     H213017   4.152   1.663   0.531
 3143SOL    EPW13018   4.213   1.708   0.577
 3144SOL      O13019   5.427   0.027   0.637
 3144SOL     H113020   5.461   5.817   0.659
 3144SOL     H213021   5.342   0.010   0.596
 3144SOL    EPW13022   5.421   0.016   0.635
 3145SOL      O13023   4.729   0.064   1.060
 3145SOL     H113024   4.713   0.068   0.966
 3145SOL     H213025   4.820   0.091   1.070
 3145SOL    EPW13026   4.737   0.067   1.051
 3146SOL      O13027   5.335   0.456   0.445
 3146SOL     H113028   5.381   0.495   0.519
 3146SOL     H213029   5.302   0.530   0.394
 3146SOL    EPW13030   5.336   0.468   0.447
 3147SOL      O13031   4.612   1.005   1.573
 3147SOL     H113032   4.587   0.995   1.665
 3147SOL     H213033   4.701   1.040   1.577
 3147SOL    EPW13034   4.619   1.008   1.583
 3148SOL      O13035   4.696   0.126   1.329
 3148SOL     H113036   4.699   0.101   1.236
 3148SOL     H213037   4.694   0.222   1.327
 3148SOL    EPW13038   4.696   0.133   1.319
 3149SOL      O13039   4.782   0.600   1.152
 3149SOL     H113040   4.853   0.646   1.108
 3149SOL     H213041   4.708   0.662   1.149
 3149SOL    EPW13042   4.781   0.612   1.147
 3150SOL      O13043   5.370   0.567   1.501
 3150SOL     H113044   5.337   0.481   1.475
 3150SOL     H213045   5.374   0.617   1.420
 3150SOL    EPW13046   5.367   0.563   1.490
 3151SOL      O13047   5.449   1.677   1.364
 3151SOL     H113048   5.388   1.649   1.433
 3151SOL     H213049   5.480   1.763   1.393
 3151SOL    EPW13050   5.446   1.683   1.375
 3152SOL      O13051   4.866   0.273   1.524
 3152SOL     H113052   4.823   0.334   1.463
 3152SOL     H213053   4.853   0.187   1.484
 3152SOL    EPW13054   4.860   0.270   1.513
 3153SOL      O13055   5.234   1.152   1.606
 3153SOL     H113056   5.312   1.194   1.643
 3153SOL     H213057   5.190   1.113   1.682
 3153SOL    EPW13058   5.238   1.152   1.618
 3154SOL      O13059   5.496   0.543   0.660
 3154SOL     H113060   5.587   0.517   0.673
 3154SOL     H213061   5.446   0.484   0.716
 3154SOL    EPW13062   5.501   0.534   0.667
 3155SOL      O13063   3.923   0.213   0.649
 3155SOL     H113064   3.904   0.182   0.561
 3155SOL     H213065   3.900   0.140   0.706
 3155SOL    EPW13066   3.919   0.202   0.646
 3156SOL      O13067   3.837   0.382   1.005
 3156SOL     H113068   3.783   0.445   1.052
 3156SOL     H213069   3.781   0.351   0.934
 3156SOL    EPW13070   3.825   0.385   1.002
 3157SOL      O13071   4.397   1.727   0.360
 3157SOL     H113072   4.327   1.721   0.425
 3157SOL     H213073   4.478   1.717   0.411
 3157SOL    EPW13074   4.398   1.725   0.372
 3158SOL      O13075   5.451   1.266   1.725
 3158SOL     H113076   5.483   1.177   1.741
 3158SOL     H213077   5.403   1.288   1.805
 3158SOL    EPW13078   5.449   1.259   1.735
 3159SOL      O13079   5.578   0.889   1.221
 3159SOL     H113080   5.585   0.953   1.150
 3159SOL     H213081   5.568   0.942   1.300
 3159SOL    EPW13082   5.578   0.902   1.222
 3160SOL      O13083   5.406   1.571   0.952
 3160SOL     H113084   5.362   1.619   1.022
 3160SOL     H213085   5.389   1.479   0.972
 3160SOL    EPW13086   5.400   1.567   0.962
 3161SOL      O13087   3.885   0.653   1.203
 3161SOL     H113088   3.922   0.665   1.290
 3161SOL     H213089   3.818   0.720   1.195
 3161SOL    EPW13090   3.882   0.661   1.211
 3162SOL      O13091   3.977   1.816   1.659
 3162SOL     H113092   3.992   1.887   1.597
 3162SOL     H213093   4.013   1.739   1.615
 3162SOL    EPW13094   3.983   1.815   1.648
 3163SOL      O13095   4.016   1.106   1.113
 3163SOL     H113096   4.067   1.184   1.135
 3163SOL     H213097   3.928   1.140   1.095
 3163SOL    EPW13098   4.012   1.118   1.113
 3164SOL      O13099   4.527   1.022   1.137
 3164SOL     H113100   4.542   0.928   1.148
 3164SOL     H213101   4.486   1.030   1.051
 3164SOL    EPW13102   4.524   1.013   1.129
 3165SOL      O13103   3.881   0.919   0.619
 3165SOL     H113104   3.972   0.900   0.641
 3165SOL     H213105   3.855   0.849   0.559
 3165SOL    EPW13106   3.888   0.909   0.615
 3166SOL      O13107   4.081   0.594   1.789
 3166SOL     H113108   4.053   0.686   1.788
 3166SOL     H213109   4.143   0.589   1.861
 3166SOL    EPW13110   4.084   0.603   1.797
 3167SOL      O13111   4.509   0.085   1.526
 3167SOL     H113112   4.486   5.870   1.535
 3167SOL     H213113   4.576   0.087   1.457
 3167SOL    EPW13114   4.513   0.076   1.519
 3168SOL      O13115   4.177   0.601   1.520
 3168SOL     H113116   4.255   0.657   1.527
 3168SOL     H213117   4.163   0.569   1.610
 3168SOL    EPW13118   4.184   0.604   1.531
 3169SOL      O13119   4.485   1.757   0.939
 3169SOL     H113120   4.557   1.797   0.987
 3169SOL     H213121   4.476   1.811   0.860
 3169SOL    EPW13122   4.492   1.767   0.936
 3170SOL      O13123   5.076   0.097   1.834
 3170SOL     H113124   5.116   0.011   1.818
 3170SOL     H213125   5.053   0.096   1.927
 3170SOL    EPW13126   5.078   0.087   1.842
 3171SOL      O13127   3.888   1.456   0.612
 3171SOL     H113128   3.880   1.491   0.701
 3171SOL     H213129   3.890   1.361   0.624
 3171SOL    EPW13130   3.887   1.449   0.623
 3172SOL      O13131   4.662   1.480   0.677
 3172SOL     H113132   4.747   1.436   0.674
 3172SOL     H213133   4.640   1.483   0.770
 3172SOL    EPW13134   4.669   1.476   0.686
 3173SOL      O13135   5.559   0.661   0.911
 3173SOL     H113136   5.655   0.664   0.905
 3173SOL     H213137   5.531   0.632   0.825
 3173SOL    EPW13138   5.567   0.658   0.901
 3174SOL      O13139   5.345   0.841   1.847
 3174SOL     H113140   5.391   0.768   1.806
 3174SOL     H213141   5.388   0.851   1.933
 3174SOL    EPW13142   5.355   0.834   1.852
 3175SOL      O13143   4.708   0.407   1.347
 3175SOL     H113144   4.634   0.449   1.390
 3175SOL     H213145   4.740   0.473   1.285
 3175SOL    EPW13146   4.704   0.418   1.345
 3176SOL      O13147   4.967   0.734   0.995
 3176SOL     H113148   4.984   0.828   0.999
 3176SOL     H213149   4.914   0.722   0.916
 3176SOL    EPW13150   4.963   0.743   0.987
 3177SOL      O13151   4.424   1.016   0.886
 3177SOL     H113152   4.337   0.981   0.903
 3177SOL     H213153   4.409   1.104   0.853
 3177SOL    EPW13154   4.413   1.022   0.884
 3178SOL      O13155   5.250   0.527   0.817
 3178SOL     H113156   5.191   0.454   0.795
 3178SOL     H213157   5.231   0.545   0.909
 3178SOL    EPW13158   5.242   0.521   0.825
 3179SOL      O13159   4.141   0.266   1.595
 3179SOL     H113160   4.058   0.303   1.624
 3179SOL     H213161   4.146   0.290   1.502
 3179SOL    EPW13162   4.133   0.273   1.588
 3180SOL      O13163   4.793   0.727   0.776
 3180SOL     H113164   4.715   0.671   0.777
 3180SOL     H213165   4.826   0.720   0.687
 3180SOL    EPW13166   4.788   0.720   0.767
 3181SOL      O13167   4.551   1.033   0.519
 3181SOL     H113168   4.592   0.981   0.449
 3181SOL     H213169   4.594   1.004   0.599
 3181SOL    EPW13170   4.560   1.024   0.520
 3182SOL      O13171   5.045   1.607   1.238
 3182SOL     H113172   4.964   1.646   1.272
 3182SOL     H213173   5.031   1.513   1.245
 3182SOL    EPW13174   5.035   1.602   1.243
 3183SOL      O13175   5.122   1.782   0.718
 3183SOL     H113176   5.098   1.826   0.637
 3183SOL     H213177   5.213   1.757   0.706
 3183SOL    EPW13178   5.129   1.784   0.708
 3184SOL      O13179   5.092   0.307   0.751
 3184SOL     H113180   5.120   0.233   0.805
 3184SOL     H213181   4.996   0.305   0.755
 3184SOL    EPW13182   5.085   0.299   0.757
 3185SOL      O13183   3.876   1.192   0.691
 3185SOL     H113184   3.955   1.203   0.744
 3185SOL     H213185   3.882   1.102   0.657
 3185SOL    EPW13186   3.885   1.183   0.693
 3186SOL      O13187   4.370   1.277   1.702
 3186SOL     H113188   4.424   1.352   1.678
 3186SOL     H213189   4.412   1.242   1.780
 3186SOL    EPW13190   4.380   1.281   1.708
 3187SOL      O13191   3.908   1.479   1.867
 3187SOL     H113192   3.993   1.435   1.854
 3187SOL     H213193   3.861   1.463   1.785
 3187SOL    EPW13194   3.912   1.473   1.857
 3188SOL      O13195   4.771   0.157   0.167
 3188SOL     H113196   4.833   0.130   0.099
 3188SOL     H213197   4.696   0.098   0.155
 3188SOL    EPW13198   4.769   0.148   0.158
 3189SOL      O13199   4.849   1.356   1.474
 3189SOL     H113200   4.760   1.359   1.439
 3189SOL     H213201   4.905   1.360   1.396
 3189SOL    EPW13202   4.846   1.357   1.462
 3190SOL      O13203   4.099   0.063   1.781
 3190SOL     H113204   4.126   5.852   1.756
 3190SOL     H213205   4.125   0.119   1.708
 3190SOL    EPW13206   4.105   0.060   1.771
 3191SOL      O13207   4.172   1.573   1.101
 3191SOL     H113208   4.224   1.634   1.152
 3191SOL     H213209   4.082   1.592   1.125
 3191SOL    EPW13210   4.168   1.582   1.109
 3192SOL      O13211   5.537   1.068   1.419
 3192SOL     H113212   5.466   1.115   1.376
 3192SOL     H213213   5.503   1.047   1.506
 3192SOL    EPW13214   5.526   1.070   1.424
 3193SOL      O13215   4.570   1.579   1.200
 3193SOL     H113216   4.580   1.547   1.111
 3193SOL     H213217   4.494   1.638   1.196
 3193SOL    EPW13218   4.563   1.582   1.190
 3194SOL      O13219   4.238   0.984   0.114
 3194SOL     H113220   4.275   0.896   0.123
 3194SOL     H213221   4.168   0.975   0.050
 3194SOL    EPW13222   4.235   0.974   0.108
 3195SOL      O13223   4.350   1.311   0.972
 3195SOL     H113224   4.314   1.300   1.060
 3195SOL     H213225   4.273   1.304   0.914
 3195SOL    EPW13226   4.338   1.309   0.975
 3196SOL      O13227   5.239   0.330   1.434
 3196SOL     H113228   5.194   0.316   1.517
 3196SOL     H213229   5.227   0.248   1.386
 3196SOL    EPW13230   5.233   0.320   1.438
 3197SOL      O13231   5.551   0.217   1.250
 3197SOL     H113232   5.562   0.306   1.216
 3197SOL     H213233   5.621   0.167   1.208
 3197SOL    EPW13234   5.560   0.221   1.242
 3198SOL      O13235   3.786   1.403   1.630
 3198SOL     H113236   3.844   1.334   1.599
 3198SOL     H213237   3.707   1.357   1.658
 3198SOL    EPW13238   3.784   1.391   1.630
 3199SOL      O13239   4.628   0.034   0.794
 3199SOL     H113240   4.549   0.077   0.825
 3199SOL     H213241   4.599   5.824   0.765
 3199SOL    EPW13242   4.617   0.029   0.794
 3200SOL      O13243   4.215   1.317   0.428
 3200SOL     H113244   4.251   1.341   0.513
 3200SOL     H213245   4.157   1.390   0.404
 3200SOL    EPW13246   4.212   1.327   0.434
 3201SOL      O13247   4.789   1.692   1.345
 3201SOL     H113248   4.720   1.655   1.291
 3201SOL     H213249   4.773   1.787   1.344
 3201SOL    EPW13250   4.780   1.698   1.339
 3202SOL      O13251   4.994   1.563   0.835
 3202SOL     H113252   5.039   1.634   0.789
 3202SOL     H213253   4.926   1.607   0.885
 3202SOL    EPW13254   4.992   1.575   0.835
 3203SOL      O13255   5.282   1.722   1.155
 3203SOL     H113256   5.341   1.698   1.227
 3203SOL     H213257   5.200   1.677   1.176
 3203SOL    EPW13258   5.280   1.714   1.165
 3204SOL      O13259   4.478   0.685   1.817
 3204SOL     H113260   4.532   0.607   1.801
 3204SOL     H213261   4.403   0.653   1.866
 3204SOL    EPW13262   4.476   0.674   1.821
 3205SOL      O13263   5.234   0.929   1.448
 3205SOL     H113264   5.242   1.006   1.505
 3205SOL     H213265   5.204   0.859   1.507
 3205SOL    EPW13266   5.232   0.929   1.461
 3206SOL      O13267   4.878   0.004   1.666
 3206SOL     H113268   4.862   5.791   1.696
 3206SOL     H213269   4.930   0.043   1.736
 3206SOL    EPW13270   4.882   5.875   1.677
 3207SOL      O13271   5.384   1.294   0.997
 3207SOL     H113272   5.410   1.268   0.909
 3207SOL     H213273   5.290   1.311   0.990
 3207SOL    EPW13274   5.377   1.293   0.987
 3208SOL      O13275   4.838   0.987   1.310
 3208SOL     H113276   4.843   1.031   1.394
 3208SOL     H213277   4.799   1.052   1.251
 3208SOL    EPW13278   4.834   0.999   1.312
 3209SOL      O13279   4.193   0.220   0.680
 3209SOL     H113280   4.214   0.131   0.650
 3209SOL     H213281   4.098   0.226   0.671
 3209SOL    EPW13282   4.185   0.211   0.676
 3210SOL      O13283   3.951   1.206   1.537
 3210SOL     H113284   3.984   1.146   1.604
 3210SOL     H213285   3.896   1.152   1.481
 3210SOL    EPW13286   3.949   1.194   1.538
 3211SOL      O13287   4.494   0.513   1.486
 3211SOL     H113288   4.476   0.604   1.507
 3211SOL     H213289   4.454   0.463   1.557
 3211SOL    EPW13290   4.488   0.517   1.495
 3212SOL      O13291   4.981   0.698   0.247
 3212SOL     H113292   5.072   0.674   0.264
 3212SOL     H213293   4.987   0.768   0.181
 3212SOL    EPW13294   4.992   0.703   0.242
 3213SOL      O13295   4.146   0.891   0.690
 3213SOL     H113296   4.186   0.949   0.626
 3213SOL     H213297   4.195   0.809   0.681
 3213SOL    EPW13298   4.156   0.888   0.682
 3214SOL      O13299   5.138   0.265   0.486
 3214SOL     H113300   5.119   0.279   0.579
 3214SOL     H213301   5.209   0.327   0.466
 3214SOL    EPW13302   5.144   0.273   0.494
 3215SOL      O13303   4.821   0.307   0.749
 3215SOL     H113304   4.809   0.375   0.682
 3215SOL     H213305   4.790   0.348   0.830
 3215SOL    EPW13306   4.816   0.318   0.750
 3216SOL      O13307   5.510   0.996   1.690
 3216SOL     H113308   5.447   0.947   1.742
 3216SOL     H213309   5.585   0.937   1.681
 3216SOL    EPW13310   5.511   0.985   1.695
 3217SOL      O13311   3.842   1.539   0.883
 3217SOL     H113312   3.870   1.542   0.974
 3217SOL     H213313   3.746   1.542   0.887
 3217SOL    EPW13314   3.835   1.540   0.893
 3218SOL      O13315   3.741   0.721   0.472
 3218SOL     H113316   3.694   0.673   0.540
 3218SOL     H213317   3.803   0.658   0.436
 3218SOL    EPW13318   3.742   0.709   0.475
 3219SOL      O13319   5.294   1.868   1.838
 3219SOL     H113320   5.326   1.782   1.811
 3219SOL     H213321   5.336   1.885   1.922
 3219SOL    EPW13322   5.302   1.861   1.844
 3220SOL      O13323   4.903   1.345   0.687
 3220SOL     H113324   4.884   1.279   0.754
 3220SOL     H213325   4.945   1.416   0.735
 3220SOL    EPW13326   4.906   1.346   0.699
 3221SOL      O13327   4.174   0.375   1.345
 3221SOL     H113328   4.185   0.465   1.377
 3221SOL     H213329   4.146   0.385   1.254
 3221SOL    EPW13330   4.172   0.386   1.338
 3222SOL      O13331   4.100   0.358   1.071
 3222SOL     H113332   4.110   0.266   1.049
 3222SOL     H213333   4.008   0.377   1.055
 3222SOL    EPW13334   4.091   0.351   1.067
 3223SOL      O13335   4.942   0.521   1.769
 3223SOL     H113336   4.996   0.447   1.740
 3223SOL     H213337   4.921   0.568   1.688
 3223SOL    EPW13338   4.946   0.518   1.757
 3224SOL      O13339   5.090   0.314   1.665
 3224SOL     H113340   5.012   0.296   1.612
 3224SOL     H213341   5.096   0.240   1.724
 3224SOL    EPW13342   5.082   0.304   1.666
 3225SOL      O13343   4.398   0.167   0.880
 3225SOL     H113344   4.391   0.089   0.936
 3225SOL     H213345   4.316   0.169   0.831
 3225SOL    EPW13346   4.389   0.159   0.881
 3226SOL      O13347   4.349   1.706   1.509
 3226SOL     H113348   4.258   1.679   1.520
 3226SOL     H213349   4.400   1.634   1.544
 3226SOL    EPW13350   4.344   1.695   1.514
 3227SOL      O13351   5.507   0.471   1.106
 3227SOL     H113352   5.413   0.467   1.119
 3227SOL     H213353   5.519   0.545   1.046
 3227SOL    EPW13354   5.498   0.479   1.101
 3228SOL      O13355   5.619   1.109   1.052
 3228SOL     H113356   5.594   1.054   0.977
 3228SOL     H213357   5.558   1.182   1.049
 3228SOL    EPW13358   5.610   1.111   1.043
 3229SOL      O13359   5.027   1.001   0.997
 3229SOL     H113360   5.057   1.023   1.086
 3229SOL     H213361   5.108   0.996   0.945
 3229SOL    EPW13362   5.039   1.003   1.001
 3230SOL      O13363   5.072   0.524   1.329
 3230SOL     H113364   5.102   0.539   1.239
 3230SOL     H213365   5.125   0.449   1.359
 3230SOL    EPW13366   5.081   0.518   1.323
 3231SOL      O13367   5.506   0.643   1.748
 3231SOL     H113368   5.516   0.578   1.817
 3231SOL     H213369   5.467   0.595   1.675
 3231SOL    EPW13370   5.503   0.631   1.747
 3232SOL      O13371   5.122   1.026   1.816
 3232SOL     H113372   5.187   0.957   1.833
 3232SOL     H213373   5.109   1.068   1.901
 3232SOL    EPW13374   5.128   1.023   1.827
 3233SOL      O13375   5.065   0.926   0.537
 3233SOL     H113376   4.991   0.867   0.524
 3233SOL     H213377   5.129   0.874   0.585
 3233SOL    EPW13378   5.064   0.914   0.541
 3234SOL      O13379   4.180   1.317   1.194
 3234SOL     H113380   4.188   1.325   1.289
 3234SOL     H213381   4.176   1.407   1.163
 3234SOL    EPW13382   4.181   1.327   1.201
 3235SOL      O13383   4.479   0.309   1.100
 3235SOL     H113384   4.451   0.261   1.178
 3235SOL     H213385   4.446   0.257   1.027
 3235SOL    EPW13386   4.473   0.299   1.101
 3236SOL      O13387   4.331   1.753   1.243
 3236SOL     H113388   4.364   1.842   1.233
 3236SOL     H213389   4.340   1.733   1.336
 3236SOL    EPW13390   4.335   1.760   1.252
 3237SOL      O13391   5.223   1.366   1.438
 3237SOL     H113392   5.208   1.296   1.502
 3237SOL     H213393   5.273   1.323   1.368
 3237SOL    EPW13394   5.227   1.354   1.437
 3238SOL      O13395   4.296   1.036   1.585
 3238SOL     H113396   4.318   1.052   1.493
 3238SOL     H213397   4.336   1.110   1.632
 3238SOL    EPW13398   4.303   1.046   1.580
 3239SOL      O13399   4.456   1.128   1.376
 3239SOL     H113400   4.516   1.084   1.436
 3239SOL     H213401   4.472   1.088   1.291
 3239SOL    EPW13402   4.464   1.119   1.374
 3240SOL      O13403   5.270   1.603   1.557
 3240SOL     H113404   5.328   1.586   1.631
 3240SOL     H213405   5.255   1.518   1.517
 3240SOL    EPW13406   5.274   1.592   1.561
 3241SOL      O13407   4.987   0.127   1.120
 3241SOL     H113408   5.046   0.125   1.045
 3241SOL     H213409   5.045   0.117   1.196
 3241SOL    EPW13410   5.000   0.126   1.120
 3242SOL      O13411   4.275   1.248   0.169
 3242SOL     H113412   4.262   1.263   0.262
 3242SOL     H213413   4.248   1.157   0.155
 3242SOL    EPW13414   4.271   1.240   0.177
 3243SOL      O13415   4.166   1.749   0.888
 3243SOL     H113416   4.183   1.680   0.952
 3243SOL     H213417   4.220   1.726   0.813
 3243SOL    EPW13418   4.173   1.739   0.887
 3244SOL      O13419   4.752   1.179   1.129
 3244SOL     H113420   4.666   1.136   1.130
 3244SOL     H213421   4.779   1.177   1.038
 3244SOL    EPW13422   4.746   1.174   1.120
 3245SOL      O13423   3.832   1.566   1.413
 3245SOL     H113424   3.810   1.508   1.486
 3245SOL     H213425   3.755   1.622   1.403
 3245SOL    EPW13426   3.821   1.566   1.420
 3246SOL      O13427   4.713   0.401   0.978
 3246SOL     H113428   4.646   0.355   1.029
 3246SOL     H213429   4.746   0.468   1.038
 3246SOL    EPW13430   4.709   0.403   0.990
 3247SOL      O13431   4.388   0.767   1.574
 3247SOL     H113432   4.364   0.859   1.579
 3247SOL     H213433   4.421   0.746   1.661
 3247SOL    EPW13434   4.389   0.774   1.583
 3248SOL      O13435   4.133   1.320   1.836
 3248SOL     H113436   4.212   1.322   1.782
 3248SOL     H213437   4.098   1.232   1.824
 3248SOL    EPW13438   4.138   1.311   1.829
 3249SOL      O13439   5.180   0.080   1.319
 3249SOL     H113440   5.212   0.002   1.274
 3249SOL     H213441   5.151   0.048   1.404
 3249SOL    EPW13442   5.180   0.068   1.323
 3250SOL      O13443   5.417   1.627   1.787
 3250SOL     H113444   5.397   1.602   1.877
 3250SOL     H213445   5.493   1.685   1.794
 3250SOL    EPW13446   5.423   1.631   1.798
 3251SOL      O13447   4.207   0.456   0.839
 3251SOL     H113448   4.208   0.377   0.784
 3251SOL     H213449   4.165   0.428   0.920
 3251SOL    EPW13450   4.203   0.444   0.842
 3252SOL      O13451   3.780   1.831   1.861
 3252SOL     H113452   3.845   1.808   1.794
 3252SOL     H213453   3.785   1.927   1.865
 3252SOL    EPW13454   3.788   1.839   1.854
 3253SOL      O13455   4.562   1.496   0.936
 3253SOL     H113456   4.488   1.435   0.942
 3253SOL     H213457   4.521   1.582   0.927
 3253SOL    EPW13458   4.550   1.498   0.936
 3254SOL      O13459   4.778   0.473   0.533
 3254SOL     H113460   4.817   0.418   0.465
 3254SOL     H213461   4.687   0.482   0.507
 3254SOL    EPW13462   4.773   0.468   0.523
 3255SOL      O13463   3.875   0.067   0.413
 3255SOL     H113464   3.953   0.064   0.357
 3255SOL     H213465   3.845   5.853   0.417
 3255SOL    EPW13466   3.880   0.057   0.408
 3256SOL      O13467   3.747   0.566   1.555
 3256SOL     H113468   3.800   0.618   1.495
 3256SOL     H213469   3.662   0.557   1.511
 3256SOL    EPW13470   3.743   0.570   1.544
 3257SOL      O13471   5.463   1.476   0.598
 3257SOL     H113472   5.448   1.400   0.654
 3257SOL     H213473   5.558   1.486   0.596
 3257SOL    EPW13474   5.471   1.469   0.604
 3258SOL      O13475   5.079   1.203   0.517
 3258SOL     H113476   5.019   1.251   0.574
 3258SOL     H213477   5.057   1.111   0.532
 3258SOL    EPW13478   5.070   1.198   0.525
 3259SOL      O13479   4.707   0.086   0.534
 3259SOL     H113480   4.680   0.080   0.626
 3259SOL     H213481   4.628   0.066   0.484
 3259SOL    EPW13482   4.696   0.083   0.538
 3260SOL      O13483   5.524   0.928   0.876
 3260SOL     H113484   5.519   0.929   0.780
 3260SOL     H213485   5.532   0.835   0.898
 3260SOL    EPW13486   5.524   0.918   0.868
 3261SOL      O13487   3.956   0.737   1.458
 3261SOL     H113488   3.988   0.810   1.407
 3261SOL     H213489   4.034   0.684   1.477
 3261SOL    EPW13490   3.968   0.739   1.455
 3262SOL      O13491   5.487   0.913   0.607
 3262SOL     H113492   5.574   0.926   0.569
 3262SOL     H213493   5.434   0.984   0.569
 3262SOL    EPW13494   5.490   0.922   0.599
 3263SOL      O13495   3.918   0.827   1.713
 3263SOL     H113496   3.857   0.765   1.753
 3263SOL     H213497   3.928   0.795   1.623
 3263SOL    EPW13498   3.912   0.817   1.707
 3264SOL      O13499   4.142   0.025   1.252
 3264SOL     H113500   4.215   0.079   1.283
 3264SOL     H213501   4.137   0.044   1.158
 3264SOL    EPW13502   4.149   0.033   1.245
 3265SOL      O13503   4.104   0.761   0.396
 3265SOL     H113504   4.063   0.841   0.362
 3265SOL     H213505   4.195   0.786   0.412
 3265SOL    EPW13506   4.109   0.772   0.394
 3266SOL      O13507   4.911   0.637   1.520
 3266SOL     H113508   4.951   0.594   1.445
 3266SOL     H213509   4.832   0.678   1.486
 3266SOL    EPW13510   4.907   0.637   1.509
 3267SOL      O13511   3.921   0.486   0.683
 3267SOL     H113512   3.971   0.508   0.761
 3267SOL     H213513   3.916   0.391   0.683
 3267SOL    EPW13514   3.926   0.478   0.691
 3268SOL      O13515   4.556   0.753   1.169
 3268SOL     H113516   4.496   0.688   1.133
 3268SOL     H213517   4.563   0.730   1.262
 3268SOL    EPW13518   4.550   0.744   1.175
 3269SOL      O13519   5.262   1.879   1.555
 3269SOL     H113520   5.253   1.784   1.555
 3269SOL     H213521   5.267   1.903   1.647
 3269SOL    EPW13522   5.262   1.871   1.564
 3270SOL      O13523   4.359   0.180   1.314
 3270SOL     H113524   4.306   0.257   1.336
 3270SOL     H213525   4.402   0.157   1.396
 3270SOL    EPW13526   4.358   0.186   1.325
 3271SOL      O13527   5.163   0.100   0.914
 3271SOL     H113528   5.248   0.120   0.955
 3271SOL     H213529   5.159   0.005   0.914
 3271SOL    EPW13530   5.172   0.092   0.919
 3272SOL      O13531   5.247   0.771   0.676
 3272SOL     H113532   5.336   0.784   0.644
 3272SOL     H213533   5.249   0.684   0.717
 3272SOL    EPW13534   5.257   0.763   0.677
 3273SOL      O13535   4.690   0.780   1.421
 3273SOL     H113536   4.745   0.837   1.367
 3273SOL     H213537   4.647   0.839   1.483
 3273SOL    EPW13538   4.692   0.792   1.422
 3274SOL      O13539   4.070   1.052   1.733
 3274SOL     H113540   4.020   0.970   1.730
 3274SOL     H213541   4.146   1.036   1.677
 3274SOL    EPW13542   4.073   1.042   1.727
 3275SOL      O13543   4.283   1.423   0.669
 3275SOL     H113544   4.365   1.373   0.677
 3275SOL     H213545   4.311   1.511   0.645
 3275SOL    EPW13546   4.295   1.427   0.667
 3276SOL      O13547   4.551   0.595   0.785
 3276SOL     H113548   4.521   0.589   0.876
 3276SOL     H213549   4.555   0.504   0.755
 3276SOL    EPW13550   4.549   0.584   0.792
 3277SOL      O13551   5.541   0.053   1.471
 3277SOL     H113552   5.455   0.071   1.509
 3277SOL     H213553   5.545   0.109   1.393
 3277SOL    EPW13554   5.532   0.061   1.467
 3278SOL      O13555   4.838   1.154   0.872
 3278SOL     H113556   4.910   1.099   0.904
 3278SOL     H213557   4.779   1.093   0.828
 3278SOL    EPW13558   4.840   1.142   0.871
 3279SOL      O13559   5.127   1.377   0.995
 3279SOL     H113560   5.086   1.444   0.940
 3279SOL     H213561   5.065   1.366   1.067
 3279SOL    EPW13562   5.116   1.383   0.997
 3280SOL      O13563   4.971   1.324   1.223
 3280SOL     H113564   5.024   1.248   1.246
 3280SOL     H213565   4.890   1.287   1.188
 3280SOL    EPW13566   4.968   1.312   1.222
 3281SOL      O13567   3.985   0.687   0.950
 3281SOL     H113568   3.967   0.666   1.042
 3281SOL     H213569   4.049   0.758   0.954
 3281SOL    EPW13570   3.990   0.692   0.961
 3282SOL      O13571   5.105   1.493   1.761
 3282SOL     H113572   5.081   1.564   1.821
 3282SOL     H213573   5.138   1.538   1.683
 3282SOL    EPW13574   5.106   1.506   1.759
 3283SOL      O13575   3.920   0.396   1.688
 3283SOL     H113576   3.862   0.443   1.628
 3283SOL     H213577   3.973   0.465   1.728
 3283SOL    EPW13578   3.920   0.408   1.686
 3284SOL      O13579   5.090   1.062   1.261
 3284SOL     H113580   5.142   1.012   1.324
 3284SOL     H213581   5.001   1.030   1.273
 3284SOL    EPW13582   5.086   1.053   1.269
 3285SOL      O13583   4.601   1.725   0.543
 3285SOL     H113584   4.678   1.782   0.537
 3285SOL     H213585   4.634   1.644   0.582
 3285SOL    EPW13586   4.613   1.722   0.547
 3286SOL      O13587   5.407   0.131   1.034
 3286SOL     H113588   5.419   0.036   1.041
 3286SOL     H213589   5.443   0.165   1.116
 3286SOL    EPW13590   5.412   0.124   1.044
 3287SOL      O13591   3.870   0.028   1.170
 3287SOL     H113592   3.855   5.812   1.155
 3287SOL     H213593   3.948   0.031   1.226
 3287SOL    EPW13594   3.877   0.019   1.175
 3288SOL      O13595   5.478   1.242   0.744
 3288SOL     H113596   5.428   1.195   0.677
 3288SOL     H213597   5.569   1.219   0.727
 3288SOL    EPW13598   5.482   1.235   0.735
 3289SOL      O13599   4.178   1.350   1.472
 3289SOL     H113600   4.101   1.296   1.491
 3289SOL     H213601   4.247   1.313   1.527
 3289SOL    EPW13602   4.177   1.340   1.480
 3290SOL      O13603   4.061   0.066   0.207
 3290SOL     H113604   4.017   0.121   0.142
 3290SOL     H213605   4.153   0.067   0.180
 3290SOL    EPW13606   4.066   0.072   0.197
 3291SOL      O13607   5.194   0.599   1.085
 3291SOL     H113608   5.119   0.650   1.054
 3291SOL     H213609   5.242   0.660   1.141
 3291SOL    EPW13610   5.191   0.611   1.088
 3292SOL      O13611   5.463   0.861   2.093
 3292SOL     H113612   5.494   0.786   2.144
 3292SOL     H213613   5.375   0.877   2.127
 3292SOL    EPW13614   5.457   0.855   2.102
 3293SOL      O13615   5.325   0.762   3.125
 3293SOL     H113616   5.287   0.826   3.185
 3293SOL     H213617   5.413   0.796   3.108
 3293SOL    EPW13618   5.330   0.773   3.130
 3294SOL      O13619   4.278   1.021   2.318
 3294SOL     H113620   4.372   1.019   2.335
 3294SOL     H213621   4.260   1.112   2.293
 3294SOL    EPW13622   4.286   1.030   2.317
 3295SOL      O13623   5.388   1.700   2.549
 3295SOL     H113624   5.379   1.662   2.637
 3295SOL     H213625   5.397   1.624   2.492
 3295SOL    EPW13626   5.388   1.688   2.553
 3296SOL      O13627   4.758   1.567   3.475
 3296SOL     H113628   4.745   1.629   3.403
 3296SOL     H213629   4.801   1.492   3.435
 3296SOL    EPW13630   4.761   1.565   3.463
 3297SOL      O13631   5.321   1.183   3.088
 3297SOL     H113632   5.240   1.134   3.075
 3297SOL     H213633   5.333   1.232   3.007
 3297SOL    EPW13634   5.314   1.183   3.078
 3298SOL      O13635   4.501   0.470   2.300
 3298SOL     H113636   4.520   0.563   2.309
 3298SOL     H213637   4.499   0.455   2.205
 3298SOL    EPW13638   4.503   0.478   2.291
 3299SOL      O13639   3.929   0.641   2.271
 3299SOL     H113640   4.018   0.662   2.242
 3299SOL     H213641   3.941   0.571   2.335
 3299SOL    EPW13642   3.940   0.636   2.275
 3300SOL      O13643   4.151   0.866   3.137
 3300SOL     H113644   4.217   0.851   3.069
 3300SOL     H213645   4.100   0.940   3.104
 3300SOL    EPW13646   4.153   0.872   3.126
 3301SOL      O13647   4.314   0.264   2.323
 3301SOL     H113648   4.384   0.329   2.328
 3301SOL     H213649   4.247   0.306   2.268
 3301SOL    EPW13650   4.314   0.276   2.318
 3302SOL      O13651   4.454   1.222   2.567
 3302SOL     H113652   4.524   1.275   2.604
 3302SOL     H213653   4.494   1.179   2.492
 3302SOL    EPW13654   4.466   1.223   2.563
 3303SOL      O13655   4.492   1.478   3.443
 3303SOL     H113656   4.574   1.511   3.478
 3303SOL     H213657   4.514   1.446   3.356
 3303SOL    EPW13658   4.503   1.478   3.438
 3304SOL      O13659   4.276   0.692   2.498
 3304SOL     H113660   4.233   0.620   2.544
 3304SOL     H213661   4.368   0.684   2.521
 3304SOL    EPW13662   4.281   0.684   2.505
 3305SOL      O13663   4.564   1.372   3.202
 3305SOL     H113664   4.572   1.441   3.137
 3305SOL     H213665   4.496   1.314   3.167
 3305SOL    EPW13666   4.558   1.373   3.192
 3306SOL      O13667   4.340   0.567   3.004
 3306SOL     H113668   4.264   0.563   2.945
 3306SOL     H213669   4.388   0.487   2.986
 3306SOL    EPW13670   4.337   0.558   2.996
 3307SOL      O13671   4.159   0.917   2.801
 3307SOL     H113672   4.133   0.934   2.710
 3307SOL     H213673   4.113   0.984   2.852
 3307SOL    EPW13674   4.151   0.926   2.797
 3308SOL      O13675   3.883   1.828   2.725
 3308SOL     H113676   3.979   1.825   2.728
 3308SOL     H213677   3.856   1.736   2.735
 3308SOL    EPW13678   3.891   1.818   2.726
 3309SOL      O13679   5.093   1.177   2.052
 3309SOL     H113680   5.008   1.218   2.037
 3309SOL     H213681   5.156   1.237   2.012
 3309SOL    EPW13682   5.090   1.188   2.046
 3310SOL      O13683   4.103   1.321   2.692
 3310SOL     H113684   4.078   1.397   2.745
 3310SOL     H213685   4.156   1.357   2.622
 3310SOL    EPW13686   4.106   1.333   2.690
 3311SOL      O13687   4.670   0.968   2.590
 3311SOL     H113688   4.589   0.961   2.640
 3311SOL     H213689   4.710   0.881   2.596
 3311SOL    EPW13690   4.666   0.958   2.596
 3312SOL      O13691   4.095   1.601   3.365
 3312SOL     H113692   4.007   1.598   3.328
 3312SOL     H213693   4.125   1.511   3.364
 3312SOL    EPW13694   4.089   1.591   3.361
 3313SOL      O13695   4.664   1.301   2.243
 3313SOL     H113696   4.666   1.365   2.314
 3313SOL     H213697   4.624   1.223   2.281
 3313SOL    EPW13698   4.660   1.300   2.254
 3314SOL      O13699   5.497   0.296   2.708
 3314SOL     H113700   5.453   0.260   2.785
 3314SOL     H213701   5.506   0.222   2.648
 3314SOL    EPW13702   5.493   0.285   2.710
 3315SOL      O13703   4.129   0.393   2.165
 3315SOL     H113704   4.089   0.324   2.112
 3315SOL     H213705   4.165   0.455   2.101
 3315SOL    EPW13706   4.129   0.392   2.153
 3316SOL      O13707   3.963   1.239   2.288
 3316SOL     H113708   3.924   1.304   2.230
 3316SOL     H213709   3.965   1.159   2.235
 3316SOL    EPW13710   3.959   1.237   2.276
 3317SOL      O13711   4.678   1.704   2.083
 3317SOL     H113712   4.639   1.706   2.170
 3317SOL     H213713   4.616   1.655   2.029
 3317SOL    EPW13714   4.667   1.699   2.087
 3318SOL      O13715   5.527   0.497   1.991
 3318SOL     H113716   5.435   0.478   2.010
 3318SOL     H213717   5.557   0.549   2.066
 3318SOL    EPW13718   5.520   0.501   2.001
 3319SOL      O13719   5.332   1.112   2.378
 3319SOL     H113720   5.238   1.121   2.365
 3319SOL     H213721   5.372   1.160   2.305
 3319SOL    EPW13722   5.327   1.118   2.369
 3320SOL      O13723   5.083   0.734   3.452
 3320SOL     H113724   5.155   0.679   3.421
 3320SOL     H213725   5.008   0.705   3.401
 3320SOL    EPW13726   5.083   0.725   3.443
 3321SOL      O13727   3.907   1.596   3.017
 3321SOL     H113728   3.881   1.566   3.104
 3321SOL     H213729   3.885   1.689   3.016
 3321SOL    EPW13730   3.901   1.603   3.026
 3322SOL      O13731   4.865   1.104   3.461
 3322SOL     H113732   4.866   1.198   3.441
 3322SOL     H213733   4.942   1.091   3.516
 3322SOL    EPW13734   4.873   1.113   3.465
 3323SOL      O13735   4.622   0.540   3.477
 3323SOL     H113736   4.698   0.576   3.431
 3323SOL     H213737   4.648   0.451   3.499
 3323SOL    EPW13738   4.633   0.535   3.475
 3324SOL      O13739   5.308   1.012   2.756
 3324SOL     H113740   5.294   0.932   2.706
 3324SOL     H213741   5.343   1.074   2.693
 3324SOL    EPW13742   5.310   1.010   2.744
 3325SOL      O13743   4.869   0.663   2.346
 3325SOL     H113744   4.887   0.682   2.254
 3325SOL     H213745   4.842   0.571   2.347
 3325SOL    EPW13746   4.868   0.655   2.336
 3326SOL      O13747   5.473   1.296   2.216
 3326SOL     H113748   5.446   1.352   2.289
 3326SOL     H213749   5.538   1.348   2.169
 3326SOL    EPW13750   5.477   1.308   2.219
 3327SOL      O13751   4.397   0.402   3.589
 3327SOL     H113752   4.326   0.354   3.547
 3327SOL     H213753   4.437   0.339   3.648
 3327SOL    EPW13754   4.394   0.390   3.590
 3328SOL      O13755   4.214   1.699   2.526
 3328SOL     H113756   4.213   1.794   2.523
 3328SOL     H213757   4.158   1.671   2.453
 3328SOL    EPW13758   4.208   1.706   2.518
 3329SOL      O13759   5.511   0.076   2.554
 3329SOL     H113760   5.534   5.863   2.577
 3329SOL     H213761   5.423   0.069   2.515
 3329SOL    EPW13762   5.504   0.065   2.552
 3330SOL      O13763   3.933   1.782   2.124
 3330SOL     H113764   3.984   1.857   2.093
 3330SOL     H213765   3.897   1.743   2.044
 3330SOL    EPW13766   3.935   1.785   2.112
 3331SOL      O13767   4.751   0.069   2.928
 3331SOL     H113768   4.718   0.141   2.874
 3331SOL     H213769   4.843   0.091   2.943
 3331SOL    EPW13770   4.757   0.079   2.924
 3332SOL      O13771   5.309   1.591   2.044
 3332SOL     H113772   5.354   1.670   2.075
 3332SOL     H213773   5.222   1.622   2.017
 3332SOL    EPW13774   5.304   1.603   2.044
 3333SOL      O13775   4.639   0.763   2.029
 3333SOL     H113776   4.597   0.735   1.949
 3333SOL     H213777   4.731   0.737   2.019
 3333SOL    EPW13778   4.645   0.758   2.020
 3334SOL      O13779   5.297   0.546   2.324
 3334SOL     H113780   5.359   0.544   2.396
 3334SOL     H213781   5.242   0.623   2.342
 3334SOL    EPW13782   5.297   0.554   2.333
 3335SOL      O13783   4.659   0.981   3.594
 3335SOL     H113784   4.616   1.051   3.643
 3335SOL     H213785   4.735   1.023   3.554
 3335SOL    EPW13786   4.662   0.993   3.595
 3336SOL      O13787   4.719   0.127   3.193
 3336SOL     H113788   4.725   0.093   3.103
 3336SOL     H213789   4.716   0.222   3.183
 3336SOL    EPW13790   4.719   0.133   3.182
 3337SOL      O13791   4.759   0.569   2.958
 3337SOL     H113792   4.833   0.620   2.925
 3337SOL     H213793   4.688   0.633   2.964
 3337SOL    EPW13794   4.759   0.581   2.955
 3338SOL      O13795   5.294   0.598   3.345
 3338SOL     H113796   5.284   0.508   3.314
 3338SOL     H213797   5.318   0.648   3.267
 3338SOL    EPW13798   5.295   0.594   3.333
 3339SOL      O13799   5.455   1.684   3.267
 3339SOL     H113800   5.374   1.675   3.318
 3339SOL     H213801   5.490   1.769   3.293
 3339SOL    EPW13802   5.450   1.692   3.275
 3340SOL      O13803   4.882   0.287   3.362
 3340SOL     H113804   4.848   0.352   3.301
 3340SOL     H213805   4.869   0.203   3.316
 3340SOL    EPW13806   4.877   0.285   3.350
 3341SOL      O13807   5.283   1.136   3.472
 3341SOL     H113808   5.358   1.163   3.526
 3341SOL     H213809   5.215   1.114   3.536
 3341SOL    EPW13810   5.284   1.137   3.485
 3342SOL      O13811   5.498   0.512   2.507
 3342SOL     H113812   5.593   0.519   2.519
 3342SOL     H213813   5.472   0.442   2.567
 3342SOL    EPW13814   5.505   0.505   2.514
 3343SOL      O13815   3.935   0.184   2.457
 3343SOL     H113816   3.891   0.176   2.372
 3343SOL     H213817   3.930   0.097   2.495
 3343SOL    EPW13818   3.930   0.174   2.452
 3344SOL      O13819   4.850   1.307   2.042
 3344SOL     H113820   4.780   1.296   2.107
 3344SOL     H213821   4.805   1.343   1.965
 3344SOL    EPW13822   4.837   1.310   2.041
 3345SOL      O13823   3.841   0.357   2.850
 3345SOL     H113824   3.775   0.408   2.897
 3345SOL     H213825   3.791   0.312   2.781
 3345SOL    EPW13826   3.828   0.357   2.847
 3346SOL      O13827   4.314   1.723   2.199
 3346SOL     H113828   4.247   1.669   2.242
 3346SOL     H213829   4.391   1.715   2.255
 3346SOL    EPW13830   4.315   1.716   2.210
 3347SOL      O13831   5.483   1.234   3.631
 3347SOL     H113832   5.527   1.182   3.698
 3347SOL     H213833   5.416   1.283   3.679
 3347SOL    EPW13834   5.480   1.234   3.644
 3348SOL      O13835   4.435   1.145   1.942
 3348SOL     H113836   4.359   1.090   1.959
 3348SOL     H213837   4.415   1.228   1.986
 3348SOL    EPW13838   4.425   1.148   1.948
 3349SOL      O13839   5.569   0.883   3.098
 3349SOL     H113840   5.563   0.940   3.022
 3349SOL     H213841   5.563   0.942   3.173
 3349SOL    EPW13842   5.567   0.895   3.098
 3350SOL      O13843   5.373   1.567   2.785
 3350SOL     H113844   5.364   1.616   2.866
 3350SOL     H213845   5.350   1.477   2.808
 3350SOL    EPW13846   5.369   1.563   2.796
 3351SOL      O13847   5.064   1.678   1.962
 3351SOL     H113848   5.002   1.633   2.019
 3351SOL     H213849   5.070   1.766   1.997
 3351SOL    EPW13850   5.058   1.682   1.972
 3352SOL      O13851   3.893   0.677   3.096
 3352SOL     H113852   3.958   0.698   3.164
 3352SOL     H213853   3.828   0.747   3.102
 3352SOL    EPW13854   3.893   0.687   3.104
 3353SOL      O13855   5.268   1.342   1.921
 3353SOL     H113856   5.210   1.387   1.860
 3353SOL     H213857   5.297   1.411   1.981
 3353SOL    EPW13858   5.265   1.354   1.921
 3354SOL      O13859   4.429   0.193   1.912
 3354SOL     H113860   4.387   0.110   1.888
 3354SOL     H213861   4.520   0.170   1.930
 3354SOL    EPW13862   4.434   0.182   1.911
 3355SOL      O13863   4.016   1.830   3.510
 3355SOL     H113864   4.028   1.905   3.451
 3355SOL     H213865   4.045   1.754   3.460
 3355SOL    EPW13866   4.020   1.830   3.498
 3356SOL      O13867   4.030   1.075   2.995
 3356SOL     H113868   4.074   1.158   3.017
 3356SOL     H213869   3.939   1.099   2.982
 3356SOL    EPW13870   4.025   1.087   2.996
 3357SOL      O13871   4.536   1.018   2.979
 3357SOL     H113872   4.551   0.923   2.981
 3357SOL     H213873   4.495   1.034   2.894
 3357SOL    EPW13874   4.533   1.010   2.970
 3358SOL      O13875   3.891   0.887   2.382
 3358SOL     H113876   3.966   0.904   2.440
 3358SOL     H213877   3.905   0.798   2.351
 3358SOL    EPW13878   3.901   0.880   2.385
 3359SOL      O13879   4.100   0.572   3.718
 3359SOL     H113880   4.046   0.651   3.713
 3359SOL     H213881   4.142   0.578   3.804
 3359SOL    EPW13882   4.099   0.581   3.727
 3360SOL      O13883   4.537   0.120   3.393
 3360SOL     H113884   4.506   0.031   3.409
 3360SOL     H213885   4.604   0.110   3.325
 3360SOL    EPW13886   4.540   0.109   3.388
 3361SOL      O13887   4.260   0.631   3.514
 3361SOL     H113888   4.204   0.654   3.440
 3361SOL     H213889   4.200   0.610   3.585
 3361SOL    EPW13890   4.248   0.631   3.513
 3362SOL      O13891   4.544   1.749   2.774
 3362SOL     H113892   4.605   1.807   2.820
 3362SOL     H213893   4.505   1.803   2.706
 3362SOL    EPW13894   4.547   1.761   2.772
 3363SOL      O13895   5.055   0.174   3.717
 3363SOL     H113896   5.096   0.101   3.763
 3363SOL     H213897   5.040   0.240   3.784
 3363SOL    EPW13898   5.058   0.173   3.729
 3364SOL      O13899   3.866   1.517   2.489
 3364SOL     H113900   3.858   1.551   2.578
 3364SOL     H213901   3.878   1.422   2.500
 3364SOL    EPW13902   3.866   1.510   2.500
 3365SOL      O13903   4.678   1.471   2.460
 3365SOL     H113904   4.769   1.446   2.477
 3365SOL     H213905   4.639   1.477   2.547
 3365SOL    EPW13906   4.684   1.469   2.471
 3366SOL      O13907   5.553   0.616   2.798
 3366SOL     H113908   5.618   0.549   2.779
 3366SOL     H213909   5.473   0.584   2.756
 3366SOL    EPW13910   5.551   0.606   2.792
 3367SOL      O13911   5.378   0.791   3.727
 3367SOL     H113912   5.442   0.721   3.714
 3367SOL     H213913   5.404   0.833   3.809
 3367SOL    EPW13914   5.387   0.788   3.734
 3368SOL      O13915   4.495   1.573   1.929
 3368SOL     H113916   4.447   1.655   1.923
 3368SOL     H213917   4.435   1.513   1.973
 3368SOL    EPW13918   4.484   1.575   1.933
 3369SOL      O13919   4.824   0.235   2.164
 3369SOL     H113920   4.770   0.194   2.096
 3369SOL     H213921   4.878   0.299   2.117
 3369SOL    EPW13922   4.824   0.237   2.152
 3370SOL      O13923   4.699   0.401   3.175
 3370SOL     H113924   4.604   0.410   3.170
 3370SOL     H213925   4.732   0.455   3.103
 3370SOL    EPW13926   4.693   0.407   3.167
 3371SOL      O13927   4.945   0.737   2.835
 3371SOL     H113928   4.976   0.828   2.835
 3371SOL     H213929   4.897   0.728   2.753
 3371SOL    EPW13930   4.943   0.746   2.826
 3372SOL      O13931   4.425   0.998   2.729
 3372SOL     H113932   4.335   0.972   2.748
 3372SOL     H213933   4.418   1.081   2.682
 3372SOL    EPW13934   4.415   1.004   2.726
 3373SOL      O13935   5.282   0.544   2.731
 3373SOL     H113936   5.232   0.468   2.699
 3373SOL     H213937   5.242   0.566   2.815
 3373SOL    EPW13938   5.272   0.538   2.736
 3374SOL      O13939   4.186   0.244   3.492
 3374SOL     H113940   4.103   0.286   3.514
 3374SOL     H213941   4.173   0.212   3.402
 3374SOL    EPW13942   4.176   0.245   3.485
 3375SOL      O13943   4.784   0.718   2.608
 3375SOL     H113944   4.696   0.680   2.606
 3375SOL     H213945   4.819   0.701   2.520
 3375SOL    EPW13946   4.778   0.712   2.598
 3376SOL      O13947   4.053   1.614   2.309
 3376SOL     H113948   4.013   1.682   2.256
 3376SOL     H213949   3.985   1.589   2.372
 3376SOL    EPW13950   4.042   1.618   2.310
 3377SOL      O13951   4.553   1.067   2.358
 3377SOL     H113952   4.581   1.034   2.273
 3377SOL     H213953   4.604   1.017   2.422
 3377SOL    EPW13954   4.561   1.058   2.356
 3378SOL      O13955   5.090   1.615   3.065
 3378SOL     H113956   5.032   1.687   3.040
 3378SOL     H213957   5.033   1.540   3.078
 3378SOL    EPW13958   5.078   1.615   3.063
 3379SOL      O13959   5.129   1.770   2.548
 3379SOL     H113960   5.092   1.728   2.471
 3379SOL     H213961   5.223   1.753   2.543
 3379SOL    EPW13962   5.135   1.764   2.539
 3380SOL      O13963   5.120   0.328   2.652
 3380SOL     H113964   5.138   0.245   2.695
 3380SOL     H213965   5.025   0.328   2.637
 3380SOL    EPW13966   5.112   0.319   2.655
 3381SOL      O13967   3.873   1.249   2.547
 3381SOL     H113968   3.950   1.255   2.603
 3381SOL     H213969   3.908   1.228   2.460
 3381SOL    EPW13970   3.885   1.247   2.543
 3382SOL      O13971   4.364   1.259   3.546
 3382SOL     H113972   4.412   1.337   3.518
 3382SOL     H213973   4.413   1.227   3.621
 3382SOL    EPW13974   4.374   1.264   3.551
 3383SOL      O13975   3.923   1.441   3.745
 3383SOL     H113976   4.000   1.386   3.731
 3383SOL     H213977   3.878   1.440   3.661
 3383SOL    EPW13978   3.927   1.435   3.734
 3384SOL      O13979   4.986   0.405   2.032
 3384SOL     H113980   4.964   0.452   1.951
 3384SOL     H213981   5.080   0.420   2.043
 3384SOL    EPW13982   4.994   0.412   2.024
 3385SOL      O13983   4.690   0.117   1.952
 3385SOL     H113984   4.699   0.147   1.862
 3385SOL     H213985   4.689   0.022   1.945
 3385SOL    EPW13986   4.691   0.110   1.942
 3386SOL      O13987   5.205   0.917   2.149
 3386SOL     H113988   5.148   0.993   2.135
 3386SOL     H213989   5.167   0.873   2.225
 3386SOL    EPW13990   5.195   0.920   2.156
 3387SOL      O13991   4.817   1.344   3.321
 3387SOL     H113992   4.731   1.355   3.280
 3387SOL     H213993   4.879   1.369   3.253
 3387SOL    EPW13994   4.814   1.348   3.309
 3388SOL      O13995   4.131   0.028   3.674
 3388SOL     H113996   4.201   5.839   3.672
 3388SOL     H213997   4.160   0.095   3.612
 3388SOL    EPW13998   4.142   0.028   3.667
 3389SOL      O13999   4.170   1.554   2.977
 3389SOL     H114000   4.225   1.614   3.028
 3389SOL     H214001   4.080   1.577   3.002
 3389SOL    EPW14002   4.166   1.563   2.985
 3390SOL      O14003   5.560   1.060   3.301
 3390SOL     H114004   5.488   1.121   3.283
 3390SOL     H214005   5.536   1.018   3.384
 3390SOL    EPW14006   5.550   1.062   3.308
 3391SOL      O14007   4.573   1.593   3.035
 3391SOL     H114008   4.593   1.618   2.945
 3391SOL     H214009   4.491   1.640   3.055
 3391SOL    EPW14010   4.566   1.601   3.028
 3392SOL      O14011   4.193   1.013   1.978
 3392SOL     H114012   4.123   1.009   2.043
 3392SOL     H214013   4.147   1.020   1.894
 3392SOL    EPW14014   4.181   1.013   1.976
 3393SOL      O14015   4.894   0.976   2.206
 3393SOL     H114016   4.816   1.019   2.172
 3393SOL     H214017   4.936   1.042   2.261
 3393SOL    EPW14018   4.890   0.987   2.208
 3394SOL      O14019   4.346   1.306   2.843
 3394SOL     H114020   4.307   1.297   2.930
 3394SOL     H214021   4.273   1.297   2.783
 3394SOL    EPW14022   4.334   1.304   2.846
 3395SOL      O14023   5.225   0.341   3.266
 3395SOL     H114024   5.194   0.333   3.356
 3395SOL     H214025   5.219   0.253   3.230
 3395SOL    EPW14026   5.221   0.331   3.272
 3396SOL      O14027   5.540   0.200   3.126
 3396SOL     H114028   5.548   0.292   3.098
 3396SOL     H214029   5.608   0.154   3.077
 3396SOL    EPW14030   5.548   0.205   3.118
 3397SOL      O14031   3.801   1.399   3.502
 3397SOL     H114032   3.850   1.321   3.475
 3397SOL     H214033   3.716   1.365   3.528
 3397SOL    EPW14034   3.797   1.387   3.502
 3398SOL      O14035   4.538   0.123   2.513
 3398SOL     H114036   4.479   0.064   2.467
 3398SOL     H214037   4.625   0.104   2.477
 3398SOL    EPW14038   4.541   0.115   2.504
 3399SOL      O14039   4.228   1.288   2.270
 3399SOL     H114040   4.250   1.340   2.347
 3399SOL     H214041   4.133   1.277   2.274
 3399SOL    EPW14042   4.220   1.292   2.278
 3400SOL      O14043   4.714   1.706   3.247
 3400SOL     H114044   4.674   1.668   3.168
 3400SOL     H214045   4.718   1.800   3.228
 3400SOL    EPW14046   4.710   1.712   3.236
 3401SOL      O14047   5.001   1.628   2.744
 3401SOL     H114048   5.043   1.678   2.674
 3401SOL     H214049   4.988   1.692   2.814
 3401SOL    EPW14050   5.004   1.640   2.744
 3402SOL      O14051   5.345   1.692   3.019
 3402SOL     H114052   5.392   1.687   3.102
 3402SOL     H214053   5.256   1.663   3.040
 3402SOL    EPW14054   5.340   1.688   3.030
 3403SOL      O14055   4.483   0.635   3.755
 3403SOL     H114056   4.572   0.647   3.789
 3403SOL     H214057   4.428   0.629   3.833
 3403SOL    EPW14058   4.487   0.636   3.767
 3404SOL      O14059   5.211   0.929   3.308
 3404SOL     H114060   5.248   0.997   3.365
 3404SOL     H214061   5.165   0.870   3.367
 3404SOL    EPW14062   5.210   0.930   3.320
 3405SOL      O14063   4.851   0.043   3.593
 3405SOL     H114064   4.854   5.826   3.614
 3405SOL     H214065   4.924   0.081   3.642
 3405SOL    EPW14066   4.859   0.037   3.601
 3406SOL      O14067   4.259   0.592   2.005
 3406SOL     H114068   4.252   0.650   2.080
 3406SOL     H214069   4.336   0.539   2.022
 3406SOL    EPW14070   4.266   0.592   2.015
 3407SOL      O14071   5.322   1.310   2.844
 3407SOL     H114072   5.355   1.278   2.760
 3407SOL     H214073   5.229   1.326   2.829
 3407SOL    EPW14074   5.316   1.309   2.833
 3408SOL      O14075   4.813   1.008   3.209
 3408SOL     H114076   4.835   1.052   3.291
 3408SOL     H214077   4.795   1.079   3.148
 3408SOL    EPW14078   4.814   1.020   3.211
 3409SOL      O14079   5.261   0.472   2.061
 3409SOL     H114080   5.225   0.545   2.012
 3409SOL     H214081   5.271   0.505   2.150
 3409SOL    EPW14082   5.258   0.483   2.066
 3410SOL      O14083   4.188   0.235   2.563
 3410SOL     H114084   4.245   0.241   2.486
 3410SOL     H214085   4.103   0.209   2.529
 3410SOL    EPW14086   4.185   0.233   2.551
 3411SOL      O14087   3.943   1.181   3.415
 3411SOL     H114088   3.982   1.121   3.479
 3411SOL     H214089   3.870   1.133   3.378
 3411SOL    EPW14090   3.940   1.170   3.418
 3412SOL      O14091   4.914   0.733   2.083
 3412SOL     H114092   4.994   0.719   2.033
 3412SOL     H214093   4.921   0.824   2.114
 3412SOL    EPW14094   4.923   0.741   2.081
 3413SOL      O14095   4.127   0.921   2.525
 3413SOL     H114096   4.175   0.974   2.462
 3413SOL     H214097   4.173   0.837   2.525
 3413SOL    EPW14098   4.137   0.918   2.519
 3414SOL      O14099   5.202   0.302   2.398
 3414SOL     H114100   5.169   0.314   2.487
 3414SOL     H214101   5.230   0.389   2.371
 3414SOL    EPW14102   5.201   0.312   2.404
 3415SOL      O14103   4.855   0.301   2.592
 3415SOL     H114104   4.814   0.355   2.524
 3415SOL     H214105   4.796   0.309   2.667
 3415SOL    EPW14106   4.844   0.308   2.593
 3416SOL      O14107   4.720   1.442   1.841
 3416SOL     H114108   4.759   1.502   1.777
 3416SOL     H214109   4.640   1.486   1.869
 3416SOL    EPW14110   4.716   1.453   1.837
 3417SOL      O14111   5.534   0.919   3.532
 3417SOL     H114112   5.468   0.888   3.594
 3417SOL     H214113   5.614   0.871   3.555
 3417SOL    EPW14114   5.536   0.911   3.541
 3418SOL      O14115   3.819   1.566   2.759
 3418SOL     H114116   3.855   1.564   2.848
 3418SOL     H214117   3.724   1.563   2.772
 3418SOL    EPW14118   3.813   1.566   2.770
 3419SOL      O14119   3.649   0.630   2.293
 3419SOL     H114120   3.644   0.598   2.383
 3419SOL     H214121   3.743   0.637   2.276
 3419SOL    EPW14122   3.659   0.627   2.301
 3420SOL      O14123   5.296   1.851   3.651
 3420SOL     H114124   5.324   1.762   3.629
 3420SOL     H214125   5.351   1.876   3.725
 3420SOL    EPW14126   5.305   1.844   3.656
 3421SOL      O14127   4.945   1.380   2.480
 3421SOL     H114128   4.967   1.376   2.573
 3421SOL     H214129   4.996   1.454   2.447
 3421SOL    EPW14130   4.953   1.387   2.487
 3422SOL      O14131   4.136   0.462   3.164
 3422SOL     H114132   4.224   0.488   3.139
 3422SOL     H214133   4.089   0.453   3.082
 3422SOL    EPW14134   4.140   0.464   3.153
 3423SOL      O14135   4.101   0.416   2.894
 3423SOL     H114136   4.149   0.337   2.869
 3423SOL     H214137   4.009   0.395   2.876
 3423SOL    EPW14138   4.096   0.405   2.889
 3424SOL      O14139   4.992   0.560   3.638
 3424SOL     H114140   5.027   0.480   3.598
 3424SOL     H214141   5.017   0.629   3.577
 3424SOL    EPW14142   4.999   0.559   3.627
 3425SOL      O14143   5.098   0.343   3.508
 3425SOL     H114144   5.021   0.322   3.455
 3425SOL     H214145   5.099   0.277   3.577
 3425SOL    EPW14146   5.090   0.334   3.510
 3426SOL      O14147   4.262   0.198   2.827
 3426SOL     H114148   4.317   0.121   2.845
 3426SOL     H214149   4.252   0.199   2.732
 3426SOL    EPW14150   4.267   0.190   2.819
 3427SOL      O14151   4.353   1.706   3.375
 3427SOL     H114152   4.261   1.680   3.382
 3427SOL     H214153   4.402   1.630   3.408
 3427SOL    EPW14154   4.348   1.695   3.380
 3428SOL      O14155   5.509   0.461   3.025
 3428SOL     H114156   5.420   0.466   3.061
 3428SOL     H214157   5.513   0.531   2.960
 3428SOL    EPW14158   5.500   0.469   3.022
 3429SOL      O14159   5.565   1.046   2.883
 3429SOL     H114160   5.588   0.981   2.817
 3429SOL     H214161   5.471   1.061   2.871
 3429SOL    EPW14162   5.557   1.041   2.874
 3430SOL      O14163   5.047   0.991   2.843
 3430SOL     H114164   5.054   1.013   2.936
 3430SOL     H214165   5.136   1.006   2.809
 3430SOL    EPW14166   5.057   0.995   2.849
 3431SOL      O14167   5.019   0.505   3.173
 3431SOL     H114168   5.059   0.540   3.093
 3431SOL     H214169   5.082   0.440   3.204
 3431SOL    EPW14170   5.030   0.502   3.167
 3432SOL      O14171   5.580   0.608   3.703
 3432SOL     H114172   5.573   0.551   3.780
 3432SOL     H214173   5.618   0.551   3.636
 3432SOL    EPW14174   5.584   0.596   3.704
 3433SOL      O14175   5.080   1.042   3.629
 3433SOL     H114176   5.107   0.952   3.648
 3433SOL     H214177   5.075   1.084   3.714
 3433SOL    EPW14178   5.082   1.037   3.640
 3434SOL      O14179   5.033   0.071   2.097
 3434SOL     H114180   5.112   0.119   2.121
 3434SOL     H214181   4.961   0.126   2.128
 3434SOL    EPW14182   5.033   0.082   2.103
 3435SOL      O14183   5.132   0.759   2.367
 3435SOL     H114184   5.040   0.733   2.374
 3435SOL     H214185   5.158   0.781   2.456
 3435SOL    EPW14186   5.125   0.759   2.377
 3436SOL      O14187   4.183   1.299   3.070
 3436SOL     H114188   4.182   1.307   3.165
 3436SOL     H214189   4.174   1.389   3.039
 3436SOL    EPW14190   4.182   1.310   3.077
 3437SOL      O14191   4.462   0.331   2.962
 3437SOL     H114192   4.451   0.293   3.050
 3437SOL     H214193   4.401   0.282   2.907
 3437SOL    EPW14194   4.455   0.322   2.966
 3438SOL      O14195   4.345   1.723   3.105
 3438SOL     H114196   4.350   1.817   3.090
 3438SOL     H214197   4.346   1.714   3.201
 3438SOL    EPW14198   4.346   1.732   3.114
 3439SOL      O14199   5.198   1.323   3.288
 3439SOL     H114200   5.220   1.264   3.361
 3439SOL     H214201   5.254   1.293   3.216
 3439SOL    EPW14202   5.207   1.313   3.288
 3440SOL      O14203   4.318   0.999   3.445
 3440SOL     H114204   4.345   1.015   3.355
 3440SOL     H214205   4.341   1.080   3.492
 3440SOL    EPW14206   4.323   1.010   3.441
 3441SOL      O14207   4.465   1.089   3.231
 3441SOL     H114208   4.549   1.123   3.260
 3441SOL     H214209   4.480   1.064   3.139
 3441SOL    EPW14210   4.475   1.090   3.224
 3442SOL      O14211   4.480   0.435   2.031
 3442SOL     H114212   4.555   0.455   1.974
 3442SOL     H214213   4.450   0.349   2.001
 3442SOL    EPW14214   4.485   0.428   2.021
 3443SOL      O14215   5.231   1.569   3.413
 3443SOL     H114216   5.301   1.556   3.478
 3443SOL     H214217   5.228   1.487   3.365
 3443SOL    EPW14218   5.238   1.559   3.415
 3444SOL      O14219   5.002   0.147   2.979
 3444SOL     H114220   5.056   0.126   2.903
 3444SOL     H214221   5.058   0.127   3.054
 3444SOL    EPW14222   5.013   0.142   2.979
 3445SOL      O14223   3.965   1.010   2.145
 3445SOL     H114224   3.878   1.030   2.108
 3445SOL     H214225   3.946   0.960   2.224
 3445SOL    EPW14226   3.953   1.007   2.149
 3446SOL      O14227   4.324   1.380   2.031
 3446SOL     H114228   4.296   1.356   2.119
 3446SOL     H214229   4.247   1.365   1.976
 3446SOL    EPW14230   4.313   1.376   2.034
 3447SOL      O14231   4.901   1.557   2.138
 3447SOL     H114232   4.881   1.469   2.107
 3447SOL     H214233   4.821   1.607   2.121
 3447SOL    EPW14234   4.890   1.553   2.133
 3448SOL      O14235   4.143   1.749   2.788
 3448SOL     H114236   4.164   1.675   2.846
 3448SOL     H214237   4.179   1.723   2.703
 3448SOL    EPW14238   4.149   1.738   2.785
 3449SOL      O14239   4.765   1.177   3.000
 3449SOL     H114240   4.678   1.135   2.994
 3449SOL     H214241   4.797   1.177   2.910
 3449SOL    EPW14242   4.759   1.173   2.990
 3450SOL      O14243   3.840   1.548   3.277
 3450SOL     H114244   3.822   1.498   3.357
 3450SOL     H214245   3.760   1.598   3.263
 3450SOL    EPW14246   3.829   1.548   3.284
 3451SOL      O14247   4.694   0.334   2.823
 3451SOL     H114248   4.615   0.324   2.877
 3451SOL     H214249   4.738   0.410   2.859
 3451SOL    EPW14250   4.690   0.341   2.833
 3452SOL      O14251   4.489   0.791   3.508
 3452SOL     H114252   4.420   0.854   3.487
 3452SOL     H214253   4.558   0.845   3.546
 3452SOL    EPW14254   4.489   0.804   3.510
 3453SOL      O14255   4.135   1.274   3.702
 3453SOL     H114256   4.212   1.287   3.647
 3453SOL     H214257   4.101   1.189   3.677
 3453SOL    EPW14258   4.140   1.266   3.693
 3454SOL      O14259   5.169   0.079   3.186
 3454SOL     H114260   5.203   5.873   3.153
 3454SOL     H214261   5.122   0.056   3.266
 3454SOL    EPW14262   5.168   0.068   3.191
 3455SOL      O14263   5.404   1.594   3.623
 3455SOL     H114264   5.386   1.582   3.716
 3455SOL     H214265   5.484   1.647   3.621
 3455SOL    EPW14266   5.410   1.599   3.633
 3456SOL      O14267   4.146   0.495   2.632
 3456SOL     H114268   4.174   0.407   2.609
 3456SOL     H214269   4.121   0.489   2.724
 3456SOL    EPW14270   4.146   0.485   2.639
 3457SOL      O14271   3.776   1.805   3.650
 3457SOL     H114272   3.854   1.805   3.594
 3457SOL     H214273   3.757   1.898   3.664
 3457SOL    EPW14274   3.782   1.815   3.645
 3458SOL      O14275   4.526   1.478   2.695
 3458SOL     H114276   4.471   1.434   2.760
 3458SOL     H214277   4.527   1.569   2.722
 3458SOL    EPW14278   4.520   1.483   2.705
 3459SOL      O14279   4.759   0.415   2.362
 3459SOL     H114280   4.783   0.355   2.292
 3459SOL     H214281   4.665   0.429   2.351
 3459SOL    EPW14282   4.752   0.410   2.353
 3460SOL      O14283   3.805   0.133   2.214
 3460SOL     H114284   3.871   0.157   2.148
 3460SOL     H214285   3.821   0.040   2.230
 3460SOL    EPW14286   3.814   0.125   2.209
 3461SOL      O14287   3.789   0.545   3.421
 3461SOL     H114288   3.844   0.567   3.346
 3461SOL     H214289   3.701   0.536   3.384
 3461SOL    EPW14290   3.786   0.546   3.409
 3462SOL      O14291   5.435   1.452   2.438
 3462SOL     H114292   5.419   1.387   2.506
 3462SOL     H214293   5.527   1.477   2.450
 3462SOL    EPW14294   5.443   1.448   2.446
 3463SOL      O14295   5.061   1.167   2.331
 3463SOL     H114296   5.017   1.238   2.377
 3463SOL     H214297   5.069   1.198   2.240
 3463SOL    EPW14298   5.057   1.178   2.326
 3464SOL      O14299   4.797   0.095   2.419
 3464SOL     H114300   4.826   0.166   2.476
 3464SOL     H214301   4.811   0.129   2.330
 3464SOL    EPW14302   4.802   0.107   2.415
 3465SOL      O14303   5.650   0.860   2.708
 3465SOL     H114304   5.597   0.876   2.630
 3465SOL     H214305   5.618   0.775   2.741
 3465SOL    EPW14306   5.641   0.852   2.703
 3466SOL      O14307   4.075   0.679   3.316
 3466SOL     H114308   4.108   0.750   3.262
 3466SOL     H214309   4.092   0.600   3.265
 3466SOL    EPW14310   4.080   0.678   3.305
 3467SOL      O14311   5.485   0.904   2.485
 3467SOL     H114312   5.568   0.904   2.438
 3467SOL     H214313   5.431   0.968   2.440
 3467SOL    EPW14314   5.488   0.911   2.475
 3468SOL      O14315   3.954   0.776   3.590
 3468SOL     H114316   3.867   0.755   3.624
 3468SOL     H214317   3.954   0.740   3.501
 3468SOL    EPW14318   3.945   0.770   3.584
 3469SOL      O14319   4.162   0.189   3.212
 3469SOL     H114320   4.132   0.278   3.195
 3469SOL     H214321   4.128   0.137   3.140
 3469SOL    EPW14322   4.155   0.193   3.203
 3470SOL      O14323   4.200   0.744   2.235
 3470SOL     H114324   4.221   0.837   2.233
 3470SOL     H214325   4.235   0.714   2.319
 3470SOL    EPW14326   4.206   0.751   2.244
 3471SOL      O14327   4.848   0.634   3.342
 3471SOL     H114328   4.899   0.586   3.276
 3471SOL     H214329   4.793   0.693   3.291
 3471SOL    EPW14330   4.848   0.635   3.329
 3472SOL      O14331   3.923   0.461   2.479
 3472SOL     H114332   3.997   0.482   2.536
 3472SOL     H214333   3.926   0.366   2.470
 3472SOL    EPW14334   3.931   0.453   2.484
 3473SOL      O14335   5.427   1.834   2.089
 3473SOL     H114336   5.522   1.836   2.101
 3473SOL     H214337   5.396   1.914   2.130
 3473SOL    EPW14338   5.434   1.843   2.095
 3474SOL      O14339   4.552   0.742   3.005
 3474SOL     H114340   4.473   0.688   3.009
 3474SOL     H214341   4.578   0.755   3.096
 3474SOL    EPW14342   4.546   0.738   3.015
 3475SOL      O14343   5.212   1.842   3.381
 3475SOL     H114344   5.194   1.748   3.391
 3475SOL     H214345   5.241   1.870   3.467
 3475SOL    EPW14346   5.213   1.835   3.391
 3476SOL      O14347   4.413   0.300   3.231
 3476SOL     H114348   4.326   0.261   3.222
 3476SOL     H214349   4.459   0.242   3.293
 3476SOL    EPW14350   4.409   0.289   3.237
 3477SOL      O14351   3.709   1.076   2.079
 3477SOL     H114352   3.671   1.154   2.120
 3477SOL     H214353   3.655   1.004   2.110
 3477SOL    EPW14354   3.699   1.077   2.087
 3478SOL      O14355   5.162   0.083   2.768
 3478SOL     H114356   5.244   0.099   2.815
 3478SOL     H214357   5.157   5.864   2.762
 3478SOL    EPW14358   5.170   0.074   2.772
 3479SOL      O14359   5.265   0.788   2.605
 3479SOL     H114360   5.349   0.804   2.561
 3479SOL     H214361   5.274   0.702   2.645
 3479SOL    EPW14362   5.275   0.781   2.605
 3480SOL      O14363   4.371   1.817   1.948
 3480SOL     H114364   4.292   1.846   1.903
 3480SOL     H214365   4.341   1.794   2.036
 3480SOL    EPW14366   4.359   1.817   1.953
 3481SOL      O14367   4.646   0.801   3.253
 3481SOL     H114368   4.704   0.874   3.233
 3481SOL     H214369   4.597   0.830   3.330
 3481SOL    EPW14370   4.647   0.812   3.259
 3482SOL      O14371   4.080   1.017   3.587
 3482SOL     H114372   4.030   0.936   3.590
 3482SOL     H214373   4.152   0.999   3.527
 3482SOL    EPW14374   4.082   1.007   3.581
 3483SOL      O14375   5.137   0.669   1.922
 3483SOL     H114376   5.088   0.640   1.844
 3483SOL     H214377   5.199   0.734   1.888
 3483SOL    EPW14378   5.138   0.673   1.910
 3484SOL      O14379   4.271   1.418   2.505
 3484SOL     H114380   4.348   1.369   2.532
 3484SOL     H214381   4.294   1.510   2.520
 3484SOL    EPW14382   4.282   1.423   2.509
 3485SOL      O14383   4.522   0.635   2.621
 3485SOL     H114384   4.492   0.656   2.710
 3485SOL     H214385   4.510   0.540   2.614
 3485SOL    EPW14386   4.518   0.627   2.630
 3486SOL      O14387   5.564   0.061   3.359
 3486SOL     H114388   5.495   0.099   3.414
 3486SOL     H214389   5.558   0.110   3.277
 3486SOL    EPW14390   5.556   0.070   3.356
 3487SOL      O14391   4.832   1.138   2.740
 3487SOL     H114392   4.913   1.089   2.757
 3487SOL     H214393   4.782   1.081   2.682
 3487SOL    EPW14394   4.836   1.127   2.736
 3488SOL      O14395   4.632   1.024   2.102
 3488SOL     H114396   4.632   0.934   2.069
 3488SOL     H214397   4.573   1.071   2.043
 3488SOL    EPW14398   4.626   1.019   2.092
 3489SOL      O14399   5.063   1.376   2.819
 3489SOL     H114400   5.046   1.466   2.791
 3489SOL     H214401   5.028   1.371   2.908
 3489SOL    EPW14402   5.058   1.385   2.826
 3490SOL      O14403   4.967   1.358   3.087
 3490SOL     H114404   5.034   1.308   3.133
 3490SOL     H214405   4.902   1.293   3.060
 3490SOL    EPW14406   4.967   1.346   3.089
 3491SOL      O14407   3.965   0.711   2.831
 3491SOL     H114408   3.953   0.699   2.925
 3491SOL     H214409   4.033   0.778   2.824
 3491SOL    EPW14410   3.971   0.717   2.841
 3492SOL      O14411   5.082   1.486   3.630
 3492SOL     H114412   5.064   1.563   3.683
 3492SOL     H214413   5.119   1.520   3.549
 3492SOL    EPW14414   5.084   1.498   3.627
 3493SOL      O14415   5.265   0.201   2.151
 3493SOL     H114416   5.248   0.233   2.239
 3493SOL     H214417   5.276   0.280   2.098
 3493SOL    EPW14418   5.265   0.213   2.154
 3494SOL      O14419   4.599   0.725   2.297
 3494SOL     H114420   4.601   0.741   2.203
 3494SOL     H214421   4.691   0.720   2.323
 3494SOL    EPW14422   4.609   0.726   2.290
 3495SOL      O14423   3.962   0.380   3.571
 3495SOL     H114424   3.900   0.431   3.519
 3495SOL     H214425   4.002   0.444   3.630
 3495SOL    EPW14426   3.959   0.392   3.572
 3496SOL      O14427   5.068   1.046   3.111
 3496SOL     H114428   5.122   1.007   3.180
 3496SOL     H214429   4.978   1.026   3.138
 3496SOL    EPW14430   5.064   1.039   3.122
 3497SOL      O14431   4.570   1.697   2.332
 3497SOL     H114432   4.612   1.773   2.373
 3497SOL     H214433   4.607   1.621   2.377
 3497SOL    EPW14434   4.578   1.697   2.341
 3498SOL      O14435   5.390   0.127   2.909
 3498SOL     H114436   5.412   0.034   2.907
 3498SOL     H214437   5.424   0.159   2.993
 3498SOL    EPW14438   5.396   0.121   2.917
 3499SOL      O14439   3.822   0.033   3.006
 3499SOL     H114440   3.803   5.817   2.994
 3499SOL     H214441   3.916   0.041   2.993
 3499SOL    EPW14442   3.830   0.024   3.004
 3500SOL      O14443   5.431   1.222   2.603
 3500SOL     H114444   5.396   1.184   2.522
 3500SOL     H214445   5.526   1.217   2.592
 3500SOL    EPW14446   5.437   1.217   2.593
 3501SOL      O14447   4.167   1.332   3.344
 3501SOL     H114448   4.088   1.282   3.366
 3501SOL     H214449   4.233   1.301   3.406
 3501SOL    EPW14450   4.166   1.323   3.353
 3502SOL      O14451   4.002   0.196   2.022
 3502SOL     H114452   3.929   0.214   1.964
 3502SOL     H214453   4.060   0.138   1.971
 3502SOL    EPW14454   4.001   0.191   2.010
 3503SOL      O14455   5.159   0.616   2.961
 3503SOL     H114456   5.091   0.667   2.918
 3503SOL     H214457   5.210   0.680   3.010
 3503SOL    EPW14458   5.157   0.628   2.962
 3504SOL      O14459   3.785   0.247   1.870
 3504SOL     H114460   3.751   0.323   1.918
 3504SOL     H214461   3.829   0.286   1.794
 3504SOL    EPW14462   3.786   0.260   1.867
 3505SOL      O14463   3.864   1.441   2.132
 3505SOL     H114464   3.925   1.503   2.172
 3505SOL     H214465   3.876   1.452   2.038
 3505SOL    EPW14466   3.871   1.448   2.126
 3506SOL      O14467   5.077   1.583   2.344
 3506SOL     H114468   5.161   1.580   2.297
 3506SOL     H214469   5.011   1.583   2.276
 3506SOL    EPW14470   5.079   1.583   2.332
 3507SOL      O14471   5.438   0.910   3.966
 3507SOL     H114472   5.476   0.922   4.053
 3507SOL     H214473   5.344   0.921   3.979
 3507SOL    EPW14474   5.432   0.912   3.976
 3508SOL      O14475   2.491   4.509   0.259
 3508SOL     H114476   2.411   4.480   0.301
 3508SOL     H214477   2.467   4.589   0.212
 3508SOL    EPW14478   2.480   4.514   0.258
 3509SOL      O14479   5.079   1.161   3.873
 3509SOL     H114480   5.001   1.214   3.890
 3509SOL     H214481   5.146   1.225   3.849
 3509SOL    EPW14482   5.077   1.174   3.872
 3510SOL      O14483   4.658   1.321   4.099
 3510SOL     H114484   1.773   4.286   0.019
 3510SOL     H214485   4.641   1.228   4.114
 3510SOL    EPW14486   4.662   1.314   4.109
 3511SOL      O14487   4.157   0.341   4.080
 3511SOL     H114488   4.130   0.269   4.021
 3511SOL     H214489   4.079   0.396   4.086
 3511SOL    EPW14490   4.146   0.339   4.074
 3512SOL      O14491   4.036   1.289   4.057
 3512SOL     H114492   4.038   1.384   4.046
 3512SOL     H214493   3.944   1.265   4.044
 3512SOL    EPW14494   4.026   1.297   4.055
 3513SOL      O14495   4.717   1.695   3.943
 3513SOL     H114496   4.675   1.714   4.027
 3513SOL     H214497   4.649   1.651   3.892
 3513SOL    EPW14498   4.705   1.693   3.946
 3514SOL      O14499   5.553   0.416   3.894
 3514SOL     H114500   5.463   0.422   3.925
 3514SOL     H214501   5.606   0.429   3.973
 3514SOL    EPW14502   5.549   0.418   3.906
 3515SOL      O14503   2.347   4.015   0.168
 3515SOL     H114504   2.334   4.106   0.142
 3515SOL     H214505   2.433   3.992   0.132
 3515SOL    EPW14506   2.355   4.023   0.162
 3516SOL      O14507   5.493   1.319   3.996
 3516SOL     H114508   5.495   1.308   4.092
 3516SOL     H214509   5.547   1.397   3.981
 3516SOL    EPW14510   5.499   1.326   4.005
 3517SOL      O14511   3.831   1.793   3.916
 3517SOL     H114512   3.900   1.859   3.921
 3517SOL     H214513   3.816   1.782   3.822
 3517SOL    EPW14514   3.837   1.799   3.906
 3518SOL      O14515   5.306   1.597   3.886
 3518SOL     H114516   5.359   1.676   3.900
 3518SOL     H214517   5.222   1.631   3.856
 3518SOL    EPW14518   5.303   1.609   3.885
 3519SOL      O14519   4.759   0.670   3.758
 3519SOL     H114520   4.822   0.626   3.701
 3519SOL     H214521   4.812   0.704   3.831
 3519SOL    EPW14522   4.772   0.669   3.760
 3520SOL      O14523   4.850   1.316   3.904
 3520SOL     H114524   4.782   1.312   3.971
 3520SOL     H214525   4.804   1.346   3.826
 3520SOL    EPW14526   4.838   1.318   3.903
 3521SOL      O14527   4.332   1.775   4.131
 3521SOL     H114528   1.361   4.784   0.031
 3521SOL     H214529   4.426   1.772   4.147
 3521SOL    EPW14530   4.339   1.782   4.138
 3522SOL      O14531   4.468   1.117   3.762
 3522SOL     H114532   4.390   1.064   3.775
 3522SOL     H214533   4.452   1.197   3.813
 3522SOL    EPW14534   4.458   1.120   3.768
 3523SOL      O14535   5.061   1.689   3.817
 3523SOL     H114536   5.012   1.641   3.884
 3523SOL     H214537   5.073   1.777   3.854
 3523SOL    EPW14538   5.057   1.694   3.828
 3524SOL      O14539   5.263   1.336   3.770
 3524SOL     H114540   5.202   1.389   3.719
 3524SOL     H214541   5.299   1.396   3.835
 3524SOL    EPW14542   5.260   1.348   3.771
 3525SOL      O14543   4.467   0.190   3.752
 3525SOL     H114544   4.433   0.105   3.722
 3525SOL     H214545   4.557   0.171   3.778
 3525SOL    EPW14546   4.473   0.179   3.751
 3526SOL      O14547   4.506   1.574   3.810
 3526SOL     H114548   4.454   1.654   3.814
 3526SOL     H214549   4.445   1.504   3.829
 3526SOL    EPW14550   4.494   1.575   3.813
 3527SOL      O14551   4.858   0.207   4.047
 3527SOL     H114552   4.793   0.178   3.983
 3527SOL     H214553   4.909   0.273   4.000
 3527SOL    EPW14554   4.856   0.211   4.035
 3528SOL      O14555   4.623   1.050   4.132
 3528SOL     H114556   4.615   1.004   4.049
 3528SOL     H214557   1.621   3.946   0.034
 3528SOL    EPW14558   4.615   1.041   4.129
 3529SOL      O14559   0.938   4.231   0.225
 3529SOL     H114560   0.946   4.320   0.190
 3529SOL     H214561   1.020   4.188   0.198
 3529SOL    EPW14562   0.948   4.236   0.218
 3530SOL      O14563   5.014   0.376   3.895
 3530SOL     H114564   4.985   0.454   3.847
 3530SOL     H214565   5.102   0.398   3.927
 3530SOL    EPW14566   5.020   0.387   3.894
 3531SOL      O14567   4.711   0.096   3.831
 3531SOL     H114568   4.752   0.100   3.744
 3531SOL     H214569   4.685   0.004   3.841
 3531SOL    EPW14570   4.713   0.086   3.822
 3532SOL      O14571   5.173   0.936   4.000
 3532SOL     H114572   5.137   1.020   3.971
 3532SOL     H214573   5.147   0.930   4.092
 3532SOL    EPW14574   5.166   0.944   4.007
 3533SOL      O14575   4.246   0.969   3.800
 3533SOL     H114576   4.201   0.980   3.884
 3533SOL     H214577   4.179   0.983   3.734
 3533SOL    EPW14578   4.234   0.971   3.802
 3534SOL      O14579   4.272   0.595   3.937
 3534SOL     H114580   4.254   0.622   4.027
 3534SOL     H214581   4.315   0.510   3.945
 3534SOL    EPW14582   4.275   0.589   3.948
 3535SOL      O14583   5.278   0.442   3.954
 3535SOL     H114584   5.251   0.522   3.908
 3535SOL     H214585   5.307   0.473   4.040
 3535SOL    EPW14586   5.278   0.454   3.958
 3536SOL      O14587   4.928   0.765   3.956
 3536SOL     H114588   5.017   0.742   3.929
 3536SOL     H214589   4.937   0.850   3.998
 3536SOL    EPW14590   4.938   0.771   3.957
 3537SOL      O14591   4.698   1.413   3.699
 3537SOL     H114592   4.739   1.469   3.633
 3537SOL     H214593   4.630   1.469   3.738
 3537SOL    EPW14594   4.695   1.425   3.696
 3538SOL      O14595   5.052   0.017   3.982
 3538SOL     H114596   5.125   0.068   4.015
 3538SOL     H214597   4.974   0.068   4.004
 3538SOL    EPW14598   5.051   0.028   3.988
 3539SOL      O14599   4.445   0.387   3.941
 3539SOL     H114600   4.448   0.355   4.032
 3539SOL     H214601   4.445   0.308   3.888
 3539SOL    EPW14602   4.446   0.375   3.945
 3540SOL      O14603   4.358   1.345   3.869
 3540SOL     H114604   4.363   1.373   3.960
 3540SOL     H214605   4.264   1.332   3.853
 3540SOL    EPW14606   4.348   1.347   3.877
 3541SOL      O14607   4.938   1.551   4.013
 3541SOL     H114608   4.917   1.464   3.978
 3541SOL     H214609   4.859   1.603   3.998
 3541SOL    EPW14610   4.927   1.547   4.008
 3542SOL      O14611   3.874   0.177   4.151
 3542SOL     H114612   3.922   0.135   4.079
 3542SOL     H214613   0.858   3.060   0.007
 3542SOL    EPW14614   3.871   0.166   4.145
 3543SOL      O14615   2.066   4.159   0.063
 3543SOL     H114616   1.999   4.209   0.109
 3543SOL     H214617   2.147   4.209   0.075
 3543SOL    EPW14618   2.068   4.170   0.069
 3544SOL      O14619   5.430   1.838   3.896
 3544SOL     H114620   5.525   1.833   3.903
 3544SOL     H214621   5.406   1.917   3.945
 3544SOL    EPW14622   5.437   1.846   3.902
 3545SOL      O14623   3.751   1.051   3.872
 3545SOL     H114624   3.756   1.134   3.919
 3545SOL     H214625   3.682   1.002   3.917
 3545SOL    EPW14626   3.744   1.054   3.882
 3546SOL      O14627   4.370   1.808   3.856
 3546SOL     H114628   4.294   1.841   3.808
 3546SOL     H214629   4.342   1.806   3.947
 3546SOL    EPW14630   4.359   1.811   3.860
 3547SOL      O14631   5.162   0.655   3.829
 3547SOL     H114632   5.113   0.625   3.752
 3547SOL     H214633   5.232   0.709   3.793
 3547SOL    EPW14634   5.164   0.657   3.817
 3548SOL      O14635   1.361   4.321   0.241
 3548SOL     H114636   1.370   4.363   0.326
 3548SOL     H214637   1.341   4.393   0.181
 3548SOL    EPW14638   1.360   4.333   0.243
 3549SOL      O14639   4.610   0.917   3.891
 3549SOL     H114640   4.677   0.896   3.826
 3549SOL     H214641   4.558   0.986   3.850
 3549SOL    EPW14642   4.611   0.922   3.880
 3550SOL      O14643   5.243   0.187   4.072
 3550SOL     H114644   5.325   0.139   4.084
 3550SOL     H214645   5.269   0.267   4.027
 3550SOL    EPW14646   5.255   0.191   4.069
 3551SOL      O14647   4.686   0.738   4.095
 3551SOL     H114648   4.641   0.789   4.028
 3551SOL     H214649   4.776   0.731   4.064
 3551SOL    EPW14650   4.691   0.742   4.084
 3552SOL      O14651   1.663   4.689   0.025
 3552SOL     H114652   1.713   4.768   0.046
 3552SOL     H214653   1.683   4.628   0.096
 3552SOL    EPW14654   1.670   4.691   0.035
 3553SOL      O14655   4.037   0.149   3.916
 3553SOL     H114656   3.964   0.184   3.865
 3553SOL     H214657   4.087   0.097   3.852
 3553SOL    EPW14658   4.035   0.148   3.903
 3554SOL      O14659   3.828   0.229   3.758
 3554SOL     H114660   3.779   0.299   3.801
 3554SOL     H214661   3.874   0.272   3.686
 3554SOL    EPW14662   3.827   0.241   3.755
 3555SOL      O14663   3.878   1.536   3.990
 3555SOL     H114664   3.858   1.629   3.977
 3555SOL     H214665   3.898   1.503   3.902
 3555SOL    EPW14666   3.878   1.542   3.979
 3556SOL      O14667   5.190   1.578   4.136
 3556SOL     H114668   5.240   1.580   4.055
 3556SOL     H214669   5.098   1.576   4.108
 3556SOL    EPW14670   5.185   1.578   4.125
 3557SOL      O14671   5.332   2.593   1.279
 3557SOL     H114672   5.289   2.658   1.335
 3557SOL     H214673   5.415   2.634   1.254
 3557SOL    EPW14674   5.336   2.604   1.282
 3558SOL      O14675   4.267   2.885   0.479
 3558SOL     H114676   4.360   2.870   0.496
 3558SOL     H214677   4.263   2.972   0.440
 3558SOL    EPW14678   4.276   2.892   0.476
 3559SOL      O14679   5.364   3.572   0.672
 3559SOL     H114680   5.370   3.534   0.759
 3559SOL     H214681   5.390   3.501   0.613
 3559SOL    EPW14682   5.368   3.561   0.675
 3560SOL      O14683   4.879   3.518   1.582
 3560SOL     H114684   4.843   3.539   1.496
 3560SOL     H214685   4.803   3.487   1.632
 3560SOL    EPW14686   4.867   3.517   1.578
 3561SOL      O14687   5.320   3.078   1.188
 3561SOL     H114688   5.246   3.018   1.191
 3561SOL     H214689   5.310   3.124   1.105
 3561SOL    EPW14690   5.311   3.076   1.179
 3562SOL      O14691   4.478   2.368   0.514
 3562SOL     H114692   4.505   2.387   0.604
 3562SOL     H214693   4.405   2.428   0.498
 3562SOL    EPW14694   4.473   2.377   0.522
 3563SOL      O14695   4.014   2.396   0.375
 3563SOL     H114696   4.070   2.473   0.384
 3563SOL     H214697   4.003   2.364   0.465
 3563SOL    EPW14698   4.019   2.401   0.386
 3564SOL      O14699   4.069   2.806   1.396
 3564SOL     H114700   4.137   2.855   1.441
 3564SOL     H214701   4.056   2.853   1.314
 3564SOL    EPW14702   4.075   2.816   1.392
 3565SOL      O14703   4.375   2.104   0.529
 3565SOL     H114704   4.406   2.195   0.527
 3565SOL     H214705   4.396   2.069   0.443
 3565SOL    EPW14706   4.381   2.110   0.520
 3566SOL      O14707   4.452   3.045   0.724
 3566SOL     H114708   4.513   3.110   0.761
 3566SOL     H214709   4.499   3.008   0.650
 3566SOL    EPW14710   4.464   3.048   0.720
 3567SOL      O14711   4.482   3.326   1.608
 3567SOL     H114712   4.556   3.350   1.665
 3567SOL     H214713   4.523   3.302   1.525
 3567SOL    EPW14714   4.494   3.326   1.605
 3568SOL      O14715   4.260   2.600   0.692
 3568SOL     H114716   4.238   2.524   0.746
 3568SOL     H214717   4.314   2.655   0.750
 3568SOL    EPW14718   4.264   2.598   0.704
 3569SOL      O14719   4.605   3.257   1.376
 3569SOL     H114720   4.590   3.311   1.298
 3569SOL     H214721   4.555   3.177   1.359
 3569SOL    EPW14722   4.598   3.254   1.366
 3570SOL      O14723   4.396   2.384   1.036
 3570SOL     H114724   4.305   2.368   1.061
 3570SOL     H214725   4.439   2.299   1.047
 3570SOL    EPW14726   4.391   2.373   1.040
 3571SOL      O14727   4.130   2.789   0.951
 3571SOL     H114728   4.099   2.832   0.872
 3571SOL     H214729   4.102   2.847   1.022
 3571SOL    EPW14730   4.123   2.800   0.950
 3572SOL      O14731   3.871   3.687   0.763
 3572SOL     H114732   3.910   3.753   0.821
 3572SOL     H214733   3.865   3.608   0.816
 3572SOL    EPW14734   3.874   3.686   0.775
 3573SOL      O14735   4.110   3.159   0.836
 3573SOL     H114736   4.099   3.248   0.870
 3573SOL     H214737   4.158   3.171   0.754
 3573SOL    EPW14738   4.114   3.170   0.831
 3574SOL      O14739   4.653   2.790   0.761
 3574SOL     H114740   4.574   2.774   0.812
 3574SOL     H214741   4.704   2.709   0.770
 3574SOL    EPW14742   4.650   2.780   0.768
 3575SOL      O14743   4.089   3.473   1.493
 3575SOL     H114744   4.001   3.472   1.455
 3575SOL     H214745   4.115   3.381   1.497
 3575SOL    EPW14746   4.083   3.463   1.489
 3576SOL      O14747   4.583   3.180   0.391
 3576SOL     H114748   4.620   3.233   0.462
 3576SOL     H214749   4.492   3.164   0.418
 3576SOL    EPW14750   4.577   3.184   0.402
 3577SOL      O14751   5.498   2.150   0.855
 3577SOL     H114752   5.443   2.114   0.925
 3577SOL     H214753   5.512   2.076   0.796
 3577SOL    EPW14754   5.493   2.138   0.856
 3578SOL      O14755   5.344   2.969   0.523
 3578SOL     H114756   5.253   2.970   0.551
 3578SOL     H214757   5.341   2.997   0.431
 3578SOL    EPW14758   5.334   2.972   0.516
 3579SOL      O14759   5.167   2.571   1.599
 3579SOL     H114760   5.227   2.502   1.568
 3579SOL     H214761   5.081   2.544   1.568
 3579SOL    EPW14762   5.164   2.561   1.592
 3580SOL      O14763   3.924   3.537   1.147
 3580SOL     H114764   3.895   3.498   1.229
 3580SOL     H214765   3.944   3.628   1.169
 3580SOL    EPW14766   3.923   3.542   1.158
 3581SOL      O14767   4.888   3.003   1.537
 3581SOL     H114768   4.880   3.095   1.513
 3581SOL     H214769   4.976   2.995   1.574
 3581SOL    EPW14770   4.896   3.012   1.538
 3582SOL      O14771   4.672   2.315   1.739
 3582SOL     H114772   4.739   2.271   1.687
 3582SOL     H214773   4.590   2.274   1.712
 3582SOL    EPW14774   4.670   2.306   1.731
 3583SOL      O14775   5.246   2.889   0.834
 3583SOL     H114776   5.236   2.813   0.777
 3583SOL     H214777   5.330   2.875   0.878
 3583SOL    EPW14778   5.254   2.879   0.832
 3584SOL      O14779   4.880   2.552   0.478
 3584SOL     H114780   4.904   2.560   0.386
 3584SOL     H214781   4.843   2.464   0.486
 3584SOL    EPW14782   4.879   2.543   0.469
 3585SOL      O14783   4.444   2.172   1.670
 3585SOL     H114784   4.460   2.094   1.616
 3585SOL     H214785   4.452   2.140   1.760
 3585SOL    EPW14786   4.447   2.160   1.674
 3586SOL      O14787   4.171   3.629   0.581
 3586SOL     H114788   4.173   3.717   0.617
 3586SOL     H214789   4.094   3.628   0.523
 3586SOL    EPW14790   4.163   3.638   0.578
 3587SOL      O14791   5.558   1.932   0.707
 3587SOL     H114792   5.613   1.888   0.772
 3587SOL     H214793   5.489   1.868   0.688
 3587SOL    EPW14794   5.557   1.920   0.712
 3588SOL      O14795   4.682   1.898   1.071
 3588SOL     H114796   4.649   1.981   1.036
 3588SOL     H214797   4.777   1.909   1.072
 3588SOL    EPW14798   4.689   1.908   1.067
 3589SOL      O14799   5.364   3.461   0.264
 3589SOL     H114800   5.384   3.555   0.263
 3589SOL     H214801   5.390   3.432   0.351
 3589SOL    EPW14802   5.369   3.468   0.273
 3590SOL      O14803   5.354   2.370   0.455
 3590SOL     H114804   5.385   2.370   0.545
 3590SOL     H214805   5.284   2.436   0.455
 3590SOL    EPW14806   5.350   2.377   0.465
 3591SOL      O14807   4.641   2.875   1.563
 3591SOL     H114808   4.608   2.878   1.653
 3591SOL     H214809   4.727   2.918   1.568
 3591SOL    EPW14810   4.647   2.880   1.573
 3592SOL      O14811   4.692   1.954   1.335
 3592SOL     H114812   4.683   1.930   1.243
 3592SOL     H214813   4.700   2.050   1.334
 3592SOL    EPW14814   4.692   1.962   1.325
 3593SOL      O14815   4.753   2.428   1.113
 3593SOL     H114816   4.833   2.476   1.089
 3593SOL     H214817   4.686   2.496   1.119
 3593SOL    EPW14818   4.755   2.440   1.111
 3594SOL      O14819   5.367   2.410   1.489
 3594SOL     H114820   5.331   2.330   1.451
 3594SOL     H214821   5.370   2.472   1.417
 3594SOL    EPW14822   5.364   2.408   1.478
 3595SOL      O14823   5.485   3.564   1.328
 3595SOL     H114824   5.421   3.525   1.388
 3595SOL     H214825   5.518   3.640   1.374
 3595SOL    EPW14826   5.481   3.568   1.339
 3596SOL      O14827   4.822   2.160   1.567
 3596SOL     H114828   4.780   2.183   1.484
 3596SOL     H214829   4.799   2.068   1.580
 3596SOL    EPW14830   4.815   2.153   1.559
 3597SOL      O14831   5.175   3.007   1.593
 3597SOL     H114832   5.259   3.052   1.604
 3597SOL     H214833   5.161   2.960   1.675
 3597SOL    EPW14834   5.182   3.007   1.603
 3598SOL      O14835   5.492   2.381   0.698
 3598SOL     H114836   5.587   2.381   0.686
 3598SOL     H214837   5.475   2.303   0.751
 3598SOL    EPW14838   5.501   2.373   0.703
 3599SOL      O14839   3.909   2.062   0.617
 3599SOL     H114840   3.901   2.012   0.535
 3599SOL     H214841   3.833   2.035   0.669
 3599SOL    EPW14842   3.900   2.054   0.613
 3600SOL      O14843   3.866   2.257   1.078
 3600SOL     H114844   3.842   2.342   1.115
 3600SOL     H214845   3.814   2.251   0.998
 3600SOL    EPW14846   3.858   2.266   1.074
 3601SOL      O14847   4.370   3.607   0.382
 3601SOL     H114848   4.316   3.617   0.460
 3601SOL     H214849   4.457   3.588   0.415
 3601SOL    EPW14850   4.374   3.606   0.394
 3602SOL      O14851   5.430   3.092   1.660
 3602SOL     H114852   5.460   3.014   1.706
 3602SOL     H214853   5.380   3.141   1.726
 3602SOL    EPW14854   5.428   3.089   1.672
 3603SOL      O14855   5.562   2.734   1.245
 3603SOL     H114856   5.563   2.811   1.188
 3603SOL     H214857   5.572   2.769   1.333
 3603SOL    EPW14858   5.563   2.746   1.248
 3604SOL      O14859   5.395   3.458   0.918
 3604SOL     H114860   5.359   3.509   0.990
 3604SOL     H214861   5.361   3.370   0.931
 3604SOL    EPW14862   5.387   3.454   0.927
 3605SOL      O14863   3.867   2.519   1.204
 3605SOL     H114864   3.911   2.522   1.289
 3605SOL     H214865   3.807   2.594   1.206
 3605SOL    EPW14866   3.865   2.527   1.213
 3606SOL      O14867   4.007   3.679   1.660
 3606SOL     H114868   4.026   3.762   1.615
 3606SOL     H214869   4.042   3.612   1.601
 3606SOL    EPW14870   4.013   3.681   1.649
 3607SOL      O14871   4.032   2.943   1.157
 3607SOL     H114872   4.072   3.029   1.172
 3607SOL     H214873   3.942   2.963   1.132
 3607SOL    EPW14874   4.027   2.955   1.156
 3608SOL      O14875   4.510   2.911   1.131
 3608SOL     H114876   4.510   2.818   1.107
 3608SOL     H214877   4.444   2.951   1.074
 3608SOL    EPW14878   4.503   2.905   1.122
 3609SOL      O14879   3.884   2.795   0.495
 3609SOL     H114880   3.954   2.784   0.560
 3609SOL     H214881   3.857   2.705   0.474
 3609SOL    EPW14882   3.889   2.784   0.500
 3610SOL      O14883   4.089   2.418   1.794
 3610SOL     H114884   4.044   2.502   1.784
 3610SOL     H214885   4.149   2.432   1.867
 3610SOL    EPW14886   4.090   2.428   1.801
 3611SOL      O14887   4.484   1.950   1.515
 3611SOL     H114888   4.444   1.864   1.526
 3611SOL     H214889   4.567   1.933   1.471
 3611SOL    EPW14890   4.488   1.939   1.511
 3612SOL      O14891   4.183   2.432   1.534
 3612SOL     H114892   4.255   2.495   1.538
 3612SOL     H214893   4.162   2.414   1.626
 3612SOL    EPW14894   4.188   2.437   1.544
 3613SOL      O14895   4.530   3.580   0.847
 3613SOL     H114896   4.576   3.631   0.914
 3613SOL     H214897   4.506   3.643   0.780
 3613SOL    EPW14898   4.533   3.592   0.847
 3614SOL      O14899   5.058   2.001   1.805
 3614SOL     H114900   5.134   1.949   1.831
 3614SOL     H214901   5.044   2.062   1.877
 3614SOL    EPW14902   5.064   2.002   1.815
 3615SOL      O14903   3.862   3.327   0.627
 3615SOL     H114904   3.871   3.377   0.708
 3615SOL     H214905   3.875   3.236   0.654
 3615SOL    EPW14906   3.864   3.322   0.638
 3616SOL      O14907   4.683   3.318   0.605
 3616SOL     H114908   4.765   3.279   0.634
 3616SOL     H214909   4.630   3.326   0.684
 3616SOL    EPW14910   4.686   3.315   0.616
 3617SOL      O14911   5.529   2.532   0.930
 3617SOL     H114912   5.623   2.544   0.915
 3617SOL     H214913   5.498   2.488   0.851
 3617SOL    EPW14914   5.536   2.529   0.920
 3618SOL      O14915   5.369   2.656   1.844
 3618SOL     H114916   5.431   2.590   1.813
 3618SOL     H214917   5.393   2.669   1.936
 3618SOL    EPW14918   5.378   2.650   1.850
 3619SOL      O14919   4.691   2.232   1.334
 3619SOL     H114920   4.618   2.281   1.370
 3619SOL     H214921   4.734   2.294   1.275
 3619SOL    EPW14922   4.688   2.244   1.331
 3620SOL      O14923   4.950   2.590   0.991
 3620SOL     H114924   4.971   2.684   0.990
 3620SOL     H214925   4.908   2.574   0.907
 3620SOL    EPW14926   4.948   2.598   0.982
 3621SOL      O14927   4.387   2.797   0.847
 3621SOL     H114928   4.308   2.802   0.901
 3621SOL     H214929   4.398   2.886   0.813
 3621SOL    EPW14930   4.379   2.807   0.849
 3622SOL      O14931   5.214   2.414   0.818
 3622SOL     H114932   5.177   2.330   0.788
 3622SOL     H214933   5.200   2.414   0.913
 3622SOL    EPW14934   5.208   2.405   0.825
 3623SOL      O14935   4.060   2.050   1.526
 3623SOL     H114936   4.010   2.110   1.581
 3623SOL     H214937   4.113   2.107   1.470
 3623SOL    EPW14938   4.061   2.063   1.526
 3624SOL      O14939   4.799   2.562   0.757
 3624SOL     H114940   4.723   2.504   0.752
 3624SOL     H214941   4.836   2.561   0.669
 3624SOL    EPW14942   4.795   2.555   0.747
 3625SOL      O14943   4.537   2.864   0.528
 3625SOL     H114944   4.581   2.820   0.455
 3625SOL     H214945   4.582   2.832   0.606
 3625SOL    EPW14946   4.547   2.856   0.528
 3626SOL      O14947   5.061   3.487   1.209
 3626SOL     H114948   4.983   3.525   1.250
 3626SOL     H214949   5.036   3.397   1.189
 3626SOL    EPW14950   5.050   3.482   1.211
 3627SOL      O14951   5.129   3.699   0.725
 3627SOL     H114952   5.090   3.734   0.645
 3627SOL     H214953   5.208   3.654   0.695
 3627SOL    EPW14954   5.133   3.698   0.713
 3628SOL      O14955   5.114   2.173   0.718
 3628SOL     H114956   5.135   2.110   0.788
 3628SOL     H214957   5.019   2.170   0.711
 3628SOL    EPW14958   5.106   2.166   0.725
 3629SOL      O14959   3.879   3.061   0.721
 3629SOL     H114960   3.952   3.091   0.775
 3629SOL     H214961   3.914   2.984   0.675
 3629SOL    EPW14962   3.891   3.056   0.721
 3630SOL      O14963   4.371   3.111   1.732
 3630SOL     H114964   4.416   3.186   1.694
 3630SOL     H214965   4.405   3.104   1.821
 3630SOL    EPW14966   4.379   3.118   1.737
 3631SOL      O14967   3.870   3.283   1.875
 3631SOL     H114968   3.958   3.252   1.852
 3631SOL     H214969   3.831   3.310   1.791
 3631SOL    EPW14970   3.875   3.283   1.863
 3632SOL      O14971   4.781   1.997   0.156
 3632SOL     H114972   4.841   1.981   0.083
 3632SOL     H214973   4.712   1.933   0.146
 3632SOL    EPW14974   4.780   1.989   0.147
 3633SOL      O14975   4.871   3.255   1.442
 3633SOL     H114976   4.778   3.263   1.420
 3633SOL     H214977   4.892   3.336   1.487
 3633SOL    EPW14978   4.863   3.264   1.444
 3634SOL      O14979   4.172   1.939   1.804
 3634SOL     H114980   4.107   1.888   1.756
 3634SOL     H214981   4.206   2.001   1.739
 3634SOL    EPW14982   4.169   1.940   1.792
 3635SOL      O14983   4.170   3.425   1.095
 3635SOL     H114984   4.234   3.480   1.141
 3635SOL     H214985   4.086   3.466   1.112
 3635SOL    EPW14986   4.168   3.435   1.102
 3636SOL      O14987   5.579   2.887   1.474
 3636SOL     H114988   5.511   2.952   1.456
 3636SOL     H214989   5.565   2.862   1.566
 3636SOL    EPW14990   5.570   2.891   1.482
 3637SOL      O14991   4.591   3.461   1.182
 3637SOL     H114992   4.626   3.512   1.108
 3637SOL     H214993   4.507   3.502   1.202
 3637SOL    EPW14994   4.586   3.471   1.176
 3638SOL      O14995   4.237   2.761   0.104
 3638SOL     H114996   4.164   2.784   0.161
 3638SOL     H214997   4.265   2.675   0.134
 3638SOL    EPW14998   4.233   2.754   0.113
 3639SOL      O14999   4.321   3.078   1.007
 3639SOL     H115000   4.283   3.113   1.088
 3639SOL     H215001   4.256   3.099   0.940
 3639SOL    EPW15002   4.310   3.084   1.009
 3640SOL      O15003   5.232   2.191   1.383
 3640SOL     H115004   5.186   2.182   1.466
 3640SOL     H215005   5.215   2.109   1.337
 3640SOL    EPW15006   5.226   2.181   1.387
 3641SOL      O15007   5.538   2.076   1.226
 3641SOL     H115008   5.541   2.167   1.195
 3641SOL     H215009   5.619   2.037   1.192
 3641SOL    EPW15010   5.547   2.081   1.219
 3642SOL      O15011   3.773   3.264   1.600
 3642SOL     H115012   3.834   3.190   1.595
 3642SOL     H215013   3.691   3.226   1.632
 3642SOL    EPW15014   3.771   3.252   1.603
 3643SOL      O15015   4.480   1.908   0.711
 3643SOL     H115016   4.448   1.978   0.654
 3643SOL     H215017   4.520   1.844   0.652
 3643SOL    EPW15018   4.481   1.909   0.699
 3644SOL      O15019   4.263   3.140   0.379
 3644SOL     H115020   4.259   3.186   0.463
 3644SOL     H215021   4.172   3.140   0.349
 3644SOL    EPW15022   4.253   3.145   0.385
 3645SOL      O15023   4.811   3.559   1.324
 3645SOL     H115024   4.739   3.512   1.279
 3645SOL     H215025   4.782   3.650   1.327
 3645SOL    EPW15026   4.800   3.563   1.319
 3646SOL      O15027   4.993   3.540   0.904
 3646SOL     H115028   5.033   3.596   0.837
 3646SOL     H215029   4.973   3.600   0.976
 3646SOL    EPW15030   4.995   3.552   0.904
 3647SOL      O15031   5.296   3.605   1.133
 3647SOL     H115032   5.359   3.583   1.201
 3647SOL     H215033   5.217   3.557   1.156
 3647SOL    EPW15034   5.294   3.598   1.142
 3648SOL      O15035   4.456   2.616   1.841
 3648SOL     H115036   4.534   2.573   1.877
 3648SOL     H215037   4.384   2.583   1.896
 3648SOL    EPW15038   4.456   2.608   1.851
 3649SOL      O15039   5.231   2.784   1.450
 3649SOL     H115040   5.215   2.864   1.500
 3649SOL     H215041   5.205   2.714   1.510
 3649SOL    EPW15042   5.227   2.785   1.462
 3650SOL      O15043   4.826   1.893   1.702
 3650SOL     H115044   4.838   1.800   1.684
 3650SOL     H215045   4.911   1.923   1.733
 3650SOL    EPW15046   4.836   1.887   1.703
 3651SOL      O15047   5.309   3.203   0.941
 3651SOL     H115048   5.345   3.166   0.860
 3651SOL     H215049   5.216   3.218   0.922
 3651SOL    EPW15050   5.303   3.201   0.931
 3652SOL      O15051   4.855   2.876   1.297
 3652SOL     H115052   4.864   2.923   1.380
 3652SOL     H215053   4.816   2.939   1.237
 3652SOL    EPW15054   4.852   2.887   1.300
 3653SOL      O15055   4.165   1.969   0.653
 3653SOL     H115056   4.222   2.026   0.602
 3653SOL     H215057   4.077   2.006   0.641
 3653SOL    EPW15058   4.162   1.979   0.647
 3654SOL      O15059   3.943   3.050   1.563
 3654SOL     H115060   3.982   3.004   1.637
 3654SOL     H215061   3.889   2.984   1.519
 3654SOL    EPW15062   3.942   3.038   1.566
 3655SOL      O15063   4.477   2.359   1.455
 3655SOL     H115064   4.473   2.448   1.488
 3655SOL     H215065   4.453   2.304   1.530
 3655SOL    EPW15066   4.474   2.362   1.467
 3656SOL      O15067   4.956   2.594   0.219
 3656SOL     H115068   5.027   2.575   0.158
 3656SOL     H215069   4.975   2.682   0.251
 3656SOL    EPW15070   4.966   2.601   0.216
 3657SOL      O15071   4.087   2.818   0.674
 3657SOL     H115072   4.146   2.861   0.613
 3657SOL     H215073   4.128   2.733   0.692
 3657SOL    EPW15074   4.098   2.813   0.670
 3658SOL      O15075   5.144   2.067   0.453
 3658SOL     H115076   5.157   2.112   0.536
 3658SOL     H215077   5.221   2.088   0.401
 3658SOL    EPW15078   5.153   2.074   0.456
 3659SOL      O15079   4.843   2.142   0.710
 3659SOL     H115080   4.814   2.208   0.648
 3659SOL     H215081   4.801   2.166   0.793
 3659SOL    EPW15082   4.835   2.151   0.712
 3660SOL      O15083   1.788   0.319   4.121
 3660SOL     H115084   4.729   3.308   0.047
 3660SOL     H215085   1.865   0.262   4.125
 3660SOL    EPW15086   1.796   0.318   4.130
 3661SOL      O15087   5.537   2.850   1.745
 3661SOL     H115088   5.470   2.784   1.763
 3661SOL     H215089   5.575   2.870   1.830
 3661SOL    EPW15090   5.534   2.845   1.756
 3662SOL      O15091   3.811   3.453   0.904
 3662SOL     H115092   3.851   3.472   0.989
 3662SOL     H215093   3.718   3.438   0.925
 3662SOL    EPW15094   3.805   3.454   0.915
 3663SOL      O15095   3.789   2.548   0.436
 3663SOL     H115096   3.747   2.501   0.507
 3663SOL     H215097   3.860   2.491   0.408
 3663SOL    EPW15098   3.792   2.537   0.440
 3664SOL      O15099   5.308   3.716   1.844
 3664SOL     H115100   5.318   3.631   1.802
 3664SOL     H215101   5.307   3.698   1.938
 3664SOL    EPW15102   5.309   3.705   1.849
 3665SOL      O15103   4.907   3.173   0.690
 3665SOL     H115104   4.866   3.105   0.743
 3665SOL     H215105   4.962   3.221   0.752
 3665SOL    EPW15106   4.908   3.171   0.702
 3666SOL      O15107   4.198   2.205   1.347
 3666SOL     H115108   4.217   2.287   1.394
 3666SOL     H215109   4.170   2.233   1.260
 3666SOL    EPW15110   4.197   2.217   1.343
 3667SOL      O15111   4.142   2.246   1.078
 3667SOL     H115112   4.163   2.165   1.031
 3667SOL     H215113   4.046   2.250   1.076
 3667SOL    EPW15114   4.134   2.238   1.072
 3668SOL      O15115   4.977   2.381   1.758
 3668SOL     H115116   5.025   2.318   1.705
 3668SOL     H215117   4.926   2.432   1.695
 3668SOL    EPW15118   4.976   2.380   1.746
 3669SOL      O15119   5.086   2.184   1.607
 3669SOL     H115120   4.995   2.180   1.579
 3669SOL     H215121   5.092   2.116   1.675
 3669SOL    EPW15122   5.077   2.176   1.612
 3670SOL      O15123   4.238   2.029   0.918
 3670SOL     H115124   4.229   1.941   0.954
 3670SOL     H215125   4.219   2.018   0.824
 3670SOL    EPW15126   4.235   2.018   0.912
 3671SOL      O15127   4.357   3.550   1.507
 3671SOL     H115128   4.262   3.535   1.516
 3671SOL     H215129   4.397   3.477   1.554
 3671SOL    EPW15130   4.351   3.540   1.513
 3672SOL      O15131   5.489   2.343   1.129
 3672SOL     H115132   5.401   2.354   1.166
 3672SOL     H215133   5.496   2.412   1.063
 3672SOL    EPW15134   5.480   2.352   1.126
 3673SOL      O15135   5.568   2.975   1.112
 3673SOL     H115136   5.543   2.930   1.032
 3673SOL     H215137   5.488   3.018   1.142
 3673SOL    EPW15138   5.557   2.975   1.107
 3674SOL      O15139   5.022   2.854   0.976
 3674SOL     H115140   5.053   2.871   1.065
 3674SOL     H215141   5.098   2.871   0.920
 3674SOL    EPW15142   5.033   2.858   0.980
 3675SOL      O15143   5.032   2.360   1.299
 3675SOL     H115144   5.071   2.397   1.220
 3675SOL     H215145   5.096   2.295   1.329
 3675SOL    EPW15146   5.043   2.357   1.294
 3676SOL      O15147   5.553   2.474   1.758
 3676SOL     H115148   5.552   2.412   1.831
 3676SOL     H215149   5.506   2.428   1.687
 3676SOL    EPW15150   5.548   2.462   1.758
 3677SOL      O15151   5.168   2.852   1.812
 3677SOL     H115152   5.226   2.776   1.805
 3677SOL     H215153   5.162   2.868   1.906
 3677SOL    EPW15154   5.173   2.846   1.821
 3678SOL      O15155   5.165   2.581   0.465
 3678SOL     H115156   5.071   2.573   0.479
 3678SOL     H215157   5.199   2.612   0.548
 3678SOL    EPW15158   5.159   2.583   0.475
 3679SOL      O15159   4.171   3.177   1.214
 3679SOL     H115160   4.176   3.191   1.309
 3679SOL     H215161   4.168   3.266   1.178
 3679SOL    EPW15162   4.171   3.188   1.221
 3680SOL      O15163   4.483   2.114   1.032
 3680SOL     H115164   4.461   2.086   1.120
 3680SOL     H215165   4.414   2.078   0.977
 3680SOL    EPW15166   4.473   2.107   1.035
 3681SOL      O15167   4.350   3.577   1.237
 3681SOL     H115168   4.344   3.672   1.226
 3681SOL     H215169   4.349   3.564   1.331
 3681SOL    EPW15170   4.349   3.586   1.246
 3682SOL      O15171   5.217   3.227   1.405
 3682SOL     H115172   5.172   3.159   1.456
 3682SOL     H215173   5.253   3.180   1.330
 3682SOL    EPW15174   5.216   3.214   1.402
 3683SOL      O15175   4.296   2.904   1.563
 3683SOL     H115176   4.345   2.934   1.486
 3683SOL     H215177   4.321   2.965   1.632
 3683SOL    EPW15178   4.304   2.914   1.562
 3684SOL      O15179   4.478   3.006   1.383
 3684SOL     H115180   4.542   2.961   1.438
 3684SOL     H215181   4.488   2.965   1.296
 3684SOL    EPW15182   4.486   2.997   1.379
 3685SOL      O15183   5.306   3.470   1.500
 3685SOL     H115184   5.331   3.454   1.591
 3685SOL     H215185   5.263   3.390   1.472
 3685SOL    EPW15186   5.304   3.460   1.506
 3686SOL      O15187   4.950   1.936   1.106
 3686SOL     H115188   5.009   1.957   1.034
 3686SOL     H215189   5.005   1.942   1.184
 3686SOL    EPW15190   4.962   1.939   1.107
 3687SOL      O15191   4.171   3.441   0.790
 3687SOL     H115192   4.191   3.482   0.874
 3687SOL     H215193   4.165   3.514   0.728
 3687SOL    EPW15194   4.172   3.453   0.792
 3688SOL      O15195   4.745   3.049   1.116
 3688SOL     H115196   4.658   3.011   1.124
 3688SOL     H215197   4.770   3.035   1.025
 3688SOL    EPW15198   4.739   3.044   1.107
 3689SOL      O15199   3.835   3.437   1.392
 3689SOL     H115200   3.816   3.374   1.462
 3689SOL     H215201   3.759   3.494   1.390
 3689SOL    EPW15202   3.825   3.436   1.399
 3690SOL      O15203   4.701   2.237   0.925
 3690SOL     H115204   4.627   2.191   0.965
 3690SOL     H215205   4.730   2.298   0.992
 3690SOL    EPW15206   4.696   2.239   0.936
 3691SOL      O15207   4.385   2.616   1.575
 3691SOL     H115208   4.363   2.709   1.561
 3691SOL     H215209   4.415   2.613   1.666
 3691SOL    EPW15210   4.386   2.626   1.584
 3692SOL      O15211   4.105   3.167   1.804
 3692SOL     H115212   4.200   3.178   1.802
 3692SOL     H215213   4.092   3.074   1.825
 3692SOL    EPW15214   4.114   3.158   1.806
 3693SOL      O15215   5.160   1.936   1.301
 3693SOL     H115216   5.200   1.865   1.250
 3693SOL     H215217   5.180   1.914   1.392
 3693SOL    EPW15218   5.166   1.926   1.305
 3694SOL      O15219   5.404   3.468   1.758
 3694SOL     H115220   5.372   3.391   1.806
 3694SOL     H215221   5.476   3.501   1.811
 3694SOL    EPW15222   5.408   3.463   1.769
 3695SOL      O15223   4.174   2.364   0.805
 3695SOL     H115224   4.236   2.300   0.838
 3695SOL     H215225   4.125   2.392   0.883
 3695SOL    EPW15226   4.175   2.361   0.817
 3696SOL      O15227   3.781   3.677   1.813
 3696SOL     H115228   3.859   3.667   1.758
 3696SOL     H215229   3.767   3.772   1.816
 3696SOL    EPW15230   3.788   3.686   1.808
 3697SOL      O15231   4.515   3.307   0.830
 3697SOL     H115232   4.476   3.278   0.912
 3697SOL     H215233   4.516   3.403   0.836
 3697SOL    EPW15234   4.511   3.314   0.839
 3698SOL      O15235   4.765   2.309   0.510
 3698SOL     H115236   4.805   2.245   0.451
 3698SOL     H215237   4.671   2.300   0.495
 3698SOL    EPW15238   4.759   2.301   0.502
 3699SOL      O15239   3.891   1.891   0.404
 3699SOL     H115240   3.937   1.886   0.320
 3699SOL     H215241   3.887   1.801   0.435
 3699SOL    EPW15242   3.895   1.881   0.398
 3700SOL      O15243   3.752   2.402   1.559
 3700SOL     H115244   3.809   2.460   1.509
 3700SOL     H215245   3.668   2.407   1.514
 3700SOL    EPW15246   3.749   2.408   1.549
 3701SOL      O15247   5.454   3.367   0.516
 3701SOL     H115248   5.423   3.290   0.565
 3701SOL     H215249   5.548   3.370   0.534
 3701SOL    EPW15250   5.461   3.359   0.523
 3702SOL      O15251   5.076   2.990   0.552
 3702SOL     H115252   5.013   3.050   0.590
 3702SOL     H215253   5.028   2.945   0.483
 3702SOL    EPW15254   5.064   2.991   0.549
 3703SOL      O15255   4.784   1.933   0.535
 3703SOL     H115256   4.799   1.989   0.611
 3703SOL     H215257   4.825   1.980   0.462
 3703SOL    EPW15258   4.790   1.944   0.536
 3704SOL      O15259   5.498   2.808   0.911
 3704SOL     H115260   5.513   2.809   0.816
 3704SOL     H215261   5.499   2.715   0.933
 3704SOL    EPW15262   5.500   2.798   0.903
 3705SOL      O15263   3.960   2.567   1.461
 3705SOL     H115264   3.992   2.653   1.434
 3705SOL     H215265   4.040   2.517   1.480
 3705SOL    EPW15266   3.972   2.571   1.460
 3706SOL      O15267   5.507   2.780   0.640
 3706SOL     H115268   5.592   2.792   0.598
 3706SOL     H215269   5.450   2.843   0.596
 3706SOL    EPW15270   5.510   2.788   0.631
 3707SOL      O15271   3.950   2.644   1.728
 3707SOL     H115272   3.863   2.622   1.762
 3707SOL     H215273   3.943   2.628   1.634
 3707SOL    EPW15274   3.940   2.640   1.721
 3708SOL      O15275   4.089   1.904   1.249
 3708SOL     H115276   4.090   1.957   1.329
 3708SOL     H215277   4.171   1.855   1.252
 3708SOL    EPW15278   4.098   1.905   1.258
 3709SOL      O15279   4.172   2.610   0.436
 3709SOL     H115280   4.189   2.700   0.408
 3709SOL     H215281   4.206   2.606   0.526
 3709SOL    EPW15282   4.178   2.619   0.443
 3710SOL      O15283   4.914   2.501   1.502
 3710SOL     H115284   4.946   2.451   1.427
 3710SOL     H215285   4.840   2.552   1.467
 3710SOL    EPW15286   4.909   2.502   1.490
 3711SOL      O15287   3.961   2.328   0.633
 3711SOL     H115288   4.034   2.340   0.694
 3711SOL     H215289   3.944   2.234   0.634
 3711SOL    EPW15290   3.967   2.319   0.640
 3712SOL      O15291   5.465   3.710   0.165
 3712SOL     H115292   5.530   3.718   0.096
 3712SOL     H215293   5.454   3.799   0.199
 3712SOL    EPW15294   5.470   3.720   0.161
 3713SOL      O15295   4.557   2.620   1.143
 3713SOL     H115296   4.490   2.552   1.147
 3713SOL     H215297   4.588   2.628   1.233
 3713SOL    EPW15298   4.553   2.614   1.153
 3714SOL      O15299   5.285   3.743   1.537
 3714SOL     H115300   5.276   3.647   1.533
 3714SOL     H215301   5.255   3.766   1.624
 3714SOL    EPW15302   5.281   3.735   1.546
 3715SOL      O15303   4.387   2.024   1.270
 3715SOL     H115304   4.321   2.089   1.291
 3715SOL     H215305   4.431   2.007   1.354
 3715SOL    EPW15306   4.385   2.029   1.282
 3716SOL      O15307   5.136   1.981   0.909
 3716SOL     H115308   5.221   1.975   0.952
 3716SOL     H215309   5.134   1.906   0.849
 3716SOL    EPW15310   5.144   1.972   0.907
 3717SOL      O15311   5.264   2.652   0.699
 3717SOL     H115312   5.359   2.663   0.688
 3717SOL     H215313   5.255   2.569   0.745
 3717SOL    EPW15314   5.274   2.645   0.703
 3718SOL      O15315   4.702   2.662   1.385
 3718SOL     H115316   4.760   2.725   1.342
 3718SOL     H215317   4.664   2.711   1.458
 3718SOL    EPW15318   4.704   2.674   1.388
 3719SOL      O15319   4.081   2.885   1.749
 3719SOL     H115320   4.033   2.802   1.748
 3719SOL     H215321   4.151   2.874   1.685
 3719SOL    EPW15322   4.083   2.875   1.742
 3720SOL      O15323   4.271   3.236   0.630
 3720SOL     H115324   4.344   3.195   0.676
 3720SOL     H215325   4.256   3.318   0.677
 3720SOL    EPW15326   4.277   3.241   0.640
 3721SOL      O15327   4.561   2.413   0.776
 3721SOL     H115328   4.502   2.447   0.843
 3721SOL     H215329   4.612   2.346   0.821
 3721SOL    EPW15330   4.560   2.410   0.788
 3722SOL      O15331   5.518   1.926   1.453
 3722SOL     H115332   5.430   1.934   1.490
 3722SOL     H215333   5.517   1.985   1.377
 3722SOL    EPW15334   5.508   1.933   1.449
 3723SOL      O15335   4.813   2.986   0.861
 3723SOL     H115336   4.889   2.939   0.895
 3723SOL     H215337   4.756   2.916   0.826
 3723SOL    EPW15338   4.815   2.973   0.861
 3724SOL      O15339   5.046   3.275   0.913
 3724SOL     H115340   5.029   3.369   0.909
 3724SOL     H215341   5.014   3.249   0.999
 3724SOL    EPW15342   5.040   3.282   0.922
 3725SOL      O15343   4.953   3.226   1.175
 3725SOL     H115344   4.948   3.237   1.270
 3725SOL     H215345   4.875   3.176   1.152
 3725SOL    EPW15346   4.944   3.222   1.183
 3726SOL      O15347   3.997   2.546   0.964
 3726SOL     H115348   3.966   2.539   1.054
 3726SOL     H215349   4.043   2.630   0.961
 3726SOL    EPW15350   3.999   2.554   0.973
 3727SOL      O15351   5.092   3.405   1.706
 3727SOL     H115352   5.062   3.429   1.794
 3727SOL     H215353   5.030   3.449   1.647
 3727SOL    EPW15354   5.082   3.413   1.709
 3728SOL      O15355   3.923   2.227   1.687
 3728SOL     H115356   3.863   2.282   1.638
 3728SOL     H215357   3.983   2.288   1.730
 3728SOL    EPW15358   3.923   2.239   1.686
 3729SOL      O15359   5.115   2.894   1.230
 3729SOL     H115360   5.161   2.850   1.301
 3729SOL     H215361   5.023   2.892   1.255
 3729SOL    EPW15362   5.110   2.889   1.240
 3730SOL      O15363   4.643   3.536   0.427
 3730SOL     H115364   4.679   3.617   0.463
 3730SOL     H215365   4.657   3.471   0.496
 3730SOL    EPW15366   4.648   3.537   0.438
 3731SOL      O15367   5.374   1.962   1.041
 3731SOL     H115368   5.352   1.875   1.074
 3731SOL     H215369   5.425   2.002   1.111
 3731SOL    EPW15370   5.377   1.957   1.052
 3732SOL      O15371   3.853   1.865   1.126
 3732SOL     H115372   3.871   1.859   1.032
 3732SOL     H215373   3.937   1.886   1.166
 3732SOL    EPW15374   3.864   1.867   1.120
 3733SOL      O15375   5.452   3.147   0.698
 3733SOL     H115376   5.410   3.081   0.644
 3733SOL     H215377   5.545   3.122   0.698
 3733SOL    EPW15378   5.457   3.137   0.692
 3734SOL      O15379   4.161   3.207   1.490
 3734SOL     H115380   4.084   3.157   1.517
 3734SOL     H215381   4.223   3.195   1.561
 3734SOL    EPW15382   4.159   3.200   1.500
 3735SOL      O15383   3.991   1.875   0.153
 3735SOL     H115384   3.943   1.939   0.100
 3735SOL     H215385   4.083   1.894   0.136
 3735SOL    EPW15386   3.995   1.884   0.145
 3736SOL      O15387   5.172   2.465   1.088
 3736SOL     H115388   5.101   2.519   1.055
 3736SOL     H215389   5.223   2.524   1.144
 3736SOL    EPW15390   5.170   2.477   1.091
 3737SOL      O15391   5.424   2.716   2.105
 3737SOL     H115392   5.444   2.706   2.198
 3737SOL     H215393   5.343   2.767   2.103
 3737SOL    EPW15394   5.417   2.720   2.114
 3738SOL      O15395   5.331   2.603   3.126
 3738SOL     H115396   5.288   2.656   3.193
 3738SOL     H215397   5.413   2.648   3.109
 3738SOL    EPW15398   5.335   2.613   3.131
 3739SOL      O15399   4.308   2.921   2.421
 3739SOL     H115400   4.373   2.867   2.375
 3739SOL     H215401   4.324   3.010   2.389
 3739SOL    EPW15402   4.317   2.924   2.413
 3740SOL      O15403   4.745   3.456   3.519
 3740SOL     H115404   4.788   3.532   3.481
 3740SOL     H215405   4.778   3.382   3.468
 3740SOL    EPW15406   4.753   3.456   3.510
 3741SOL      O15407   5.356   3.063   3.145
 3741SOL     H115408   5.278   3.011   3.124
 3741SOL     H215409   5.387   3.095   3.061
 3741SOL    EPW15410   5.351   3.061   3.134
 3742SOL      O15411   4.511   2.279   2.329
 3742SOL     H115412   4.527   2.370   2.353
 3742SOL     H215413   4.492   2.282   2.236
 3742SOL    EPW15414   4.511   2.289   2.322
 3743SOL      O15415   3.996   2.413   2.254
 3743SOL     H115416   4.058   2.485   2.242
 3743SOL     H215417   3.981   2.410   2.349
 3743SOL    EPW15418   4.001   2.420   2.263
 3744SOL      O15419   4.058   2.791   3.231
 3744SOL     H115420   4.150   2.815   3.242
 3744SOL     H215421   4.031   2.836   3.151
 3744SOL    EPW15422   4.065   2.798   3.224
 3745SOL      O15423   4.292   2.168   2.449
 3745SOL     H115424   4.370   2.210   2.413
 3745SOL     H215425   4.228   2.173   2.378
 3745SOL    EPW15426   4.293   2.173   2.438
 3746SOL      O15427   4.484   3.392   3.475
 3746SOL     H115428   4.571   3.424   3.498
 3746SOL     H215429   4.496   3.349   3.390
 3746SOL    EPW15430   4.494   3.390   3.468
 3747SOL      O15431   4.257   2.593   2.501
 3747SOL     H115432   4.239   2.516   2.554
 3747SOL     H215433   4.319   2.644   2.552
 3747SOL    EPW15434   4.262   2.591   2.512
 3748SOL      O15435   4.558   3.275   3.243
 3748SOL     H115436   4.560   3.324   3.160
 3748SOL     H215437   4.526   3.188   3.218
 3748SOL    EPW15438   4.555   3.271   3.231
 3749SOL      O15439   4.398   2.403   2.943
 3749SOL     H115440   4.305   2.402   2.922
 3749SOL     H215441   4.424   2.311   2.942
 3749SOL    EPW15442   4.391   2.393   2.940
 3750SOL      O15443   4.097   2.757   2.808
 3750SOL     H115444   4.087   2.793   2.719
 3750SOL     H215445   4.072   2.829   2.865
 3750SOL    EPW15446   4.093   2.769   2.804
 3751SOL      O15447   4.106   3.232   2.706
 3751SOL     H115448   4.130   3.285   2.782
 3751SOL     H215449   4.045   3.288   2.657
 3751SOL    EPW15450   4.102   3.244   2.709
 3752SOL      O15451   4.654   2.816   2.554
 3752SOL     H115452   4.573   2.808   2.605
 3752SOL     H215453   4.707   2.741   2.581
 3752SOL    EPW15454   4.651   2.807   2.562
 3753SOL      O15455   4.091   3.457   3.362
 3753SOL     H115456   4.005   3.452   3.320
 3753SOL     H215457   4.125   3.367   3.357
 3753SOL    EPW15458   4.086   3.447   3.357
 3754SOL      O15459   5.501   2.189   2.678
 3754SOL     H115460   5.449   2.202   2.757
 3754SOL     H215461   5.490   2.097   2.656
 3754SOL    EPW15462   5.494   2.181   2.684
 3755SOL      O15463   4.074   2.151   2.265
 3755SOL     H115464   4.084   2.115   2.177
 3755SOL     H215465   4.052   2.243   2.251
 3755SOL    EPW15466   4.073   2.157   2.254
 3756SOL      O15467   4.075   3.104   2.310
 3756SOL     H115468   4.031   3.170   2.256
 3756SOL     H215469   4.166   3.131   2.311
 3756SOL    EPW15470   4.080   3.114   2.304
 3757SOL      O15471   4.761   3.603   2.085
 3757SOL     H115472   4.717   3.657   2.150
 3757SOL     H215473   4.690   3.551   2.046
 3757SOL    EPW15474   4.749   3.603   2.088
 3758SOL      O15475   5.546   2.311   1.982
 3758SOL     H115476   5.453   2.314   2.007
 3758SOL     H215477   5.592   2.344   2.059
 3758SOL    EPW15478   5.541   2.315   1.993
 3759SOL      O15479   5.310   2.989   2.378
 3759SOL     H115480   5.224   3.001   2.419
 3759SOL     H215481   5.304   3.039   2.296
 3759SOL    EPW15482   5.300   2.996   2.374
 3760SOL      O15483   5.142   2.520   3.481
 3760SOL     H115484   5.213   2.477   3.434
 3760SOL     H215485   5.065   2.507   3.426
 3760SOL    EPW15486   5.141   2.514   3.470
 3761SOL      O15487   3.905   3.469   3.018
 3761SOL     H115488   3.880   3.447   3.108
 3761SOL     H215489   3.871   3.558   3.005
 3761SOL    EPW15490   3.899   3.477   3.027
 3762SOL      O15491   4.875   3.005   3.412
 3762SOL     H115492   4.862   3.099   3.397
 3762SOL     H215493   4.963   2.999   3.450
 3762SOL    EPW15494   4.883   3.014   3.415
 3763SOL      O15495   4.663   2.389   3.654
 3763SOL     H115496   4.754   2.381   3.624
 3763SOL     H215497   4.618   2.315   3.612
 3763SOL    EPW15498   4.668   2.380   3.646
 3764SOL      O15499   5.320   2.852   2.736
 3764SOL     H115500   5.292   2.794   2.665
 3764SOL     H215501   5.361   2.926   2.692
 3764SOL    EPW15502   5.321   2.853   2.724
 3765SOL      O15503   4.873   2.527   2.330
 3765SOL     H115504   4.880   2.547   2.237
 3765SOL     H215505   4.858   2.433   2.334
 3765SOL    EPW15506   4.872   2.519   2.320
 3766SOL      O15507   5.523   3.117   2.084
 3766SOL     H115508   5.430   3.124   2.105
 3766SOL     H215509   5.556   3.207   2.086
 3766SOL    EPW15510   5.517   3.127   2.087
 3767SOL      O15511   4.475   2.175   3.551
 3767SOL     H115512   4.481   2.100   3.492
 3767SOL     H215513   4.484   2.138   3.639
 3767SOL    EPW15514   4.477   2.163   3.554
 3768SOL      O15515   5.538   1.930   2.593
 3768SOL     H115516   5.599   1.888   2.654
 3768SOL     H215517   5.481   1.860   2.564
 3768SOL    EPW15518   5.539   1.918   2.597
 3769SOL      O15519   3.849   3.692   2.085
 3769SOL     H115520   3.906   3.768   2.073
 3769SOL     H215521   3.831   3.662   1.996
 3769SOL    EPW15522   3.854   3.697   2.074
 3770SOL      O15523   4.715   1.924   2.911
 3770SOL     H115524   4.720   2.010   2.871
 3770SOL     H215525   4.807   1.898   2.923
 3770SOL    EPW15526   4.726   1.930   2.908
 3771SOL      O15527   4.663   2.475   1.959
 3771SOL     H115528   4.686   2.424   1.882
 3771SOL     H215529   4.746   2.512   1.989
 3771SOL    EPW15530   4.674   2.474   1.954
 3772SOL      O15531   5.292   2.428   2.311
 3772SOL     H115532   5.365   2.445   2.371
 3772SOL     H215533   5.242   2.510   2.311
 3772SOL    EPW15534   5.294   2.439   2.318
 3773SOL      O15535   4.636   2.877   3.446
 3773SOL     H115536   4.620   2.869   3.540
 3773SOL     H215537   4.722   2.919   3.440
 3773SOL    EPW15538   4.643   2.881   3.455
 3774SOL      O15539   4.673   1.970   3.177
 3774SOL     H115540   4.683   1.953   3.083
 3774SOL     H215541   4.681   2.065   3.185
 3774SOL    EPW15542   4.675   1.978   3.168
 3775SOL      O15543   4.744   2.414   2.978
 3775SOL     H115544   4.831   2.451   2.960
 3775SOL     H215545   4.686   2.490   2.979
 3775SOL    EPW15546   4.747   2.426   2.977
 3776SOL      O15547   5.345   2.415   3.332
 3776SOL     H115548   5.306   2.335   3.297
 3776SOL     H215549   5.353   2.473   3.256
 3776SOL    EPW15550   5.341   2.413   3.320
 3777SOL      O15551   5.486   3.571   3.306
 3777SOL     H115552   5.397   3.546   3.333
 3777SOL     H215553   5.492   3.664   3.327
 3777SOL    EPW15554   5.477   3.579   3.311
 3778SOL      O15555   4.784   2.171   3.453
 3778SOL     H115556   4.750   2.192   3.366
 3778SOL     H215557   4.767   2.078   3.464
 3778SOL    EPW15558   4.779   2.163   3.445
 3779SOL      O15559   5.517   2.397   2.484
 3779SOL     H115560   5.611   2.390   2.502
 3779SOL     H215561   5.478   2.325   2.533
 3779SOL    EPW15562   5.523   2.389   2.491
 3780SOL      O15563   3.888   2.104   2.535
 3780SOL     H115564   3.849   2.059   2.461
 3780SOL     H215565   3.814   2.127   2.591
 3780SOL    EPW15566   3.876   2.102   2.533
 3781SOL      O15567   3.862   2.260   2.955
 3781SOL     H115568   3.857   2.339   3.009
 3781SOL     H215569   3.811   2.281   2.876
 3781SOL    EPW15570   3.856   2.271   2.952
 3782SOL      O15571   4.296   3.540   2.214
 3782SOL     H115572   4.201   3.530   2.226
 3782SOL     H215573   4.335   3.474   2.270
 3782SOL    EPW15574   4.290   3.532   2.221
 3783SOL      O15575   5.426   3.154   3.638
 3783SOL     H115576   5.371   3.097   3.585
 3783SOL     H215577   5.375   3.171   3.718
 3783SOL    EPW15578   5.415   3.150   3.641
 3784SOL      O15579   4.450   3.087   1.992
 3784SOL     H115580   4.367   3.050   2.023
 3784SOL     H215581   4.468   3.159   2.052
 3784SOL    EPW15582   4.443   3.090   2.002
 3785SOL      O15583   5.567   2.744   3.107
 3785SOL     H115584   5.577   2.807   3.035
 3785SOL     H215585   5.559   2.798   3.185
 3785SOL    EPW15586   5.567   2.756   3.107
 3786SOL      O15587   4.996   3.462   1.950
 3786SOL     H115588   5.012   3.376   1.988
 3786SOL     H215589   4.925   3.498   2.002
 3786SOL    EPW15590   4.990   3.457   1.960
 3787SOL      O15591   3.864   2.506   3.078
 3787SOL     H115592   3.906   2.518   3.164
 3787SOL     H215593   3.808   2.583   3.068
 3787SOL    EPW15594   3.863   2.516   3.086
 3788SOL      O15595   5.263   3.233   1.820
 3788SOL     H115596   5.206   3.286   1.764
 3788SOL     H215597   5.207   3.206   1.892
 3788SOL    EPW15598   5.251   3.236   1.822
 3789SOL      O15599   4.486   2.068   1.921
 3789SOL     H115600   4.437   1.987   1.936
 3789SOL     H215601   4.578   2.042   1.929
 3789SOL    EPW15602   4.491   2.057   1.924
 3790SOL      O15603   3.952   3.652   3.507
 3790SOL     H115604   3.918   3.699   3.430
 3790SOL     H215605   3.998   3.577   3.470
 3790SOL    EPW15606   3.953   3.649   3.495
 3791SOL      O15607   4.008   2.939   3.004
 3791SOL     H115608   4.066   3.013   3.020
 3791SOL     H215609   3.921   2.979   2.992
 3791SOL    EPW15610   4.005   2.951   3.004
 3792SOL      O15611   4.510   2.905   3.005
 3792SOL     H115612   4.524   2.812   2.987
 3792SOL     H215613   4.449   2.933   2.936
 3792SOL    EPW15614   4.505   2.898   2.995
 3793SOL      O15615   3.868   2.736   2.372
 3793SOL     H115616   3.928   2.756   2.444
 3793SOL     H215617   3.906   2.780   2.296
 3793SOL    EPW15618   3.878   2.743   2.372
 3794SOL      O15619   4.090   2.417   3.699
 3794SOL     H115620   4.043   2.500   3.684
 3794SOL     H215621   4.145   2.434   3.775
 3794SOL    EPW15622   4.091   2.428   3.706
 3795SOL      O15623   4.479   1.957   3.375
 3795SOL     H115624   4.447   1.868   3.389
 3795SOL     H215625   4.557   1.946   3.320
 3795SOL    EPW15626   4.484   1.947   3.371
 3796SOL      O15627   4.177   2.458   3.441
 3796SOL     H115628   4.256   2.512   3.444
 3796SOL     H215629   4.161   2.432   3.531
 3796SOL    EPW15630   4.184   2.461   3.451
 3797SOL      O15631   5.068   2.006   3.670
 3797SOL     H115632   5.147   1.952   3.675
 3797SOL     H215633   5.074   2.063   3.746
 3797SOL    EPW15634   5.077   2.006   3.679
 3798SOL      O15635   3.884   3.370   2.616
 3798SOL     H115636   3.909   3.462   2.628
 3798SOL     H215637   3.846   3.345   2.700
 3798SOL    EPW15638   3.883   3.377   2.626
 3799SOL      O15639   5.560   2.481   2.782
 3799SOL     H115640   5.572   2.576   2.777
 3799SOL     H215641   5.515   2.459   2.700
 3799SOL    EPW15642   5.556   2.489   2.773
 3800SOL      O15643   5.444   2.654   3.723
 3800SOL     H115644   5.512   2.588   3.709
 3800SOL     H215645   5.458   2.685   3.812
 3800SOL    EPW15646   5.453   2.650   3.731
 3801SOL      O15647   4.565   3.453   1.971
 3801SOL     H115648   4.493   3.516   1.970
 3801SOL     H215649   4.544   3.393   2.042
 3801SOL    EPW15650   4.555   3.454   1.978
 3802SOL      O15651   4.860   2.080   2.151
 3802SOL     H115652   4.807   2.035   2.085
 3802SOL     H215653   4.916   2.139   2.101
 3802SOL    EPW15654   4.860   2.081   2.139
 3803SOL      O15655   4.675   2.242   3.204
 3803SOL     H115656   4.602   2.291   3.241
 3803SOL     H215657   4.716   2.302   3.142
 3803SOL    EPW15658   4.672   2.253   3.202
 3804SOL      O15659   4.956   2.572   2.848
 3804SOL     H115660   4.990   2.661   2.857
 3804SOL     H215661   4.905   2.574   2.766
 3804SOL    EPW15662   4.954   2.582   2.840
 3805SOL      O15663   4.390   2.797   2.649
 3805SOL     H115664   4.348   2.835   2.725
 3805SOL     H215665   4.363   2.852   2.576
 3805SOL    EPW15666   4.383   2.807   2.649
 3806SOL      O15667   5.253   2.415   2.666
 3806SOL     H115668   5.192   2.344   2.649
 3806SOL     H215669   5.241   2.435   2.759
 3806SOL    EPW15670   5.245   2.410   2.674
 3807SOL      O15671   4.068   2.074   3.373
 3807SOL     H115672   4.018   2.129   3.434
 3807SOL     H215673   4.125   2.135   3.326
 3807SOL    EPW15674   4.069   2.086   3.375
 3808SOL      O15675   4.799   2.585   2.613
 3808SOL     H115676   4.722   2.530   2.628
 3808SOL     H215677   4.826   2.565   2.524
 3808SOL    EPW15678   4.793   2.577   2.605
 3809SOL      O15679   4.015   3.516   2.232
 3809SOL     H115680   3.965   3.576   2.177
 3809SOL     H215681   4.030   3.565   2.313
 3809SOL    EPW15682   4.011   3.528   2.235
 3810SOL      O15683   4.519   2.788   2.317
 3810SOL     H115684   4.555   2.831   2.239
 3810SOL     H215685   4.578   2.814   2.388
 3810SOL    EPW15686   4.529   2.795   2.316
 3811SOL      O15687   4.974   3.442   3.197
 3811SOL     H115688   5.063   3.475   3.197
 3811SOL     H215689   4.976   3.366   3.139
 3811SOL    EPW15690   4.983   3.437   3.191
 3812SOL      O15691   5.084   2.192   2.627
 3812SOL     H115692   5.106   2.117   2.682
 3812SOL     H215693   4.992   2.180   2.605
 3812SOL    EPW15694   5.077   2.183   2.630
 3813SOL      O15695   3.911   3.067   2.549
 3813SOL     H115696   3.966   3.110   2.615
 3813SOL     H215697   3.958   3.081   2.467
 3813SOL    EPW15698   3.922   3.073   2.547
 3814SOL      O15699   4.356   3.142   3.561
 3814SOL     H115700   4.409   3.216   3.531
 3814SOL     H215701   4.407   3.104   3.632
 3814SOL    EPW15702   4.367   3.146   3.566
 3815SOL      O15703   3.908   3.350   3.700
 3815SOL     H115704   3.987   3.296   3.701
 3815SOL     H215705   3.858   3.319   3.624
 3815SOL    EPW15706   3.911   3.341   3.692
 3816SOL      O15707   5.026   2.216   1.981
 3816SOL     H115708   4.994   2.280   1.918
 3816SOL     H215709   5.106   2.255   2.016
 3816SOL    EPW15710   5.031   2.227   1.978
 3817SOL      O15711   4.727   1.945   1.956
 3817SOL     H115712   4.758   1.925   1.868
 3817SOL     H215713   4.710   1.859   1.995
 3817SOL    EPW15714   4.728   1.933   1.951
 3818SOL      O15715   5.199   2.863   2.089
 3818SOL     H115716   5.217   2.954   2.113
 3818SOL     H215717   5.146   2.829   2.161
 3818SOL    EPW15718   5.195   2.869   2.099
 3819SOL      O15719   4.816   3.264   3.345
 3819SOL     H115720   4.734   3.267   3.295
 3819SOL     H215721   4.876   3.320   3.297
 3819SOL    EPW15722   4.814   3.270   3.334
 3820SOL      O15723   4.175   1.932   3.709
 3820SOL     H115724   4.121   1.889   3.642
 3820SOL     H215725   4.219   2.003   3.663
 3820SOL    EPW15726   4.174   1.935   3.697
 3821SOL      O15727   4.153   3.380   2.942
 3821SOL     H115728   4.213   3.449   2.969
 3821SOL     H215729   4.066   3.415   2.961
 3821SOL    EPW15730   4.150   3.391   2.947
 3822SOL      O15731   5.550   2.927   3.308
 3822SOL     H115732   5.477   2.978   3.272
 3822SOL     H215733   5.525   2.911   3.399
 3822SOL    EPW15734   5.540   2.931   3.314
 3823SOL      O15735   4.561   3.457   3.033
 3823SOL     H115736   4.610   3.536   3.013
 3823SOL     H215737   4.469   3.483   3.024
 3823SOL    EPW15738   4.556   3.468   3.030
 3824SOL      O15739   4.215   2.922   1.993
 3824SOL     H115740   4.150   2.907   2.061
 3824SOL     H215741   4.173   2.895   1.912
 3824SOL    EPW15742   4.204   2.918   1.992
 3825SOL      O15743   4.877   2.857   2.095
 3825SOL     H115744   4.783   2.873   2.087
 3825SOL     H215745   4.917   2.942   2.078
 3825SOL    EPW15746   4.871   2.868   2.093
 3826SOL      O15747   4.305   3.016   2.841
 3826SOL     H115748   4.272   3.054   2.922
 3826SOL     H215749   4.268   3.070   2.771
 3826SOL    EPW15750   4.298   3.025   2.842
 3827SOL      O15751   5.191   2.200   3.254
 3827SOL     H115752   5.145   2.197   3.338
 3827SOL     H215753   5.175   2.115   3.214
 3827SOL    EPW15754   5.185   2.191   3.259
 3828SOL      O15755   5.513   2.068   3.090
 3828SOL     H115756   5.506   2.154   3.048
 3828SOL     H215757   5.594   2.031   3.054
 3828SOL    EPW15758   5.521   2.073   3.081
 3829SOL      O15759   3.768   3.248   3.485
 3829SOL     H115760   3.823   3.175   3.458
 3829SOL     H215761   3.684   3.209   3.507
 3829SOL    EPW15762   3.765   3.236   3.485
 3830SOL      O15763   4.472   1.942   2.571
 3830SOL     H115764   4.422   2.017   2.541
 3830SOL     H215765   4.551   1.941   2.516
 3830SOL    EPW15766   4.475   1.950   2.562
 3831SOL      O15767   4.872   3.648   3.360
 3831SOL     H115768   4.904   3.583   3.297
 3831SOL     H215769   4.811   3.702   3.309
 3831SOL    EPW15770   4.869   3.647   3.348
 3832SOL      O15771   4.477   2.587   3.734
 3832SOL     H115772   4.543   2.519   3.715
 3832SOL     H215773   4.414   2.544   3.791
 3832SOL    EPW15774   4.478   2.575   3.738
 3833SOL      O15775   5.215   2.743   3.332
 3833SOL     H115776   5.213   2.820   3.388
 3833SOL     H215777   5.187   2.671   3.389
 3833SOL    EPW15778   5.212   2.743   3.344
 3834SOL      O15779   4.828   1.906   3.585
 3834SOL     H115780   4.841   1.813   3.565
 3834SOL     H215781   4.916   1.938   3.607
 3834SOL    EPW15782   4.839   1.899   3.585
 3835SOL      O15783   4.265   2.485   1.997
 3835SOL     H115784   4.241   2.534   2.076
 3835SOL     H215785   4.330   2.421   2.028
 3835SOL    EPW15786   4.270   2.483   2.009
 3836SOL      O15787   5.440   3.154   2.880
 3836SOL     H115788   5.488   3.200   2.812
 3836SOL     H215789   5.350   3.183   2.870
 3836SOL    EPW15790   5.436   3.162   2.872
 3837SOL      O15791   4.853   2.864   3.183
 3837SOL     H115792   4.865   2.910   3.266
 3837SOL     H215793   4.810   2.928   3.126
 3837SOL    EPW15794   4.849   2.876   3.186
 3838SOL      O15795   5.278   2.326   2.060
 3838SOL     H115796   5.239   2.398   2.010
 3838SOL     H215797   5.287   2.361   2.148
 3838SOL    EPW15798   5.275   2.338   2.064
 3839SOL      O15799   4.134   1.972   2.551
 3839SOL     H115800   4.190   2.035   2.506
 3839SOL     H215801   4.046   2.012   2.549
 3839SOL    EPW15802   4.130   1.983   2.546
 3840SOL      O15803   3.939   3.051   3.404
 3840SOL     H115804   3.969   2.988   3.469
 3840SOL     H215805   3.884   3.000   3.344
 3840SOL    EPW15806   3.936   3.039   3.404
 3841SOL      O15807   4.455   2.354   3.333
 3841SOL     H115808   4.457   2.445   3.364
 3841SOL     H215809   4.457   2.302   3.413
 3841SOL    EPW15810   4.456   2.358   3.345
 3842SOL      O15811   4.902   2.587   2.063
 3842SOL     H115812   4.988   2.571   2.023
 3842SOL     H215813   4.896   2.682   2.070
 3842SOL    EPW15814   4.910   2.595   2.059
 3843SOL      O15815   4.080   2.795   2.535
 3843SOL     H115816   4.131   2.866   2.496
 3843SOL     H215817   4.136   2.718   2.526
 3843SOL    EPW15818   4.091   2.795   2.530
 3844SOL      O15819   5.233   2.174   2.399
 3844SOL     H115820   5.180   2.174   2.478
 3844SOL     H215821   5.247   2.266   2.379
 3844SOL    EPW15822   5.229   2.184   2.405
 3845SOL      O15823   4.822   2.124   2.576
 3845SOL     H115824   4.803   2.186   2.506
 3845SOL     H215825   4.774   2.158   2.652
 3845SOL    EPW15826   4.815   2.134   2.577
 3846SOL      O15827   4.706   3.384   1.753
 3846SOL     H115828   4.780   3.337   1.791
 3846SOL     H215829   4.656   3.415   1.828
 3846SOL    EPW15830   4.709   3.383   1.765
 3847SOL      O15831   5.555   2.871   3.582
 3847SOL     H115832   5.501   2.798   3.613
 3847SOL     H215833   5.567   2.926   3.659
 3847SOL    EPW15834   5.551   2.869   3.594
 3848SOL      O15835   3.774   3.297   2.856
 3848SOL     H115836   3.823   3.357   2.912
 3848SOL     H215837   3.689   3.339   2.844
 3848SOL    EPW15838   3.770   3.308   2.860
 3849SOL      O15839   3.735   2.481   2.215
 3849SOL     H115840   3.703   2.480   2.305
 3849SOL     H215841   3.830   2.472   2.223
 3849SOL    EPW15842   3.742   2.480   2.225
 3850SOL      O15843   5.345   3.751   3.743
 3850SOL     H115844   5.373   3.672   3.696
 3850SOL     H215845   5.366   3.734   3.835
 3850SOL    EPW15846   5.350   3.741   3.748
 3851SOL      O15847   4.227   2.235   3.202
 3851SOL     H115848   4.288   2.294   3.245
 3851SOL     H215849   4.202   2.281   3.122
 3851SOL    EPW15850   4.230   2.246   3.198
 3852SOL      O15851   4.140   2.267   2.904
 3852SOL     H115852   4.160   2.176   2.883
 3852SOL     H215853   4.046   2.268   2.919
 3852SOL    EPW15854   4.132   2.257   2.903
 3853SOL      O15855   4.945   2.385   3.651
 3853SOL     H115856   4.981   2.324   3.588
 3853SOL     H215857   4.971   2.471   3.618
 3853SOL    EPW15858   4.952   2.388   3.641
 3854SOL      O15859   5.048   2.199   3.481
 3854SOL     H115860   4.955   2.190   3.460
 3854SOL     H215861   5.065   2.128   3.544
 3854SOL    EPW15862   5.040   2.190   3.486
 3855SOL      O15863   4.219   2.018   2.807
 3855SOL     H115864   4.206   1.929   2.837
 3855SOL     H215865   4.195   2.016   2.714
 3855SOL    EPW15866   4.215   2.009   2.800
 3856SOL      O15867   4.335   3.589   3.328
 3856SOL     H115868   4.246   3.555   3.340
 3856SOL     H215869   4.391   3.528   3.377
 3856SOL    EPW15870   4.332   3.578   3.334
 3857SOL      O15871   5.427   2.289   2.932
 3857SOL     H115872   5.341   2.326   2.951
 3857SOL     H215873   5.477   2.362   2.896
 3857SOL    EPW15874   5.423   2.301   2.930
 3858SOL      O15875   5.614   2.943   2.920
 3858SOL     H115876   5.606   2.885   2.844
 3858SOL     H215877   5.553   3.014   2.904
 3858SOL    EPW15878   5.607   2.944   2.910
 3859SOL      O15879   5.081   2.815   2.867
 3859SOL     H115880   5.095   2.845   2.957
 3859SOL     H215881   5.164   2.833   2.823
 3859SOL    EPW15882   5.092   2.820   2.872
 3860SOL      O15883   5.018   2.358   3.119
 3860SOL     H115884   5.075   2.394   3.051
 3860SOL     H215885   5.074   2.298   3.168
 3860SOL    EPW15886   5.030   2.355   3.117
 3861SOL      O15887   5.626   2.451   3.678
 3861SOL     H115888   5.623   2.386   3.749
 3861SOL     H215889   5.619   2.400   3.598
 3861SOL    EPW15890   5.625   2.439   3.677
 3862SOL      O15891   5.012   2.853   3.746
 3862SOL     H115892   5.062   2.884   3.670
 3862SOL     H215893   5.017   2.926   3.809
 3862SOL    EPW15894   5.018   2.864   3.745
 3863SOL      O15895   5.077   1.910   2.104
 3863SOL     H115896   5.153   1.963   2.130
 3863SOL     H215897   5.002   1.961   2.133
 3863SOL    EPW15898   5.077   1.921   2.110
 3864SOL      O15899   5.127   2.654   2.314
 3864SOL     H115900   5.040   2.619   2.328
 3864SOL     H215901   5.161   2.672   2.401
 3864SOL    EPW15902   5.122   2.652   2.325
 3865SOL      O15903   4.188   3.139   3.062
 3865SOL     H115904   4.191   3.157   3.156
 3865SOL     H215905   4.175   3.224   3.022
 3865SOL    EPW15906   4.187   3.150   3.068
 3866SOL      O15907   4.450   2.130   2.917
 3866SOL     H115908   4.440   2.086   3.002
 3866SOL     H215909   4.383   2.091   2.862
 3866SOL    EPW15910   4.442   2.121   2.920
 3867SOL      O15911   4.313   3.585   3.049
 3867SOL     H115912   4.364   3.654   3.007
 3867SOL     H215913   4.332   3.593   3.142
 3867SOL    EPW15914   4.320   3.593   3.054
 3868SOL      O15915   5.243   3.236   3.334
 3868SOL     H115916   5.215   3.168   3.395
 3868SOL     H215917   5.290   3.189   3.265
 3868SOL    EPW15918   5.245   3.224   3.333
 3869SOL      O15919   4.305   2.885   3.435
 3869SOL     H115920   4.353   2.915   3.358
 3869SOL     H215921   4.323   2.951   3.502
 3869SOL    EPW15922   4.312   2.896   3.434
 3870SOL      O15923   4.472   3.001   3.255
 3870SOL     H115924   4.541   2.963   3.309
 3870SOL     H215925   4.484   2.962   3.168
 3870SOL    EPW15926   4.480   2.993   3.251
 3871SOL      O15927   4.467   2.308   2.062
 3871SOL     H115928   4.540   2.362   2.032
 3871SOL     H215929   4.476   2.227   2.011
 3871SOL    EPW15930   4.476   2.305   2.053
 3872SOL      O15931   5.256   3.484   3.453
 3872SOL     H115932   5.330   3.478   3.515
 3872SOL     H215933   5.255   3.398   3.410
 3872SOL    EPW15934   5.264   3.474   3.455
 3873SOL      O15935   4.974   1.848   2.955
 3873SOL     H115936   5.018   1.890   2.881
 3873SOL     H215937   5.014   1.889   3.032
 3873SOL    EPW15938   4.983   1.857   2.955
 3874SOL      O15939   4.013   2.874   2.176
 3874SOL     H115940   3.938   2.905   2.125
 3874SOL     H215941   4.038   2.949   2.229
 3874SOL    EPW15942   4.007   2.885   2.177
 3875SOL      O15943   4.745   3.054   3.025
 3875SOL     H115944   4.657   3.017   3.017
 3875SOL     H215945   4.787   3.034   2.942
 3875SOL    EPW15946   4.740   3.048   3.015
 3876SOL      O15947   3.832   3.423   3.280
 3876SOL     H115948   3.806   3.360   3.347
 3876SOL     H215949   3.752   3.472   3.261
 3876SOL    EPW15950   3.820   3.421   3.285
 3877SOL      O15951   4.692   2.197   2.816
 3877SOL     H115952   4.605   2.174   2.849
 3877SOL     H215953   4.724   2.264   2.876
 3877SOL    EPW15954   4.686   2.202   2.826
 3878SOL      O15955   4.400   2.615   3.467
 3878SOL     H115956   4.378   2.707   3.455
 3878SOL     H215957   4.430   2.610   3.558
 3878SOL    EPW15958   4.401   2.624   3.476
 3879SOL      O15959   4.131   3.180   3.720
 3879SOL     H115960   4.200   3.175   3.654
 3879SOL     H215961   4.098   3.090   3.727
 3879SOL    EPW15962   4.135   3.170   3.714
 3880SOL      O15963   5.142   1.957   3.143
 3880SOL     H115964   5.217   1.953   3.084
 3880SOL     H215965   5.172   1.913   3.223
 3880SOL    EPW15966   5.153   1.952   3.145
 3881SOL      O15967   5.456   3.518   3.644
 3881SOL     H115968   5.478   3.438   3.692
 3881SOL     H215969   5.536   3.570   3.646
 3881SOL    EPW15970   5.467   3.515   3.649
 3882SOL      O15971   4.182   2.364   2.637
 3882SOL     H115972   4.231   2.294   2.594
 3882SOL     H215973   4.172   2.334   2.727
 3882SOL    EPW15974   4.186   2.353   2.642
 3883SOL      O15975   3.781   3.676   3.719
 3883SOL     H115976   3.836   3.655   3.644
 3883SOL     H215977   3.773   3.771   3.718
 3883SOL    EPW15978   3.786   3.684   3.711
 3884SOL      O15979   4.786   2.265   2.345
 3884SOL     H115980   4.813   2.203   2.276
 3884SOL     H215981   4.690   2.269   2.337
 3884SOL    EPW15982   4.778   2.258   2.336
 3885SOL      O15983   3.833   1.997   2.276
 3885SOL     H115984   3.908   2.056   2.272
 3885SOL     H215985   3.868   1.913   2.245
 3885SOL    EPW15986   3.845   1.994   2.272
 3886SOL      O15987   3.751   2.405   3.443
 3886SOL     H115988   3.808   2.460   3.389
 3886SOL     H215989   3.667   2.405   3.396
 3886SOL    EPW15990   3.748   2.411   3.432
 3887SOL      O15991   4.705   1.932   2.414
 3887SOL     H115992   4.752   1.982   2.480
 3887SOL     H215993   4.739   1.964   2.331
 3887SOL    EPW15994   4.713   1.941   2.412
 3888SOL      O15995   5.572   2.750   2.732
 3888SOL     H115996   5.605   2.779   2.647
 3888SOL     H215997   5.482   2.782   2.734
 3888SOL    EPW15998   5.566   2.756   2.723
 3889SOL      O15999   3.954   2.564   3.334
 3889SOL     H116000   3.983   2.647   3.297
 3889SOL     H216001   4.035   2.520   3.360
 3889SOL    EPW16002   3.966   2.568   3.333
 3890SOL      O16003   5.460   2.745   2.376
 3890SOL     H116004   5.550   2.764   2.401
 3890SOL     H216005   5.417   2.831   2.375
 3890SOL    EPW16006   5.465   2.756   2.379
 3891SOL      O16007   3.948   2.636   3.604
 3891SOL     H116008   3.860   2.619   3.639
 3891SOL     H216009   3.942   2.615   3.511
 3891SOL    EPW16010   3.938   2.632   3.598
 3892SOL      O16011   4.074   1.933   3.134
 3892SOL     H116012   4.050   1.981   3.213
 3892SOL     H216013   4.169   1.946   3.126
 3892SOL    EPW16014   4.082   1.940   3.142
 3893SOL      O16015   4.176   2.616   2.229
 3893SOL     H116016   4.141   2.705   2.221
 3893SOL     H216017   4.219   2.615   2.314
 3893SOL    EPW16018   4.177   2.625   2.237
 3894SOL      O16019   4.913   2.491   3.335
 3894SOL     H116020   4.940   2.448   3.253
 3894SOL     H216021   4.836   2.543   3.310
 3894SOL    EPW16022   4.907   2.492   3.323
 3895SOL      O16023   3.931   2.374   2.513
 3895SOL     H116024   4.005   2.396   2.571
 3895SOL     H216025   3.925   2.278   2.519
 3895SOL    EPW16026   3.939   2.366   2.520
 3896SOL      O16027   4.562   2.623   3.013
 3896SOL     H116028   4.494   2.554   3.010
 3896SOL     H216029   4.590   2.624   3.105
 3896SOL    EPW16030   4.557   2.615   3.023
 3897SOL      O16031   4.346   2.003   3.142
 3897SOL     H116032   4.304   2.088   3.156
 3897SOL     H216033   4.395   1.988   3.223
 3897SOL    EPW16034   4.347   2.011   3.152
 3898SOL      O16035   3.776   2.949   2.052
 3898SOL     H116036   3.746   3.023   2.106
 3898SOL     H216037   3.726   2.874   2.085
 3898SOL    EPW16038   3.767   2.949   2.061
 3899SOL      O16039   5.120   1.956   2.756
 3899SOL     H116040   5.203   1.952   2.803
 3899SOL     H216041   5.133   1.900   2.679
 3899SOL    EPW16042   5.130   1.949   2.753
 3900SOL      O16043   5.262   2.666   2.549
 3900SOL     H116044   5.343   2.672   2.498
 3900SOL     H216045   5.264   2.577   2.587
 3900SOL    EPW16046   5.271   2.657   2.548
 3901SOL      O16047   4.374   3.646   1.978
 3901SOL     H116048   4.297   3.685   1.936
 3901SOL     H216049   4.343   3.621   2.065
 3901SOL    EPW16050   4.362   3.647   1.983
 3902SOL      O16051   4.692   2.656   3.260
 3902SOL     H116052   4.752   2.720   3.223
 3902SOL     H216053   4.655   2.700   3.337
 3902SOL    EPW16054   4.694   2.667   3.264
 3903SOL      O16055   4.065   2.882   3.581
 3903SOL     H116056   4.016   2.800   3.588
 3903SOL     H216057   4.133   2.864   3.516
 3903SOL    EPW16058   4.067   2.871   3.574
 3904SOL      O16059   5.142   2.518   1.926
 3904SOL     H116060   5.089   2.486   1.853
 3904SOL     H216061   5.208   2.573   1.886
 3904SOL    EPW16062   5.143   2.520   1.914
 3905SOL      O16063   4.587   2.423   2.688
 3905SOL     H116064   4.524   2.458   2.752
 3905SOL     H216065   4.623   2.345   2.729
 3905SOL    EPW16066   4.584   2.419   2.699
 3906SOL      O16067   5.563   1.930   3.327
 3906SOL     H116068   5.536   1.983   3.402
 3906SOL     H216069   5.545   1.986   3.251
 3906SOL    EPW16070   5.558   1.942   3.327
 3907SOL      O16071   4.870   2.987   2.802
 3907SOL     H116072   4.941   2.923   2.799
 3907SOL     H216073   4.823   2.975   2.720
 3907SOL    EPW16074   4.872   2.979   2.793
 3908SOL      O16075   4.602   2.873   2.066
 3908SOL     H116076   4.555   2.806   2.017
 3908SOL     H216077   4.557   2.955   2.045
 3908SOL    EPW16078   4.592   2.875   2.059
 3909SOL      O16079   5.187   3.250   2.861
 3909SOL     H116080   5.205   3.344   2.857
 3909SOL     H216081   5.118   3.242   2.927
 3909SOL    EPW16082   5.181   3.260   2.867
 3910SOL      O16083   4.985   3.206   3.059
 3910SOL     H116084   5.037   3.150   3.116
 3910SOL     H216085   4.902   3.161   3.049
 3910SOL    EPW16086   4.982   3.196   3.064
 3911SOL      O16087   3.938   2.539   2.813
 3911SOL     H116088   3.927   2.527   2.908
 3911SOL     H216089   3.999   2.613   2.806
 3911SOL    EPW16090   3.943   2.546   2.823
 3912SOL      O16091   5.098   3.384   3.661
 3912SOL     H116092   5.077   3.460   3.715
 3912SOL     H216093   5.140   3.420   3.583
 3912SOL    EPW16094   5.100   3.396   3.658
 3913SOL      O16095   5.298   2.063   2.163
 3913SOL     H116096   5.280   2.089   2.253
 3913SOL     H216097   5.300   2.146   2.114
 3913SOL    EPW16098   5.296   2.075   2.167
 3914SOL      O16099   4.597   2.532   2.347
 3914SOL     H116100   4.559   2.619   2.336
 3914SOL     H216101   4.691   2.545   2.337
 3914SOL    EPW16102   4.603   2.543   2.345
 3915SOL      O16103   3.936   2.230   3.555
 3915SOL     H116104   3.870   2.286   3.514
 3915SOL     H216105   3.988   2.291   3.608
 3915SOL    EPW16106   3.934   2.243   3.557
 3916SOL      O16107   5.115   2.901   3.127
 3916SOL     H116108   5.156   2.849   3.196
 3916SOL     H216109   5.021   2.889   3.141
 3916SOL    EPW16110   5.110   2.894   3.136
 3917SOL      O16111   5.330   1.945   2.932
 3917SOL     H116112   5.346   1.854   2.958
 3917SOL     H216113   5.396   1.995   2.980
 3917SOL    EPW16114   5.339   1.940   2.940
 3918SOL      O16115   3.854   1.860   2.996
 3918SOL     H116116   3.872   1.867   2.902
 3918SOL     H216117   3.934   1.891   3.038
 3918SOL    EPW16118   3.864   1.864   2.990
 3919SOL      O16119   5.486   3.016   2.589
 3919SOL     H116120   5.435   3.026   2.508
 3919SOL     H216121   5.510   3.106   2.613
 3919SOL    EPW16122   5.483   3.027   2.583
 3920SOL      O16123   4.168   3.192   3.337
 3920SOL     H116124   4.089   3.142   3.357
 3920SOL     H216125   4.234   3.156   3.396
 3920SOL    EPW16126   4.167   3.183   3.345
 3921SOL      O16127   4.036   2.016   2.026
 3921SOL     H116128   3.958   2.055   1.988
 3921SOL     H216129   4.093   1.998   1.951
 3921SOL    EPW16130   4.034   2.018   2.014
 3922SOL      O16131   5.192   2.462   2.932
 3922SOL     H116132   5.115   2.508   2.901
 3922SOL     H216133   5.235   2.524   2.991
 3922SOL    EPW16134   5.189   2.473   2.935
 3923SOL      O16135   3.808   2.104   1.898
 3923SOL     H116136   3.763   2.176   1.942
 3923SOL     H216137   3.848   2.144   1.821
 3923SOL    EPW16138   3.807   2.116   1.894
 3924SOL      O16139   3.918   3.272   2.149
 3924SOL     H116140   3.949   3.357   2.180
 3924SOL     H216141   3.904   3.284   2.055
 3924SOL    EPW16142   3.920   3.282   2.142
 3925SOL      O16143   5.457   2.748   3.979
 3925SOL     H116144   5.507   2.752   4.061
 3925SOL     H216145   5.366   2.760   4.006
 3925SOL    EPW16146   5.453   2.750   3.991
 3926SOL      O16147   5.048   3.037   3.952
 3926SOL     H116148   4.969   3.089   3.943
 3926SOL     H216149   5.116   3.090   3.911
 3926SOL    EPW16150   5.047   3.048   3.946
 3927SOL      O16151   1.688   0.227   0.003
 3927SOL     H116152   1.771   0.245   0.048
 3927SOL     H216153   1.680   0.131   0.008
 3927SOL    EPW16154   1.696   0.218   0.009
 3928SOL      O16155   4.167   2.186   4.059
 3928SOL     H116156   4.121   2.125   4.001
 3928SOL     H216157   4.115   2.266   4.056
 3928SOL    EPW16158   4.156   2.188   4.053
 3929SOL      O16159   4.630   3.595   3.933
 3929SOL     H116160   4.574   3.624   4.006
 3929SOL     H216161   4.569   3.554   3.872
 3929SOL    EPW16162   4.617   3.594   3.935
 3930SOL      O16163   5.583   2.260   3.874
 3930SOL     H116164   5.496   2.286   3.903
 3930SOL     H216165   5.641   2.288   3.945
 3930SOL    EPW16166   5.580   2.266   3.885
 3931SOL      O16167   5.522   3.169   4.004
 3931SOL     H116168   5.520   3.154   4.099
 3931SOL     H216169   5.562   3.255   3.994
 3931SOL    EPW16170   5.526   3.176   4.013
 3932SOL      O16171   3.964   3.648   3.922
 3932SOL     H116172   4.011   3.729   3.902
 3932SOL     H216173   3.907   3.635   3.846
 3932SOL    EPW16174   3.963   3.656   3.911
 3933SOL      O16175   5.275   3.444   3.971
 3933SOL     H116176   5.334   3.518   3.988
 3933SOL     H216177   5.201   3.483   3.924
 3933SOL    EPW16178   5.274   3.456   3.968
 3934SOL      O16179   4.781   2.457   3.905
 3934SOL     H116180   4.756   2.431   3.817
 3934SOL     H216181   4.862   2.506   3.894
 3934SOL    EPW16182   4.787   2.459   3.895
 3935SOL      O16183   4.808   3.176   3.947
 3935SOL     H116184   4.734   3.167   4.008
 3935SOL     H216185   4.768   3.205   3.865
 3935SOL    EPW16186   4.796   3.178   3.945
 3936SOL      O16187   4.451   3.012   3.786
 3936SOL     H116188   4.369   2.963   3.795
 3936SOL     H216189   4.437   3.092   3.837
 3936SOL    EPW16190   4.441   3.015   3.792
 3937SOL      O16191   5.051   3.560   3.873
 3937SOL     H116192   4.972   3.520   3.910
 3937SOL     H216193   5.059   3.644   3.918
 3937SOL    EPW16194   5.043   3.565   3.882
 3938SOL      O16195   5.229   3.208   3.832
 3938SOL     H116196   5.181   3.250   3.760
 3938SOL     H216197   5.262   3.281   3.884
 3938SOL    EPW16198   5.227   3.221   3.830
 3939SOL      O16199   4.503   2.049   3.800
 3939SOL     H116200   4.454   1.970   3.822
 3939SOL     H216201   4.595   2.026   3.815
 3939SOL    EPW16202   4.507   2.038   3.804
 3940SOL      O16203   4.452   3.460   3.758
 3940SOL     H116204   4.441   3.441   3.664
 3940SOL     H216205   4.406   3.389   3.802
 3940SOL    EPW16206   4.446   3.451   3.752
 3941SOL      O16207   4.903   2.099   4.039
 3941SOL     H116208   4.841   2.055   3.981
 3941SOL     H216209   4.951   2.158   3.981
 3941SOL    EPW16210   4.902   2.101   4.026
 3942SOL      O16211   4.142   3.515   4.099
 3942SOL     H116212   4.113   3.550   4.015
 3942SOL     H216213   1.127   0.583   0.000
 3942SOL    EPW16214   4.131   3.519   4.096
 3943SOL      O16215   1.687   5.834   0.014
 3943SOL     H116216   4.593   2.856   4.088
 3943SOL     H216217   1.782   5.827   0.007
 3943SOL    EPW16218   1.694   5.829   0.005
 3944SOL      O16219   5.062   2.225   3.851
 3944SOL     H116220   5.019   2.288   3.793
 3944SOL     H216221   5.143   2.268   3.877
 3944SOL    EPW16222   5.066   2.237   3.848
 3945SOL      O16223   4.754   1.953   3.848
 3945SOL     H116224   4.782   1.944   3.757
 3945SOL     H216225   4.746   1.862   3.879
 3945SOL    EPW16226   4.756   1.942   3.842
 3946SOL      O16227   5.183   2.777   4.026
 3946SOL     H116228   5.160   2.865   3.995
 3946SOL     H216229   5.130   2.719   3.972
 3946SOL    EPW16230   5.175   2.780   4.017
 3947SOL      O16231   4.220   2.875   3.804
 3947SOL     H116232   4.219   2.788   3.845
 3947SOL     H216233   4.159   2.866   3.730
 3947SOL    EPW16234   4.213   2.864   3.800
 3948SOL      O16235   4.272   2.480   3.914
 3948SOL     H116236   4.259   2.505   4.005
 3948SOL     H216237   4.336   2.409   3.917
 3948SOL    EPW16238   4.277   2.475   3.924
 3949SOL      O16239   5.328   2.327   3.954
 3949SOL     H116240   5.306   2.393   3.889
 3949SOL     H216241   5.358   2.378   4.030
 3949SOL    EPW16242   5.329   2.340   3.956
 3950SOL      O16243   5.019   2.615   3.872
 3950SOL     H116244   5.090   2.569   3.827
 3950SOL     H216245   5.005   2.694   3.821
 3950SOL    EPW16246   5.025   2.618   3.862
 3951SOL      O16247   4.686   3.310   3.747
 3951SOL     H116248   4.733   3.353   3.676
 3951SOL     H216249   4.606   3.362   3.758
 3951SOL    EPW16250   4.682   3.320   3.741
 3952SOL      O16251   5.101   1.914   3.974
 3952SOL     H116252   5.181   1.959   3.998
 3952SOL     H216253   5.030   1.972   4.003
 3952SOL    EPW16254   5.102   1.925   3.980
 3953SOL      O16255   4.478   2.306   3.910
 3953SOL     H116256   4.567   2.330   3.935
 3953SOL     H216257   4.485   2.215   3.880
 3953SOL    EPW16258   4.488   2.298   3.909
 3954SOL      O16259   4.339   3.248   3.890
 3954SOL     H116260   4.320   3.250   3.984
 3954SOL     H216261   4.255   3.228   3.849
 3954SOL    EPW16262   4.328   3.246   3.896
 3955SOL      O16263   4.847   3.442   4.007
 3955SOL     H116264   4.829   3.353   3.976
 3955SOL     H216265   4.769   3.492   3.982
 3955SOL    EPW16266   4.837   3.438   4.001
 3956SOL      O16267   3.876   2.066   4.151
 3956SOL     H116268   3.911   2.024   4.072
 3956SOL     H216269   0.862   4.950   0.019
 3956SOL    EPW16270   3.872   2.056   4.145
 3957SOL      O16271   5.412   3.681   4.001
 3957SOL     H116272   5.507   3.690   3.989
 3957SOL     H216273   5.390   3.750   4.063
 3957SOL    EPW16274   5.420   3.690   4.006
 3958SOL      O16275   3.732   2.914   3.907
 3958SOL     H116276   3.723   3.003   3.939
 3958SOL     H216277   3.666   2.864   3.956
 3958SOL    EPW16278   3.724   2.918   3.915
 3959SOL      O16279   4.330   3.707   3.814
 3959SOL     H116280   4.272   3.731   3.742
 3959SOL     H216281   4.366   3.622   3.788
 3959SOL    EPW16282   4.328   3.700   3.804
 3960SOL      O16283   5.231   2.493   3.749
 3960SOL     H116284   5.196   2.482   3.660
 3960SOL     H216285   5.302   2.557   3.739
 3960SOL    EPW16286   5.235   2.499   3.738
 3961SOL      O16287   4.542   2.785   3.923
 3961SOL     H116288   4.529   2.718   3.856
 3961SOL     H216289   4.527   2.868   3.878
 3961SOL    EPW16290   4.539   2.786   3.911
 3962SOL      O16291   5.335   2.055   4.035
 3962SOL     H116292   5.404   2.048   4.102
 3962SOL     H216293   5.338   2.146   4.007
 3962SOL    EPW16294   5.343   2.064   4.039
 3963SOL      O16295   4.628   2.576   4.093
 3963SOL     H116296   4.592   2.649   4.043
 3963SOL     H216297   4.687   2.532   4.032
 3963SOL    EPW16298   4.631   2.579   4.081
 3964SOL      O16299   4.001   2.006   3.905
 3964SOL     H116300   3.933   2.044   3.850
 3964SOL     H216301   4.069   1.979   3.844
 3964SOL    EPW16302   4.001   2.007   3.893
 3965SOL      O16303   3.801   2.081   3.737
 3965SOL     H116304   3.758   2.153   3.782
 3965SOL     H216305   3.848   2.122   3.665
 3965SOL    EPW16306   3.802   2.093   3.734
 3966SOL      O16307   3.794   3.405   3.938
 3966SOL     H116308   3.856   3.467   3.974
 3966SOL     H216309   3.829   3.382   3.851
 3966SOL    EPW16310   3.804   3.409   3.932
 3967SOL      O16311   5.072   3.349   4.133
 3967SOL     H116312   5.152   3.379   4.089
 3967SOL     H216313   5.002   3.398   4.091
 3967SOL    EPW16314   5.073   3.357   4.124
 3968SOL      O16315   5.513   4.562   0.285
 3968SOL     H116316   5.535   4.524   0.370
 3968SOL     H216317   5.421   4.587   0.293
 3968SOL    EPW16318   5.505   4.560   0.295
 3969SOL      O16319   5.312   4.563   1.175
 3969SOL     H116320   5.272   4.603   1.252
 3969SOL     H216321   5.405   4.560   1.196
 3969SOL    EPW16322   5.318   4.567   1.186
 3970SOL      O16323   4.240   4.763   0.517
 3970SOL     H116324   4.333   4.741   0.528
 3970SOL     H216325   4.240   4.857   0.504
 3970SOL    EPW16326   4.250   4.770   0.517
 3971SOL      O16327   5.369   5.436   0.681
 3971SOL     H116328   5.371   5.386   0.762
 3971SOL     H216329   5.391   5.372   0.613
 3971SOL    EPW16330   5.371   5.424   0.682
 3972SOL      O16331   5.278   4.923   1.197
 3972SOL     H116332   5.197   4.874   1.208
 3972SOL     H216333   5.265   4.973   1.117
 3972SOL    EPW16334   5.268   4.923   1.190
 3973SOL      O16335   4.517   4.249   0.540
 3973SOL     H116336   4.563   4.250   0.624
 3973SOL     H216337   4.441   4.305   0.555
 3973SOL    EPW16338   4.514   4.255   0.551
 3974SOL      O16339   3.977   4.188   0.398
 3974SOL     H116340   4.037   4.257   0.426
 3974SOL     H216341   3.965   4.133   0.476
 3974SOL    EPW16342   3.982   4.189   0.410
 3975SOL      O16343   4.375   4.007   0.545
 3975SOL     H116344   4.428   4.086   0.549
 3975SOL     H216345   4.322   4.019   0.466
 3975SOL    EPW16346   4.375   4.017   0.537
 3976SOL      O16347   4.482   4.923   0.731
 3976SOL     H116348   4.564   4.910   0.778
 3976SOL     H216349   4.486   4.861   0.658
 3976SOL    EPW16350   4.491   4.915   0.728
 3977SOL      O16351   4.336   4.443   0.613
 3977SOL     H116352   4.293   4.427   0.697
 3977SOL     H216353   4.416   4.491   0.636
 3977SOL    EPW16354   4.340   4.446   0.624
 3978SOL      O16355   3.857   5.506   0.887
 3978SOL     H116356   3.951   5.513   0.866
 3978SOL     H216357   3.836   5.415   0.867
 3978SOL    EPW16358   3.865   5.497   0.883
 3979SOL      O16359   4.017   5.068   0.858
 3979SOL     H116360   4.016   5.037   0.948
 3979SOL     H216361   4.109   5.089   0.841
 3979SOL    EPW16362   4.027   5.067   0.866
 3980SOL      O16363   4.668   4.609   0.686
 3980SOL     H116364   4.610   4.570   0.750
 3980SOL     H216365   4.742   4.549   0.679
 3980SOL    EPW16366   4.670   4.599   0.692
 3981SOL      O16367   4.091   5.218   1.529
 3981SOL     H116368   4.009   5.227   1.480
 3981SOL     H216369   4.115   5.126   1.520
 3981SOL    EPW16370   4.085   5.209   1.523
 3982SOL      O16371   4.628   5.024   0.447
 3982SOL     H116372   4.644   5.090   0.514
 3982SOL     H216373   4.567   4.962   0.489
 3982SOL    EPW16374   4.623   5.024   0.459
 3983SOL      O16375   5.512   3.999   0.846
 3983SOL     H116376   5.461   3.964   0.919
 3983SOL     H216377   5.512   3.929   0.780
 3983SOL    EPW16378   5.507   3.988   0.847
 3984SOL      O16379   4.209   4.047   0.331
 3984SOL     H116380   4.175   3.971   0.283
 3984SOL     H216381   4.133   4.102   0.347
 3984SOL    EPW16382   4.197   4.045   0.327
 3985SOL      O16383   5.334   4.888   0.567
 3985SOL     H116384   5.242   4.898   0.591
 3985SOL     H216385   5.335   4.899   0.471
 3985SOL    EPW16386   5.325   4.890   0.559
 3986SOL      O16387   5.237   4.435   1.506
 3986SOL     H116388   5.236   4.421   1.601
 3986SOL     H216389   5.147   4.421   1.479
 3986SOL    EPW16390   5.228   4.432   1.514
 3987SOL      O16391   3.923   5.340   1.191
 3987SOL     H116392   3.888   5.295   1.268
 3987SOL     H216393   3.869   5.419   1.182
 3987SOL    EPW16394   3.913   5.343   1.198
 3988SOL      O16395   4.836   4.782   1.573
 3988SOL     H116396   4.821   4.813   1.484
 3988SOL     H216397   4.889   4.851   1.614
 3988SOL    EPW16398   4.840   4.793   1.568
 3989SOL      O16399   4.635   4.270   1.750
 3989SOL     H116400   4.725   4.283   1.718
 3989SOL     H216401   4.614   4.180   1.726
 3989SOL    EPW16402   4.643   4.262   1.744
 3990SOL      O16403   5.220   4.756   0.890
 3990SOL     H116404   5.205   4.688   0.824
 3990SOL     H216405   5.245   4.707   0.969
 3990SOL    EPW16406   5.221   4.744   0.891
 3991SOL      O16407   4.521   4.015   1.664
 3991SOL     H116408   4.509   3.939   1.607
 3991SOL     H216409   4.503   3.982   1.752
 3991SOL    EPW16410   4.518   4.003   1.667
 3992SOL      O16411   4.177   5.506   0.545
 3992SOL     H116412   4.196   5.598   0.559
 3992SOL     H216413   4.110   5.506   0.476
 3992SOL    EPW16414   4.172   5.515   0.539
 3993SOL      O16415   5.544   3.781   0.687
 3993SOL     H116416   5.597   3.742   0.757
 3993SOL     H216417   5.475   3.716   0.671
 3993SOL    EPW16418   5.542   3.770   0.693
 3994SOL      O16419   4.657   3.728   1.048
 3994SOL     H116420   4.601   3.802   1.022
 3994SOL     H216421   4.746   3.760   1.036
 3994SOL    EPW16422   4.660   3.739   1.044
 3995SOL      O16423   5.382   5.335   0.230
 3995SOL     H116424   5.396   5.429   0.219
 3995SOL     H216425   5.401   5.318   0.323
 3995SOL    EPW16426   5.386   5.343   0.239
 3996SOL      O16427   5.276   4.299   0.454
 3996SOL     H116428   5.323   4.305   0.537
 3996SOL     H216429   5.208   4.367   0.460
 3996SOL    EPW16430   5.274   4.307   0.464
 3997SOL      O16431   4.676   4.566   1.615
 3997SOL     H116432   4.588   4.601   1.633
 3997SOL     H216433   4.732   4.644   1.611
 3997SOL    EPW16434   4.672   4.578   1.616
 3998SOL      O16435   4.682   3.795   1.316
 3998SOL     H116436   4.662   3.779   1.223
 3998SOL     H216437   4.675   3.890   1.325
 3998SOL    EPW16438   4.679   3.804   1.307
 3999SOL      O16439   4.789   4.152   1.145
 3999SOL     H116440   4.878   4.167   1.176
 3999SOL     H216441   4.752   4.240   1.133
 3999SOL    EPW16442   4.794   4.163   1.147
 4000SOL      O16443   5.409   4.255   1.366
 4000SOL     H116444   5.348   4.181   1.364
 4000SOL     H216445   5.361   4.323   1.413
 4000SOL    EPW16446   5.397   4.254   1.371
 4001SOL      O16447   5.483   5.421   1.325
 4001SOL     H116448   5.421   5.388   1.390
 4001SOL     H216449   5.508   5.507   1.358
 4001SOL    EPW16450   5.479   5.427   1.335
 4002SOL      O16451   4.834   4.010   1.545
 4002SOL     H116452   4.756   4.031   1.493
 4002SOL     H216453   4.809   3.935   1.598
 4002SOL    EPW16454   4.823   4.004   1.545
 4003SOL      O16455   5.209   4.903   1.597
 4003SOL     H116456   5.270   4.912   1.670
 4003SOL     H216457   5.124   4.923   1.635
 4003SOL    EPW16458   5.207   4.906   1.609
 4004SOL      O16459   5.480   4.290   0.689
 4004SOL     H116460   5.529   4.208   0.697
 4004SOL     H216461   5.397   4.273   0.733
 4004SOL    EPW16462   5.477   4.280   0.695
 4005SOL      O16463   3.911   4.007   0.589
 4005SOL     H116464   3.861   3.946   0.535
 4005SOL     H216465   3.989   3.959   0.614
 4005SOL    EPW16466   3.914   3.996   0.586
 4006SOL      O16467   4.380   5.494   0.354
 4006SOL     H116468   4.318   5.490   0.426
 4006SOL     H216469   4.457   5.447   0.386
 4006SOL    EPW16470   4.382   5.488   0.365
 4007SOL      O16471   5.486   5.005   1.799
 4007SOL     H116472   5.522   4.937   1.857
 4007SOL     H216473   5.408   5.036   1.845
 4007SOL    EPW16474   5.481   5.001   1.810
 4008SOL      O16475   5.586   4.610   1.204
 4008SOL     H116476   5.568   4.643   1.116
 4008SOL     H216477   5.556   4.679   1.262
 4008SOL    EPW16478   5.581   4.621   1.201
 4009SOL      O16479   5.377   5.297   0.917
 4009SOL     H116480   5.337   5.347   0.988
 4009SOL     H216481   5.337   5.210   0.923
 4009SOL    EPW16482   5.369   5.293   0.926
 4010SOL      O16483   3.981   5.433   1.683
 4010SOL     H116484   3.887   5.423   1.666
 4010SOL     H216485   4.022   5.361   1.634
 4010SOL    EPW16486   3.975   5.424   1.676
 4011SOL      O16487   3.959   4.945   1.101
 4011SOL     H116488   3.995   4.857   1.103
 4011SOL     H216489   3.867   4.934   1.077
 4011SOL    EPW16490   3.953   4.935   1.099
 4012SOL      O16491   3.806   4.620   0.501
 4012SOL     H116492   3.871   4.633   0.570
 4012SOL     H216493   3.797   4.525   0.496
 4012SOL    EPW16494   3.812   4.611   0.508
 4013SOL      O16495   4.069   4.311   1.842
 4013SOL     H116496   4.029   4.392   1.875
 4013SOL     H216497   4.163   4.326   1.851
 4013SOL    EPW16498   4.075   4.321   1.847
 4014SOL      O16499   4.478   3.801   1.497
 4014SOL     H116500   4.440   3.715   1.515
 4014SOL     H216501   4.557   3.782   1.446
 4014SOL    EPW16502   4.482   3.790   1.494
 4015SOL      O16503   4.544   5.526   0.912
 4015SOL     H116504   4.584   5.588   0.972
 4015SOL     H216505   4.530   5.576   0.832
 4015SOL    EPW16506   4.547   5.538   0.910
 4016SOL      O16507   5.090   3.895   1.808
 4016SOL     H116508   5.161   3.844   1.848
 4016SOL     H216509   5.065   3.959   1.875
 4016SOL    EPW16510   5.095   3.896   1.819
 4017SOL      O16511   3.846   5.142   0.528
 4017SOL     H116512   3.850   5.202   0.603
 4017SOL     H216513   3.856   5.055   0.566
 4017SOL    EPW16514   3.847   5.139   0.540
 4018SOL      O16515   4.684   5.213   0.637
 4018SOL     H116516   4.757   5.167   0.678
 4018SOL     H216517   4.621   5.227   0.707
 4018SOL    EPW16518   4.685   5.210   0.649
 4019SOL      O16519   5.592   4.387   0.924
 4019SOL     H116520   5.685   4.398   0.906
 4019SOL     H216521   5.555   4.357   0.840
 4019SOL    EPW16522   5.598   4.385   0.913
 4020SOL      O16523   5.416   4.663   1.838
 4020SOL     H116524   5.440   4.571   1.849
 4020SOL     H216525   5.321   4.665   1.850
 4020SOL    EPW16526   5.408   4.653   1.841
 4021SOL      O16527   4.638   4.062   1.357
 4021SOL     H116528   4.566   4.121   1.381
 4021SOL     H216529   4.684   4.108   1.286
 4021SOL    EPW16530   4.635   4.073   1.352
 4022SOL      O16531   5.005   4.494   0.912
 4022SOL     H116532   4.969   4.579   0.938
 4022SOL     H216533   4.952   4.468   0.837
 4022SOL    EPW16534   4.996   4.501   0.907
 4023SOL      O16535   5.232   4.277   0.789
 4023SOL     H116536   5.171   4.207   0.764
 4023SOL     H216537   5.215   4.290   0.882
 4023SOL    EPW16538   5.224   4.271   0.796
 4024SOL      O16539   4.085   3.928   1.579
 4024SOL     H116540   4.036   4.003   1.614
 4024SOL     H216541   4.127   3.963   1.500
 4024SOL    EPW16542   4.084   3.940   1.574
 4025SOL      O16543   4.857   4.411   0.694
 4025SOL     H116544   4.789   4.361   0.739
 4025SOL     H216545   4.874   4.360   0.614
 4025SOL    EPW16546   4.852   4.400   0.690
 4026SOL      O16547   4.516   4.754   0.514
 4026SOL     H116548   4.537   4.735   0.422
 4026SOL     H216549   4.577   4.700   0.564
 4026SOL    EPW16550   4.525   4.746   0.510
 4027SOL      O16551   5.070   5.335   1.276
 4027SOL     H116552   4.977   5.352   1.291
 4027SOL     H216553   5.085   5.248   1.311
 4027SOL    EPW16554   5.062   5.328   1.281
 4028SOL      O16555   5.120   5.537   0.729
 4028SOL     H116556   5.083   5.572   0.648
 4028SOL     H216557   5.204   5.500   0.703
 4028SOL    EPW16558   5.125   5.537   0.718
 4029SOL      O16559   5.086   4.049   0.700
 4029SOL     H116560   5.113   4.001   0.778
 4029SOL     H216561   4.991   4.037   0.697
 4029SOL    EPW16562   5.079   4.043   0.708
 4030SOL      O16563   3.878   4.917   0.680
 4030SOL     H116564   3.928   4.964   0.747
 4030SOL     H216565   3.924   4.833   0.671
 4030SOL    EPW16566   3.888   4.913   0.687
 4031SOL      O16567   4.177   3.784   1.849
 4031SOL     H116568   4.119   3.742   1.785
 4031SOL     H216569   4.223   3.851   1.799
 4031SOL    EPW16570   4.176   3.786   1.836
 4032SOL      O16571   4.155   5.309   1.034
 4032SOL     H116572   4.222   5.335   1.097
 4032SOL     H216573   4.075   5.302   1.086
 4032SOL    EPW16574   4.154   5.311   1.047
 4033SOL      O16575   5.500   4.799   1.373
 4033SOL     H116576   5.407   4.811   1.356
 4033SOL     H216577   5.503   4.764   1.462
 4033SOL    EPW16578   5.490   4.797   1.381
 4034SOL      O16579   4.589   5.364   1.142
 4034SOL     H116580   4.593   5.412   1.060
 4034SOL     H216581   4.499   5.376   1.172
 4034SOL    EPW16582   4.580   5.370   1.137
 4035SOL      O16583   5.219   4.057   1.359
 4035SOL     H116584   5.179   4.060   1.446
 4035SOL     H216585   5.198   3.969   1.326
 4035SOL    EPW16586   5.212   4.048   1.365
 4036SOL      O16587   5.561   3.933   1.249
 4036SOL     H116588   5.577   4.022   1.219
 4036SOL     H216589   5.629   3.881   1.206
 4036SOL    EPW16590   5.570   3.937   1.241
 4037SOL      O16591   4.492   3.770   0.647
 4037SOL     H116592   4.448   3.850   0.618
 4037SOL     H216593   4.578   3.774   0.605
 4037SOL    EPW16594   4.497   3.779   0.640
 4038SOL      O16595   4.262   5.028   0.464
 4038SOL     H116596   4.261   5.075   0.547
 4038SOL     H216597   4.177   5.049   0.424
 4038SOL    EPW16598   4.253   5.035   0.468
 4039SOL      O16599   4.809   5.431   1.302
 4039SOL     H116600   4.739   5.398   1.246
 4039SOL     H216601   4.775   5.515   1.335
 4039SOL    EPW16602   4.798   5.437   1.300
 4040SOL      O16603   4.981   5.367   0.911
 4040SOL     H116604   5.026   5.410   0.838
 4040SOL     H216605   4.955   5.438   0.969
 4040SOL    EPW16606   4.983   5.379   0.909
 4041SOL      O16607   5.280   5.441   1.139
 4041SOL     H116608   5.353   5.422   1.197
 4041SOL     H216609   5.206   5.394   1.177
 4041SOL    EPW16610   5.280   5.434   1.149
 4042SOL      O16611   4.393   4.384   1.677
 4042SOL     H116612   4.478   4.353   1.707
 4042SOL     H216613   4.364   4.445   1.745
 4042SOL    EPW16614   4.399   4.388   1.688
 4043SOL      O16615   5.227   4.692   1.417
 4043SOL     H116616   5.214   4.756   1.486
 4043SOL     H216617   5.231   4.607   1.462
 4043SOL    EPW16618   5.226   4.690   1.429
 4044SOL      O16619   4.856   3.782   1.713
 4044SOL     H116620   4.875   3.696   1.677
 4044SOL     H216621   4.941   3.814   1.745
 4044SOL    EPW16622   4.867   3.776   1.713
 4045SOL      O16623   5.247   5.052   0.961
 4045SOL     H116624   5.252   4.972   0.910
 4045SOL     H216625   5.153   5.069   0.970
 4045SOL    EPW16626   5.238   5.046   0.957
 4046SOL      O16627   4.150   3.891   0.652
 4046SOL     H116628   4.230   3.935   0.626
 4046SOL     H216629   4.150   3.896   0.748
 4046SOL    EPW16630   4.158   3.896   0.659
 4047SOL      O16631   4.410   4.187   1.480
 4047SOL     H116632   4.399   4.269   1.528
 4047SOL     H216633   4.440   4.124   1.546
 4047SOL    EPW16634   4.412   4.189   1.492
 4048SOL      O16635   4.018   4.680   0.661
 4048SOL     H116636   4.100   4.702   0.617
 4048SOL     H216637   4.043   4.663   0.751
 4048SOL    EPW16638   4.029   4.680   0.666
 4049SOL      O16639   5.144   4.062   0.424
 4049SOL     H116640   5.119   4.043   0.514
 4049SOL     H216641   5.197   4.141   0.430
 4049SOL    EPW16642   5.147   4.068   0.434
 4050SOL      O16643   4.819   3.993   0.680
 4050SOL     H116644   4.803   4.071   0.627
 4050SOL     H216645   4.771   4.009   0.761
 4050SOL    EPW16646   4.812   4.003   0.683
 4051SOL      O16647   1.816   2.140   4.155
 4051SOL     H116648   1.842   2.222   4.115
 4051SOL     H216649   4.733   5.102   0.090
 4051SOL    EPW16650   4.755   5.089   0.005
 4052SOL      O16651   5.560   4.709   1.616
 4052SOL     H116652   5.501   4.708   1.691
 4052SOL     H216653   5.607   4.625   1.622
 4052SOL    EPW16654   5.559   4.700   1.625
 4053SOL      O16655   3.832   5.257   0.781
 4053SOL     H116656   3.893   5.195   0.821
 4053SOL     H216657   3.746   5.234   0.818
 4053SOL    EPW16658   3.829   5.248   0.789
 4054SOL      O16659   3.768   4.361   0.439
 4054SOL     H116660   3.699   4.318   0.489
 4054SOL     H216661   3.835   4.294   0.428
 4054SOL    EPW16662   3.768   4.349   0.443
 4055SOL      O16663   5.360   5.579   1.817
 4055SOL     H116664   5.344   5.484   1.816
 4055SOL     H216665   5.386   5.598   1.907
 4055SOL    EPW16666   5.361   5.571   1.826
 4056SOL      O16667   4.882   5.047   0.737
 4056SOL     H116668   4.826   4.972   0.758
 4056SOL     H216669   4.921   5.071   0.821
 4056SOL    EPW16670   4.880   5.041   0.749
 4057SOL      O16671   4.197   4.055   1.361
 4057SOL     H116672   4.268   4.111   1.392
 4057SOL     H216673   4.172   4.093   1.276
 4057SOL    EPW16674   4.201   4.065   1.355
 4058SOL      O16675   4.968   4.297   1.690
 4058SOL     H116676   5.004   4.211   1.666
 4058SOL     H216677   4.953   4.341   1.607
 4058SOL    EPW16678   4.970   4.292   1.679
 4059SOL      O16679   5.089   4.067   1.596
 4059SOL     H116680   4.999   4.046   1.568
 4059SOL     H216681   5.103   4.012   1.673
 4059SOL    EPW16682   5.081   4.059   1.601
 4060SOL      O16683   4.337   5.344   1.483
 4060SOL     H116684   4.248   5.309   1.496
 4060SOL     H216685   4.393   5.267   1.487
 4060SOL    EPW16686   4.333   5.332   1.485
 4061SOL      O16687   5.579   4.213   1.158
 4061SOL     H116688   5.518   4.229   1.230
 4061SOL     H216689   5.545   4.265   1.085
 4061SOL    EPW16690   5.569   4.220   1.158
 4062SOL      O16691   5.550   4.892   1.085
 4062SOL     H116692   5.527   4.830   1.016
 4062SOL     H216693   5.469   4.906   1.133
 4062SOL    EPW16694   5.539   4.887   1.082
 4063SOL      O16695   4.952   4.760   0.964
 4063SOL     H116696   4.961   4.773   1.058
 4063SOL     H216697   5.041   4.775   0.930
 4063SOL    EPW16698   4.963   4.763   0.970
 4064SOL      O16699   5.039   4.221   1.237
 4064SOL     H116700   5.090   4.266   1.170
 4064SOL     H216701   5.100   4.160   1.277
 4064SOL    EPW16702   5.051   4.219   1.234
 4065SOL      O16703   5.498   4.397   1.807
 4065SOL     H116704   5.527   4.344   1.882
 4065SOL     H216705   5.405   4.373   1.797
 4065SOL    EPW16706   5.491   4.388   1.814
 4066SOL      O16707   5.145   4.654   1.866
 4066SOL     H116708   5.070   4.694   1.824
 4066SOL     H216709   5.139   4.681   1.958
 4066SOL    EPW16710   5.137   4.661   1.871
 4067SOL      O16711   5.093   4.504   0.454
 4067SOL     H116712   5.149   4.562   0.403
 4067SOL     H216713   5.110   4.528   0.545
 4067SOL    EPW16714   5.100   4.513   0.458
 4068SOL      O16715   4.445   3.914   1.006
 4068SOL     H116716   4.418   3.904   1.097
 4068SOL     H216717   4.363   3.915   0.957
 4068SOL    EPW16718   4.433   3.913   1.011
 4069SOL      O16719   4.332   5.419   1.219
 4069SOL     H116720   4.323   5.514   1.225
 4069SOL     H216721   4.328   5.388   1.309
 4069SOL    EPW16722   4.331   5.426   1.229
 4070SOL      O16723   5.214   5.103   1.399
 4070SOL     H116724   5.202   5.043   1.472
 4070SOL     H216725   5.237   5.047   1.325
 4070SOL    EPW16726   5.216   5.091   1.399
 4071SOL      O16727   5.316   5.331   1.515
 4071SOL     H116728   5.325   5.310   1.608
 4071SOL     H216729   5.271   5.255   1.478
 4071SOL    EPW16730   5.312   5.320   1.521
 4072SOL      O16731   4.943   3.771   1.070
 4072SOL     H116732   5.000   3.828   1.017
 4072SOL     H216733   4.976   3.781   1.159
 4072SOL    EPW16734   4.953   3.778   1.074
 4073SOL      O16735   3.997   4.600   0.313
 4073SOL     H116736   4.015   4.684   0.269
 4073SOL     H216737   3.929   4.622   0.378
 4073SOL    EPW16738   3.992   4.612   0.316
 4074SOL      O16739   4.120   5.486   0.831
 4074SOL     H116740   4.143   5.412   0.888
 4074SOL     H216741   4.148   5.458   0.743
 4074SOL    EPW16742   4.125   5.475   0.827
 4075SOL      O16743   3.830   5.241   1.437
 4075SOL     H116744   3.813   5.154   1.473
 4075SOL     H216745   3.769   5.298   1.483
 4075SOL    EPW16746   3.822   5.238   1.446
 4076SOL      O16747   4.678   4.043   0.920
 4076SOL     H116748   4.592   4.014   0.950
 4076SOL     H216749   4.721   4.076   1.000
 4076SOL    EPW16750   4.674   4.043   0.932
 4077SOL      O16751   5.156   3.797   1.293
 4077SOL     H116752   5.200   3.732   1.237
 4077SOL     H216753   5.186   3.777   1.381
 4077SOL    EPW16754   5.163   3.788   1.296
 4078SOL      O16755   5.363   5.312   1.785
 4078SOL     H116756   5.302   5.250   1.825
 4078SOL     H216757   5.443   5.304   1.837
 4078SOL    EPW16758   5.365   5.305   1.795
 4079SOL      O16759   4.496   5.266   0.835
 4079SOL     H116760   4.511   5.221   0.918
 4079SOL     H216761   4.506   5.359   0.856
 4079SOL    EPW16762   4.499   5.271   0.846
 4080SOL      O16763   4.806   4.203   0.500
 4080SOL     H116764   4.843   4.190   0.413
 4080SOL     H216765   4.713   4.220   0.484
 4080SOL    EPW16766   4.800   4.203   0.489
 4081SOL      O16767   3.771   3.838   0.400
 4081SOL     H116768   3.843   3.776   0.390
 4081SOL     H216769   3.718   3.802   0.471
 4081SOL    EPW16770   3.773   3.828   0.406
 4082SOL      O16771   5.443   5.246   0.498
 4082SOL     H116772   5.392   5.170   0.525
 4082SOL     H216773   5.530   5.230   0.534
 4082SOL    EPW16774   5.447   5.236   0.505
 4083SOL      O16775   5.067   4.940   0.566
 4083SOL     H116776   5.005   4.976   0.629
 4083SOL     H216777   5.014   4.925   0.487
 4083SOL    EPW16778   5.055   4.943   0.564
 4084SOL      O16779   4.736   3.782   0.519
 4084SOL     H116780   4.770   3.850   0.578
 4084SOL     H216781   4.739   3.822   0.432
 4084SOL    EPW16782   4.740   3.794   0.516
 4085SOL      O16783   5.533   4.655   0.936
 4085SOL     H116784   5.499   4.675   0.849
 4085SOL     H216785   5.546   4.560   0.936
 4085SOL    EPW16786   5.531   4.647   0.927
 4086SOL      O16787   5.467   4.675   0.672
 4086SOL     H116788   5.555   4.686   0.637
 4086SOL     H216789   5.417   4.747   0.635
 4086SOL    EPW16790   5.471   4.684   0.664
 4087SOL      O16791   4.151   4.397   0.414
 4087SOL     H116792   4.107   4.478   0.386
 4087SOL     H216793   4.215   4.426   0.479
 4087SOL    EPW16794   4.153   4.409   0.418
 4088SOL      O16795   4.975   4.403   1.432
 4088SOL     H116796   4.986   4.338   1.363
 4088SOL     H216797   4.896   4.452   1.406
 4088SOL    EPW16798   4.968   4.401   1.422
 4089SOL      O16799   5.446   5.582   0.102
 4089SOL     H116800   5.525   5.568   0.049
 4089SOL     H216801   5.442   5.677   0.113
 4089SOL    EPW16802   5.454   5.591   0.097
 4090SOL      O16803   4.681   4.392   1.120
 4090SOL     H116804   4.587   4.383   1.106
 4090SOL     H216805   4.689   4.445   1.200
 4090SOL    EPW16806   4.672   4.397   1.127
 4091SOL      O16807   5.287   5.601   1.551
 4091SOL     H116808   5.274   5.508   1.535
 4091SOL     H216809   5.309   5.607   1.644
 4091SOL    EPW16810   5.288   5.592   1.559
 4092SOL      O16811   4.354   3.852   1.259
 4092SOL     H116812   4.281   3.911   1.277
 4092SOL     H216813   4.400   3.845   1.342
 4092SOL    EPW16814   4.351   3.857   1.269
 4093SOL      O16815   5.141   3.893   0.916
 4093SOL     H116816   5.223   3.889   0.967
 4093SOL     H216817   5.147   3.818   0.857
 4093SOL    EPW16818   5.151   3.885   0.915
 4094SOL      O16819   5.220   4.548   0.696
 4094SOL     H116820   5.314   4.567   0.690
 4094SOL     H216821   5.215   4.465   0.743
 4094SOL    EPW16822   5.229   4.542   0.700
 4095SOL      O16823   4.742   4.529   1.352
 4095SOL     H116824   4.748   4.620   1.322
 4095SOL     H216825   4.707   4.536   1.441
 4095SOL    EPW16826   4.739   4.540   1.359
 4096SOL      O16827   4.282   5.109   0.734
 4096SOL     H116828   4.344   5.037   0.737
 4096SOL     H216829   4.333   5.185   0.764
 4096SOL    EPW16830   4.294   5.110   0.738
 4097SOL      O16831   4.640   4.273   0.779
 4097SOL     H116832   4.591   4.343   0.822
 4097SOL     H216833   4.645   4.203   0.843
 4097SOL    EPW16834   4.635   4.273   0.790
 4098SOL      O16835   5.559   3.780   1.482
 4098SOL     H116836   5.469   3.779   1.514
 4098SOL     H216837   5.558   3.843   1.410
 4098SOL    EPW16838   5.549   3.786   1.478
 4099SOL      O16839   4.731   4.839   0.819
 4099SOL     H116840   4.795   4.819   0.888
 4099SOL     H216841   4.717   4.755   0.775
 4099SOL    EPW16842   4.736   4.828   0.822
 4100SOL      O16843   4.983   5.099   0.986
 4100SOL     H116844   4.969   5.193   0.983
 4100SOL     H216845   4.925   5.068   1.056
 4100SOL    EPW16846   4.975   5.106   0.993
 4101SOL      O16847   4.585   4.431   0.338
 4101SOL     H116848   4.613   4.380   0.262
 4101SOL     H216849   4.560   4.365   0.403
 4101SOL    EPW16850   4.585   4.418   0.337
 4102SOL      O16851   3.935   4.142   1.671
 4102SOL     H116852   3.880   4.206   1.625
 4102SOL     H216853   3.982   4.195   1.737
 4102SOL    EPW16854   3.934   4.155   1.673
 4103SOL      O16855   5.036   4.777   1.231
 4103SOL     H116856   5.075   4.731   1.306
 4103SOL     H216857   4.943   4.782   1.253
 4103SOL    EPW16858   5.031   4.772   1.242
 4104SOL      O16859   4.626   5.385   0.428
 4104SOL     H116860   4.661   5.469   0.457
 4104SOL     H216861   4.643   5.325   0.501
 4104SOL    EPW16862   4.631   5.387   0.439
 4105SOL      O16863   5.382   3.857   1.049
 4105SOL     H116864   5.357   3.767   1.071
 4105SOL     H216865   5.427   3.889   1.128
 4105SOL    EPW16866   5.384   3.851   1.060
 4106SOL      O16867   5.491   5.035   0.735
 4106SOL     H116868   5.433   4.979   0.683
 4106SOL     H216869   5.576   4.991   0.732
 4106SOL    EPW16870   5.494   5.024   0.729
 4107SOL      O16871   4.105   3.836   0.191
 4107SOL     H116872   4.071   3.861   0.106
 4107SOL     H216873   4.186   3.791   0.173
 4107SOL    EPW16874   4.110   3.834   0.180
 4108SOL      O16875   5.187   4.354   1.049
 4108SOL     H116876   5.114   4.403   1.008
 4108SOL     H216877   5.235   4.421   1.099
 4108SOL    EPW16878   5.184   4.367   1.050
 4109SOL      O16879   5.487   4.594   2.143
 4109SOL     H116880   5.537   4.521   2.179
 4109SOL     H216881   5.442   4.632   2.219
 4109SOL    EPW16882   5.487   4.590   2.155
 4110SOL      O16883   5.386   4.480   3.232
 4110SOL     H116884   5.336   4.561   3.239
 4110SOL     H216885   5.455   4.500   3.168
 4110SOL    EPW16886   5.388   4.491   3.226
 4111SOL      O16887   5.394   5.467   2.575
 4111SOL     H116888   5.394   5.415   2.656
 4111SOL     H216889   5.423   5.406   2.507
 4111SOL    EPW16890   5.397   5.455   2.576
 4112SOL      O16891   4.802   5.324   3.482
 4112SOL     H116892   4.804   5.378   3.404
 4112SOL     H216893   4.826   5.236   3.452
 4112SOL    EPW16894   4.805   5.320   3.471
 4113SOL      O16895   5.363   4.955   3.115
 4113SOL     H116896   5.285   4.906   3.091
 4113SOL     H216897   5.406   4.975   3.032
 4113SOL    EPW16898   5.359   4.952   3.104
 4114SOL      O16899   3.955   4.592   3.123
 4114SOL     H116900   4.034   4.554   3.083
 4114SOL     H216901   3.968   4.687   3.116
 4114SOL    EPW16902   3.965   4.598   3.118
 4115SOL      O16903   4.546   5.012   2.509
 4115SOL     H116904   4.637   5.034   2.493
 4115SOL     H216905   4.535   4.926   2.469
 4115SOL    EPW16906   4.554   5.005   2.503
 4116SOL      O16907   4.524   5.307   3.494
 4116SOL     H116908   4.618   5.326   3.494
 4116SOL     H216909   4.514   5.235   3.432
 4116SOL    EPW16910   4.533   5.301   3.488
 4117SOL      O16911   4.564   5.108   3.302
 4117SOL     H116912   4.562   5.170   3.229
 4117SOL     H216913   4.539   5.024   3.262
 4117SOL    EPW16914   4.561   5.105   3.290
 4118SOL      O16915   3.868   5.488   2.747
 4118SOL     H116916   3.963   5.481   2.753
 4118SOL     H216917   3.836   5.401   2.771
 4118SOL    EPW16918   3.875   5.478   2.750
 4119SOL      O16919   4.186   5.073   2.694
 4119SOL     H116920   4.140   5.120   2.763
 4119SOL     H216921   4.270   5.118   2.685
 4119SOL    EPW16922   4.190   5.083   2.700
 4120SOL      O16923   4.101   5.345   3.370
 4120SOL     H116924   4.013   5.330   3.335
 4120SOL     H216925   4.141   5.258   3.374
 4120SOL    EPW16926   4.096   5.335   3.367
 4121SOL      O16927   3.931   4.139   2.153
 4121SOL     H116928   3.973   4.060   2.119
 4121SOL     H216929   3.915   4.119   2.245
 4121SOL    EPW16930   3.934   4.128   2.159
 4122SOL      O16931   4.601   5.484   2.058
 4122SOL     H116932   4.600   5.452   2.148
 4122SOL     H216933   4.532   5.435   2.014
 4122SOL    EPW16934   4.594   5.475   2.063
 4123SOL      O16935   5.594   4.238   2.011
 4123SOL     H116936   5.504   4.203   2.016
 4123SOL     H216937   5.605   4.287   2.093
 4123SOL    EPW16938   5.585   4.239   2.021
 4124SOL      O16939   5.352   4.710   2.349
 4124SOL     H116940   5.381   4.701   2.440
 4124SOL     H216941   5.350   4.804   2.334
 4124SOL    EPW16942   5.355   4.719   2.357
 4125SOL      O16943   5.147   4.519   3.487
 4125SOL     H116944   5.217   4.455   3.484
 4125SOL     H216945   5.075   4.479   3.438
 4125SOL    EPW16946   5.147   4.508   3.481
 4126SOL      O16947   3.922   5.377   3.049
 4126SOL     H116948   3.893   5.342   3.134
 4126SOL     H216949   3.869   5.329   2.985
 4126SOL    EPW16950   3.913   5.368   3.052
 4127SOL      O16951   4.858   4.835   3.454
 4127SOL     H116952   4.870   4.928   3.432
 4127SOL     H216953   4.931   4.815   3.512
 4127SOL    EPW16954   4.867   4.843   3.458
 4128SOL      O16955   4.659   4.265   3.675
 4128SOL     H116956   4.748   4.285   3.645
 4128SOL     H216957   4.636   4.183   3.632
 4128SOL    EPW16958   4.666   4.259   3.668
 4129SOL      O16959   5.482   4.961   2.183
 4129SOL     H116960   5.389   4.981   2.175
 4129SOL     H216961   5.526   5.044   2.162
 4129SOL    EPW16962   5.477   4.972   2.180
 4130SOL      O16963   4.473   4.044   3.564
 4130SOL     H116964   4.456   3.969   3.506
 4130SOL     H216965   4.464   4.008   3.652
 4130SOL    EPW16966   4.471   4.032   3.567
 4131SOL      O16967   4.243   5.416   2.530
 4131SOL     H116968   4.245   5.510   2.511
 4131SOL     H216969   4.199   5.378   2.454
 4131SOL    EPW16970   4.238   5.422   2.520
 4132SOL      O16971   3.861   5.522   2.106
 4132SOL     H116972   3.922   5.580   2.060
 4132SOL     H216973   3.889   5.433   2.081
 4132SOL    EPW16974   3.871   5.518   2.099
 4133SOL      O16975   4.652   3.727   2.995
 4133SOL     H116976   4.599   3.799   2.962
 4133SOL     H216977   4.743   3.754   2.978
 4133SOL    EPW16978   4.656   3.738   2.989
 4134SOL      O16979   5.438   5.342   2.091
 4134SOL     H116980   5.439   5.437   2.094
 4134SOL     H216981   5.378   5.316   2.161
 4134SOL    EPW16982   5.432   5.349   2.099
 4135SOL      O16983   4.617   4.731   3.532
 4135SOL     H116984   4.637   4.640   3.513
 4135SOL     H216985   4.699   4.778   3.516
 4135SOL    EPW16986   4.628   4.726   3.529
 4136SOL      O16987   4.681   3.815   3.249
 4136SOL     H116988   4.669   3.783   3.160
 4136SOL     H216989   4.692   3.910   3.239
 4136SOL    EPW16990   4.681   3.822   3.239
 4137SOL      O16991   4.734   4.314   3.097
 4137SOL     H116992   4.815   4.364   3.088
 4137SOL     H216993   4.664   4.378   3.081
 4137SOL    EPW16994   4.735   4.326   3.094
 4138SOL      O16995   5.350   4.335   3.458
 4138SOL     H116996   5.317   4.249   3.430
 4138SOL     H216997   5.375   4.379   3.377
 4138SOL    EPW16998   5.349   4.330   3.446
 4139SOL      O16999   5.457   5.431   3.210
 4139SOL     H117000   5.401   5.404   3.283
 4139SOL     H217001   5.496   5.514   3.239
 4139SOL    EPW17002   5.455   5.437   3.221
 4140SOL      O17003   4.797   4.067   3.505
 4140SOL     H117004   4.757   4.071   3.418
 4140SOL     H217005   4.801   3.973   3.524
 4140SOL    EPW17006   4.793   4.057   3.498
 4141SOL      O17007   5.216   4.915   3.460
 4141SOL     H117008   5.296   4.940   3.507
 4141SOL     H217009   5.164   4.867   3.524
 4141SOL    EPW17010   5.219   4.913   3.472
 4142SOL      O17011   3.852   4.085   2.425
 4142SOL     H117012   3.855   3.991   2.411
 4142SOL     H217013   3.825   4.095   2.517
 4142SOL    EPW17014   3.850   4.076   2.434
 4143SOL      O17015   4.319   5.531   2.250
 4143SOL     H117016   4.253   5.462   2.255
 4143SOL     H217017   4.401   5.487   2.273
 4143SOL    EPW17018   4.321   5.519   2.253
 4144SOL      O17019   5.442   4.981   3.596
 4144SOL     H117020   5.468   4.890   3.584
 4144SOL     H217021   5.398   4.984   3.681
 4144SOL    EPW17022   5.440   4.972   3.604
 4145SOL      O17023   5.578   4.572   3.059
 4145SOL     H117024   5.531   4.606   2.983
 4145SOL     H217025   5.585   4.646   3.119
 4145SOL    EPW17026   5.574   4.583   3.057
 4146SOL      O17027   5.396   5.325   2.805
 4146SOL     H117028   5.344   5.367   2.874
 4146SOL     H217029   5.380   5.231   2.817
 4146SOL    EPW17030   5.388   5.319   2.814
 4147SOL      O17031   3.858   4.278   3.149
 4147SOL     H117032   3.856   4.373   3.137
 4147SOL     H217033   3.812   4.243   3.072
 4147SOL    EPW17034   3.853   4.284   3.140
 4148SOL      O17035   5.260   5.090   1.927
 4148SOL     H117036   5.181   5.115   1.879
 4148SOL     H217037   5.227   5.056   2.010
 4148SOL    EPW17038   5.248   5.089   1.931
 4149SOL      O17039   4.487   3.888   1.901
 4149SOL     H117040   4.448   3.809   1.940
 4149SOL     H217041   4.577   3.888   1.933
 4149SOL    EPW17042   4.492   3.879   1.908
 4150SOL      O17043   3.954   5.558   3.488
 4150SOL     H117044   3.885   5.583   3.427
 4150SOL     H217045   3.996   5.483   3.447
 4150SOL    EPW17046   3.952   5.553   3.477
 4151SOL      O17047   3.981   4.857   3.084
 4151SOL     H117048   4.055   4.918   3.085
 4151SOL     H217049   3.915   4.901   3.031
 4151SOL    EPW17050   3.982   4.868   3.078
 4152SOL      O17051   4.539   4.763   2.949
 4152SOL     H117052   4.523   4.670   2.968
 4152SOL     H217053   4.457   4.793   2.909
 4152SOL    EPW17054   4.528   4.756   2.947
 4153SOL      O17055   3.673   4.514   2.259
 4153SOL     H117056   3.757   4.549   2.229
 4153SOL     H217057   3.692   4.423   2.282
 4153SOL    EPW17058   3.684   4.508   2.258
 4154SOL      O17059   4.064   4.321   3.647
 4154SOL     H117060   4.012   4.400   3.664
 4154SOL     H217061   4.133   4.323   3.713
 4154SOL    EPW17062   4.066   4.330   3.656
 4155SOL      O17063   4.436   3.848   3.366
 4155SOL     H117064   4.393   3.762   3.363
 4155SOL     H217065   4.523   3.832   3.329
 4155SOL    EPW17066   4.441   3.837   3.361
 4156SOL      O17067   4.157   4.351   3.388
 4156SOL     H117068   4.246   4.385   3.395
 4156SOL     H217069   4.135   4.323   3.477
 4156SOL    EPW17070   4.164   4.352   3.398
 4157SOL      O17071   4.510   5.551   2.857
 4157SOL     H117072   4.584   5.599   2.894
 4157SOL     H217073   4.501   5.586   2.769
 4157SOL    EPW17074   4.517   5.560   2.852
 4158SOL      O17075   5.092   3.833   3.713
 4158SOL     H117076   5.183   3.804   3.710
 4158SOL     H217077   5.098   3.926   3.738
 4158SOL    EPW17078   5.102   3.840   3.715
 4159SOL      O17079   5.694   4.432   2.762
 4159SOL     H117080   5.617   4.482   2.787
 4159SOL     H217081   5.678   4.345   2.798
 4159SOL    EPW17082   5.684   4.428   2.769
 4160SOL      O17083   5.358   4.608   3.740
 4160SOL     H117084   5.411   4.530   3.728
 4160SOL     H217085   5.410   4.665   3.797
 4160SOL    EPW17086   5.369   4.606   3.745
 4161SOL      O17087   4.395   5.321   1.948
 4161SOL     H117088   4.469   5.293   1.894
 4161SOL     H217089   4.360   5.240   1.985
 4161SOL    EPW17090   4.399   5.310   1.946
 4162SOL      O17091   4.683   4.092   3.256
 4162SOL     H117092   4.595   4.121   3.281
 4162SOL     H217093   4.717   4.163   3.201
 4162SOL    EPW17094   4.677   4.103   3.253
 4163SOL      O17095   4.112   4.000   3.449
 4163SOL     H117096   4.031   4.036   3.485
 4163SOL     H217097   4.116   4.035   3.360
 4163SOL    EPW17098   4.104   4.008   3.443
 4164SOL      O17099   4.136   5.309   2.301
 4164SOL     H117100   4.044   5.299   2.275
 4164SOL     H217101   4.163   5.221   2.328
 4164SOL    EPW17102   4.129   5.298   2.301
 4165SOL      O17103   5.040   5.336   3.132
 4165SOL     H117104   4.956   5.371   3.160
 4165SOL     H217105   5.029   5.241   3.136
 4165SOL    EPW17106   5.030   5.330   3.136
 4166SOL      O17107   5.127   5.491   2.558
 4166SOL     H117108   5.106   5.473   2.466
 4166SOL     H217109   5.222   5.479   2.564
 4166SOL    EPW17110   5.135   5.488   2.549
 4167SOL      O17111   4.388   5.012   3.564
 4167SOL     H117112   4.458   5.012   3.500
 4167SOL     H217113   4.413   4.945   3.628
 4167SOL    EPW17114   4.398   5.005   3.564
 4168SOL      O17115   3.942   5.206   3.717
 4168SOL     H117116   4.021   5.153   3.712
 4168SOL     H217117   3.890   5.179   3.641
 4168SOL    EPW17118   3.945   5.197   3.708
 4169SOL      O17119   5.002   4.118   1.952
 4169SOL     H117120   4.915   4.143   1.921
 4169SOL     H217121   5.038   4.198   1.990
 4169SOL    EPW17122   4.996   4.129   1.953
 4170SOL      O17123   4.752   3.857   1.962
 4170SOL     H117124   4.781   3.839   1.872
 4170SOL     H217125   4.759   3.773   2.006
 4170SOL    EPW17126   4.756   3.846   1.957
 4171SOL      O17127   5.152   4.743   2.124
 4171SOL     H117128   5.171   4.836   2.139
 4171SOL     H217129   5.212   4.697   2.182
 4171SOL    EPW17130   5.160   4.748   2.132
 4172SOL      O17131   4.840   5.088   3.346
 4172SOL     H117132   4.747   5.087   3.324
 4172SOL     H217133   4.885   5.076   3.263
 4172SOL    EPW17134   4.835   5.086   3.335
 4173SOL      O17135   4.154   3.797   3.624
 4173SOL     H117136   4.088   3.739   3.586
 4173SOL     H217137   4.161   3.869   3.562
 4173SOL    EPW17138   4.148   3.798   3.613
 4174SOL      O17139   4.170   5.283   2.982
 4174SOL     H117140   4.234   5.344   3.020
 4174SOL     H217141   4.085   5.316   3.012
 4174SOL    EPW17142   4.168   5.293   2.989
 4175SOL      O17143   5.545   4.784   3.244
 4175SOL     H117144   5.485   4.841   3.197
 4175SOL     H217145   5.499   4.760   3.324
 4175SOL    EPW17146   5.534   4.787   3.247
 4176SOL      O17147   4.574   5.308   3.112
 4176SOL     H117148   4.591   5.287   3.020
 4176SOL     H217149   4.495   5.363   3.110
 4176SOL    EPW17150   4.567   5.312   3.102
 4177SOL      O17151   4.302   4.883   2.878
 4177SOL     H117152   4.267   4.927   2.955
 4177SOL     H217153   4.264   4.930   2.804
 4177SOL    EPW17154   4.294   4.893   2.878
 4178SOL      O17155   5.629   3.970   3.134
 4178SOL     H117156   5.620   4.001   3.044
 4178SOL     H217157   5.674   3.886   3.126
 4178SOL    EPW17158   5.633   3.964   3.124
 4179SOL      O17159   3.797   5.123   3.500
 4179SOL     H117160   3.851   5.052   3.468
 4179SOL     H217161   3.717   5.081   3.533
 4179SOL    EPW17162   3.794   5.111   3.500
 4180SOL      O17163   4.208   5.063   2.410
 4180SOL     H117164   4.192   5.071   2.504
 4180SOL     H217165   4.207   4.968   2.394
 4180SOL    EPW17166   4.206   5.054   2.418
 4181SOL      O17167   4.791   5.435   3.233
 4181SOL     H117168   4.721   5.391   3.185
 4181SOL     H217169   4.764   5.527   3.236
 4181SOL    EPW17170   4.780   5.440   3.229
 4182SOL      O17171   4.993   5.291   2.698
 4182SOL     H117172   5.041   5.359   2.649
 4182SOL     H217173   4.909   5.332   2.720
 4182SOL    EPW17174   4.989   5.303   2.695
 4183SOL      O17175   5.264   5.444   3.017
 4183SOL     H117176   5.333   5.421   3.080
 4183SOL     H217177   5.186   5.397   3.049
 4183SOL    EPW17178   5.263   5.436   3.027
 4184SOL      O17179   4.463   4.456   3.678
 4184SOL     H117180   4.528   4.386   3.679
 4184SOL     H217181   4.393   4.424   3.735
 4184SOL    EPW17182   4.462   4.446   3.684
 4185SOL      O17183   5.220   4.695   3.292
 4185SOL     H117184   5.229   4.777   3.341
 4185SOL     H217185   5.189   4.631   3.355
 4185SOL    EPW17186   5.218   4.697   3.304
 4186SOL      O17187   4.854   3.808   3.582
 4186SOL     H117188   4.864   3.751   3.506
 4186SOL     H217189   4.941   3.809   3.623
 4186SOL    EPW17190   4.865   3.802   3.579
 4187SOL      O17191   5.384   5.058   2.838
 4187SOL     H117192   5.408   5.017   2.755
 4187SOL     H217193   5.288   5.055   2.839
 4187SOL    EPW17194   5.376   5.053   2.829
 4188SOL      O17195   4.746   4.724   3.229
 4188SOL     H117196   4.802   4.762   3.297
 4188SOL     H217197   4.782   4.758   3.147
 4188SOL    EPW17198   4.756   4.732   3.228
 4189SOL      O17199   5.341   4.157   2.015
 4189SOL     H117200   5.266   4.216   2.012
 4189SOL     H217201   5.316   4.089   2.078
 4189SOL    EPW17202   5.330   4.156   2.021
 4190SOL      O17203   3.965   4.931   3.408
 4190SOL     H117204   4.011   4.864   3.457
 4190SOL     H217205   3.902   4.883   3.354
 4190SOL    EPW17206   3.963   4.919   3.407
 4191SOL      O17207   4.450   4.201   3.342
 4191SOL     H117208   4.438   4.292   3.367
 4191SOL     H217209   4.446   4.152   3.424
 4191SOL    EPW17210   4.449   4.205   3.353
 4192SOL      O17211   5.480   4.721   3.520
 4192SOL     H117212   5.421   4.680   3.583
 4192SOL     H217213   5.556   4.662   3.517
 4192SOL    EPW17214   5.482   4.710   3.527
 4193SOL      O17215   3.781   5.248   2.852
 4193SOL     H117216   3.787   5.154   2.868
 4193SOL     H217217   3.688   5.264   2.838
 4193SOL    EPW17218   3.772   5.239   2.852
 4194SOL      O17219   3.664   4.246   2.313
 4194SOL     H117220   3.595   4.260   2.378
 4194SOL     H217221   3.727   4.189   2.356
 4194SOL    EPW17222   3.663   4.242   2.324
 4195SOL      O17223   5.324   5.618   3.697
 4195SOL     H117224   5.347   5.529   3.672
 4195SOL     H217225   5.367   5.632   3.782
 4195SOL    EPW17226   5.331   5.610   3.704
 4196SOL      O17227   4.112   4.143   3.211
 4196SOL     H117228   4.137   4.217   3.265
 4196SOL     H217229   4.026   4.167   3.177
 4196SOL    EPW17230   4.106   4.154   3.213
 4197SOL      O17231   4.924   4.352   3.624
 4197SOL     H117232   4.970   4.270   3.606
 4197SOL     H217233   4.910   4.391   3.538
 4197SOL    EPW17234   4.927   4.347   3.613
 4198SOL      O17235   5.053   4.124   3.539
 4198SOL     H117236   4.961   4.103   3.525
 4198SOL     H217237   5.101   4.065   3.480
 4198SOL    EPW17238   5.049   4.115   3.531
 4199SOL      O17239   4.325   5.496   3.463
 4199SOL     H117240   4.251   5.451   3.422
 4199SOL     H217241   4.392   5.429   3.472
 4199SOL    EPW17242   4.324   5.484   3.460
 4200SOL      O17243   5.590   4.884   2.928
 4200SOL     H117244   5.544   4.806   2.900
 4200SOL     H217245   5.552   4.955   2.876
 4200SOL    EPW17246   5.581   4.884   2.920
 4201SOL      O17247   4.995   4.172   3.210
 4201SOL     H117248   4.961   4.126   3.133
 4201SOL     H217249   5.039   4.104   3.261
 4201SOL    EPW17250   4.996   4.160   3.207
 4202SOL      O17251   5.507   4.391   3.679
 4202SOL     H117252   5.527   4.314   3.731
 4202SOL     H217253   5.460   4.357   3.603
 4202SOL    EPW17254   5.504   4.379   3.677
 4203SOL      O17255   5.066   4.757   3.619
 4203SOL     H117256   5.093   4.669   3.593
 4203SOL     H217257   5.069   4.757   3.714
 4203SOL    EPW17258   5.069   4.747   3.626
 4204SOL      O17259   4.197   5.031   3.090
 4204SOL     H117260   4.206   5.046   3.184
 4204SOL     H217261   4.190   5.119   3.052
 4204SOL    EPW17262   4.197   5.042   3.096
 4205SOL      O17263   4.504   3.950   2.936
 4205SOL     H117264   4.437   3.962   3.004
 4205SOL     H217265   4.454   3.935   2.856
 4205SOL    EPW17266   4.492   3.950   2.935
 4206SOL      O17267   4.353   5.477   3.066
 4206SOL     H117268   4.400   5.503   2.987
 4206SOL     H217269   4.323   5.560   3.105
 4206SOL    EPW17270   4.354   5.489   3.062
 4207SOL      O17271   5.237   5.125   3.292
 4207SOL     H117272   5.217   5.053   3.353
 4207SOL     H217273   5.286   5.083   3.221
 4207SOL    EPW17274   5.240   5.113   3.291
 4208SOL      O17275   4.372   4.737   3.412
 4208SOL     H117276   4.401   4.779   3.331
 4208SOL     H217277   4.449   4.740   3.469
 4208SOL    EPW17278   4.384   4.742   3.410
 4209SOL      O17279   4.511   4.858   3.207
 4209SOL     H117280   4.591   4.810   3.228
 4209SOL     H217281   4.497   4.841   3.114
 4209SOL    EPW17282   4.518   4.851   3.199
 4210SOL      O17283   5.294   5.360   3.413
 4210SOL     H117284   5.340   5.336   3.493
 4210SOL     H217285   5.270   5.276   3.373
 4210SOL    EPW17286   5.296   5.348   3.417
 4211SOL      O17287   4.913   3.805   2.967
 4211SOL     H117288   4.932   3.715   2.938
 4211SOL     H217289   4.930   3.859   2.890
 4211SOL    EPW17290   4.917   3.801   2.956
 4212SOL      O17291   4.135   5.456   2.776
 4212SOL     H117292   4.157   5.387   2.837
 4212SOL     H217293   4.178   5.430   2.694
 4212SOL    EPW17294   4.142   5.446   2.774
 4213SOL      O17295   4.806   4.834   2.982
 4213SOL     H117296   4.716   4.816   2.954
 4213SOL     H217297   4.860   4.782   2.922
 4213SOL    EPW17298   4.802   4.827   2.972
 4214SOL      O17299   3.838   5.306   3.300
 4214SOL     H117300   3.817   5.239   3.366
 4214SOL     H217301   3.752   5.338   3.271
 4214SOL    EPW17302   3.826   5.302   3.304
 4215SOL      O17303   4.704   4.143   2.879
 4215SOL     H117304   4.641   4.073   2.896
 4215SOL     H217305   4.709   4.191   2.961
 4215SOL    EPW17306   4.698   4.140   2.890
 4216SOL      O17307   4.407   4.466   3.416
 4216SOL     H117308   4.386   4.558   3.401
 4216SOL     H217309   4.424   4.461   3.510
 4216SOL    EPW17310   4.407   4.476   3.424
 4217SOL      O17311   4.171   5.055   3.738
 4217SOL     H117312   4.234   5.048   3.666
 4217SOL     H217313   4.152   4.964   3.761
 4217SOL    EPW17314   4.176   5.044   3.733
 4218SOL      O17315   5.429   5.370   3.655
 4218SOL     H117316   5.410   5.334   3.741
 4218SOL     H217317   5.514   5.413   3.665
 4218SOL    EPW17318   5.436   5.371   3.665
 4219SOL      O17319   3.769   5.536   3.684
 4219SOL     H117320   3.836   5.525   3.616
 4219SOL     H217321   3.760   5.631   3.694
 4219SOL    EPW17322   3.775   5.545   3.678
 4220SOL      O17323   4.595   5.293   2.839
 4220SOL     H117324   4.539   5.250   2.775
 4220SOL     H217325   4.570   5.385   2.835
 4220SOL    EPW17326   4.587   5.298   2.832
 4221SOL      O17327   3.870   3.821   2.347
 4221SOL     H117328   3.944   3.773   2.385
 4221SOL     H217329   3.849   3.774   2.267
 4221SOL    EPW17330   3.876   3.811   2.342
 4222SOL      O17331   3.731   4.273   3.403
 4222SOL     H117332   3.778   4.265   3.319
 4222SOL     H217333   3.640   4.288   3.379
 4222SOL    EPW17334   3.727   4.274   3.391
 4223SOL      O17335   5.476   5.280   2.400
 4223SOL     H117336   5.400   5.222   2.394
 4223SOL     H217337   5.550   5.222   2.411
 4223SOL    EPW17338   5.476   5.268   2.400
 4224SOL      O17339   3.985   4.558   3.397
 4224SOL     H117340   3.957   4.579   3.307
 4224SOL     H217341   4.042   4.482   3.387
 4224SOL    EPW17342   3.988   4.552   3.386
 4225SOL      O17343   3.886   4.534   3.649
 4225SOL     H117344   3.815   4.471   3.658
 4225SOL     H217345   3.904   4.538   3.555
 4225SOL    EPW17346   3.880   4.528   3.640
 4226SOL      O17347   4.098   3.766   3.082
 4226SOL     H117348   4.158   3.836   3.107
 4226SOL     H217349   4.153   3.689   3.072
 4226SOL    EPW17350   4.110   3.765   3.084
 4227SOL      O17351   4.939   4.405   3.352
 4227SOL     H117352   4.951   4.323   3.304
 4227SOL     H217353   4.845   4.424   3.345
 4227SOL    EPW17354   4.930   4.398   3.346
 4228SOL      O17355   5.453   5.618   2.071
 4228SOL     H117356   5.546   5.641   2.082
 4228SOL     H217357   5.406   5.681   2.124
 4228SOL    EPW17358   5.458   5.627   2.078
 4229SOL      O17359   4.523   4.491   3.031
 4229SOL     H117360   4.535   4.452   2.945
 4229SOL     H217361   4.443   4.450   3.065
 4229SOL    EPW17362   4.515   4.482   3.026
 4230SOL      O17363   5.284   5.633   3.423
 4230SOL     H117364   5.270   5.538   3.415
 4230SOL     H217365   5.299   5.648   3.516
 4230SOL    EPW17366   5.284   5.624   3.432
 4231SOL      O17367   4.305   3.949   3.137
 4231SOL     H117368   4.253   4.027   3.156
 4231SOL     H217369   4.347   3.927   3.221
 4231SOL    EPW17370   4.304   3.955   3.148
 4232SOL      O17371   4.291   5.576   1.979
 4232SOL     H117372   4.316   5.488   1.951
 4232SOL     H217373   4.299   5.574   2.075
 4232SOL    EPW17374   4.295   5.566   1.987
 4233SOL      O17375   4.684   4.503   3.379
 4233SOL     H117376   4.696   4.573   3.315
 4233SOL     H217377   4.592   4.477   3.369
 4233SOL    EPW17378   4.675   4.507   3.371
 4234SOL      O17379   4.124   4.747   3.535
 4234SOL     H117380   4.078   4.676   3.491
 4234SOL     H217381   4.211   4.748   3.495
 4234SOL    EPW17382   4.129   4.740   3.526
 4235SOL      O17383   5.212   4.397   1.778
 4235SOL     H117384   5.130   4.350   1.763
 4235SOL     H217385   5.186   4.479   1.819
 4235SOL    EPW17386   5.201   4.401   1.780
 4236SOL      O17387   4.413   5.208   2.646
 4236SOL     H117388   4.455   5.142   2.590
 4236SOL     H217389   4.380   5.273   2.584
 4236SOL    EPW17390   4.414   5.208   2.633
 4237SOL      O17391   4.561   4.367   2.801
 4237SOL     H117392   4.517   4.363   2.716
 4237SOL     H217393   4.620   4.292   2.801
 4237SOL    EPW17394   4.562   4.359   2.792
 4238SOL      O17395   5.531   3.843   3.359
 4238SOL     H117396   5.499   3.904   3.425
 4238SOL     H217397   5.552   3.897   3.283
 4238SOL    EPW17398   5.530   3.855   3.358
 4239SOL      O17399   5.114   5.106   2.860
 4239SOL     H117400   5.073   5.172   2.805
 4239SOL     H217401   5.054   5.094   2.934
 4239SOL    EPW17402   5.104   5.111   2.862
 4240SOL      O17403   4.960   5.040   3.094
 4240SOL     H117404   5.032   4.976   3.101
 4240SOL     H217405   4.890   4.993   3.049
 4240SOL    EPW17406   4.961   5.028   3.090
 4241SOL      O17407   5.137   5.206   3.677
 4241SOL     H117408   5.106   5.290   3.710
 4241SOL     H217409   5.125   5.211   3.583
 4241SOL    EPW17410   5.133   5.215   3.671
 4242SOL      O17411   3.895   4.120   3.565
 4242SOL     H117412   3.839   4.164   3.501
 4242SOL     H217413   3.952   4.189   3.598
 4242SOL    EPW17414   3.895   4.132   3.562
 4243SOL      O17415   5.133   4.820   3.061
 4243SOL     H117416   5.152   4.758   3.131
 4243SOL     H217417   5.139   4.768   2.980
 4243SOL    EPW17418   5.136   4.808   3.060
 4244SOL      O17419   4.565   5.402   2.317
 4244SOL     H117420   4.614   5.470   2.364
 4244SOL     H217421   4.597   5.320   2.354
 4244SOL    EPW17422   4.574   5.400   2.326
 4245SOL      O17423   3.823   3.731   2.986
 4245SOL     H117424   3.805   3.727   2.892
 4245SOL     H217425   3.916   3.756   2.991
 4245SOL    EPW17426   3.831   3.733   2.976
 4246SOL      O17427   5.524   4.947   2.630
 4246SOL     H117428   5.493   4.859   2.612
 4246SOL     H217429   5.620   4.940   2.627
 4246SOL    EPW17430   5.531   4.937   2.628
 4247SOL      O17431   4.191   5.083   3.366
 4247SOL     H117432   4.112   5.030   3.377
 4247SOL     H217433   4.254   5.046   3.428
 4247SOL    EPW17434   4.189   5.073   3.373
 4248SOL      O17435   3.996   3.906   2.016
 4248SOL     H117436   3.935   3.930   1.946
 4248SOL     H217437   4.072   3.871   1.970
 4248SOL    EPW17438   3.997   3.905   2.004
 4249SOL      O17439   3.801   3.958   1.831
 4249SOL     H117440   3.760   4.026   1.885
 4249SOL     H217441   3.846   4.007   1.762
 4249SOL    EPW17442   3.801   3.970   1.829
 4250SOL      O17443   5.141   5.393   2.295
 4250SOL     H117444   5.192   5.322   2.333
 4250SOL     H217445   5.066   5.349   2.253
 4250SOL    EPW17446   5.138   5.381   2.295
 4251SOL      O17447   5.067   4.867   3.902
 4251SOL     H117448   4.998   4.932   3.909
 4251SOL     H217449   5.144   4.916   3.873
 4251SOL    EPW17450   5.068   4.879   3.900
 4252SOL      O17451   4.644   5.012   4.113
 4252SOL     H117452   1.737   2.104   0.043
 4252SOL     H217453   4.608   4.925   4.130
 4252SOL    EPW17454   4.644   5.006   4.124
 4253SOL      O17455   4.058   3.971   4.120
 4253SOL     H117456   4.070   3.956   4.026
 4253SOL     H217457   4.080   4.063   4.132
 4253SOL    EPW17458   4.062   3.979   4.111
 4254SOL      O17459   4.622   5.464   3.954
 4254SOL     H117460   4.588   5.434   4.038
 4254SOL     H217461   4.578   5.409   3.889
 4254SOL    EPW17462   4.614   5.455   3.956
 4255SOL      O17463   5.538   4.176   3.846
 4255SOL     H117464   5.444   4.180   3.864
 4255SOL     H217465   5.580   4.208   3.926
 4255SOL    EPW17466   5.532   4.180   3.856
 4256SOL      O17467   5.516   5.058   3.976
 4256SOL     H117468   5.511   5.043   4.071
 4256SOL     H217469   5.589   5.119   3.966
 4256SOL    EPW17470   5.523   5.063   3.985
 4257SOL      O17471   3.835   5.484   3.939
 4257SOL     H117472   3.903   5.551   3.947
 4257SOL     H217473   3.814   5.483   3.846
 4257SOL    EPW17474   3.840   5.491   3.930
 4258SOL      O17475   5.307   5.339   3.917
 4258SOL     H117476   5.353   5.421   3.935
 4258SOL     H217477   5.225   5.367   3.875
 4258SOL    EPW17478   5.303   5.351   3.914
 4259SOL      O17479   4.690   4.366   3.926
 4259SOL     H117480   4.686   4.330   3.838
 4259SOL     H217481   4.784   4.366   3.948
 4259SOL    EPW17482   4.700   4.363   3.919
 4260SOL      O17483   4.858   5.063   3.948
 4260SOL     H117484   4.779   5.036   3.994
 4260SOL     H217485   4.827   5.096   3.864
 4260SOL    EPW17486   4.847   5.063   3.944
 4261SOL      O17487   4.438   4.850   3.788
 4261SOL     H117488   4.352   4.810   3.801
 4261SOL     H217489   4.434   4.930   3.840
 4261SOL    EPW17490   4.428   4.854   3.795
 4262SOL      O17491   5.070   5.440   3.816
 4262SOL     H117492   4.999   5.403   3.868
 4262SOL     H217493   5.096   5.519   3.864
 4262SOL    EPW17494   5.066   5.444   3.827
 4263SOL      O17495   5.283   5.017   3.820
 4263SOL     H117496   5.238   5.091   3.777
 4263SOL     H217497   5.347   5.058   3.877
 4263SOL    EPW17498   5.285   5.029   3.821
 4264SOL      O17499   4.471   3.944   3.822
 4264SOL     H117500   4.417   3.865   3.826
 4264SOL     H217501   4.561   3.911   3.822
 4264SOL    EPW17502   4.475   3.932   3.822
 4265SOL      O17503   4.492   5.302   3.772
 4265SOL     H117504   4.482   5.291   3.678
 4265SOL     H217505   4.456   5.221   3.810
 4265SOL    EPW17506   4.487   5.292   3.766
 4266SOL      O17507   4.884   3.988   3.979
 4266SOL     H117508   4.822   3.939   3.925
 4266SOL     H217509   4.939   4.034   3.915
 4266SOL    EPW17510   4.883   3.988   3.966
 4267SOL      O17511   4.120   5.296   4.065
 4267SOL     H117512   4.163   5.339   3.990
 4267SOL     H217513   4.043   5.254   4.027
 4267SOL    EPW17514   4.116   5.296   4.053
 4268SOL      O17515   1.613   1.817   0.002
 4268SOL     H117516   4.583   4.717   4.076
 4268SOL     H217517   1.542   1.760   0.030
 4268SOL    EPW17518   4.547   4.745   4.152
 4269SOL      O17519   5.074   4.087   3.804
 4269SOL     H117520   5.075   4.110   3.711
 4269SOL     H217521   5.151   4.132   3.839
 4269SOL    EPW17522   5.083   4.094   3.798
 4270SOL      O17523   4.719   3.833   3.821
 4270SOL     H117524   4.761   3.816   3.736
 4270SOL     H217525   4.701   3.745   3.856
 4270SOL    EPW17526   4.722   3.822   3.815
 4271SOL      O17527   5.289   4.694   4.053
 4271SOL     H117528   5.221   4.737   4.002
 4271SOL     H217529   5.253   4.609   4.075
 4271SOL    EPW17530   5.278   4.690   4.050
 4272SOL      O17531   4.163   4.791   3.809
 4272SOL     H117532   4.101   4.754   3.872
 4272SOL     H217533   4.136   4.755   3.724
 4272SOL    EPW17534   4.153   4.783   3.807
 4273SOL      O17535   4.891   4.688   4.029
 4273SOL     H117536   4.807   4.692   3.984
 4273SOL     H217537   4.947   4.748   3.980
 4273SOL    EPW17538   4.888   4.695   4.019
 4274SOL      O17539   4.261   4.352   3.837
 4274SOL     H117540   4.217   4.390   3.913
 4274SOL     H217541   4.321   4.287   3.873
 4274SOL    EPW17542   4.263   4.349   3.849
 4275SOL      O17543   5.276   4.236   3.908
 4275SOL     H117544   5.234   4.313   3.871
 4275SOL     H217545   5.269   4.248   4.003
 4275SOL    EPW17546   5.271   4.245   3.914
 4276SOL      O17547   4.956   4.423   3.999
 4276SOL     H117548   5.008   4.422   3.919
 4276SOL     H217549   4.929   4.515   4.009
 4276SOL    EPW17550   4.959   4.433   3.992
 4277SOL      O17551   4.754   5.207   3.738
 4277SOL     H117552   4.783   5.248   3.657
 4277SOL     H217553   4.663   5.235   3.748
 4277SOL    EPW17554   4.747   5.214   3.731
 4278SOL      O17555   5.091   3.810   3.986
 4278SOL     H117556   5.100   3.817   3.891
 4278SOL     H217557   5.015   3.865   4.006
 4278SOL    EPW17558   5.084   3.817   3.978
 4279SOL      O17559   2.236   1.525   0.006
 4279SOL     H117560   5.107   4.432   4.102
 4279SOL     H217561   2.189   1.579   0.070
 4279SOL    EPW17562   2.224   1.528   0.007
 4280SOL      O17563   4.451   4.189   3.948
 4280SOL     H117564   4.540   4.223   3.943
 4280SOL     H217565   4.457   4.101   3.910
 4280SOL    EPW17566   4.461   4.183   3.944
 4281SOL      O17567   3.990   4.717   4.039
 4281SOL     H117568   3.917   4.756   3.991
 4281SOL     H217569   3.950   4.653   4.098
 4281SOL    EPW17570   3.978   4.714   4.040
 4282SOL      O17571   4.380   5.094   3.906
 4282SOL     H117572   4.364   5.068   3.997
 4282SOL     H217573   4.295   5.084   3.864
 4282SOL    EPW17574   4.369   5.090   3.912
 4283SOL      O17575   4.876   5.356   3.982
 4283SOL     H117576   4.862   5.262   3.970
 4283SOL     H217577   4.789   5.394   3.968
 4283SOL    EPW17578   4.865   5.350   3.979
 4284SOL      O17579   3.862   3.783   4.137
 4284SOL     H117580   3.924   3.856   4.141
 4284SOL     H217581   3.887   3.736   4.057
 4284SOL    EPW17582   3.872   3.786   4.129
 4285SOL      O17583   4.135   4.461   4.059
 4285SOL     H117584   4.131   4.556   4.050
 4285SOL     H217585   4.210   4.445   4.115
 4285SOL    EPW17586   4.142   4.469   4.064
 4286SOL      O17587   5.437   5.579   3.944
 4286SOL     H117588   5.529   5.554   3.948
 4286SOL     H217589   5.419   5.618   4.029
 4286SOL    EPW17590   5.445   5.581   3.953
 4287SOL      O17591   3.782   4.832   3.915
 4287SOL     H117592   3.728   4.909   3.933
 4287SOL     H217593   3.752   4.800   3.830
 4287SOL    EPW17594   3.773   4.837   3.908
 4288SOL      O17595   4.269   5.440   3.881
 4288SOL     H117596   4.228   5.489   3.810
 4288SOL     H217597   4.343   5.395   3.839
 4288SOL    EPW17598   4.273   5.440   3.869
 4289SOL      O17599   5.134   4.443   3.793
 4289SOL     H117600   5.078   4.425   3.718
 4289SOL     H217601   5.201   4.503   3.759
 4289SOL    EPW17602   5.135   4.448   3.781
 4290SOL      O17603   4.640   4.678   3.905
 4290SOL     H117604   4.628   4.587   3.876
 4290SOL     H217605   4.583   4.729   3.848
 4290SOL    EPW17606   4.633   4.673   3.896
 4291SOL      O17607   1.661   1.514   0.016
 4291SOL     H117608   4.626   4.425   4.084
 4291SOL     H217609   1.736   1.494   0.072
 4291SOL    EPW17610   1.671   1.509   0.012
 4292SOL      O17611   4.044   3.900   3.854
 4292SOL     H117612   3.958   3.928   3.822
 4292SOL     H217613   4.092   3.878   3.775
 4292SOL    EPW17614   4.040   3.901   3.842
 4293SOL      O17615   3.792   3.955   3.757
 4293SOL     H117616   3.743   4.019   3.808
 4293SOL     H217617   3.823   4.004   3.681
 4293SOL    EPW17618   3.790   3.967   3.754
 4294SOL      O17619   3.873   5.219   3.975
 4294SOL     H117620   3.848   5.311   3.976
 4294SOL     H217621   3.894   5.201   3.883
 4294SOL    EPW17622   3.872   5.227   3.965
 4295SOL      O17623   2.219   2.408   0.001
 4295SOL     H117624   5.209   5.325   4.079
 4295SOL     H217625   2.156   2.336   0.009
 4295SOL    EPW17626   5.156   5.336   4.149
 4296SOL      O17627   4.462   0.055   0.406
 4296SOL     H117628   4.434   0.144   0.424
 4296SOL     H217629   4.397   5.877   0.450
 4296SOL    EPW17630   4.452   0.058   0.413
 4297SOL      O17631   4.661   0.238   1.704
 4297SOL     H117632   4.737   0.245   1.647
 4297SOL     H217633   4.598   0.187   1.653
 4297SOL    EPW17634   4.663   0.233   1.692
 4298SOL      O17635   4.405   5.794   1.862
 4298SOL     H117636   4.498   5.769   1.865
 4298SOL     H217637   4.360   5.722   1.904
 4298SOL    EPW17638   4.410   5.784   1.866
 4299SOL      O17639   5.539   5.655   0.701
 4299SOL     H117640   5.586   5.619   0.777
 4299SOL     H217641   5.475   5.588   0.679
 4299SOL    EPW17642   5.537   5.644   0.707
 4300SOL      O17643   4.689   5.675   1.089
 4300SOL     H117644   4.695   5.769   1.072
 4300SOL     H217645   4.778   5.642   1.077
 4300SOL    EPW17646   4.699   5.681   1.086
 4301SOL      O17647   4.697   5.685   1.358
 4301SOL     H117648   4.684   5.679   1.263
 4301SOL     H217649   4.733   5.773   1.371
 4301SOL    EPW17650   4.699   5.694   1.349
 4302SOL      O17651   3.878   5.819   0.712
 4302SOL     H117652   3.964   5.804   0.674
 4302SOL     H217653   3.831   5.737   0.699
 4302SOL    EPW17654   3.882   5.809   0.706
 4303SOL      O17655   4.459   5.675   1.491
 4303SOL     H117656   4.436   5.585   1.513
 4303SOL     H217657   4.544   5.669   1.448
 4303SOL    EPW17658   4.465   5.665   1.489
 4304SOL      O17659   5.118   5.695   1.863
 4304SOL     H117660   5.202   5.653   1.842
 4304SOL     H217661   5.106   5.678   1.956
 4304SOL    EPW17662   5.126   5.688   1.870
 4305SOL      O17663   4.125   5.668   1.735
 4305SOL     H117664   4.072   5.591   1.714
 4305SOL     H217665   4.215   5.635   1.737
 4305SOL    EPW17666   4.129   5.656   1.733
 4306SOL      O17667   4.523   5.684   0.687
 4306SOL     H117668   4.439   5.710   0.650
 4306SOL     H217669   4.577   5.662   0.611
 4306SOL    EPW17670   4.520   5.684   0.675
 4307SOL      O17671   4.876   5.623   1.761
 4307SOL     H117672   4.884   5.539   1.717
 4307SOL     H217673   4.961   5.638   1.802
 4307SOL    EPW17674   4.886   5.616   1.761
 4308SOL      O17675   5.177   5.872   0.502
 4308SOL     H117676   5.090   5.845   0.533
 4308SOL     H217677   5.169   0.090   0.491
 4308SOL    EPW17678   5.167   0.003   0.504
 4309SOL      O17679   4.920   5.803   0.590
 4309SOL     H117680   4.857   5.867   0.558
 4309SOL     H217681   4.915   5.809   0.685
 4309SOL    EPW17682   4.913   5.810   0.597
 4310SOL      O17683   4.082   0.093   0.995
 4310SOL     H117684   4.109   0.013   0.949
 4310SOL     H217685   3.991   0.076   1.021
 4310SOL    EPW17686   4.075   0.082   0.993
 4311SOL      O17687   5.122   5.844   1.554
 4311SOL     H117688   5.032   5.850   1.587
 4311SOL     H217689   5.145   5.751   1.565
 4311SOL    EPW17690   5.115   5.835   1.559
 4312SOL      O17691   4.180   5.741   0.883
 4312SOL     H117692   4.162   5.647   0.878
 4312SOL     H217693   4.202   5.766   0.793
 4312SOL    EPW17694   4.180   5.734   0.873
 4313SOL      O17695   4.394   5.821   1.027
 4313SOL     H117696   4.392   5.777   1.112
 4313SOL     H217697   4.328   5.775   0.975
 4313SOL    EPW17698   4.387   5.811   1.031
 4314SOL      O17699   4.946   5.586   1.072
 4314SOL     H117700   5.027   5.630   1.044
 4314SOL     H217701   4.970   5.540   1.153
 4314SOL    EPW17702   4.957   5.586   1.078
 4315SOL      O17703   5.254   5.680   1.276
 4315SOL     H117704   5.245   5.596   1.232
 4315SOL     H217705   5.255   5.658   1.369
 4315SOL    EPW17706   5.253   5.669   1.282
 4316SOL      O17707   3.782   5.668   0.402
 4316SOL     H117708   3.856   5.611   0.380
 4316SOL     H217709   3.759   5.643   0.492
 4316SOL    EPW17710   3.787   5.659   0.409
 4317SOL      O17711   4.715   5.635   0.491
 4317SOL     H117712   4.790   5.684   0.525
 4317SOL     H217713   4.710   5.659   0.399
 4317SOL    EPW17714   4.722   5.643   0.485
 4318SOL      O17715   4.315   5.691   1.260
 4318SOL     H117716   4.247   5.758   1.266
 4318SOL     H217717   4.360   5.695   1.344
 4318SOL    EPW17718   4.313   5.698   1.270
 4319SOL      O17719   5.166   5.704   0.942
 4319SOL     H117720   5.257   5.691   0.969
 4319SOL     H217721   5.154   5.645   0.868
 4319SOL    EPW17722   5.174   5.696   0.937
 4320SOL      O17723   4.545   0.328   0.707
 4320SOL     H117724   4.497   0.279   0.774
 4320SOL     H217725   4.635   0.296   0.714
 4320SOL    EPW17726   4.549   0.319   0.715
 4321SOL      O17727   5.552   5.650   1.475
 4321SOL     H117728   5.463   5.637   1.510
 4321SOL     H217729   5.558   5.744   1.461
 4321SOL    EPW17730   5.543   5.659   1.477
 4322SOL      O17731   5.419   5.739   1.072
 4322SOL     H117732   5.502   5.695   1.093
 4322SOL     H217733   5.364   5.723   1.148
 4322SOL    EPW17734   5.422   5.732   1.082
 4323SOL      O17735   3.869   5.622   1.136
 4323SOL     H117736   3.860   5.585   1.048
 4323SOL     H217737   3.960   5.606   1.160
 4323SOL    EPW17738   3.878   5.616   1.129
 4324SOL      O17739   3.972   5.704   0.123
 4324SOL     H117740   4.004   5.781   0.170
 4324SOL     H217741   4.013   5.710   0.037
 4324SOL    EPW17742   3.980   5.713   0.119
 4325SOL      O17743   4.355   5.864   2.351
 4325SOL     H117744   4.337   0.076   2.321
 4325SOL     H217745   4.358   5.812   2.271
 4325SOL    EPW17746   4.353   5.868   2.340
 4326SOL      O17747   4.681   0.294   3.552
 4326SOL     H117748   4.764   0.280   3.506
 4326SOL     H217749   4.624   0.226   3.518
 4326SOL    EPW17750   4.684   0.286   3.543
 4327SOL      O17751   4.419   5.805   3.668
 4327SOL     H117752   4.438   5.774   3.580
 4327SOL     H217753   4.487   5.764   3.722
 4327SOL    EPW17754   4.428   5.797   3.665
 4328SOL      O17755   5.558   5.687   2.591
 4328SOL     H117756   5.617   5.638   2.648
 4328SOL     H217757   5.490   5.624   2.567
 4328SOL    EPW17758   5.557   5.675   2.594
 4329SOL      O17759   4.717   5.680   2.979
 4329SOL     H117760   4.713   5.771   2.949
 4329SOL     H217761   4.810   5.658   2.974
 4329SOL    EPW17762   4.727   5.688   2.975
 4330SOL      O17763   4.692   5.694   3.248
 4330SOL     H117764   4.688   5.689   3.153
 4330SOL     H217765   4.751   5.767   3.266
 4330SOL    EPW17766   4.698   5.701   3.240
 4331SOL      O17767   3.955   5.788   2.513
 4331SOL     H117768   3.945   5.775   2.419
 4331SOL     H217769   3.881   5.741   2.552
 4331SOL    EPW17770   3.946   5.781   2.507
 4332SOL      O17771   4.465   5.725   3.404
 4332SOL     H117772   4.418   5.642   3.417
 4332SOL     H217773   4.544   5.700   3.356
 4332SOL    EPW17774   4.469   5.713   3.400
 4333SOL      O17775   5.092   5.757   3.735
 4333SOL     H117776   5.174   5.708   3.726
 4333SOL     H217777   5.088   5.780   3.828
 4333SOL    EPW17778   5.100   5.755   3.744
 4334SOL      O17779   4.668   5.715   1.921
 4334SOL     H117780   4.737   5.683   1.864
 4334SOL     H217781   4.644   5.640   1.975
 4334SOL    EPW17782   4.673   5.704   1.921
 4335SOL      O17783   4.162   5.592   3.675
 4335SOL     H117784   4.081   5.588   3.624
 4335SOL     H217785   4.231   5.570   3.613
 4335SOL    EPW17786   4.161   5.589   3.663
 4336SOL      O17787   4.491   5.652   2.608
 4336SOL     H117788   4.406   5.669   2.567
 4336SOL     H217789   4.552   5.648   2.534
 4336SOL    EPW17790   4.488   5.654   2.596
 4337SOL      O17791   4.858   5.646   3.647
 4337SOL     H117792   4.866   5.559   3.608
 4337SOL     H217793   4.945   5.664   3.683
 4337SOL    EPW17794   4.868   5.639   3.647
 4338SOL      O17795   4.219   5.709   2.531
 4338SOL     H117796   4.259   5.765   2.464
 4338SOL     H217797   4.126   5.729   2.526
 4338SOL    EPW17798   4.213   5.717   2.523
 4339SOL      O17799   5.257   0.037   2.461
 4339SOL     H117800   5.192   0.006   2.525
 4339SOL     H217801   5.228   0.126   2.439
 4339SOL    EPW17802   5.247   0.043   2.466
 4340SOL      O17803   4.879   5.754   2.561
 4340SOL     H117804   4.858   5.831   2.509
 4340SOL     H217805   4.855   5.778   2.651
 4340SOL    EPW17806   4.874   5.765   2.565
 4341SOL      O17807   4.097   0.043   2.982
 4341SOL     H117808   4.118   5.833   2.947
 4341SOL     H217809   4.139   0.104   2.923
 4341SOL    EPW17810   4.103   0.040   2.972
 4342SOL      O17811   5.048   5.874   3.412
 4342SOL     H117812   4.974   0.018   3.469
 4342SOL     H217813   5.100   5.811   3.462
 4342SOL    EPW17814   5.046   5.869   3.424
 4343SOL      O17815   4.203   5.718   2.809
 4343SOL     H117816   4.182   5.625   2.816
 4343SOL     H217817   4.212   5.733   2.715
 4343SOL    EPW17818   4.202   5.710   2.799
 4344SOL      O17819   5.122   5.620   2.126
 4344SOL     H117820   5.174   5.691   2.164
 4344SOL     H217821   5.139   5.545   2.184
 4344SOL    EPW17822   5.130   5.619   2.136
 4345SOL      O17823   4.412   5.869   2.918
 4345SOL     H117824   4.399   5.842   3.009
 4345SOL     H217825   4.371   5.799   2.867
 4345SOL    EPW17826   4.406   5.858   2.922
 4346SOL      O17827   4.991   5.665   2.974
 4346SOL     H117828   5.043   5.662   2.894
 4346SOL     H217829   5.055   5.670   3.045
 4346SOL    EPW17830   5.003   5.665   2.973
 4347SOL      O17831   5.227   5.681   3.141
 4347SOL     H117832   5.234   5.594   3.101
 4347SOL     H217833   5.238   5.666   3.235
 4347SOL    EPW17834   5.229   5.670   3.147
 4348SOL      O17835   3.905   5.755   2.251
 4348SOL     H117836   3.968   5.766   2.180
 4348SOL     H217837   3.867   5.668   2.236
 4348SOL    EPW17838   3.907   5.747   2.242
 4349SOL      O17839   4.689   5.627   2.411
 4349SOL     H117840   4.761   5.656   2.468
 4349SOL     H217841   4.706   5.671   2.328
 4349SOL    EPW17842   4.699   5.635   2.408
 4350SOL      O17843   4.334   5.786   3.170
 4350SOL     H117844   4.263   5.846   3.194
 4350SOL     H217845   4.379   5.768   3.253
 4350SOL    EPW17846   4.331   5.790   3.181
 4351SOL      O17847   5.163   5.686   2.756
 4351SOL     H117848   5.250   5.657   2.783
 4351SOL     H217849   5.139   5.628   2.685
 4351SOL    EPW17850   5.169   5.677   2.752
 4352SOL      O17851   4.502   0.365   2.632
 4352SOL     H117852   4.571   0.354   2.697
 4352SOL     H217853   4.503   0.284   2.582
 4352SOL    EPW17854   4.509   0.355   2.634
 4353SOL      O17855   5.546   5.662   3.334
 4353SOL     H117856   5.461   5.654   3.376
 4353SOL     H217857   5.561   5.757   3.329
 4353SOL    EPW17858   5.539   5.672   3.338
 4354SOL      O17859   5.313   5.806   2.213
 4354SOL     H117860   5.297   5.825   2.305
 4354SOL     H217861   5.309   0.015   2.170
 4354SOL    EPW17862   5.311   5.818   2.218
 4355SOL      O17863   5.421   5.734   2.946
 4355SOL     H117864   5.498   5.681   2.966
 4355SOL     H217865   5.360   5.716   3.017
 4355SOL    EPW17866   5.422   5.726   2.956
 4356SOL      O17867   3.778   5.634   2.962
 4356SOL     H117868   3.809   5.596   2.880
 4356SOL     H217869   3.806   5.573   3.030
 4356SOL    EPW17870   3.784   5.624   2.961
 4357SOL      O17871   4.026   5.718   2.008
 4357SOL     H117872   3.963   5.759   1.949
 4357SOL     H217873   4.094   5.684   1.951
 4357SOL    EPW17874   4.026   5.719   1.996
 4358SOL      O17875   3.848   5.850   1.848
 4358SOL     H117876   3.796   0.053   1.855
 4358SOL     H217877   3.928   5.876   1.803
 4358SOL    EPW17878   3.851   5.861   1.844
 4359SOL      O17879   4.642   5.702   3.809
 4359SOL     H117880   4.714   5.678   3.751
 4359SOL     H217881   4.632   5.628   3.868
 4359SOL    EPW17882   4.648   5.692   3.809
 4360SOL      O17883   5.115   5.626   4.023
 4360SOL     H117884   5.071   5.710   4.032
 4360SOL     H217885   5.062   5.566   4.075
 4360SOL    EPW17886   5.105   5.628   4.030
 4361SOL      O17887   0.977   2.742   0.027
 4361SOL     H117888   3.960   5.694   4.099
 4361SOL     H217889   0.970   2.646   0.035
 4361SOL    EPW17890   0.981   2.733   0.019
 4362SOL      O17891   4.014   5.689   3.918
 4362SOL     H117892   3.955   5.743   3.865
 4362SOL     H217893   4.082   5.662   3.857
 4362SOL    EPW17894   4.015   5.692   3.906
 4363SOL      O17895   3.864   5.823   3.728
 4363SOL     H117896   3.825   0.032   3.743
 4363SOL     H217897   3.949   5.841   3.687
 4363SOL    EPW17898   3.869   5.834   3.725
 4364SOL      O17899   0.122   0.977   1.386
 4364SOL     H117900   0.208   0.958   1.350
 4364SOL     H217901   0.068   0.999   1.310
 4364SOL    EPW17902   0.125   0.977   1.374
 4365SOL      O17903   0.055   0.936   0.916
 4365SOL     H117904   0.094   1.003   0.860
 4365SOL     H217905   0.038   0.980   0.999
 4365SOL    EPW17906   0.057   0.947   0.918
 4366SOL      O17907   5.716   1.811   0.885
 4366SOL     H117908   5.805   1.808   0.849
 4366SOL     H217909   5.688   1.720   0.890
 4366SOL    EPW17910   5.722   1.801   0.882
 4367SOL      O17911   0.134   0.265   0.340
 4367SOL     H117912   0.136   0.259   0.244
 4367SOL     H217913   0.159   0.356   0.358
 4367SOL    EPW17914   0.137   0.274   0.331
 4368SOL      O17915   5.852   1.251   0.365
 4368SOL     H117916   5.796   1.322   0.335
 4368SOL     H217917   5.833   1.178   0.307
 4368SOL    EPW17918   5.844   1.251   0.356
 4369SOL      O17919   5.751   1.619   1.143
 4369SOL     H117920   5.721   1.580   1.225
 4369SOL     H217921   5.744   1.713   1.157
 4369SOL    EPW17922   5.747   1.625   1.153
 4370SOL      O17923   0.208   1.730   0.550
 4370SOL     H117924   0.219   1.812   0.501
 4370SOL     H217925   0.123   1.697   0.522
 4370SOL    EPW17926   0.200   1.735   0.542
 4371SOL      O17927   5.772   0.243   0.678
 4371SOL     H117928   5.766   0.205   0.590
 4371SOL     H217929   5.688   0.222   0.719
 4371SOL    EPW17930   5.762   0.237   0.673
 4372SOL      O17931   5.718   0.339   0.988
 4372SOL     H117932   5.648   0.389   1.030
 4372SOL     H217933   5.674   0.283   0.924
 4372SOL    EPW17934   5.706   0.338   0.986
 4373SOL      O17935   5.795   0.722   1.208
 4373SOL     H117936   5.788   0.670   1.288
 4373SOL     H217937   5.721   0.783   1.213
 4373SOL    EPW17938   5.786   0.723   1.217
 4374SOL      O17939   5.736   1.802   1.566
 4374SOL     H117940   5.665   1.847   1.521
 4374SOL     H217941   5.814   1.852   1.544
 4374SOL    EPW17942   5.736   1.812   1.558
 4375SOL      O17943   5.875   1.069   1.150
 4375SOL     H117944   0.038   1.155   1.162
 4375SOL     H217945   5.785   1.087   1.124
 4375SOL    EPW17946   5.870   1.080   1.149
 4376SOL      O17947   5.730   0.972   0.492
 4376SOL     H117948   5.822   0.945   0.496
 4376SOL     H217949   5.700   0.944   0.405
 4376SOL    EPW17950   5.736   0.966   0.483
 4377SOL      O17951   5.732   1.472   0.638
 4377SOL     H117952   5.716   1.493   0.730
 4377SOL     H217953   5.748   1.377   0.638
 4377SOL    EPW17954   5.732   1.464   0.648
 4378SOL      O17955   0.152   0.210   1.589
 4378SOL     H117956   0.076   0.168   1.630
 4378SOL     H217957   0.137   0.200   1.495
 4378SOL    EPW17958   0.142   0.205   1.583
 4379SOL      O17959   5.855   1.617   0.444
 4379SOL     H117960   0.049   1.561   0.412
 4379SOL     H217961   5.817   1.568   0.517
 4379SOL    EPW17962   5.858   1.606   0.448
 4380SOL      O17963   5.748   1.195   0.671
 4380SOL     H117964   5.827   1.166   0.716
 4380SOL     H217965   5.743   1.140   0.593
 4380SOL    EPW17966   5.756   1.186   0.667
 4381SOL      O17967   5.771   1.413   1.882
 4381SOL     H117968   5.839   1.346   1.877
 4381SOL     H217969   5.729   1.411   1.796
 4381SOL    EPW17970   5.774   1.406   1.872
 4382SOL      O17971   5.677   1.380   1.621
 4382SOL     H117972   5.707   1.306   1.568
 4382SOL     H217973   5.592   1.353   1.655
 4382SOL    EPW17974   5.671   1.369   1.619
 4383SOL      O17975   0.169   0.532   0.171
 4383SOL     H117976   0.235   0.583   0.218
 4383SOL     H217977   0.214   0.496   0.096
 4383SOL    EPW17978   0.181   0.534   0.168
 4384SOL      O17979   5.780   1.180   1.478
 4384SOL     H117980   5.817   1.118   1.540
 4384SOL     H217981   5.700   1.138   1.446
 4384SOL    EPW17982   5.775   1.169   1.481
 4385SOL      O17983   5.676   1.538   0.902
 4385SOL     H117984   5.705   1.556   0.991
 4385SOL     H217985   5.581   1.538   0.907
 4385SOL    EPW17986   5.669   1.540   0.912
 4386SOL      O17987   5.648   0.616   0.367
 4386SOL     H117988   5.588   0.581   0.433
 4386SOL     H217989   5.732   0.623   0.413
 4386SOL    EPW17990   5.651   0.613   0.379
 4387SOL      O17991   0.128   0.433   1.283
 4387SOL     H117992   0.221   0.416   1.299
 4387SOL     H217993   0.118   0.431   1.188
 4387SOL    EPW17994   0.137   0.431   1.275
 4388SOL      O17995   0.138   1.299   1.204
 4388SOL     H117996   0.109   1.319   1.293
 4388SOL     H217997   0.148   1.385   1.163
 4388SOL    EPW17998   0.136   1.311   1.209
 4389SOL      O17999   0.327   1.279   0.072
 4389SOL     H118000   0.296   1.267   0.161
 4389SOL     H218001   0.337   1.190   0.038
 4389SOL    EPW18002   0.325   1.268   0.078
 4390SOL      O18003   5.677   1.531   1.388
 4390SOL     H118004   5.673   1.485   1.471
 4390SOL     H218005   5.596   1.581   1.384
 4390SOL    EPW18006   5.668   1.531   1.396
 4391SOL      O18007   0.080   1.208   1.865
 4391SOL     H118008   0.164   1.240   1.833
 4391SOL     H218009   0.052   1.143   1.800
 4391SOL    EPW18010   0.086   1.205   1.855
 4392SOL      O18011   5.606   1.829   1.801
 4392SOL     H118012   5.659   1.813   1.724
 4392SOL     H218013   5.616   1.923   1.818
 4392SOL    EPW18014   5.612   1.837   1.795
 4393SOL      O18015   5.779   0.140   0.424
 4393SOL     H118016   5.857   0.187   0.392
 4393SOL     H218017   5.801   0.048   0.413
 4393SOL    EPW18018   5.790   0.135   0.419
 4394SOL      O18019   5.712   0.801   1.656
 4394SOL     H118020   5.650   0.742   1.698
 4394SOL     H218021   5.735   0.757   1.574
 4394SOL    EPW18022   5.708   0.790   1.652
 4395SOL      O18023   5.766   0.514   0.701
 4395SOL     H118024   5.813   0.544   0.779
 4395SOL     H218025   5.778   0.420   0.700
 4395SOL    EPW18026   5.772   0.507   0.709
 4396SOL      O18027   0.008   1.020   1.679
 4396SOL     H118028   5.831   0.940   1.682
 4396SOL     H218029   0.094   0.989   1.653
 4396SOL    EPW18030   0.011   1.008   1.676
 4397SOL      O18031   5.836   0.676   0.941
 4397SOL     H118032   5.815   0.688   1.033
 4397SOL     H218033   5.875   0.759   0.915
 4397SOL    EPW18034   5.838   0.686   0.948
 4398SOL      O18035   5.772   0.407   1.662
 4398SOL     H118036   5.762   0.462   1.585
 4398SOL     H218037   5.859   0.429   1.697
 4398SOL    EPW18038   5.781   0.415   1.658
 4399SOL      O18039   5.721   0.026   1.152
 4399SOL     H118040   5.692   5.812   1.147
 4399SOL     H218041   5.816   0.022   1.142
 4399SOL    EPW18042   5.728   0.016   1.150
 4400SOL      O18043   5.691   1.458   0.279
 4400SOL     H118044   5.733   1.526   0.332
 4400SOL     H218045   5.713   1.481   0.189
 4400SOL    EPW18046   5.698   1.468   0.275
 4401SOL      O18047   0.127   0.969   3.017
 4401SOL     H118048   0.197   0.972   3.082
 4401SOL     H218049   0.059   0.916   3.058
 4401SOL    EPW18050   0.127   0.964   3.028
 4402SOL      O18051   5.712   1.802   2.754
 4402SOL     H118052   5.803   1.782   2.731
 4402SOL     H218053   5.672   1.717   2.771
 4402SOL    EPW18054   5.718   1.791   2.753
 4403SOL      O18055   0.023   0.396   2.179
 4403SOL     H118056   0.071   0.377   2.099
 4403SOL     H218057   5.853   0.315   2.198
 4403SOL    EPW18058   0.023   0.385   2.173
 4404SOL      O18059   5.826   1.283   2.292
 4404SOL     H118060   5.779   1.348   2.240
 4404SOL     H218061   5.850   1.215   2.229
 4404SOL    EPW18062   5.824   1.283   2.280
 4405SOL      O18063   5.700   1.618   3.023
 4405SOL     H118064   5.681   1.571   3.104
 4405SOL     H218065   5.705   1.710   3.049
 4405SOL    EPW18066   5.699   1.623   3.035
 4406SOL      O18067   0.171   1.645   2.452
 4406SOL     H118068   0.221   1.723   2.427
 4406SOL     H218069   0.094   1.646   2.395
 4406SOL    EPW18070   0.168   1.653   2.443
 4407SOL      O18071   5.709   1.787   2.045
 4407SOL     H118072   5.801   1.778   2.020
 4407SOL     H218073   5.662   1.795   1.962
 4407SOL    EPW18074   5.713   1.787   2.034
 4408SOL      O18075   5.737   0.222   2.484
 4408SOL     H118076   5.757   0.194   2.395
 4408SOL     H218077   5.667   0.164   2.513
 4408SOL    EPW18078   5.732   0.213   2.478
 4409SOL      O18079   5.718   0.386   2.853
 4409SOL     H118080   5.661   0.405   2.927
 4409SOL     H218081   5.662   0.338   2.791
 4409SOL    EPW18082   5.706   0.383   2.854
 4410SOL      O18083   5.823   0.792   3.121
 4410SOL     H118084   5.827   0.747   3.205
 4410SOL     H218085   5.731   0.817   3.111
 4410SOL    EPW18086   5.814   0.790   3.129
 4411SOL      O18087   5.783   1.768   3.400
 4411SOL     H118088   5.726   1.836   3.364
 4411SOL     H218089   5.864   1.814   3.420
 4411SOL    EPW18090   5.785   1.780   3.398
 4412SOL      O18091   5.813   1.159   2.918
 4412SOL     H118092   5.808   1.234   2.977
 4412SOL     H218093   5.722   1.130   2.910
 4412SOL    EPW18094   5.802   1.164   2.923
 4413SOL      O18095   5.727   0.900   2.369
 4413SOL     H118096   5.816   0.888   2.402
 4413SOL     H218097   5.720   0.839   2.296
 4413SOL    EPW18098   5.736   0.892   2.365
 4414SOL      O18099   5.693   1.513   2.502
 4414SOL     H118100   5.682   1.545   2.591
 4414SOL     H218101   5.711   1.420   2.512
 4414SOL    EPW18102   5.693   1.506   2.513
 4415SOL      O18103   0.133   0.210   3.433
 4415SOL     H118104   0.061   0.163   3.474
 4415SOL     H218105   0.149   0.163   3.351
 4415SOL    EPW18106   0.127   0.200   3.429
 4416SOL      O18107   5.830   1.642   2.296
 4416SOL     H118108   5.814   1.737   2.293
 4416SOL     H218109   5.773   1.610   2.366
 4416SOL    EPW18110   5.822   1.649   2.303
 4417SOL      O18111   5.709   1.239   2.539
 4417SOL     H118112   5.787   1.216   2.590
 4417SOL     H218113   5.737   1.230   2.448
 4417SOL    EPW18114   5.720   1.236   2.535
 4418SOL      O18115   5.762   1.406   3.755
 4418SOL     H118116   5.836   1.347   3.744
 4418SOL     H218117   5.725   1.415   3.667
 4418SOL    EPW18118   5.766   1.401   3.744
 4419SOL      O18119   5.693   1.337   3.482
 4419SOL     H118120   5.723   1.261   3.432
 4419SOL     H218121   5.616   1.305   3.529
 4419SOL    EPW18122   5.688   1.326   3.481
 4420SOL      O18123   0.178   0.681   2.055
 4420SOL     H118124   0.168   0.762   2.105
 4420SOL     H218125   0.215   0.619   2.117
 4420SOL    EPW18126   0.181   0.683   2.067
 4421SOL      O18127   5.821   1.127   3.352
 4421SOL     H118128   5.838   1.072   3.428
 4421SOL     H218129   5.735   1.099   3.320
 4421SOL    EPW18130   5.814   1.118   3.357
 4422SOL      O18131   5.637   1.540   2.780
 4422SOL     H118132   5.658   1.559   2.871
 4422SOL     H218133   5.541   1.541   2.777
 4422SOL    EPW18134   5.629   1.542   2.789
 4423SOL      O18135   5.584   0.643   2.223
 4423SOL     H118136   5.535   0.603   2.295
 4423SOL     H218137   5.676   0.630   2.247
 4423SOL    EPW18138   5.589   0.637   2.234
 4424SOL      O18139   0.148   0.450   3.211
 4424SOL     H118140   0.235   0.417   3.234
 4424SOL     H218141   0.116   0.389   3.145
 4424SOL    EPW18142   0.154   0.440   3.206
 4425SOL      O18143  -0.000   1.379   3.066
 4425SOL     H118144   5.865   1.428   3.147
 4425SOL     H218145   0.004   1.445   2.997
 4425SOL    EPW18146   5.876   1.391   3.067
 4426SOL      O18147   0.349   1.332   2.075
 4426SOL     H118148   0.337   1.264   2.142
 4426SOL     H218149   0.278   1.394   2.090
 4426SOL    EPW18150   0.340   1.331   2.084
 4427SOL      O18151   5.620   1.471   3.245
 4427SOL     H118152   5.645   1.439   3.331
 4427SOL     H218153   5.560   1.544   3.262
 4427SOL    EPW18154   5.616   1.475   3.256
 4428SOL      O18155   0.085   1.221   3.721
 4428SOL     H118156   0.177   1.243   3.707
 4428SOL     H218157   0.070   1.146   3.663
 4428SOL    EPW18158   0.094   1.215   3.713
 4429SOL      O18159   5.607   1.771   3.618
 4429SOL     H118160   5.677   1.766   3.552
 4429SOL     H218161   5.608   1.862   3.647
 4429SOL    EPW18162   5.615   1.780   3.614
 4430SOL      O18163   5.811   0.142   2.233
 4430SOL     H118164   0.026   0.124   2.251
 4430SOL     H218165   5.775   0.057   2.206
 4430SOL    EPW18166   5.817   0.131   2.232
 4431SOL      O18167   5.768   0.770   3.588
 4431SOL     H118168   5.712   0.716   3.644
 4431SOL     H218169   5.786   0.716   3.512
 4431SOL    EPW18170   5.764   0.759   3.586
 4432SOL      O18171   5.772   0.488   2.541
 4432SOL     H118172   5.865   0.495   2.564
 4432SOL     H218173   5.758   0.395   2.524
 4432SOL    EPW18174   5.780   0.479   2.542
 4433SOL      O18175   5.620   1.085   2.095
 4433SOL     H118176   5.564   1.151   2.135
 4433SOL     H218177   5.565   1.006   2.092
 4433SOL    EPW18178   5.608   1.084   2.099
 4434SOL      O18179   0.042   0.998   3.572
 4434SOL     H118180   5.855   0.931   3.594
 4434SOL     H218181   0.126   0.960   3.597
 4434SOL    EPW18182   0.044   0.987   3.577
 4435SOL      O18183   0.036   0.941   2.750
 4435SOL     H118184   0.089   0.862   2.742
 4435SOL     H218185   5.824   0.912   2.727
 4435SOL    EPW18186   0.032   0.929   2.746
 4436SOL      O18187   5.748   0.464   3.538
 4436SOL     H118188   5.761   0.498   3.450
 4436SOL     H218189   5.836   0.455   3.574
 4436SOL    EPW18190   5.758   0.467   3.533
 4437SOL      O18191   5.713   0.030   3.001
 4437SOL     H118192   5.678   5.818   2.994
 4437SOL     H218193   5.807   0.021   2.986
 4437SOL    EPW18194   5.719   0.020   2.999
 4438SOL      O18195   5.711   0.304   1.913
 4438SOL     H118196   5.648   0.362   1.957
 4438SOL     H218197   5.718   0.339   1.824
 4438SOL    EPW18198   5.705   0.314   1.909
 4439SOL      O18199   5.682   1.455   2.132
 4439SOL     H118200   5.705   1.545   2.153
 4439SOL     H218201   5.710   1.443   2.041
 4439SOL    EPW18202   5.687   1.463   2.124
 4440SOL      O18203   0.077   0.338   3.990
 4440SOL     H118204   0.110   0.276   4.055
 4440SOL     H218205   5.872   0.370   4.027
 4440SOL    EPW18206   0.072   0.335   4.001
 4441SOL      O18207   5.864   1.299   4.101
 4441SOL     H118208   0.025   1.367   4.046
 4441SOL     H218209   5.848   1.226   4.041
 4441SOL    EPW18210   5.866   1.299   4.089
 4442SOL      O18211   5.696   1.793   3.931
 4442SOL     H118212   5.744   1.838   4.001
 4442SOL     H218213   5.756   1.792   3.857
 4442SOL    EPW18214   5.707   1.798   3.931
 4443SOL      O18215   2.848   4.022   0.348
 4443SOL     H118216   2.929   4.071   0.336
 4443SOL     H218217   2.845   3.963   0.273
 4443SOL    EPW18218   2.856   4.021   0.339
 4444SOL      O18219   0.129   0.605   3.920
 4444SOL     H118220   0.114   0.634   4.010
 4444SOL     H218221   0.126   0.510   3.925
 4444SOL    EPW18222   0.127   0.598   3.930
 4445SOL      O18223   0.389   1.366   3.947
 4445SOL     H118224   0.408   1.333   4.035
 4445SOL     H218225   0.305   1.412   3.956
 4445SOL    EPW18226   0.382   1.367   3.957
 4446SOL      O18227   2.840   3.008   0.040
 4446SOL     H118228   2.925   3.045   0.016
 4446SOL     H218229   5.770   5.867   4.142
 4446SOL    EPW18230   2.848   3.004   0.031
 4447SOL      O18231   2.837   3.325   0.205
 4447SOL     H118232   2.924   3.339   0.242
 4447SOL     H218233   2.791   3.275   0.273
 4447SOL    EPW18234   2.841   3.321   0.216
 4448SOL      O18235   5.589   1.108   3.855
 4448SOL     H118236   5.559   1.185   3.903
 4448SOL     H218237   5.535   1.036   3.889
 4448SOL    EPW18238   5.580   1.108   3.864
 4449SOL      O18239   5.642   0.257   3.686
 4449SOL     H118240   5.611   0.299   3.766
 4449SOL     H218241   5.672   0.330   3.631
 4449SOL    EPW18242   5.642   0.270   3.688
 4450SOL      O18243   5.667   1.529   3.977
 4450SOL     H118244   5.672   1.623   3.960
 4450SOL     H218245   5.709   1.488   3.902
 4450SOL    EPW18246   5.672   1.534   3.968
 4451SOL      O18247   0.067   2.751   1.233
 4451SOL     H118248   0.151   2.782   1.268
 4451SOL     H218249   0.028   2.829   1.193
 4451SOL    EPW18250   0.072   2.763   1.233
 4452SOL      O18251   0.037   2.821   0.886
 4452SOL     H118252   0.083   2.885   0.832
 4452SOL     H218253   0.008   2.871   0.962
 4452SOL    EPW18254   0.039   2.833   0.888
 4453SOL      O18255   5.705   3.681   0.875
 4453SOL     H118256   5.799   3.678   0.855
 4453SOL     H218257   5.679   3.589   0.877
 4453SOL    EPW18258   5.712   3.671   0.873
 4454SOL      O18259   0.074   2.231   0.312
 4454SOL     H118260   0.110   2.201   0.228
 4454SOL     H218261   0.148   2.277   0.353
 4454SOL    EPW18262   0.086   2.233   0.308
 4455SOL      O18263   5.863   3.091   0.272
 4455SOL     H118264   0.006   3.184   0.265
 4455SOL     H218265   5.768   3.088   0.288
 4455SOL    EPW18266   5.855   3.101   0.273
 4456SOL      O18267   5.758   3.476   1.119
 4456SOL     H118268   5.719   3.434   1.196
 4456SOL     H218269   5.746   3.570   1.135
 4456SOL    EPW18270   5.752   3.482   1.129
 4457SOL      O18271   0.212   3.611   0.594
 4457SOL     H118272   0.245   3.669   0.524
 4457SOL     H218273   0.141   3.562   0.553
 4457SOL    EPW18274   0.208   3.612   0.582
 4458SOL      O18275   5.763   3.579   0.203
 4458SOL     H118276   5.712   3.648   0.246
 4458SOL     H218277   5.698   3.515   0.176
 4458SOL    EPW18278   5.751   3.580   0.205
 4459SOL      O18279   5.774   2.098   0.639
 4459SOL     H118280   5.778   2.079   0.545
 4459SOL     H218281   5.700   2.046   0.670
 4459SOL    EPW18282   5.766   2.090   0.632
 4460SOL      O18283   5.721   2.249   0.995
 4460SOL     H118284   5.669   2.303   1.055
 4460SOL     H218285   5.656   2.206   0.939
 4460SOL    EPW18286   5.708   2.250   0.996
 4461SOL      O18287   5.763   2.558   1.170
 4461SOL     H118288   5.826   2.621   1.205
 4461SOL     H218289   5.677   2.596   1.191
 4461SOL    EPW18290   5.761   2.569   1.176
 4462SOL      O18291   5.785   3.687   1.675
 4462SOL     H118292   5.726   3.720   1.607
 4462SOL     H218293   5.872   3.693   1.637
 4462SOL    EPW18294   5.788   3.691   1.664
 4463SOL      O18295   5.844   2.971   1.108
 4463SOL     H118296   0.008   3.043   1.156
 4463SOL     H218297   5.750   2.986   1.116
 4463SOL    EPW18298   5.838   2.980   1.114
 4464SOL      O18299   5.737   2.835   0.500
 4464SOL     H118300   5.829   2.809   0.499
 4464SOL     H218301   5.700   2.797   0.421
 4464SOL    EPW18302   5.743   2.828   0.492
 4465SOL      O18303   5.713   3.353   0.611
 4465SOL     H118304   5.696   3.374   0.703
 4465SOL     H218305   5.728   3.258   0.610
 4465SOL    EPW18306   5.713   3.345   0.620
 4466SOL      O18307   0.061   1.985   1.523
 4466SOL     H118308   5.873   2.045   1.559
 4466SOL     H218309   0.099   2.032   1.449
 4466SOL    EPW18310   0.058   1.996   1.519
 4467SOL      O18311   5.864   3.522   0.459
 4467SOL     H118312   5.817   3.526   0.375
 4467SOL     H218313   5.810   3.466   0.514
 4467SOL    EPW18314   5.853   3.516   0.456
 4468SOL      O18315   5.739   3.078   0.643
 4468SOL     H118316   5.816   3.055   0.696
 4468SOL     H218317   5.730   3.005   0.582
 4468SOL    EPW18318   5.746   3.068   0.642
 4469SOL      O18319   5.756   3.340   1.825
 4469SOL     H118320   5.827   3.277   1.833
 4469SOL     H218321   5.706   3.310   1.750
 4469SOL    EPW18322   5.758   3.330   1.818
 4470SOL      O18323   5.655   3.234   1.592
 4470SOL     H118324   5.713   3.160   1.573
 4470SOL     H218325   5.571   3.193   1.613
 4470SOL    EPW18326   5.652   3.222   1.592
 4471SOL      O18327   0.279   2.550   0.086
 4471SOL     H118328   0.247   2.614   0.150
 4471SOL     H218329   0.366   2.525   0.119
 4471SOL    EPW18330   0.285   2.554   0.097
 4472SOL      O18331   5.813   3.017   1.531
 4472SOL     H118332   5.831   2.970   1.613
 4472SOL     H218333   5.739   2.970   1.493
 4472SOL    EPW18334   5.807   3.007   1.536
 4473SOL      O18335   5.661   3.412   0.878
 4473SOL     H118336   5.695   3.421   0.967
 4473SOL     H218337   5.566   3.414   0.888
 4473SOL    EPW18338   5.654   3.413   0.888
 4474SOL      O18339   5.598   2.464   0.370
 4474SOL     H118340   5.509   2.436   0.393
 4474SOL     H218341   5.646   2.465   0.452
 4474SOL    EPW18342   5.593   2.461   0.381
 4475SOL      O18343   0.158   2.178   1.335
 4475SOL     H118344   0.253   2.180   1.328
 4475SOL     H218345   0.127   2.199   1.246
 4475SOL    EPW18346   0.165   2.181   1.324
 4476SOL      O18347   0.267   1.965   0.932
 4476SOL     H118348   0.312   1.881   0.918
 4476SOL     H218349   0.205   1.970   0.859
 4476SOL    EPW18350   0.265   1.956   0.922
 4477SOL      O18351   0.136   3.140   1.250
 4477SOL     H118352   0.164   3.098   1.331
 4477SOL     H218353   0.110   3.228   1.277
 4477SOL    EPW18354   0.136   3.145   1.262
 4478SOL      O18355   0.292   3.170   0.089
 4478SOL     H118356   0.270   3.131   0.174
 4478SOL     H218357   0.216   3.151   0.034
 4478SOL    EPW18358   0.282   3.164   0.092
 4479SOL      O18359   5.679   3.380   1.362
 4479SOL     H118360   5.663   3.330   1.442
 4479SOL     H218361   5.607   3.442   1.357
 4479SOL    EPW18362   5.670   3.381   1.370
 4480SOL      O18363   0.090   3.163   1.782
 4480SOL     H118364   0.183   3.165   1.802
 4480SOL     H218365   0.069   3.069   1.778
 4480SOL    EPW18366   0.097   3.153   1.784
 4481SOL      O18367   5.583   3.651   1.871
 4481SOL     H118368   5.645   3.672   1.801
 4481SOL     H218369   5.508   3.708   1.855
 4481SOL    EPW18370   5.582   3.659   1.862
 4482SOL      O18371   5.797   2.016   0.378
 4482SOL     H118372   5.853   2.089   0.353
 4482SOL     H218373   5.856   1.940   0.378
 4482SOL    EPW18374   5.809   2.015   0.375
 4483SOL      O18375   5.801   2.609   1.751
 4483SOL     H118376   5.719   2.560   1.752
 4483SOL     H218377   5.774   2.701   1.749
 4483SOL    EPW18378   5.789   2.613   1.751
 4484SOL      O18379   5.762   2.380   0.674
 4484SOL     H118380   5.789   2.414   0.759
 4484SOL     H218381   5.775   2.285   0.681
 4484SOL    EPW18382   5.766   2.373   0.684
 4485SOL      O18383   0.031   2.897   1.756
 4485SOL     H118384   0.019   2.894   1.851
 4485SOL     H218385   0.120   2.865   1.742
 4485SOL    EPW18386   0.039   2.893   1.764
 4486SOL      O18387   5.803   2.559   0.900
 4486SOL     H118388   5.798   2.553   0.996
 4486SOL     H218389   5.842   2.645   0.884
 4486SOL    EPW18390   5.806   2.568   0.909
 4487SOL      O18391   5.737   2.164   1.602
 4487SOL     H118392   5.669   2.164   1.535
 4487SOL     H218393   5.791   2.240   1.581
 4487SOL    EPW18394   5.735   2.172   1.592
 4488SOL      O18395   5.741   1.898   1.143
 4488SOL     H118396   5.727   1.881   1.050
 4488SOL     H218397   5.836   1.901   1.154
 4488SOL    EPW18398   5.749   1.897   1.134
 4489SOL      O18399   0.094   2.785   3.187
 4489SOL     H118400   0.187   2.795   3.170
 4489SOL     H218401   0.052   2.847   3.128
 4489SOL    EPW18402   0.099   2.793   3.179
 4490SOL      O18403   0.056   2.788   2.784
 4490SOL     H118404   0.015   2.838   2.713
 4490SOL     H218405   0.044   2.843   2.862
 4490SOL    EPW18406   0.050   2.800   2.785
 4491SOL      O18407   0.069   2.136   2.167
 4491SOL     H118408   0.066   2.112   2.075
 4491SOL     H218409   0.072   2.232   2.167
 4491SOL    EPW18410   0.069   2.144   2.157
 4492SOL      O18411   5.877   3.148   2.150
 4492SOL     H118412   0.043   3.224   2.113
 4492SOL     H218413   5.787   3.177   2.168
 4492SOL    EPW18414   5.872   3.159   2.148
 4493SOL      O18415   5.760   3.451   3.028
 4493SOL     H118416   5.711   3.395   3.089
 4493SOL     H218417   5.746   3.540   3.061
 4493SOL    EPW18418   5.753   3.455   3.038
 4494SOL      O18419   0.229   3.591   2.484
 4494SOL     H118420   0.181   3.635   2.414
 4494SOL     H218421   0.178   3.511   2.501
 4494SOL    EPW18422   0.218   3.587   2.478
 4495SOL      O18423   5.706   3.634   2.117
 4495SOL     H118424   5.788   3.645   2.068
 4495SOL     H218425   5.637   3.646   2.053
 4495SOL    EPW18426   5.708   3.637   2.105
 4496SOL      O18427   5.762   2.061   2.493
 4496SOL     H118428   5.772   2.015   2.409
 4496SOL     H218429   5.680   2.028   2.529
 4496SOL    EPW18430   5.755   2.052   2.488
 4497SOL      O18431   5.740   2.265   2.795
 4497SOL     H118432   5.709   2.352   2.821
 4497SOL     H218433   5.664   2.222   2.758
 4497SOL    EPW18434   5.729   2.270   2.793
 4498SOL      O18435   5.790   2.583   3.133
 4498SOL     H118436   5.852   2.652   3.159
 4498SOL     H218437   5.707   2.628   3.122
 4498SOL    EPW18438   5.788   2.595   3.135
 4499SOL      O18439   5.780   3.738   3.415
 4499SOL     H118440   5.696   3.779   3.395
 4499SOL     H218441   5.789   3.670   3.348
 4499SOL    EPW18442   5.772   3.735   3.406
 4500SOL      O18443   5.875   2.952   2.996
 4500SOL     H118444   0.029   3.042   3.002
 4500SOL     H218445   5.782   2.960   2.973
 4500SOL    EPW18446   5.868   2.962   2.994
 4501SOL      O18447   5.719   2.795   2.457
 4501SOL     H118448   5.742   2.873   2.506
 4501SOL     H218449   5.802   2.766   2.418
 4501SOL    EPW18450   5.730   2.800   2.458
 4502SOL      O18451   0.104   2.033   3.354
 4502SOL     H118452   0.131   2.096   3.421
 4502SOL     H218453   0.107   2.083   3.272
 4502SOL    EPW18454   0.107   2.045   3.352
 4503SOL      O18455   0.031   3.506   2.280
 4503SOL     H118456   5.819   3.532   2.260
 4503SOL     H218457   0.023   3.450   2.357
 4503SOL    EPW18458   0.021   3.503   2.286
 4504SOL      O18459   5.814   2.991   2.617
 4504SOL     H118460   5.751   3.061   2.634
 4504SOL     H218461   0.019   3.037   2.597
 4504SOL    EPW18462   5.816   3.004   2.617
 4505SOL      O18463   5.767   3.289   3.776
 4505SOL     H118464   5.843   3.231   3.774
 4505SOL     H218465   5.720   3.270   3.695
 4505SOL    EPW18466   5.770   3.281   3.767
 4506SOL      O18467   5.670   3.222   3.522
 4506SOL     H118468   5.700   3.146   3.473
 4506SOL     H218469   5.583   3.198   3.553
 4506SOL    EPW18470   5.664   3.211   3.520
 4507SOL      O18471   0.139   2.390   2.053
 4507SOL     H118472   0.082   2.467   2.056
 4507SOL     H218473   0.205   2.405   2.120
 4507SOL    EPW18474   0.140   2.400   2.060
 4508SOL      O18475   5.796   3.026   3.379
 4508SOL     H118476   5.816   2.967   3.452
 4508SOL     H218477   5.717   2.989   3.339
 4508SOL    EPW18478   5.789   3.015   3.382
 4509SOL      O18479   5.655   2.404   2.221
 4509SOL     H118480   5.597   2.406   2.297
 4509SOL     H218481   5.739   2.436   2.253
 4509SOL    EPW18482   5.658   2.408   2.232
 4510SOL      O18483   0.175   2.202   3.121
 4510SOL     H118484   0.206   2.291   3.135
 4510SOL     H218485   0.141   2.202   3.031
 4510SOL    EPW18486   0.175   2.211   3.113
 4511SOL      O18487   0.204   1.927   2.784
 4511SOL     H118488   0.291   1.888   2.775
 4511SOL     H218489   0.195   1.982   2.706
 4511SOL    EPW18490   0.212   1.929   2.774
 4512SOL      O18491   0.138   3.183   3.052
 4512SOL     H118492   0.116   3.190   3.145
 4512SOL     H218493   0.143   3.274   3.021
 4512SOL    EPW18494   0.136   3.194   3.058
 4513SOL      O18495   0.356   3.200   2.093
 4513SOL     H118496   0.322   3.136   2.156
 4513SOL     H218497   0.294   3.272   2.097
 4513SOL    EPW18498   0.346   3.201   2.100
 4514SOL      O18499   5.685   3.390   3.294
 4514SOL     H118500   5.668   3.332   3.369
 4514SOL     H218501   5.612   3.452   3.296
 4514SOL    EPW18502   5.675   3.390   3.302
 4515SOL      O18503   0.092   3.099   3.748
 4515SOL     H118504   0.169   3.133   3.702
 4515SOL     H218505   0.061   3.028   3.693
 4515SOL    EPW18506   0.097   3.095   3.737
 4516SOL      O18507   5.665   3.703   3.667
 4516SOL     H118508   5.719   3.698   3.588
 4516SOL     H218509   5.655   3.797   3.683
 4516SOL    EPW18510   5.669   3.712   3.661
 4517SOL      O18511   5.810   1.920   2.263
 4517SOL     H118512   5.864   1.994   2.235
 4517SOL     H218513   5.762   1.893   2.184
 4517SOL    EPW18514   5.811   1.925   2.252
 4518SOL      O18515   5.819   2.622   3.572
 4518SOL     H118516   5.758   2.568   3.621
 4518SOL     H218517   5.792   2.612   3.480
 4518SOL    EPW18518   5.810   2.615   3.567
 4519SOL      O18519   5.780   2.332   2.531
 4519SOL     H118520   5.781   2.329   2.627
 4519SOL     H218521   5.769   2.241   2.505
 4519SOL    EPW18522   5.779   2.322   2.539
 4520SOL      O18523   5.616   2.879   2.002
 4520SOL     H118524   5.587   2.965   2.032
 4520SOL     H218525   5.557   2.817   2.045
 4520SOL    EPW18526   5.607   2.881   2.010
 4521SOL      O18527   0.025   2.888   3.590
 4521SOL     H118528   5.854   2.806   3.598
 4521SOL     H218529   0.115   2.862   3.571
 4521SOL    EPW18530   0.029   2.877   3.589
 4522SOL      O18531   0.057   2.537   2.903
 4522SOL     H118532   5.868   2.551   2.970
 4522SOL     H218533   0.057   2.618   2.852
 4522SOL    EPW18534   0.050   2.547   2.904
 4523SOL      O18535   5.776   2.206   3.555
 4523SOL     H118536   5.815   2.264   3.489
 4523SOL     H218537   5.851   2.162   3.596
 4523SOL    EPW18538   5.788   2.207   3.552
 4524SOL      O18539   5.719   1.901   3.010
 4524SOL     H118540   5.716   1.877   2.917
 4524SOL     H218541   5.812   1.903   3.031
 4524SOL    EPW18542   5.729   1.899   3.002
 4525SOL      O18543   5.675   2.095   1.859
 4525SOL     H118544   5.631   2.165   1.906
 4525SOL     H218545   5.687   2.129   1.770
 4525SOL    EPW18546   5.672   2.106   1.854
 4526SOL      O18547   5.661   3.355   2.080
 4526SOL     H118548   5.661   3.448   2.103
 4526SOL     H218549   5.692   3.353   1.989
 4526SOL    EPW18550   5.664   3.365   2.073
 4527SOL      O18551   0.016   2.122   3.967
 4527SOL     H118552   0.112   2.125   3.967
 4527SOL     H218553   5.866   2.210   3.994
 4527SOL    EPW18554   0.023   2.132   3.970
 4528SOL      O18555   5.678   3.674   3.945
 4528SOL     H118556   5.743   3.733   3.983
 4528SOL     H218557   5.694   3.679   3.851
 4528SOL    EPW18558   5.687   3.681   3.939
 4529SOL      O18559   0.004   3.504   4.147
 4529SOL     H118560   5.810   3.452   4.110
 4529SOL     H218561   2.979   0.510   0.061
 4529SOL    EPW18562   0.001   3.492   4.150
 4530SOL      O18563   0.165   2.567   3.917
 4530SOL     H118564   0.103   2.603   3.980
 4530SOL     H218565   0.212   2.499   3.965
 4530SOL    EPW18566   0.163   2.564   3.929
 4531SOL      O18567   0.364   3.169   3.921
 4531SOL     H118568   0.332   3.084   3.950
 4531SOL     H218569   0.297   3.231   3.951
 4531SOL    EPW18570   0.354   3.167   3.927
 4532SOL      O18571   5.797   1.940   4.139
 4532SOL     H118572   5.826   2.009   4.079
 4532SOL     H218573   2.774   4.908   0.015
 4532SOL    EPW18574   5.791   1.951   4.136
 4533SOL      O18575   2.875   5.203   0.165
 4533SOL     H118576   2.961   5.228   0.199
 4533SOL     H218577   2.835   5.153   0.236
 4533SOL    EPW18578   2.880   5.201   0.176
 4534SOL      O18579   5.607   2.950   3.862
 4534SOL     H118580   5.572   3.032   3.896
 4534SOL     H218581   5.549   2.882   3.897
 4534SOL    EPW18582   5.597   2.951   3.870
 4535SOL      O18583   5.603   2.043   3.689
 4535SOL     H118584   5.587   2.101   3.763
 4535SOL     H218585   5.661   2.093   3.631
 4535SOL    EPW18586   5.608   2.054   3.690
 4536SOL      O18587   5.672   3.407   4.002
 4536SOL     H118588   5.668   3.499   3.978
 4536SOL     H218589   5.711   3.364   3.926
 4536SOL    EPW18590   5.676   3.412   3.991
 4537SOL      O18591   0.062   4.702   1.338
 4537SOL     H118592   0.100   4.618   1.314
 4537SOL     H218593   0.013   4.729   1.261
 4537SOL    EPW18594   0.061   4.696   1.327
 4538SOL      O18595   0.088   4.709   0.968
 4538SOL     H118596   0.098   4.758   0.886
 4538SOL     H218597   0.019   4.757   1.015
 4538SOL    EPW18598   0.081   4.719   0.964
 4539SOL      O18599   5.692   5.530   0.888
 4539SOL     H118600   5.787   5.530   0.877
 4539SOL     H218601   5.667   5.438   0.883
 4539SOL    EPW18602   5.699   5.520   0.886
 4540SOL      O18603   0.124   4.012   0.350
 4540SOL     H118604   0.069   4.072   0.299
 4540SOL     H218605   0.192   4.068   0.387
 4540SOL    EPW18606   0.125   4.024   0.348
 4541SOL      O18607   5.862   4.911   0.291
 4541SOL     H118608   5.868   5.007   0.288
 4541SOL     H218609   5.769   4.893   0.278
 4541SOL    EPW18610   5.852   4.920   0.289
 4542SOL      O18611   5.718   5.326   1.149
 4542SOL     H118612   5.700   5.272   1.226
 4542SOL     H218613   5.667   5.406   1.163
 4542SOL    EPW18614   5.710   5.329   1.159
 4543SOL      O18615   0.141   5.466   0.634
 4543SOL     H118616   0.164   5.557   0.615
 4543SOL     H218617   0.078   5.442   0.566
 4543SOL    EPW18618   0.137   5.473   0.625
 4544SOL      O18619   5.773   5.424   0.171
 4544SOL     H118620   5.750   5.485   0.102
 4544SOL     H218621   5.722   5.346   0.152
 4544SOL    EPW18622   5.765   5.422   0.162
 4545SOL      O18623   5.767   3.918   0.610
 4545SOL     H118624   5.772   3.894   0.518
 4545SOL     H218625   5.688   3.874   0.642
 4545SOL    EPW18626   5.759   3.911   0.604
 4546SOL      O18627   5.741   4.097   0.958
 4546SOL     H118628   5.698   4.142   1.031
 4546SOL     H218629   5.671   4.050   0.914
 4546SOL    EPW18630   5.729   4.097   0.961
 4547SOL      O18631   5.762   4.409   1.205
 4547SOL     H118632   5.705   4.333   1.199
 4547SOL     H218633   5.703   4.483   1.215
 4547SOL    EPW18634   5.750   4.409   1.206
 4548SOL      O18635   5.757   5.501   1.606
 4548SOL     H118636   5.708   5.572   1.564
 4548SOL     H218637   5.847   5.533   1.611
 4548SOL    EPW18638   5.761   5.512   1.602
 4549SOL      O18639   5.812   4.852   1.143
 4549SOL     H118640   5.839   4.942   1.165
 4549SOL     H218641   5.719   4.860   1.124
 4549SOL    EPW18642   5.805   4.863   1.144
 4550SOL      O18643   5.729   4.685   0.563
 4550SOL     H118644   5.823   4.670   0.558
 4550SOL     H218645   5.690   4.601   0.539
 4550SOL    EPW18646   5.734   4.675   0.560
 4551SOL      O18647   5.698   5.213   0.611
 4551SOL     H118648   5.675   5.234   0.702
 4551SOL     H218649   5.715   5.119   0.611
 4551SOL    EPW18650   5.697   5.205   0.621
 4552SOL      O18651   0.142   4.021   1.535
 4552SOL     H118652   0.051   4.017   1.564
 4552SOL     H218653   0.139   4.074   1.455
 4552SOL    EPW18654   0.132   4.026   1.529
 4553SOL      O18655   5.840   5.377   0.445
 4553SOL     H118656   5.791   5.402   0.367
 4553SOL     H218657   5.778   5.327   0.498
 4553SOL    EPW18658   5.828   5.374   0.442
 4554SOL      O18659   5.757   4.944   0.661
 4554SOL     H118660   5.843   4.929   0.700
 4554SOL     H218661   5.737   4.862   0.615
 4554SOL    EPW18662   5.764   4.934   0.660
 4555SOL      O18663   5.809   5.190   1.880
 4555SOL     H118664   5.853   5.107   1.900
 4555SOL     H218665   5.743   5.166   1.814
 4555SOL    EPW18666   5.807   5.179   1.875
 4556SOL      O18667   5.685   5.085   1.639
 4556SOL     H118668   5.655   5.156   1.583
 4556SOL     H218669   5.607   5.058   1.687
 4556SOL    EPW18670   5.674   5.090   1.638
 4557SOL      O18671   5.747   4.887   1.454
 4557SOL     H118672   5.707   4.946   1.519
 4557SOL     H218673   5.673   4.849   1.407
 4557SOL    EPW18674   5.735   4.889   1.456
 4558SOL      O18675   5.658   5.261   0.888
 4558SOL     H118676   5.682   5.268   0.981
 4558SOL     H218677   5.564   5.242   0.889
 4558SOL    EPW18678   5.650   5.259   0.898
 4559SOL      O18679   5.617   4.445   0.505
 4559SOL     H118680   5.569   4.393   0.570
 4559SOL     H218681   5.703   4.403   0.499
 4559SOL    EPW18682   5.621   4.435   0.511
 4560SOL      O18683   0.174   4.183   1.309
 4560SOL     H118684   0.266   4.157   1.308
 4560SOL     H218685   0.146   4.174   1.218
 4560SOL    EPW18686   0.181   4.179   1.299
 4561SOL      O18687   0.285   3.850   0.930
 4561SOL     H118688   0.325   3.763   0.926
 4561SOL     H218689   0.213   3.846   0.867
 4561SOL    EPW18690   0.282   3.840   0.923
 4562SOL      O18691   0.125   4.984   1.361
 4562SOL     H118692   0.101   5.073   1.386
 4562SOL     H218693   0.208   4.994   1.313
 4562SOL    EPW18694   0.131   4.995   1.358
 4563SOL      O18695   0.313   5.021   0.084
 4563SOL     H118696   0.285   4.982   0.167
 4563SOL     H218697   0.236   5.018   0.028
 4563SOL    EPW18698   0.302   5.017   0.087
 4564SOL      O18699   5.681   5.292   1.455
 4564SOL     H118700   5.706   5.364   1.513
 4564SOL     H218701   5.604   5.325   1.408
 4564SOL    EPW18702   5.675   5.304   1.456
 4565SOL      O18703   0.089   4.967   1.901
 4565SOL     H118704   0.163   4.994   1.955
 4565SOL     H218705   0.047   4.897   1.950
 4565SOL    EPW18706   0.092   4.962   1.912
 4566SOL      O18707   5.612   5.453   1.835
 4566SOL     H118708   5.669   5.467   1.759
 4566SOL     H218709   5.536   5.509   1.818
 4566SOL    EPW18710   5.610   5.461   1.825
 4567SOL      O18711   5.817   3.810   0.367
 4567SOL     H118712   0.007   3.878   0.360
 4567SOL     H218713   5.860   3.738   0.413
 4567SOL    EPW18714   5.828   3.809   0.371
 4568SOL      O18715   5.714   4.491   1.661
 4568SOL     H118716   5.644   4.449   1.711
 4568SOL     H218717   5.757   4.419   1.615
 4568SOL    EPW18718   5.711   4.479   1.662
 4569SOL      O18719   5.759   4.181   0.684
 4569SOL     H118720   5.770   4.173   0.778
 4569SOL     H218721   5.758   4.090   0.652
 4569SOL    EPW18722   5.760   4.170   0.690
 4570SOL      O18723   0.024   4.690   1.630
 4570SOL     H118724   5.827   4.631   1.643
 4570SOL     H218725   0.090   4.661   1.692
 4570SOL    EPW18726   0.023   4.681   1.638
 4571SOL      O18727   5.869   4.438   0.955
 4571SOL     H118728   5.828   4.435   1.041
 4571SOL     H218729   0.026   4.527   0.948
 4571SOL    EPW18730   5.868   4.447   0.963
 4572SOL      O18731   5.759   4.079   1.625
 4572SOL     H118732   5.673   4.076   1.584
 4572SOL     H218733   5.791   4.168   1.607
 4572SOL    EPW18734   5.754   4.088   1.619
 4573SOL      O18735   5.740   3.756   1.135
 4573SOL     H118736   5.722   3.745   1.042
 4573SOL     H218737   5.835   3.769   1.140
 4573SOL    EPW18738   5.748   3.756   1.126
 4574SOL      O18739   0.100   4.708   3.247
 4574SOL     H118740   0.182   4.731   3.202
 4574SOL     H218741   0.031   4.733   3.186
 4574SOL    EPW18742   0.102   4.713   3.236
 4575SOL      O18743   0.137   4.715   2.873
 4575SOL     H118744   0.057   4.737   2.921
 4575SOL     H218745   0.207   4.736   2.934
 4575SOL    EPW18746   0.136   4.720   2.885
 4576SOL      O18747   5.717   5.532   2.738
 4576SOL     H118748   5.811   5.530   2.722
 4576SOL     H218749   5.689   5.441   2.730
 4576SOL    EPW18750   5.724   5.522   2.736
 4577SOL      O18751   0.063   4.063   2.219
 4577SOL     H118752   0.065   4.044   2.126
 4577SOL     H218753   5.868   4.009   2.253
 4577SOL    EPW18754   0.056   4.055   2.213
 4578SOL      O18755   5.843   4.988   2.233
 4578SOL     H118756   5.775   5.052   2.211
 4578SOL     H218757   5.799   4.928   2.293
 4578SOL    EPW18758   5.831   4.988   2.237
 4579SOL      O18759   5.739   5.331   3.002
 4579SOL     H118760   5.709   5.292   3.084
 4579SOL     H218761   5.704   5.420   3.003
 4579SOL    EPW18762   5.732   5.336   3.011
 4580SOL      O18763   0.171   5.502   2.431
 4580SOL     H118764   0.246   5.445   2.412
 4580SOL     H218765   0.096   5.455   2.394
 4580SOL    EPW18766   0.171   5.491   2.425
 4581SOL      O18767   5.752   5.503   2.064
 4581SOL     H118768   5.831   5.523   2.015
 4581SOL     H218769   5.690   5.471   1.999
 4581SOL    EPW18770   5.753   5.502   2.052
 4582SOL      O18771   5.826   3.999   2.526
 4582SOL     H118772   5.795   3.937   2.460
 4582SOL     H218773   5.746   4.032   2.567
 4582SOL    EPW18774   5.814   3.996   2.523
 4583SOL      O18775   5.753   4.346   3.071
 4583SOL     H118776   5.698   4.422   3.054
 4583SOL     H218777   5.722   4.280   3.009
 4583SOL    EPW18778   5.744   4.347   3.063
 4584SOL      O18779   5.804   5.611   3.440
 4584SOL     H118780   5.718   5.621   3.398
 4584SOL     H218781   5.842   5.533   3.399
 4584SOL    EPW18782   5.799   5.604   3.431
 4585SOL      O18783   5.825   4.817   3.045
 4585SOL     H118784   5.875   4.898   3.031
 4585SOL     H218785   5.739   4.835   3.009
 4585SOL    EPW18786   5.821   4.828   3.040
 4586SOL      O18787   5.773   4.762   2.380
 4586SOL     H118788   5.841   4.694   2.377
 4586SOL     H218789   5.692   4.715   2.360
 4586SOL    EPW18790   5.772   4.750   2.378
 4587SOL      O18791   5.732   5.188   2.488
 4587SOL     H118792   5.695   5.217   2.572
 4587SOL     H218793   5.764   5.100   2.506
 4587SOL    EPW18794   5.732   5.182   2.499
 4588SOL      O18795   0.130   3.891   3.388
 4588SOL     H118796   0.045   3.848   3.397
 4588SOL     H218797   0.124   3.937   3.304
 4588SOL    EPW18798   0.120   3.891   3.380
 4589SOL      O18799   5.860   5.351   2.299
 4589SOL     H118800   5.797   5.375   2.231
 4589SOL     H218801   5.812   5.292   2.357
 4589SOL    EPW18802   5.848   5.347   2.298
 4590SOL      O18803   5.814   4.941   2.582
 4590SOL     H118804   0.029   4.929   2.604
 4590SOL     H218805   5.795   4.870   2.519
 4590SOL    EPW18806   5.821   4.932   2.577
 4591SOL      O18807   5.757   5.129   3.734
 4591SOL     H118808   5.813   5.052   3.727
 4591SOL     H218809   5.706   5.130   3.653
 4591SOL    EPW18810   5.758   5.121   3.725
 4592SOL      O18811   5.649   5.119   3.483
 4592SOL     H118812   5.686   5.046   3.433
 4592SOL     H218813   5.567   5.085   3.518
 4592SOL    EPW18814   5.644   5.107   3.481
 4593SOL      O18815   0.185   4.397   1.984
 4593SOL     H118816   0.103   4.349   1.980
 4593SOL     H218817   0.219   4.377   2.072
 4593SOL    EPW18818   0.180   4.389   1.993
 4594SOL      O18819   5.760   4.917   3.352
 4594SOL     H118820   5.791   4.851   3.414
 4594SOL     H218821   5.694   4.872   3.300
 4594SOL    EPW18822   5.756   4.905   3.353
 4595SOL      O18823   5.661   5.265   2.750
 4595SOL     H118824   5.689   5.272   2.841
 4595SOL     H218825   5.566   5.269   2.753
 4595SOL    EPW18826   5.654   5.267   2.760
 4596SOL      O18827   5.639   4.389   2.242
 4596SOL     H118828   5.620   4.374   2.335
 4596SOL     H218829   5.734   4.383   2.237
 4596SOL    EPW18830   5.647   4.387   2.252
 4597SOL      O18831   0.121   4.043   3.163
 4597SOL     H118832   0.135   4.138   3.162
 4597SOL     H218833   0.078   4.025   3.079
 4597SOL    EPW18834   0.118   4.051   3.154
 4598SOL      O18835   0.324   3.850   2.824
 4598SOL     H118836   0.381   3.775   2.809
 4598SOL     H218837   0.246   3.832   2.772
 4598SOL    EPW18838   0.322   3.840   2.817
 4599SOL      O18839   0.134   5.009   2.966
 4599SOL     H118840   0.208   4.963   3.006
 4599SOL     H218841   0.129   4.973   2.877
 4599SOL    EPW18842   0.141   5.000   2.961
 4600SOL      O18843   0.316   5.056   2.015
 4600SOL     H118844   0.313   4.993   2.087
 4600SOL     H218845   0.279   5.136   2.052
 4600SOL    EPW18846   0.312   5.058   2.027
 4601SOL      O18847   5.671   5.275   3.258
 4601SOL     H118848   5.654   5.220   3.333
 4601SOL     H218849   5.589   5.323   3.245
 4601SOL    EPW18850   5.660   5.275   3.264
 4602SOL      O18851   0.040   4.908   3.721
 4602SOL     H118852   0.134   4.924   3.729
 4602SOL     H218853   0.033   4.846   3.648
 4602SOL    EPW18854   0.050   4.903   3.714
 4603SOL      O18855   5.650   5.544   3.668
 4603SOL     H118856   5.718   5.543   3.601
 4603SOL     H218857   5.644   5.636   3.695
 4603SOL    EPW18858   5.657   5.554   3.664
 4604SOL      O18859   5.786   3.841   2.297
 4604SOL     H118860   5.874   3.804   2.301
 4604SOL     H218861   5.737   3.781   2.241
 4604SOL    EPW18862   5.790   3.830   2.292
 4605SOL      O18863   5.685   4.540   3.535
 4605SOL     H118864   5.637   4.487   3.599
 4605SOL     H218865   5.702   4.480   3.463
 4605SOL    EPW18866   5.682   4.528   3.534
 4606SOL      O18867   5.681   4.324   2.508
 4606SOL     H118868   5.688   4.384   2.582
 4606SOL     H218869   5.653   4.241   2.548
 4606SOL    EPW18870   5.679   4.322   2.520
 4607SOL      O18871   5.593   4.824   1.974
 4607SOL     H118872   5.553   4.860   2.054
 4607SOL     H218873   5.535   4.752   1.949
 4607SOL    EPW18874   5.582   4.821   1.980
 4608SOL      O18875   0.000   4.731   3.514
 4608SOL     H118876   5.815   4.659   3.528
 4608SOL     H218877   0.042   4.709   3.431
 4608SOL    EPW18878   5.875   4.721   3.507
 4609SOL      O18879   0.086   4.459   2.805
 4609SOL     H118880   5.869   4.453   2.789
 4609SOL     H218881   0.103   4.552   2.819
 4609SOL    EPW18882   0.078   4.468   2.804
 4610SOL      O18883   5.776   4.151   3.526
 4610SOL     H118884   5.759   4.216   3.458
 4610SOL     H218885   5.872   4.147   3.532
 4610SOL    EPW18886   5.785   4.158   3.519
 4611SOL      O18887   5.726   3.716   3.105
 4611SOL     H118888   5.660   3.712   3.036
 4611SOL     H218889   5.809   3.723   3.058
 4611SOL    EPW18890   5.728   3.716   3.093
 4612SOL      O18891   5.702   4.012   1.894
 4612SOL     H118892   5.660   4.088   1.934
 4612SOL     H218893   5.713   4.036   1.802
 4612SOL    EPW18894   5.699   4.023   1.888
 4613SOL      O18895   5.656   5.179   2.119
 4613SOL     H118896   5.584   5.241   2.115
 4613SOL     H218897   5.704   5.192   2.037
 4613SOL    EPW18898   5.654   5.187   2.110
 4614SOL      O18899   0.076   4.088   4.035
 4614SOL     H118900   0.080   4.064   3.942
 4614SOL     H218901   0.022   4.020   4.075
 4614SOL    EPW18902   0.071   4.078   4.029
 4615SOL      O18903   5.694   5.496   3.941
 4615SOL     H118904   5.743   5.566   3.985
 4615SOL     H218905   5.715   5.507   3.848
 4615SOL    EPW18906   5.702   5.505   3.936
 4616SOL      O18907   2.852   2.364   0.094
 4616SOL     H118908   2.848   2.331   0.005
 4616SOL     H218909   2.933   2.328   0.130
 4616SOL    EPW18910   2.860   2.357   0.089
 4617SOL      O18911   0.223   4.396   3.890
 4617SOL     H118912   0.134   4.392   3.927
 4617SOL     H218913   0.273   4.333   3.942
 4617SOL    EPW18914   0.219   4.389   3.900
 4618SOL      O18915   5.624   4.271   4.088
 4618SOL     H118916   5.589   4.346   4.135
 4618SOL     H218917   5.595   4.195   4.138
 4618SOL    EPW18918   5.617   4.271   4.098
 4619SOL      O18919   0.309   4.948   3.850
 4619SOL     H118920   0.276   4.877   3.905
 4619SOL     H218921   0.264   5.026   3.882
 4619SOL    EPW18922   0.300   4.949   3.859
 4620SOL      O18923   5.836   3.847   4.101
 4620SOL     H118924   0.050   3.819   4.107
 4620SOL     H218925   2.856   0.869   0.023
 4620SOL    EPW18926   5.841   3.840   4.110
 4621SOL      O18927   5.516   4.785   3.911
 4621SOL     H118928   5.517   4.880   3.922
 4621SOL     H218929   5.452   4.754   3.974
 4621SOL    EPW18930   5.510   4.792   3.919
 4622SOL      O18931   5.689   3.980   3.717
 4622SOL     H118932   5.631   4.033   3.770
 4622SOL     H218933   5.711   4.035   3.642
 4622SOL    EPW18934   5.685   3.991   3.714
 4623SOL      O18935   5.757   5.235   3.979
 4623SOL     H118936   5.736   5.327   3.967
 4623SOL     H218937   5.758   5.199   3.890
 4623SOL    EPW18938   5.755   5.241   3.968
 4624SOL      O18939   5.815   5.722   0.658
 4624SOL     H118940   5.818   5.733   0.563
 4624SOL     H218941   5.723   5.708   0.678
 4624SOL    EPW18942   5.806   5.722   0.650
 4625SOL      O18943   0.177   5.793   1.503
 4625SOL     H118944   0.113   5.853   1.464
 4625SOL     H218945   0.258   5.810   1.455
 4625SOL    EPW18946   0.179   5.801   1.494
 4626SOL      O18947   0.097   0.160   1.331
 4626SOL     H118948   0.091   0.252   1.304
 4626SOL     H218949   0.114   0.112   1.250
 4626SOL    EPW18950   0.098   0.165   1.320
 4627SOL      O18951   0.289   5.655   0.941
 4627SOL     H118952   0.366   5.599   0.929
 4627SOL     H218953   0.277   5.698   0.857
 4627SOL    EPW18954   0.296   5.653   0.931
 4628SOL      O18955   5.834   5.745   0.385
 4628SOL     H118956   0.041   5.701   0.379
 4628SOL     H218957   5.777   5.697   0.325
 4628SOL    EPW18958   5.837   5.735   0.378
 4629SOL      O18959   5.760   0.130   1.622
 4629SOL     H118960   5.690   0.101   1.564
 4629SOL     H218961   5.751   0.225   1.624
 4629SOL    EPW18962   5.751   0.137   1.616
 4630SOL      O18963   5.666   5.627   1.135
 4630SOL     H118964   5.669   5.596   1.045
 4630SOL     H218965   5.756   5.618   1.166
 4630SOL    EPW18966   5.676   5.623   1.129
 4631SOL      O18967   5.784   5.781   2.469
 4631SOL     H118968   5.777   5.762   2.375
 4631SOL     H218969   5.703   5.746   2.506
 4631SOL    EPW18970   5.775   5.775   2.463
 4632SOL      O18971   0.165   5.760   3.437
 4632SOL     H118972   0.075   5.729   3.442
 4632SOL     H218973   0.168   5.810   3.355
 4632SOL    EPW18974   0.156   5.762   3.429
 4633SOL      O18975   0.198   0.057   3.219
 4633SOL     H118976   0.292   0.052   3.203
 4633SOL     H218977   0.158   0.026   3.138
 4633SOL    EPW18978   0.204   0.053   3.209
 4634SOL      O18979   0.264   5.766   2.780
 4634SOL     H118980   0.310   5.682   2.787
 4634SOL     H218981   0.225   5.765   2.692
 4634SOL    EPW18982   0.265   5.757   2.771
 4635SOL      O18983   5.791   5.737   2.199
 4635SOL     H118984   0.009   5.731   2.205
 4635SOL     H218985   5.764   5.656   2.158
 4635SOL    EPW18986   5.798   5.728   2.195
 4636SOL      O18987   5.780   0.087   3.527
 4636SOL     H118988   5.715   0.074   3.458
 4636SOL     H218989   5.739   0.151   3.586
 4636SOL    EPW18990   5.769   0.093   3.526
 4637SOL      O18991   5.678   5.616   2.989
 4637SOL     H118992   5.682   5.594   2.896
 4637SOL     H218993   5.768   5.609   3.019
 4637SOL    EPW18994   5.688   5.613   2.982
 4638SOL      O18995   5.689   0.026   1.867
 4638SOL     H118996   5.672   0.111   1.907
 4638SOL     H218997   5.706   0.046   1.775
 4638SOL    EPW18998   5.689   0.037   1.861
 4639SOL      O18999   5.805   5.690   4.099
 4639SOL     H119000   0.022   5.707   4.106
 4639SOL     H219001   2.845   2.704   0.024
 4639SOL    EPW19002   5.813   5.686   4.108
 4640SOL      O19003   5.690   5.811   3.735
 4640SOL     H119004   5.642   0.004   3.780
 4640SOL     H219005   5.722   5.851   3.655
 4640SOL    EPW19006   5.688   5.822   3.732
 4641MG      MG19007   1.101   0.866   2.764
 4642MG      MG19008   0.065   4.833   1.492
 4643MG      MG19009   0.698   4.663   3.650
 4644MG      MG19010   1.140   5.860   1.074
 4645MG      MG19011   3.254   0.496   2.189
 4646MG      MG19012   2.365   0.533   2.176
 4647MG      MG19013   2.794   0.593   3.220
 4648MG      MG19014   1.757   2.921   0.407
 4649MG      MG19015   3.252   2.208   2.091
 4650MG      MG19016   2.384   4.202   1.061
 4651MG      MG19017   4.453   0.597   3.565
 4652MG      MG19018   0.121   1.094   2.856
 4653CL-    CL-19019   1.522   0.427   1.111
 4654CL-    CL-19020   0.325   2.003   3.910
 4655CL-    CL-19021   1.917   4.893   1.046
 4656CL-    CL-19022   0.356   4.823   3.078
 4657CL-    CL-19023   0.408   0.126   1.130
 4658CL-    CL-19024   5.837   4.223   0.200
 4659CL-    CL-19025   3.136   3.442   3.125
 4660CL-    CL-19026   5.174   2.988   3.511
 4661CL-    CL-19027   4.243   5.808   0.592
   5.87690   5.87690   4.15559   0.00000   0.00000   0.00000   0.00000   2.93845   2.93845
