[ moleculetype ]
;name            nrexcl
 exampleRNA-OH 3

[ atoms ]
;   nr  type  resi  res  atom  cgnr     charge      mass       ; qtot   bond_type
     1   HO     1    A5  HO5'    1     0.429500      1.00800 ; qtot 0.429
     2   OH     1    A5   O5'    2    -0.622300     16.00000 ; qtot -0.193
     3   CI     1    A5   C5'    3     0.055800     12.01000 ; qtot -0.137
     4   H1     1    A5   H5'    4     0.067900      1.00800 ; qtot -0.069
     5   H1     1    A5  H5''    5     0.067900      1.00800 ; qtot -0.001
     6   CT     1    A5   C4'    6     0.106500     12.01000 ; qtot 0.105
     7   H1     1    A5   H4'    7     0.117400      1.00800 ; qtot 0.223
     8   OS     1    A5   O4'    8    -0.354800     16.00000 ; qtot -0.132
     9   CT     1    A5   C1'    9     0.039400     12.01000 ; qtot -0.093
    10   H2     1    A5   H1'   10     0.200700      1.00800 ; qtot 0.108
    11   N*     1    A5    N9   11    -0.025100     14.01000 ; qtot 0.083
    12   C1     1    A5    C8   12     0.200600     12.01000 ; qtot 0.283
    13   H5     1    A5    H8   13     0.155300      1.00800 ; qtot 0.439
    14   NB     1    A5    N7   14    -0.607300     14.01000 ; qtot -0.169
    15   CB     1    A5    C5   15     0.051500     12.01000 ; qtot -0.117
    16   CA     1    A5    C6   16     0.700900     12.01000 ; qtot 0.584
    17   N2     1    A5    N6   17    -0.901900     14.01000 ; qtot -0.318
    18    H     1    A5   H61   18     0.411500      1.00800 ; qtot 0.093
    19    H     1    A5   H62   19     0.411500      1.00800 ; qtot 0.505
    20   NC     1    A5    N1   20    -0.761500     14.01000 ; qtot -0.257
    21   CQ     1    A5    C2   21     0.587500     12.01000 ; qtot 0.331
    22   H5     1    A5    H2   22     0.047300      1.00800 ; qtot 0.378
    23   NC     1    A5    N3   23    -0.699700     14.01000 ; qtot -0.321
    24   CB     1    A5    C4   24     0.305300     12.01000 ; qtot -0.016
    25   CT     1    A5   C3'   25     0.202200     12.01000 ; qtot 0.186
    26   H1     1    A5   H3'   26     0.061500      1.00800 ; qtot 0.248
    27   CT     1    A5   C2'   27     0.067000     12.01000 ; qtot 0.315
    28   H1     1    A5   H2'   28     0.097200      1.00800 ; qtot 0.412
    29   OH     1    A5   O2'   29    -0.613900     16.00000 ; qtot -0.202
    30   HO     1    A5  HO2'   30     0.418600      1.00800 ; qtot 0.216
    31   OS     1    A5   O3'   31    -0.524600     16.00000 ; qtot -0.308
    32    P     2     G     P   32     1.166200     30.97000 ; qtot 0.858
    33   O2     2     G   OP1   33    -0.776000     16.00000 ; qtot 0.082
    34   O2     2     G   OP2   34    -0.776000     16.00000 ; qtot -0.694
    35   OS     2     G   O5'   35    -0.498900     16.00000 ; qtot -1.193
    36   CI     2     G   C5'   36     0.055800     12.01000 ; qtot -1.137
    37   H1     2     G   H5'   37     0.067900      1.00800 ; qtot -1.069
    38   H1     2     G  H5''   38     0.067900      1.00800 ; qtot -1.001
    39   CT     2     G   C4'   39     0.106500     12.01000 ; qtot -0.895
    40   H1     2     G   H4'   40     0.117400      1.00800 ; qtot -0.777
    41   OS     2     G   O4'   41    -0.354800     16.00000 ; qtot -1.132
    42   CT     2     G   C1'   42     0.019100     12.01000 ; qtot -1.113
    43   H2     2     G   H1'   43     0.200600      1.00800 ; qtot -0.912
    44   N*     2     G    N9   44     0.049200     14.01000 ; qtot -0.863
    45   CK     2     G    C8   45     0.137400     12.01000 ; qtot -0.726
    46   H5     2     G    H8   46     0.164000      1.00800 ; qtot -0.562
    47   NB     2     G    N7   47    -0.570900     14.01000 ; qtot -1.133
    48   CB     2     G    C5   48     0.174400     12.01000 ; qtot -0.958
    49    C     2     G    C6   49     0.477000     12.01000 ; qtot -0.481
    50    O     2     G    O6   50    -0.559700     16.00000 ; qtot -1.041
    51   NA     2     G    N1   51    -0.478700     14.01000 ; qtot -1.520
    52    H     2     G    H1   52     0.342400      1.00800 ; qtot -1.177
    53   CA     2     G    C2   53     0.765700     12.01000 ; qtot -0.412
    54   N2     2     G    N2   54    -0.967200     14.01000 ; qtot -1.379
    55    H     2     G   H21   55     0.436400      1.00800 ; qtot -0.942
    56    H     2     G   H22   56     0.436400      1.00800 ; qtot -0.506
    57   NC     2     G    N3   57    -0.632300     14.01000 ; qtot -1.138
    58   CB     2     G    C4   58     0.122200     12.01000 ; qtot -1.016
    59   CT     2     G   C3'   59     0.202200     12.01000 ; qtot -0.814
    60   H1     2     G   H3'   60     0.061500      1.00800 ; qtot -0.752
    61   CT     2     G   C2'   61     0.067000     12.01000 ; qtot -0.685
    62   H1     2     G   H2'   62     0.097200      1.00800 ; qtot -0.588
    63   OH     2     G   O2'   63    -0.613900     16.00000 ; qtot -1.202
    64   HO     2     G  HO2'   64     0.418600      1.00800 ; qtot -0.784
    65   OS     2     G   O3'   65    -0.524600     16.00000 ; qtot -1.308
    66    P     3     C     P   66     1.166200     30.97000 ; qtot -0.142
    67   O2     3     C   OP1   67    -0.776000     16.00000 ; qtot -0.918
    68   O2     3     C   OP2   68    -0.776000     16.00000 ; qtot -1.694
    69   OS     3     C   O5'   69    -0.498900     16.00000 ; qtot -2.193
    70   CI     3     C   C5'   70     0.055800     12.01000 ; qtot -2.137
    71   H1     3     C   H5'   71     0.067900      1.00800 ; qtot -2.069
    72   H1     3     C  H5''   72     0.067900      1.00800 ; qtot -2.001
    73   CT     3     C   C4'   73     0.106500     12.01000 ; qtot -1.895
    74   H1     3     C   H4'   74     0.117400      1.00800 ; qtot -1.777
    75   OS     3     C   O4'   75    -0.354800     16.00000 ; qtot -2.132
    76   CT     3     C   C1'   76     0.006600     12.01000 ; qtot -2.126
    77   H2     3     C   H1'   77     0.202900      1.00800 ; qtot -1.923
    78   N*     3     C    N1   78    -0.048400     14.01000 ; qtot -1.971
    79   CM     3     C    C6   79     0.005300     12.01000 ; qtot -1.966
    80   H4     3     C    H6   80     0.195800      1.00800 ; qtot -1.770
    81   CM     3     C    C5   81    -0.521500     12.01000 ; qtot -2.291
    82   HA     3     C    H5   82     0.192800      1.00800 ; qtot -2.099
    83   CA     3     C    C4   83     0.818500     12.01000 ; qtot -1.280
    84   N2     3     C    N4   84    -0.953000     14.01000 ; qtot -2.233
    85    H     3     C   H41   85     0.423400      1.00800 ; qtot -1.810
    86    H     3     C   H42   86     0.423400      1.00800 ; qtot -1.386
    87   NC     3     C    N3   87    -0.758400     14.01000 ; qtot -2.145
    88    C     3     C    C2   88     0.753800     12.01000 ; qtot -1.391
    89    O     3     C    O2   89    -0.625200     16.00000 ; qtot -2.016
    90   CT     3     C   C3'   90     0.202200     12.01000 ; qtot -1.814
    91   H1     3     C   H3'   91     0.061500      1.00800 ; qtot -1.752
    92   CT     3     C   C2'   92     0.067000     12.01000 ; qtot -1.685
    93   H1     3     C   H2'   93     0.097200      1.00800 ; qtot -1.588
    94   OH     3     C   O2'   94    -0.613900     16.00000 ; qtot -2.202
    95   HO     3     C  HO2'   95     0.418600      1.00800 ; qtot -1.784
    96   OS     3     C   O3'   96    -0.524600     16.00000 ; qtot -2.308
    97    P     4     G     P   97     1.166200     30.97000 ; qtot -1.142
    98   O2     4     G   OP1   98    -0.776000     16.00000 ; qtot -1.918
    99   O2     4     G   OP2   99    -0.776000     16.00000 ; qtot -2.694
   100   OS     4     G   O5'  100    -0.498900     16.00000 ; qtot -3.193
   101   CI     4     G   C5'  101     0.055800     12.01000 ; qtot -3.137
   102   H1     4     G   H5'  102     0.067900      1.00800 ; qtot -3.069
   103   H1     4     G  H5''  103     0.067900      1.00800 ; qtot -3.001
   104   CT     4     G   C4'  104     0.106500     12.01000 ; qtot -2.895
   105   H1     4     G   H4'  105     0.117400      1.00800 ; qtot -2.777
   106   OS     4     G   O4'  106    -0.354800     16.00000 ; qtot -3.132
   107   CT     4     G   C1'  107     0.019100     12.01000 ; qtot -3.113
   108   H2     4     G   H1'  108     0.200600      1.00800 ; qtot -2.912
   109   N*     4     G    N9  109     0.049200     14.01000 ; qtot -2.863
   110   CK     4     G    C8  110     0.137400     12.01000 ; qtot -2.726
   111   H5     4     G    H8  111     0.164000      1.00800 ; qtot -2.562
   112   NB     4     G    N7  112    -0.570900     14.01000 ; qtot -3.133
   113   CB     4     G    C5  113     0.174400     12.01000 ; qtot -2.958
   114    C     4     G    C6  114     0.477000     12.01000 ; qtot -2.481
   115    O     4     G    O6  115    -0.559700     16.00000 ; qtot -3.041
   116   NA     4     G    N1  116    -0.478700     14.01000 ; qtot -3.520
   117    H     4     G    H1  117     0.342400      1.00800 ; qtot -3.177
   118   CA     4     G    C2  118     0.765700     12.01000 ; qtot -2.412
   119   N2     4     G    N2  119    -0.967200     14.01000 ; qtot -3.379
   120    H     4     G   H21  120     0.436400      1.00800 ; qtot -2.942
   121    H     4     G   H22  121     0.436400      1.00800 ; qtot -2.506
   122   NC     4     G    N3  122    -0.632300     14.01000 ; qtot -3.138
   123   CB     4     G    C4  123     0.122200     12.01000 ; qtot -3.016
   124   CT     4     G   C3'  124     0.202200     12.01000 ; qtot -2.814
   125   H1     4     G   H3'  125     0.061500      1.00800 ; qtot -2.752
   126   CT     4     G   C2'  126     0.067000     12.01000 ; qtot -2.685
   127   H1     4     G   H2'  127     0.097200      1.00800 ; qtot -2.588
   128   OH     4     G   O2'  128    -0.613900     16.00000 ; qtot -3.202
   129   HO     4     G  HO2'  129     0.418600      1.00800 ; qtot -2.784
   130   OS     4     G   O3'  130    -0.524600     16.00000 ; qtot -3.308
   131    P     5     C     P  131     1.166200     30.97000 ; qtot -2.142
   132   O2     5     C   OP1  132    -0.776000     16.00000 ; qtot -2.918
   133   O2     5     C   OP2  133    -0.776000     16.00000 ; qtot -3.694
   134   OS     5     C   O5'  134    -0.498900     16.00000 ; qtot -4.193
   135   CI     5     C   C5'  135     0.055800     12.01000 ; qtot -4.137
   136   H1     5     C   H5'  136     0.067900      1.00800 ; qtot -4.069
   137   H1     5     C  H5''  137     0.067900      1.00800 ; qtot -4.001
   138   CT     5     C   C4'  138     0.106500     12.01000 ; qtot -3.895
   139   H1     5     C   H4'  139     0.117400      1.00800 ; qtot -3.777
   140   OS     5     C   O4'  140    -0.354800     16.00000 ; qtot -4.132
   141   CT     5     C   C1'  141     0.006600     12.01000 ; qtot -4.126
   142   H2     5     C   H1'  142     0.202900      1.00800 ; qtot -3.923
   143   N*     5     C    N1  143    -0.048400     14.01000 ; qtot -3.971
   144   CM     5     C    C6  144     0.005300     12.01000 ; qtot -3.966
   145   H4     5     C    H6  145     0.195800      1.00800 ; qtot -3.770
   146   CM     5     C    C5  146    -0.521500     12.01000 ; qtot -4.291
   147   HA     5     C    H5  147     0.192800      1.00800 ; qtot -4.099
   148   CA     5     C    C4  148     0.818500     12.01000 ; qtot -3.280
   149   N2     5     C    N4  149    -0.953000     14.01000 ; qtot -4.233
   150    H     5     C   H41  150     0.423400      1.00800 ; qtot -3.810
   151    H     5     C   H42  151     0.423400      1.00800 ; qtot -3.386
   152   NC     5     C    N3  152    -0.758400     14.01000 ; qtot -4.145
   153    C     5     C    C2  153     0.753800     12.01000 ; qtot -3.391
   154    O     5     C    O2  154    -0.625200     16.00000 ; qtot -4.016
   155   CT     5     C   C3'  155     0.202200     12.01000 ; qtot -3.814
   156   H1     5     C   H3'  156     0.061500      1.00800 ; qtot -3.752
   157   CT     5     C   C2'  157     0.067000     12.01000 ; qtot -3.685
   158   H1     5     C   H2'  158     0.097200      1.00800 ; qtot -3.588
   159   OH     5     C   O2'  159    -0.613900     16.00000 ; qtot -4.202
   160   HO     5     C  HO2'  160     0.418600      1.00800 ; qtot -3.784
   161   OS     5     C   O3'  161    -0.524600     16.00000 ; qtot -4.308
   162    P     6     U     P  162     1.166200     30.97000 ; qtot -3.142
   163   O2     6     U   OP1  163    -0.776000     16.00000 ; qtot -3.918
   164   O2     6     U   OP2  164    -0.776000     16.00000 ; qtot -4.694
   165   OS     6     U   O5'  165    -0.498900     16.00000 ; qtot -5.193
   166   CI     6     U   C5'  166     0.055800     12.01000 ; qtot -5.137
   167   H1     6     U   H5'  167     0.067900      1.00800 ; qtot -5.069
   168   H1     6     U  H5''  168     0.067900      1.00800 ; qtot -5.001
   169   CT     6     U   C4'  169     0.106500     12.01000 ; qtot -4.895
   170   H1     6     U   H4'  170     0.117400      1.00800 ; qtot -4.777
   171   OS     6     U   O4'  171    -0.354800     16.00000 ; qtot -5.132
   172   CT     6     U   C1'  172     0.067400     12.01000 ; qtot -5.065
   173   H2     6     U   H1'  173     0.182400      1.00800 ; qtot -4.882
   174   N*     6     U    N1  174     0.041800     14.01000 ; qtot -4.841
   175   C2     6     U    C6  175    -0.112600     12.01000 ; qtot -4.953
   176   H4     6     U    H6  176     0.218800      1.00800 ; qtot -4.734
   177   C2     6     U    C5  177    -0.363500     12.01000 ; qtot -5.098
   178   HA     6     U    H5  178     0.181100      1.00800 ; qtot -4.917
   179    C     6     U    C4  179     0.595200     12.01000 ; qtot -4.322
   180    O     6     U    O4  180    -0.576100     16.00000 ; qtot -4.898
   181   NA     6     U    N3  181    -0.354900     14.01000 ; qtot -5.253
   182    H     6     U    H3  182     0.315400      1.00800 ; qtot -4.937
   183    C     6     U    C2  183     0.468700     12.01000 ; qtot -4.468
   184    O     6     U    O2  184    -0.547700     16.00000 ; qtot -5.016
   185   CT     6     U   C3'  185     0.202200     12.01000 ; qtot -4.814
   186   H1     6     U   H3'  186     0.061500      1.00800 ; qtot -4.752
   187   CT     6     U   C2'  187     0.067000     12.01000 ; qtot -4.685
   188   H1     6     U   H2'  188     0.097200      1.00800 ; qtot -4.588
   189   OH     6     U   O2'  189    -0.613900     16.00000 ; qtot -5.202
   190   HO     6     U  HO2'  190     0.418600      1.00800 ; qtot -4.784
   191   OS     6     U   O3'  191    -0.524600     16.00000 ; qtot -5.308
   192    P     7     U     P  192     1.166200     30.97000 ; qtot -4.142
   193   O2     7     U   OP1  193    -0.776000     16.00000 ; qtot -4.918
   194   O2     7     U   OP2  194    -0.776000     16.00000 ; qtot -5.694
   195   OS     7     U   O5'  195    -0.498900     16.00000 ; qtot -6.193
   196   CI     7     U   C5'  196     0.055800     12.01000 ; qtot -6.137
   197   H1     7     U   H5'  197     0.067900      1.00800 ; qtot -6.069
   198   H1     7     U  H5''  198     0.067900      1.00800 ; qtot -6.001
   199   CT     7     U   C4'  199     0.106500     12.01000 ; qtot -5.895
   200   H1     7     U   H4'  200     0.117400      1.00800 ; qtot -5.777
   201   OS     7     U   O4'  201    -0.354800     16.00000 ; qtot -6.132
   202   CT     7     U   C1'  202     0.067400     12.01000 ; qtot -6.065
   203   H2     7     U   H1'  203     0.182400      1.00800 ; qtot -5.882
   204   N*     7     U    N1  204     0.041800     14.01000 ; qtot -5.841
   205   C2     7     U    C6  205    -0.112600     12.01000 ; qtot -5.953
   206   H4     7     U    H6  206     0.218800      1.00800 ; qtot -5.734
   207   C2     7     U    C5  207    -0.363500     12.01000 ; qtot -6.098
   208   HA     7     U    H5  208     0.181100      1.00800 ; qtot -5.917
   209    C     7     U    C4  209     0.595200     12.01000 ; qtot -5.322
   210    O     7     U    O4  210    -0.576100     16.00000 ; qtot -5.898
   211   NA     7     U    N3  211    -0.354900     14.01000 ; qtot -6.252
   212    H     7     U    H3  212     0.315400      1.00800 ; qtot -5.937
   213    C     7     U    C2  213     0.468700     12.01000 ; qtot -5.468
   214    O     7     U    O2  214    -0.547700     16.00000 ; qtot -6.016
   215   CT     7     U   C3'  215     0.202200     12.01000 ; qtot -5.814
   216   H1     7     U   H3'  216     0.061500      1.00800 ; qtot -5.752
   217   CT     7     U   C2'  217     0.067000     12.01000 ; qtot -5.685
   218   H1     7     U   H2'  218     0.097200      1.00800 ; qtot -5.588
   219   OH     7     U   O2'  219    -0.613900     16.00000 ; qtot -6.202
   220   HO     7     U  HO2'  220     0.418600      1.00800 ; qtot -5.784
   221   OS     7     U   O3'  221    -0.524600     16.00000 ; qtot -6.308
   222    P     8     U     P  222     1.166200     30.97000 ; qtot -5.142
   223   O2     8     U   OP1  223    -0.776000     16.00000 ; qtot -5.918
   224   O2     8     U   OP2  224    -0.776000     16.00000 ; qtot -6.694
   225   OS     8     U   O5'  225    -0.498900     16.00000 ; qtot -7.193
   226   CI     8     U   C5'  226     0.055800     12.01000 ; qtot -7.137
   227   H1     8     U   H5'  227     0.067900      1.00800 ; qtot -7.069
   228   H1     8     U  H5''  228     0.067900      1.00800 ; qtot -7.001
   229   CT     8     U   C4'  229     0.106500     12.01000 ; qtot -6.895
   230   H1     8     U   H4'  230     0.117400      1.00800 ; qtot -6.777
   231   OS     8     U   O4'  231    -0.354800     16.00000 ; qtot -7.132
   232   CT     8     U   C1'  232     0.067400     12.01000 ; qtot -7.065
   233   H2     8     U   H1'  233     0.182400      1.00800 ; qtot -6.882
   234   N*     8     U    N1  234     0.041800     14.01000 ; qtot -6.840
   235   C2     8     U    C6  235    -0.112600     12.01000 ; qtot -6.953
   236   H4     8     U    H6  236     0.218800      1.00800 ; qtot -6.734
   237   C2     8     U    C5  237    -0.363500     12.01000 ; qtot -7.098
   238   HA     8     U    H5  238     0.181100      1.00800 ; qtot -6.917
   239    C     8     U    C4  239     0.595200     12.01000 ; qtot -6.321
   240    O     8     U    O4  240    -0.576100     16.00000 ; qtot -6.898
   241   NA     8     U    N3  241    -0.354900     14.01000 ; qtot -7.252
   242    H     8     U    H3  242     0.315400      1.00800 ; qtot -6.937
   243    C     8     U    C2  243     0.468700     12.01000 ; qtot -6.468
   244    O     8     U    O2  244    -0.547700     16.00000 ; qtot -7.016
   245   CT     8     U   C3'  245     0.202200     12.01000 ; qtot -6.814
   246   H1     8     U   H3'  246     0.061500      1.00800 ; qtot -6.752
   247   CT     8     U   C2'  247     0.067000     12.01000 ; qtot -6.685
   248   H1     8     U   H2'  248     0.097200      1.00800 ; qtot -6.588
   249   OH     8     U   O2'  249    -0.613900     16.00000 ; qtot -7.202
   250   HO     8     U  HO2'  250     0.418600      1.00800 ; qtot -6.783
   251   OS     8     U   O3'  251    -0.524600     16.00000 ; qtot -7.308
   252    P     9     C     P  252     1.166200     30.97000 ; qtot -6.142
   253   O2     9     C   OP1  253    -0.776000     16.00000 ; qtot -6.918
   254   O2     9     C   OP2  254    -0.776000     16.00000 ; qtot -7.694
   255   OS     9     C   O5'  255    -0.498900     16.00000 ; qtot -8.193
   256   CI     9     C   C5'  256     0.055800     12.01000 ; qtot -8.137
   257   H1     9     C   H5'  257     0.067900      1.00800 ; qtot -8.069
   258   H1     9     C  H5''  258     0.067900      1.00800 ; qtot -8.001
   259   CT     9     C   C4'  259     0.106500     12.01000 ; qtot -7.895
   260   H1     9     C   H4'  260     0.117400      1.00800 ; qtot -7.777
   261   OS     9     C   O4'  261    -0.354800     16.00000 ; qtot -8.132
   262   CT     9     C   C1'  262     0.006600     12.01000 ; qtot -8.125
   263   H2     9     C   H1'  263     0.202900      1.00800 ; qtot -7.923
   264   N*     9     C    N1  264    -0.048400     14.01000 ; qtot -7.971
   265   CM     9     C    C6  265     0.005300     12.01000 ; qtot -7.966
   266   H4     9     C    H6  266     0.195800      1.00800 ; qtot -7.770
   267   CM     9     C    C5  267    -0.521500     12.01000 ; qtot -8.291
   268   HA     9     C    H5  268     0.192800      1.00800 ; qtot -8.099
   269   CA     9     C    C4  269     0.818500     12.01000 ; qtot -7.280
   270   N2     9     C    N4  270    -0.953000     14.01000 ; qtot -8.233
   271    H     9     C   H41  271     0.423400      1.00800 ; qtot -7.810
   272    H     9     C   H42  272     0.423400      1.00800 ; qtot -7.386
   273   NC     9     C    N3  273    -0.758400     14.01000 ; qtot -8.145
   274    C     9     C    C2  274     0.753800     12.01000 ; qtot -7.391
   275    O     9     C    O2  275    -0.625200     16.00000 ; qtot -8.016
   276   CT     9     C   C3'  276     0.202200     12.01000 ; qtot -7.814
   277   H1     9     C   H3'  277     0.061500      1.00800 ; qtot -7.752
   278   CT     9     C   C2'  278     0.067000     12.01000 ; qtot -7.685
   279   H1     9     C   H2'  279     0.097200      1.00800 ; qtot -7.588
   280   OH     9     C   O2'  280    -0.613900     16.00000 ; qtot -8.202
   281   HO     9     C  HO2'  281     0.418600      1.00800 ; qtot -7.783
   282   OS     9     C   O3'  282    -0.524600     16.00000 ; qtot -8.308
   283    P    10     G     P  283     1.166200     30.97000 ; qtot -7.142
   284   O2    10     G   OP1  284    -0.776000     16.00000 ; qtot -7.918
   285   O2    10     G   OP2  285    -0.776000     16.00000 ; qtot -8.694
   286   OS    10     G   O5'  286    -0.498900     16.00000 ; qtot -9.193
   287   CI    10     G   C5'  287     0.055800     12.01000 ; qtot -9.137
   288   H1    10     G   H5'  288     0.067900      1.00800 ; qtot -9.069
   289   H1    10     G  H5''  289     0.067900      1.00800 ; qtot -9.001
   290   CT    10     G   C4'  290     0.106500     12.01000 ; qtot -8.895
   291   H1    10     G   H4'  291     0.117400      1.00800 ; qtot -8.777
   292   OS    10     G   O4'  292    -0.354800     16.00000 ; qtot -9.132
   293   CT    10     G   C1'  293     0.019100     12.01000 ; qtot -9.113
   294   H2    10     G   H1'  294     0.200600      1.00800 ; qtot -8.912
   295   N*    10     G    N9  295     0.049200     14.01000 ; qtot -8.863
   296   CK    10     G    C8  296     0.137400     12.01000 ; qtot -8.726
   297   H5    10     G    H8  297     0.164000      1.00800 ; qtot -8.562
   298   NB    10     G    N7  298    -0.570900     14.01000 ; qtot -9.133
   299   CB    10     G    C5  299     0.174400     12.01000 ; qtot -8.958
   300    C    10     G    C6  300     0.477000     12.01000 ; qtot -8.481
   301    O    10     G    O6  301    -0.559700     16.00000 ; qtot -9.041
   302   NA    10     G    N1  302    -0.478700     14.01000 ; qtot -9.520
   303    H    10     G    H1  303     0.342400      1.00800 ; qtot -9.177
   304   CA    10     G    C2  304     0.765700     12.01000 ; qtot -8.412
   305   N2    10     G    N2  305    -0.967200     14.01000 ; qtot -9.379
   306    H    10     G   H21  306     0.436400      1.00800 ; qtot -8.942
   307    H    10     G   H22  307     0.436400      1.00800 ; qtot -8.506
   308   NC    10     G    N3  308    -0.632300     14.01000 ; qtot -9.138
   309   CB    10     G    C4  309     0.122200     12.01000 ; qtot -9.016
   310   CT    10     G   C3'  310     0.202200     12.01000 ; qtot -8.814
   311   H1    10     G   H3'  311     0.061500      1.00800 ; qtot -8.752
   312   CT    10     G   C2'  312     0.067000     12.01000 ; qtot -8.685
   313   H1    10     G   H2'  313     0.097200      1.00800 ; qtot -8.588
   314   OH    10     G   O2'  314    -0.613900     16.00000 ; qtot -9.202
   315   HO    10     G  HO2'  315     0.418600      1.00800 ; qtot -8.784
   316   OS    10     G   O3'  316    -0.524600     16.00000 ; qtot -9.308
   317    P    11     A     P  317     1.166200     30.97000 ; qtot -8.142
   318   O2    11     A   OP1  318    -0.776000     16.00000 ; qtot -8.918
   319   O2    11     A   OP2  319    -0.776000     16.00000 ; qtot -9.694
   320   OS    11     A   O5'  320    -0.498900     16.00000 ; qtot -10.193
   321   CI    11     A   C5'  321     0.055800     12.01000 ; qtot -10.137
   322   H1    11     A   H5'  322     0.067900      1.00800 ; qtot -10.069
   323   H1    11     A  H5''  323     0.067900      1.00800 ; qtot -10.001
   324   CT    11     A   C4'  324     0.106500     12.01000 ; qtot -9.895
   325   H1    11     A   H4'  325     0.117400      1.00800 ; qtot -9.777
   326   OS    11     A   O4'  326    -0.354800     16.00000 ; qtot -10.132
   327   CT    11     A   C1'  327     0.039400     12.01000 ; qtot -10.093
   328   H2    11     A   H1'  328     0.200700      1.00800 ; qtot -9.892
   329   N*    11     A    N9  329    -0.025100     14.01000 ; qtot -9.917
   330   C1    11     A    C8  330     0.200600     12.01000 ; qtot -9.716
   331   H5    11     A    H8  331     0.155300      1.00800 ; qtot -9.561
   332   NB    11     A    N7  332    -0.607300     14.01000 ; qtot -10.168
   333   CB    11     A    C5  333     0.051500     12.01000 ; qtot -10.117
   334   CA    11     A    C6  334     0.700900     12.01000 ; qtot -9.416
   335   N2    11     A    N6  335    -0.901900     14.01000 ; qtot -10.318
   336    H    11     A   H61  336     0.411500      1.00800 ; qtot -9.906
   337    H    11     A   H62  337     0.411500      1.00800 ; qtot -9.495
   338   NC    11     A    N1  338    -0.761500     14.01000 ; qtot -10.257
   339   CQ    11     A    C2  339     0.587500     12.01000 ; qtot -9.669
   340   H5    11     A    H2  340     0.047300      1.00800 ; qtot -9.622
   341   NC    11     A    N3  341    -0.699700     14.01000 ; qtot -10.321
   342   CB    11     A    C4  342     0.305300     12.01000 ; qtot -10.016
   343   CT    11     A   C3'  343     0.202200     12.01000 ; qtot -9.814
   344   H1    11     A   H3'  344     0.061500      1.00800 ; qtot -9.752
   345   CT    11     A   C2'  345     0.067000     12.01000 ; qtot -9.685
   346   H1    11     A   H2'  346     0.097200      1.00800 ; qtot -9.588
   347   OH    11     A   O2'  347    -0.613900     16.00000 ; qtot -10.202
   348   HO    11     A  HO2'  348     0.418600      1.00800 ; qtot -9.784
   349   OS    11     A   O3'  349    -0.524600     16.00000 ; qtot -10.308
   350    P    12     G     P  350     1.166200     30.97000 ; qtot -9.142
   351   O2    12     G   OP1  351    -0.776000     16.00000 ; qtot -9.918
   352   O2    12     G   OP2  352    -0.776000     16.00000 ; qtot -10.694
   353   OS    12     G   O5'  353    -0.498900     16.00000 ; qtot -11.193
   354   CI    12     G   C5'  354     0.055800     12.01000 ; qtot -11.137
   355   H1    12     G   H5'  355     0.067900      1.00800 ; qtot -11.069
   356   H1    12     G  H5''  356     0.067900      1.00800 ; qtot -11.001
   357   CT    12     G   C4'  357     0.106500     12.01000 ; qtot -10.895
   358   H1    12     G   H4'  358     0.117400      1.00800 ; qtot -10.777
   359   OS    12     G   O4'  359    -0.354800     16.00000 ; qtot -11.132
   360   CT    12     G   C1'  360     0.019100     12.01000 ; qtot -11.113
   361   H2    12     G   H1'  361     0.200600      1.00800 ; qtot -10.912
   362   N*    12     G    N9  362     0.049200     14.01000 ; qtot -10.863
   363   CK    12     G    C8  363     0.137400     12.01000 ; qtot -10.726
   364   H5    12     G    H8  364     0.164000      1.00800 ; qtot -10.562
   365   NB    12     G    N7  365    -0.570900     14.01000 ; qtot -11.133
   366   CB    12     G    C5  366     0.174400     12.01000 ; qtot -10.958
   367    C    12     G    C6  367     0.477000     12.01000 ; qtot -10.481
   368    O    12     G    O6  368    -0.559700     16.00000 ; qtot -11.041
   369   NA    12     G    N1  369    -0.478700     14.01000 ; qtot -11.520
   370    H    12     G    H1  370     0.342400      1.00800 ; qtot -11.177
   371   CA    12     G    C2  371     0.765700     12.01000 ; qtot -10.412
   372   N2    12     G    N2  372    -0.967200     14.01000 ; qtot -11.379
   373    H    12     G   H21  373     0.436400      1.00800 ; qtot -10.942
   374    H    12     G   H22  374     0.436400      1.00800 ; qtot -10.506
   375   NC    12     G    N3  375    -0.632300     14.01000 ; qtot -11.138
   376   CB    12     G    C4  376     0.122200     12.01000 ; qtot -11.016
   377   CT    12     G   C3'  377     0.202200     12.01000 ; qtot -10.814
   378   H1    12     G   H3'  378     0.061500      1.00800 ; qtot -10.752
   379   CT    12     G   C2'  379     0.067000     12.01000 ; qtot -10.685
   380   H1    12     G   H2'  380     0.097200      1.00800 ; qtot -10.588
   381   OH    12     G   O2'  381    -0.613900     16.00000 ; qtot -11.202
   382   HO    12     G  HO2'  382     0.418600      1.00800 ; qtot -10.784
   383   OS    12     G   O3'  383    -0.524600     16.00000 ; qtot -11.308
   384    P    13     C     P  384     1.166200     30.97000 ; qtot -10.142
   385   O2    13     C   OP1  385    -0.776000     16.00000 ; qtot -10.918
   386   O2    13     C   OP2  386    -0.776000     16.00000 ; qtot -11.694
   387   OS    13     C   O5'  387    -0.498900     16.00000 ; qtot -12.193
   388   CI    13     C   C5'  388     0.055800     12.01000 ; qtot -12.137
   389   H1    13     C   H5'  389     0.067900      1.00800 ; qtot -12.069
   390   H1    13     C  H5''  390     0.067900      1.00800 ; qtot -12.001
   391   CT    13     C   C4'  391     0.106500     12.01000 ; qtot -11.895
   392   H1    13     C   H4'  392     0.117400      1.00800 ; qtot -11.777
   393   OS    13     C   O4'  393    -0.354800     16.00000 ; qtot -12.132
   394   CT    13     C   C1'  394     0.006600     12.01000 ; qtot -12.126
   395   H2    13     C   H1'  395     0.202900      1.00800 ; qtot -11.923
   396   N*    13     C    N1  396    -0.048400     14.01000 ; qtot -11.971
   397   CM    13     C    C6  397     0.005300     12.01000 ; qtot -11.966
   398   H4    13     C    H6  398     0.195800      1.00800 ; qtot -11.770
   399   CM    13     C    C5  399    -0.521500     12.01000 ; qtot -12.291
   400   HA    13     C    H5  400     0.192800      1.00800 ; qtot -12.099
   401   CA    13     C    C4  401     0.818500     12.01000 ; qtot -11.280
   402   N2    13     C    N4  402    -0.953000     14.01000 ; qtot -12.233
   403    H    13     C   H41  403     0.423400      1.00800 ; qtot -11.810
   404    H    13     C   H42  404     0.423400      1.00800 ; qtot -11.386
   405   NC    13     C    N3  405    -0.758400     14.01000 ; qtot -12.145
   406    C    13     C    C2  406     0.753800     12.01000 ; qtot -11.391
   407    O    13     C    O2  407    -0.625200     16.00000 ; qtot -12.016
   408   CT    13     C   C3'  408     0.202200     12.01000 ; qtot -11.814
   409   H1    13     C   H3'  409     0.061500      1.00800 ; qtot -11.752
   410   CT    13     C   C2'  410     0.067000     12.01000 ; qtot -11.685
   411   H1    13     C   H2'  411     0.097200      1.00800 ; qtot -11.588
   412   OH    13     C   O2'  412    -0.613900     16.00000 ; qtot -12.202
   413   HO    13     C  HO2'  413     0.418600      1.00800 ; qtot -11.784
   414   OS    13     C   O3'  414    -0.524600     16.00000 ; qtot -12.308
   415    P    14     G     P  415     1.166200     30.97000 ; qtot -11.142
   416   O2    14     G   OP1  416    -0.776000     16.00000 ; qtot -11.918
   417   O2    14     G   OP2  417    -0.776000     16.00000 ; qtot -12.694
   418   OS    14     G   O5'  418    -0.498900     16.00000 ; qtot -13.193
   419   CI    14     G   C5'  419     0.055800     12.01000 ; qtot -13.137
   420   H1    14     G   H5'  420     0.067900      1.00800 ; qtot -13.069
   421   H1    14     G  H5''  421     0.067900      1.00800 ; qtot -13.001
   422   CT    14     G   C4'  422     0.106500     12.01000 ; qtot -12.895
   423   H1    14     G   H4'  423     0.117400      1.00800 ; qtot -12.777
   424   OS    14     G   O4'  424    -0.354800     16.00000 ; qtot -13.132
   425   CT    14     G   C1'  425     0.019100     12.01000 ; qtot -13.113
   426   H2    14     G   H1'  426     0.200600      1.00800 ; qtot -12.912
   427   N*    14     G    N9  427     0.049200     14.01000 ; qtot -12.863
   428   CK    14     G    C8  428     0.137400     12.01000 ; qtot -12.726
   429   H5    14     G    H8  429     0.164000      1.00800 ; qtot -12.562
   430   NB    14     G    N7  430    -0.570900     14.01000 ; qtot -13.133
   431   CB    14     G    C5  431     0.174400     12.01000 ; qtot -12.958
   432    C    14     G    C6  432     0.477000     12.01000 ; qtot -12.481
   433    O    14     G    O6  433    -0.559700     16.00000 ; qtot -13.041
   434   NA    14     G    N1  434    -0.478700     14.01000 ; qtot -13.520
   435    H    14     G    H1  435     0.342400      1.00800 ; qtot -13.177
   436   CA    14     G    C2  436     0.765700     12.01000 ; qtot -12.412
   437   N2    14     G    N2  437    -0.967200     14.01000 ; qtot -13.379
   438    H    14     G   H21  438     0.436400      1.00800 ; qtot -12.942
   439    H    14     G   H22  439     0.436400      1.00800 ; qtot -12.506
   440   NC    14     G    N3  440    -0.632300     14.01000 ; qtot -13.138
   441   CB    14     G    C4  441     0.122200     12.01000 ; qtot -13.016
   442   CT    14     G   C3'  442     0.202200     12.01000 ; qtot -12.814
   443   H1    14     G   H3'  443     0.061500      1.00800 ; qtot -12.752
   444   CT    14     G   C2'  444     0.067000     12.01000 ; qtot -12.685
   445   H1    14     G   H2'  445     0.097200      1.00800 ; qtot -12.588
   446   OH    14     G   O2'  446    -0.613900     16.00000 ; qtot -13.202
   447   HO    14     G  HO2'  447     0.418600      1.00800 ; qtot -12.784
   448   OS    14     G   O3'  448    -0.524600     16.00000 ; qtot -13.308
   449    P    15     C     P  449     1.166200     30.97000 ; qtot -12.142
   450   O2    15     C   OP1  450    -0.776000     16.00000 ; qtot -12.918
   451   O2    15     C   OP2  451    -0.776000     16.00000 ; qtot -13.694
   452   OS    15     C   O5'  452    -0.498900     16.00000 ; qtot -14.193
   453   CI    15     C   C5'  453     0.055800     12.01000 ; qtot -14.137
   454   H1    15     C   H5'  454     0.067900      1.00800 ; qtot -14.069
   455   H1    15     C  H5''  455     0.067900      1.00800 ; qtot -14.001
   456   CT    15     C   C4'  456     0.106500     12.01000 ; qtot -13.895
   457   H1    15     C   H4'  457     0.117400      1.00800 ; qtot -13.777
   458   OS    15     C   O4'  458    -0.354800     16.00000 ; qtot -14.132
   459   CT    15     C   C1'  459     0.006600     12.01000 ; qtot -14.126
   460   H2    15     C   H1'  460     0.202900      1.00800 ; qtot -13.923
   461   N*    15     C    N1  461    -0.048400     14.01000 ; qtot -13.971
   462   CM    15     C    C6  462     0.005300     12.01000 ; qtot -13.966
   463   H4    15     C    H6  463     0.195800      1.00800 ; qtot -13.770
   464   CM    15     C    C5  464    -0.521500     12.01000 ; qtot -14.291
   465   HA    15     C    H5  465     0.192800      1.00800 ; qtot -14.099
   466   CA    15     C    C4  466     0.818500     12.01000 ; qtot -13.280
   467   N2    15     C    N4  467    -0.953000     14.01000 ; qtot -14.233
   468    H    15     C   H41  468     0.423400      1.00800 ; qtot -13.810
   469    H    15     C   H42  469     0.423400      1.00800 ; qtot -13.386
   470   NC    15     C    N3  470    -0.758400     14.01000 ; qtot -14.145
   471    C    15     C    C2  471     0.753800     12.01000 ; qtot -13.391
   472    O    15     C    O2  472    -0.625200     16.00000 ; qtot -14.016
   473   CT    15     C   C3'  473     0.202200     12.01000 ; qtot -13.814
   474   H1    15     C   H3'  474     0.061500      1.00800 ; qtot -13.752
   475   CT    15     C   C2'  475     0.067000     12.01000 ; qtot -13.685
   476   H1    15     C   H2'  476     0.097200      1.00800 ; qtot -13.588
   477   OH    15     C   O2'  477    -0.613900     16.00000 ; qtot -14.202
   478   HO    15     C  HO2'  478     0.418600      1.00800 ; qtot -13.784
   479   OS    15     C   O3'  479    -0.524600     16.00000 ; qtot -14.308
   480    P    16    U3     P  480     1.166200     30.97000 ; qtot -13.142
   481   O2    16    U3   OP1  481    -0.776000     16.00000 ; qtot -13.918
   482   O2    16    U3   OP2  482    -0.776000     16.00000 ; qtot -14.694
   483   OS    16    U3   O5'  483    -0.498900     16.00000 ; qtot -15.193
   484   CI    16    U3   C5'  484     0.055800     12.01000 ; qtot -15.137
   485   H1    16    U3   H5'  485     0.067900      1.00800 ; qtot -15.069
   486   H1    16    U3  H5''  486     0.067900      1.00800 ; qtot -15.001
   487   CT    16    U3   C4'  487     0.106500     12.01000 ; qtot -14.895
   488   H1    16    U3   H4'  488     0.117400      1.00800 ; qtot -14.777
   489   OS    16    U3   O4'  489    -0.354800     16.00000 ; qtot -15.132
   490   CT    16    U3   C1'  490     0.067400     12.01000 ; qtot -15.065
   491   H2    16    U3   H1'  491     0.182400      1.00800 ; qtot -14.882
   492   N*    16    U3    N1  492     0.041800     14.01000 ; qtot -14.841
   493   C2    16    U3    C6  493    -0.112600     12.01000 ; qtot -14.953
   494   H4    16    U3    H6  494     0.218800      1.00800 ; qtot -14.734
   495   C2    16    U3    C5  495    -0.363500     12.01000 ; qtot -15.098
   496   HA    16    U3    H5  496     0.181100      1.00800 ; qtot -14.917
   497    C    16    U3    C4  497     0.595200     12.01000 ; qtot -14.322
   498    O    16    U3    O4  498    -0.576100     16.00000 ; qtot -14.898
   499   NA    16    U3    N3  499    -0.354900     14.01000 ; qtot -15.253
   500    H    16    U3    H3  500     0.315400      1.00800 ; qtot -14.937
   501    C    16    U3    C2  501     0.468700     12.01000 ; qtot -14.468
   502    O    16    U3    O2  502    -0.547700     16.00000 ; qtot -15.016
   503   CT    16    U3   C3'  503     0.202200     12.01000 ; qtot -14.814
   504   H1    16    U3   H3'  504     0.061500      1.00800 ; qtot -14.752
   505   CT    16    U3   C2'  505     0.067000     12.01000 ; qtot -14.685
   506   H1    16    U3   H2'  506     0.097200      1.00800 ; qtot -14.588
   507   OH    16    U3   O2'  507    -0.613900     16.00000 ; qtot -15.202
   508   HO    16    U3  HO2'  508     0.418600      1.00800 ; qtot -14.784
   509   OH    16    U3   O3'  509    -0.654100     16.00000 ; qtot -15.438
   510   HO    16    U3  HO3'  510     0.437600      1.00800 ; qtot -15.000

[ bonds ]
;   ai     aj funct   r             k
     1      2   1    9.6000e-02    4.6275e+05 ;   HO5' - O5'   
     2      3   1    1.4100e-01    2.6778e+05 ;    O5' - C5'   
     3      4   1    1.0900e-01    2.8451e+05 ;    C5' - H5'   
     3      5   1    1.0900e-01    2.8451e+05 ;    C5' - H5''  
     3      6   1    1.5260e-01    2.5941e+05 ;    C5' - C4'   
     6      7   1    1.0900e-01    2.8451e+05 ;    C4' - H4'   
     6      8   1    1.4100e-01    2.6778e+05 ;    C4' - O4'   
     6     25   1    1.5260e-01    2.5941e+05 ;    C4' - C3'   
     8      9   1    1.4100e-01    2.6778e+05 ;    O4' - C1'   
     9     10   1    1.0900e-01    2.8451e+05 ;    C1' - H1'   
     9     11   1    1.4750e-01    2.8200e+05 ;    C1' - N9    
     9     27   1    1.5260e-01    2.5941e+05 ;    C1' - C2'   
    11     12   1    1.3710e-01    3.6819e+05 ;     N9 - C8    
    11     24   1    1.3740e-01    3.6484e+05 ;     N9 - C4    
    12     13   1    1.0800e-01    3.0711e+05 ;     C8 - H8    
    12     14   1    1.3040e-01    4.4267e+05 ;     C8 - N7    
    14     15   1    1.3910e-01    3.4644e+05 ;     N7 - C5    
    15     16   1    1.4040e-01    3.9246e+05 ;     C5 - C6    
    15     24   1    1.3700e-01    4.3514e+05 ;     C5 - C4    
    16     17   1    1.3400e-01    4.0250e+05 ;     C6 - N6    
    16     20   1    1.3390e-01    4.0417e+05 ;     C6 - N1    
    17     18   1    1.0100e-01    3.6317e+05 ;     N6 - H61   
    17     19   1    1.0100e-01    3.6317e+05 ;     N6 - H62   
    20     21   1    1.3240e-01    4.2007e+05 ;     N1 - C2    
    21     22   1    1.0800e-01    3.0711e+05 ;     C2 - H2    
    21     23   1    1.3240e-01    4.2007e+05 ;     C2 - N3    
    23     24   1    1.3540e-01    3.8576e+05 ;     N3 - C4    
    25     26   1    1.0900e-01    2.8451e+05 ;    C3' - H3'   
    25     27   1    1.5260e-01    2.5941e+05 ;    C3' - C2'   
    25     31   1    1.4100e-01    2.6778e+05 ;    C3' - O3'   
    27     28   1    1.0900e-01    2.8451e+05 ;    C2' - H2'   
    27     29   1    1.4100e-01    2.6778e+05 ;    C2' - O2'   
    29     30   1    9.6000e-02    4.6275e+05 ;    O2' - HO2'  
    31     32   1    1.6100e-01    1.9246e+05 ;    O3' - P     
    32     33   1    1.4800e-01    4.3932e+05 ;      P - OP1   
    32     34   1    1.4800e-01    4.3932e+05 ;      P - OP2   
    32     35   1    1.6100e-01    1.9246e+05 ;      P - O5'   
    35     36   1    1.4100e-01    2.6778e+05 ;    O5' - C5'   
    36     37   1    1.0900e-01    2.8451e+05 ;    C5' - H5'   
    36     38   1    1.0900e-01    2.8451e+05 ;    C5' - H5''  
    36     39   1    1.5260e-01    2.5941e+05 ;    C5' - C4'   
    39     40   1    1.0900e-01    2.8451e+05 ;    C4' - H4'   
    39     41   1    1.4100e-01    2.6778e+05 ;    C4' - O4'   
    39     59   1    1.5260e-01    2.5941e+05 ;    C4' - C3'   
    41     42   1    1.4100e-01    2.6778e+05 ;    O4' - C1'   
    42     43   1    1.0900e-01    2.8451e+05 ;    C1' - H1'   
    42     44   1    1.4750e-01    2.8200e+05 ;    C1' - N9    
    42     61   1    1.5260e-01    2.5941e+05 ;    C1' - C2'   
    44     45   1    1.3710e-01    3.6819e+05 ;     N9 - C8    
    44     58   1    1.3740e-01    3.6484e+05 ;     N9 - C4    
    45     46   1    1.0800e-01    3.0711e+05 ;     C8 - H8    
    45     47   1    1.3040e-01    4.4267e+05 ;     C8 - N7    
    47     48   1    1.3910e-01    3.4644e+05 ;     N7 - C5    
    48     49   1    1.4190e-01    3.7405e+05 ;     C5 - C6    
    48     58   1    1.3700e-01    4.3514e+05 ;     C5 - C4    
    49     50   1    1.2290e-01    4.7698e+05 ;     C6 - O6    
    49     51   1    1.3880e-01    3.4978e+05 ;     C6 - N1    
    51     52   1    1.0100e-01    3.6317e+05 ;     N1 - H1    
    51     53   1    1.3810e-01    3.5731e+05 ;     N1 - C2    
    53     54   1    1.3400e-01    4.0250e+05 ;     C2 - N2    
    53     57   1    1.3390e-01    4.0417e+05 ;     C2 - N3    
    54     55   1    1.0100e-01    3.6317e+05 ;     N2 - H21   
    54     56   1    1.0100e-01    3.6317e+05 ;     N2 - H22   
    57     58   1    1.3540e-01    3.8576e+05 ;     N3 - C4    
    59     60   1    1.0900e-01    2.8451e+05 ;    C3' - H3'   
    59     61   1    1.5260e-01    2.5941e+05 ;    C3' - C2'   
    59     65   1    1.4100e-01    2.6778e+05 ;    C3' - O3'   
    61     62   1    1.0900e-01    2.8451e+05 ;    C2' - H2'   
    61     63   1    1.4100e-01    2.6778e+05 ;    C2' - O2'   
    63     64   1    9.6000e-02    4.6275e+05 ;    O2' - HO2'  
    65     66   1    1.6100e-01    1.9246e+05 ;    O3' - P     
    66     67   1    1.4800e-01    4.3932e+05 ;      P - OP1   
    66     68   1    1.4800e-01    4.3932e+05 ;      P - OP2   
    66     69   1    1.6100e-01    1.9246e+05 ;      P - O5'   
    69     70   1    1.4100e-01    2.6778e+05 ;    O5' - C5'   
    70     71   1    1.0900e-01    2.8451e+05 ;    C5' - H5'   
    70     72   1    1.0900e-01    2.8451e+05 ;    C5' - H5''  
    70     73   1    1.5260e-01    2.5941e+05 ;    C5' - C4'   
    73     74   1    1.0900e-01    2.8451e+05 ;    C4' - H4'   
    73     75   1    1.4100e-01    2.6778e+05 ;    C4' - O4'   
    73     90   1    1.5260e-01    2.5941e+05 ;    C4' - C3'   
    75     76   1    1.4100e-01    2.6778e+05 ;    O4' - C1'   
    76     77   1    1.0900e-01    2.8451e+05 ;    C1' - H1'   
    76     78   1    1.4750e-01    2.8200e+05 ;    C1' - N1    
    76     92   1    1.5260e-01    2.5941e+05 ;    C1' - C2'   
    78     79   1    1.3650e-01    3.7489e+05 ;     N1 - C6    
    78     88   1    1.3830e-01    3.5480e+05 ;     N1 - C2    
    79     80   1    1.0800e-01    3.0711e+05 ;     C6 - H6    
    79     81   1    1.3500e-01    4.5940e+05 ;     C6 - C5    
    81     82   1    1.0800e-01    3.0711e+05 ;     C5 - H5    
    81     83   1    1.4330e-01    3.5731e+05 ;     C5 - C4    
    83     84   1    1.3400e-01    4.0250e+05 ;     C4 - N4    
    83     87   1    1.3390e-01    4.0417e+05 ;     C4 - N3    
    84     85   1    1.0100e-01    3.6317e+05 ;     N4 - H41   
    84     86   1    1.0100e-01    3.6317e+05 ;     N4 - H42   
    87     88   1    1.3580e-01    3.8242e+05 ;     N3 - C2    
    88     89   1    1.2290e-01    4.7698e+05 ;     C2 - O2    
    90     91   1    1.0900e-01    2.8451e+05 ;    C3' - H3'   
    90     92   1    1.5260e-01    2.5941e+05 ;    C3' - C2'   
    90     96   1    1.4100e-01    2.6778e+05 ;    C3' - O3'   
    92     93   1    1.0900e-01    2.8451e+05 ;    C2' - H2'   
    92     94   1    1.4100e-01    2.6778e+05 ;    C2' - O2'   
    94     95   1    9.6000e-02    4.6275e+05 ;    O2' - HO2'  
    96     97   1    1.6100e-01    1.9246e+05 ;    O3' - P     
    97     98   1    1.4800e-01    4.3932e+05 ;      P - OP1   
    97     99   1    1.4800e-01    4.3932e+05 ;      P - OP2   
    97    100   1    1.6100e-01    1.9246e+05 ;      P - O5'   
   100    101   1    1.4100e-01    2.6778e+05 ;    O5' - C5'   
   101    102   1    1.0900e-01    2.8451e+05 ;    C5' - H5'   
   101    103   1    1.0900e-01    2.8451e+05 ;    C5' - H5''  
   101    104   1    1.5260e-01    2.5941e+05 ;    C5' - C4'   
   104    105   1    1.0900e-01    2.8451e+05 ;    C4' - H4'   
   104    106   1    1.4100e-01    2.6778e+05 ;    C4' - O4'   
   104    124   1    1.5260e-01    2.5941e+05 ;    C4' - C3'   
   106    107   1    1.4100e-01    2.6778e+05 ;    O4' - C1'   
   107    108   1    1.0900e-01    2.8451e+05 ;    C1' - H1'   
   107    109   1    1.4750e-01    2.8200e+05 ;    C1' - N9    
   107    126   1    1.5260e-01    2.5941e+05 ;    C1' - C2'   
   109    110   1    1.3710e-01    3.6819e+05 ;     N9 - C8    
   109    123   1    1.3740e-01    3.6484e+05 ;     N9 - C4    
   110    111   1    1.0800e-01    3.0711e+05 ;     C8 - H8    
   110    112   1    1.3040e-01    4.4267e+05 ;     C8 - N7    
   112    113   1    1.3910e-01    3.4644e+05 ;     N7 - C5    
   113    114   1    1.4190e-01    3.7405e+05 ;     C5 - C6    
   113    123   1    1.3700e-01    4.3514e+05 ;     C5 - C4    
   114    115   1    1.2290e-01    4.7698e+05 ;     C6 - O6    
   114    116   1    1.3880e-01    3.4978e+05 ;     C6 - N1    
   116    117   1    1.0100e-01    3.6317e+05 ;     N1 - H1    
   116    118   1    1.3810e-01    3.5731e+05 ;     N1 - C2    
   118    119   1    1.3400e-01    4.0250e+05 ;     C2 - N2    
   118    122   1    1.3390e-01    4.0417e+05 ;     C2 - N3    
   119    120   1    1.0100e-01    3.6317e+05 ;     N2 - H21   
   119    121   1    1.0100e-01    3.6317e+05 ;     N2 - H22   
   122    123   1    1.3540e-01    3.8576e+05 ;     N3 - C4    
   124    125   1    1.0900e-01    2.8451e+05 ;    C3' - H3'   
   124    126   1    1.5260e-01    2.5941e+05 ;    C3' - C2'   
   124    130   1    1.4100e-01    2.6778e+05 ;    C3' - O3'   
   126    127   1    1.0900e-01    2.8451e+05 ;    C2' - H2'   
   126    128   1    1.4100e-01    2.6778e+05 ;    C2' - O2'   
   128    129   1    9.6000e-02    4.6275e+05 ;    O2' - HO2'  
   130    131   1    1.6100e-01    1.9246e+05 ;    O3' - P     
   131    132   1    1.4800e-01    4.3932e+05 ;      P - OP1   
   131    133   1    1.4800e-01    4.3932e+05 ;      P - OP2   
   131    134   1    1.6100e-01    1.9246e+05 ;      P - O5'   
   134    135   1    1.4100e-01    2.6778e+05 ;    O5' - C5'   
   135    136   1    1.0900e-01    2.8451e+05 ;    C5' - H5'   
   135    137   1    1.0900e-01    2.8451e+05 ;    C5' - H5''  
   135    138   1    1.5260e-01    2.5941e+05 ;    C5' - C4'   
   138    139   1    1.0900e-01    2.8451e+05 ;    C4' - H4'   
   138    140   1    1.4100e-01    2.6778e+05 ;    C4' - O4'   
   138    155   1    1.5260e-01    2.5941e+05 ;    C4' - C3'   
   140    141   1    1.4100e-01    2.6778e+05 ;    O4' - C1'   
   141    142   1    1.0900e-01    2.8451e+05 ;    C1' - H1'   
   141    143   1    1.4750e-01    2.8200e+05 ;    C1' - N1    
   141    157   1    1.5260e-01    2.5941e+05 ;    C1' - C2'   
   143    144   1    1.3650e-01    3.7489e+05 ;     N1 - C6    
   143    153   1    1.3830e-01    3.5480e+05 ;     N1 - C2    
   144    145   1    1.0800e-01    3.0711e+05 ;     C6 - H6    
   144    146   1    1.3500e-01    4.5940e+05 ;     C6 - C5    
   146    147   1    1.0800e-01    3.0711e+05 ;     C5 - H5    
   146    148   1    1.4330e-01    3.5731e+05 ;     C5 - C4    
   148    149   1    1.3400e-01    4.0250e+05 ;     C4 - N4    
   148    152   1    1.3390e-01    4.0417e+05 ;     C4 - N3    
   149    150   1    1.0100e-01    3.6317e+05 ;     N4 - H41   
   149    151   1    1.0100e-01    3.6317e+05 ;     N4 - H42   
   152    153   1    1.3580e-01    3.8242e+05 ;     N3 - C2    
   153    154   1    1.2290e-01    4.7698e+05 ;     C2 - O2    
   155    156   1    1.0900e-01    2.8451e+05 ;    C3' - H3'   
   155    157   1    1.5260e-01    2.5941e+05 ;    C3' - C2'   
   155    161   1    1.4100e-01    2.6778e+05 ;    C3' - O3'   
   157    158   1    1.0900e-01    2.8451e+05 ;    C2' - H2'   
   157    159   1    1.4100e-01    2.6778e+05 ;    C2' - O2'   
   159    160   1    9.6000e-02    4.6275e+05 ;    O2' - HO2'  
   161    162   1    1.6100e-01    1.9246e+05 ;    O3' - P     
   162    163   1    1.4800e-01    4.3932e+05 ;      P - OP1   
   162    164   1    1.4800e-01    4.3932e+05 ;      P - OP2   
   162    165   1    1.6100e-01    1.9246e+05 ;      P - O5'   
   165    166   1    1.4100e-01    2.6778e+05 ;    O5' - C5'   
   166    167   1    1.0900e-01    2.8451e+05 ;    C5' - H5'   
   166    168   1    1.0900e-01    2.8451e+05 ;    C5' - H5''  
   166    169   1    1.5260e-01    2.5941e+05 ;    C5' - C4'   
   169    170   1    1.0900e-01    2.8451e+05 ;    C4' - H4'   
   169    171   1    1.4100e-01    2.6778e+05 ;    C4' - O4'   
   169    185   1    1.5260e-01    2.5941e+05 ;    C4' - C3'   
   171    172   1    1.4100e-01    2.6778e+05 ;    O4' - C1'   
   172    173   1    1.0900e-01    2.8451e+05 ;    C1' - H1'   
   172    174   1    1.4750e-01    2.8200e+05 ;    C1' - N1    
   172    187   1    1.5260e-01    2.5941e+05 ;    C1' - C2'   
   174    175   1    1.3650e-01    3.7489e+05 ;     N1 - C6    
   174    183   1    1.3830e-01    3.5480e+05 ;     N1 - C2    
   175    176   1    1.0800e-01    3.0711e+05 ;     C6 - H6    
   175    177   1    1.3500e-01    4.5940e+05 ;     C6 - C5    
   177    178   1    1.0800e-01    3.0711e+05 ;     C5 - H5    
   177    179   1    1.4440e-01    3.4309e+05 ;     C5 - C4    
   179    180   1    1.2290e-01    4.7698e+05 ;     C4 - O4    
   179    181   1    1.3880e-01    3.4978e+05 ;     C4 - N3    
   181    182   1    1.0100e-01    3.6317e+05 ;     N3 - H3    
   181    183   1    1.3880e-01    3.4978e+05 ;     N3 - C2    
   183    184   1    1.2290e-01    4.7698e+05 ;     C2 - O2    
   185    186   1    1.0900e-01    2.8451e+05 ;    C3' - H3'   
   185    187   1    1.5260e-01    2.5941e+05 ;    C3' - C2'   
   185    191   1    1.4100e-01    2.6778e+05 ;    C3' - O3'   
   187    188   1    1.0900e-01    2.8451e+05 ;    C2' - H2'   
   187    189   1    1.4100e-01    2.6778e+05 ;    C2' - O2'   
   189    190   1    9.6000e-02    4.6275e+05 ;    O2' - HO2'  
   191    192   1    1.6100e-01    1.9246e+05 ;    O3' - P     
   192    193   1    1.4800e-01    4.3932e+05 ;      P - OP1   
   192    194   1    1.4800e-01    4.3932e+05 ;      P - OP2   
   192    195   1    1.6100e-01    1.9246e+05 ;      P - O5'   
   195    196   1    1.4100e-01    2.6778e+05 ;    O5' - C5'   
   196    197   1    1.0900e-01    2.8451e+05 ;    C5' - H5'   
   196    198   1    1.0900e-01    2.8451e+05 ;    C5' - H5''  
   196    199   1    1.5260e-01    2.5941e+05 ;    C5' - C4'   
   199    200   1    1.0900e-01    2.8451e+05 ;    C4' - H4'   
   199    201   1    1.4100e-01    2.6778e+05 ;    C4' - O4'   
   199    215   1    1.5260e-01    2.5941e+05 ;    C4' - C3'   
   201    202   1    1.4100e-01    2.6778e+05 ;    O4' - C1'   
   202    203   1    1.0900e-01    2.8451e+05 ;    C1' - H1'   
   202    204   1    1.4750e-01    2.8200e+05 ;    C1' - N1    
   202    217   1    1.5260e-01    2.5941e+05 ;    C1' - C2'   
   204    205   1    1.3650e-01    3.7489e+05 ;     N1 - C6    
   204    213   1    1.3830e-01    3.5480e+05 ;     N1 - C2    
   205    206   1    1.0800e-01    3.0711e+05 ;     C6 - H6    
   205    207   1    1.3500e-01    4.5940e+05 ;     C6 - C5    
   207    208   1    1.0800e-01    3.0711e+05 ;     C5 - H5    
   207    209   1    1.4440e-01    3.4309e+05 ;     C5 - C4    
   209    210   1    1.2290e-01    4.7698e+05 ;     C4 - O4    
   209    211   1    1.3880e-01    3.4978e+05 ;     C4 - N3    
   211    212   1    1.0100e-01    3.6317e+05 ;     N3 - H3    
   211    213   1    1.3880e-01    3.4978e+05 ;     N3 - C2    
   213    214   1    1.2290e-01    4.7698e+05 ;     C2 - O2    
   215    216   1    1.0900e-01    2.8451e+05 ;    C3' - H3'   
   215    217   1    1.5260e-01    2.5941e+05 ;    C3' - C2'   
   215    221   1    1.4100e-01    2.6778e+05 ;    C3' - O3'   
   217    218   1    1.0900e-01    2.8451e+05 ;    C2' - H2'   
   217    219   1    1.4100e-01    2.6778e+05 ;    C2' - O2'   
   219    220   1    9.6000e-02    4.6275e+05 ;    O2' - HO2'  
   221    222   1    1.6100e-01    1.9246e+05 ;    O3' - P     
   222    223   1    1.4800e-01    4.3932e+05 ;      P - OP1   
   222    224   1    1.4800e-01    4.3932e+05 ;      P - OP2   
   222    225   1    1.6100e-01    1.9246e+05 ;      P - O5'   
   225    226   1    1.4100e-01    2.6778e+05 ;    O5' - C5'   
   226    227   1    1.0900e-01    2.8451e+05 ;    C5' - H5'   
   226    228   1    1.0900e-01    2.8451e+05 ;    C5' - H5''  
   226    229   1    1.5260e-01    2.5941e+05 ;    C5' - C4'   
   229    230   1    1.0900e-01    2.8451e+05 ;    C4' - H4'   
   229    231   1    1.4100e-01    2.6778e+05 ;    C4' - O4'   
   229    245   1    1.5260e-01    2.5941e+05 ;    C4' - C3'   
   231    232   1    1.4100e-01    2.6778e+05 ;    O4' - C1'   
   232    233   1    1.0900e-01    2.8451e+05 ;    C1' - H1'   
   232    234   1    1.4750e-01    2.8200e+05 ;    C1' - N1    
   232    247   1    1.5260e-01    2.5941e+05 ;    C1' - C2'   
   234    235   1    1.3650e-01    3.7489e+05 ;     N1 - C6    
   234    243   1    1.3830e-01    3.5480e+05 ;     N1 - C2    
   235    236   1    1.0800e-01    3.0711e+05 ;     C6 - H6    
   235    237   1    1.3500e-01    4.5940e+05 ;     C6 - C5    
   237    238   1    1.0800e-01    3.0711e+05 ;     C5 - H5    
   237    239   1    1.4440e-01    3.4309e+05 ;     C5 - C4    
   239    240   1    1.2290e-01    4.7698e+05 ;     C4 - O4    
   239    241   1    1.3880e-01    3.4978e+05 ;     C4 - N3    
   241    242   1    1.0100e-01    3.6317e+05 ;     N3 - H3    
   241    243   1    1.3880e-01    3.4978e+05 ;     N3 - C2    
   243    244   1    1.2290e-01    4.7698e+05 ;     C2 - O2    
   245    246   1    1.0900e-01    2.8451e+05 ;    C3' - H3'   
   245    247   1    1.5260e-01    2.5941e+05 ;    C3' - C2'   
   245    251   1    1.4100e-01    2.6778e+05 ;    C3' - O3'   
   247    248   1    1.0900e-01    2.8451e+05 ;    C2' - H2'   
   247    249   1    1.4100e-01    2.6778e+05 ;    C2' - O2'   
   249    250   1    9.6000e-02    4.6275e+05 ;    O2' - HO2'  
   251    252   1    1.6100e-01    1.9246e+05 ;    O3' - P     
   252    253   1    1.4800e-01    4.3932e+05 ;      P - OP1   
   252    254   1    1.4800e-01    4.3932e+05 ;      P - OP2   
   252    255   1    1.6100e-01    1.9246e+05 ;      P - O5'   
   255    256   1    1.4100e-01    2.6778e+05 ;    O5' - C5'   
   256    257   1    1.0900e-01    2.8451e+05 ;    C5' - H5'   
   256    258   1    1.0900e-01    2.8451e+05 ;    C5' - H5''  
   256    259   1    1.5260e-01    2.5941e+05 ;    C5' - C4'   
   259    260   1    1.0900e-01    2.8451e+05 ;    C4' - H4'   
   259    261   1    1.4100e-01    2.6778e+05 ;    C4' - O4'   
   259    276   1    1.5260e-01    2.5941e+05 ;    C4' - C3'   
   261    262   1    1.4100e-01    2.6778e+05 ;    O4' - C1'   
   262    263   1    1.0900e-01    2.8451e+05 ;    C1' - H1'   
   262    264   1    1.4750e-01    2.8200e+05 ;    C1' - N1    
   262    278   1    1.5260e-01    2.5941e+05 ;    C1' - C2'   
   264    265   1    1.3650e-01    3.7489e+05 ;     N1 - C6    
   264    274   1    1.3830e-01    3.5480e+05 ;     N1 - C2    
   265    266   1    1.0800e-01    3.0711e+05 ;     C6 - H6    
   265    267   1    1.3500e-01    4.5940e+05 ;     C6 - C5    
   267    268   1    1.0800e-01    3.0711e+05 ;     C5 - H5    
   267    269   1    1.4330e-01    3.5731e+05 ;     C5 - C4    
   269    270   1    1.3400e-01    4.0250e+05 ;     C4 - N4    
   269    273   1    1.3390e-01    4.0417e+05 ;     C4 - N3    
   270    271   1    1.0100e-01    3.6317e+05 ;     N4 - H41   
   270    272   1    1.0100e-01    3.6317e+05 ;     N4 - H42   
   273    274   1    1.3580e-01    3.8242e+05 ;     N3 - C2    
   274    275   1    1.2290e-01    4.7698e+05 ;     C2 - O2    
   276    277   1    1.0900e-01    2.8451e+05 ;    C3' - H3'   
   276    278   1    1.5260e-01    2.5941e+05 ;    C3' - C2'   
   276    282   1    1.4100e-01    2.6778e+05 ;    C3' - O3'   
   278    279   1    1.0900e-01    2.8451e+05 ;    C2' - H2'   
   278    280   1    1.4100e-01    2.6778e+05 ;    C2' - O2'   
   280    281   1    9.6000e-02    4.6275e+05 ;    O2' - HO2'  
   282    283   1    1.6100e-01    1.9246e+05 ;    O3' - P     
   283    284   1    1.4800e-01    4.3932e+05 ;      P - OP1   
   283    285   1    1.4800e-01    4.3932e+05 ;      P - OP2   
   283    286   1    1.6100e-01    1.9246e+05 ;      P - O5'   
   286    287   1    1.4100e-01    2.6778e+05 ;    O5' - C5'   
   287    288   1    1.0900e-01    2.8451e+05 ;    C5' - H5'   
   287    289   1    1.0900e-01    2.8451e+05 ;    C5' - H5''  
   287    290   1    1.5260e-01    2.5941e+05 ;    C5' - C4'   
   290    291   1    1.0900e-01    2.8451e+05 ;    C4' - H4'   
   290    292   1    1.4100e-01    2.6778e+05 ;    C4' - O4'   
   290    310   1    1.5260e-01    2.5941e+05 ;    C4' - C3'   
   292    293   1    1.4100e-01    2.6778e+05 ;    O4' - C1'   
   293    294   1    1.0900e-01    2.8451e+05 ;    C1' - H1'   
   293    295   1    1.4750e-01    2.8200e+05 ;    C1' - N9    
   293    312   1    1.5260e-01    2.5941e+05 ;    C1' - C2'   
   295    296   1    1.3710e-01    3.6819e+05 ;     N9 - C8    
   295    309   1    1.3740e-01    3.6484e+05 ;     N9 - C4    
   296    297   1    1.0800e-01    3.0711e+05 ;     C8 - H8    
   296    298   1    1.3040e-01    4.4267e+05 ;     C8 - N7    
   298    299   1    1.3910e-01    3.4644e+05 ;     N7 - C5    
   299    300   1    1.4190e-01    3.7405e+05 ;     C5 - C6    
   299    309   1    1.3700e-01    4.3514e+05 ;     C5 - C4    
   300    301   1    1.2290e-01    4.7698e+05 ;     C6 - O6    
   300    302   1    1.3880e-01    3.4978e+05 ;     C6 - N1    
   302    303   1    1.0100e-01    3.6317e+05 ;     N1 - H1    
   302    304   1    1.3810e-01    3.5731e+05 ;     N1 - C2    
   304    305   1    1.3400e-01    4.0250e+05 ;     C2 - N2    
   304    308   1    1.3390e-01    4.0417e+05 ;     C2 - N3    
   305    306   1    1.0100e-01    3.6317e+05 ;     N2 - H21   
   305    307   1    1.0100e-01    3.6317e+05 ;     N2 - H22   
   308    309   1    1.3540e-01    3.8576e+05 ;     N3 - C4    
   310    311   1    1.0900e-01    2.8451e+05 ;    C3' - H3'   
   310    312   1    1.5260e-01    2.5941e+05 ;    C3' - C2'   
   310    316   1    1.4100e-01    2.6778e+05 ;    C3' - O3'   
   312    313   1    1.0900e-01    2.8451e+05 ;    C2' - H2'   
   312    314   1    1.4100e-01    2.6778e+05 ;    C2' - O2'   
   314    315   1    9.6000e-02    4.6275e+05 ;    O2' - HO2'  
   316    317   1    1.6100e-01    1.9246e+05 ;    O3' - P     
   317    318   1    1.4800e-01    4.3932e+05 ;      P - OP1   
   317    319   1    1.4800e-01    4.3932e+05 ;      P - OP2   
   317    320   1    1.6100e-01    1.9246e+05 ;      P - O5'   
   320    321   1    1.4100e-01    2.6778e+05 ;    O5' - C5'   
   321    322   1    1.0900e-01    2.8451e+05 ;    C5' - H5'   
   321    323   1    1.0900e-01    2.8451e+05 ;    C5' - H5''  
   321    324   1    1.5260e-01    2.5941e+05 ;    C5' - C4'   
   324    325   1    1.0900e-01    2.8451e+05 ;    C4' - H4'   
   324    326   1    1.4100e-01    2.6778e+05 ;    C4' - O4'   
   324    343   1    1.5260e-01    2.5941e+05 ;    C4' - C3'   
   326    327   1    1.4100e-01    2.6778e+05 ;    O4' - C1'   
   327    328   1    1.0900e-01    2.8451e+05 ;    C1' - H1'   
   327    329   1    1.4750e-01    2.8200e+05 ;    C1' - N9    
   327    345   1    1.5260e-01    2.5941e+05 ;    C1' - C2'   
   329    330   1    1.3710e-01    3.6819e+05 ;     N9 - C8    
   329    342   1    1.3740e-01    3.6484e+05 ;     N9 - C4    
   330    331   1    1.0800e-01    3.0711e+05 ;     C8 - H8    
   330    332   1    1.3040e-01    4.4267e+05 ;     C8 - N7    
   332    333   1    1.3910e-01    3.4644e+05 ;     N7 - C5    
   333    334   1    1.4040e-01    3.9246e+05 ;     C5 - C6    
   333    342   1    1.3700e-01    4.3514e+05 ;     C5 - C4    
   334    335   1    1.3400e-01    4.0250e+05 ;     C6 - N6    
   334    338   1    1.3390e-01    4.0417e+05 ;     C6 - N1    
   335    336   1    1.0100e-01    3.6317e+05 ;     N6 - H61   
   335    337   1    1.0100e-01    3.6317e+05 ;     N6 - H62   
   338    339   1    1.3240e-01    4.2007e+05 ;     N1 - C2    
   339    340   1    1.0800e-01    3.0711e+05 ;     C2 - H2    
   339    341   1    1.3240e-01    4.2007e+05 ;     C2 - N3    
   341    342   1    1.3540e-01    3.8576e+05 ;     N3 - C4    
   343    344   1    1.0900e-01    2.8451e+05 ;    C3' - H3'   
   343    345   1    1.5260e-01    2.5941e+05 ;    C3' - C2'   
   343    349   1    1.4100e-01    2.6778e+05 ;    C3' - O3'   
   345    346   1    1.0900e-01    2.8451e+05 ;    C2' - H2'   
   345    347   1    1.4100e-01    2.6778e+05 ;    C2' - O2'   
   347    348   1    9.6000e-02    4.6275e+05 ;    O2' - HO2'  
   349    350   1    1.6100e-01    1.9246e+05 ;    O3' - P     
   350    351   1    1.4800e-01    4.3932e+05 ;      P - OP1   
   350    352   1    1.4800e-01    4.3932e+05 ;      P - OP2   
   350    353   1    1.6100e-01    1.9246e+05 ;      P - O5'   
   353    354   1    1.4100e-01    2.6778e+05 ;    O5' - C5'   
   354    355   1    1.0900e-01    2.8451e+05 ;    C5' - H5'   
   354    356   1    1.0900e-01    2.8451e+05 ;    C5' - H5''  
   354    357   1    1.5260e-01    2.5941e+05 ;    C5' - C4'   
   357    358   1    1.0900e-01    2.8451e+05 ;    C4' - H4'   
   357    359   1    1.4100e-01    2.6778e+05 ;    C4' - O4'   
   357    377   1    1.5260e-01    2.5941e+05 ;    C4' - C3'   
   359    360   1    1.4100e-01    2.6778e+05 ;    O4' - C1'   
   360    361   1    1.0900e-01    2.8451e+05 ;    C1' - H1'   
   360    362   1    1.4750e-01    2.8200e+05 ;    C1' - N9    
   360    379   1    1.5260e-01    2.5941e+05 ;    C1' - C2'   
   362    363   1    1.3710e-01    3.6819e+05 ;     N9 - C8    
   362    376   1    1.3740e-01    3.6484e+05 ;     N9 - C4    
   363    364   1    1.0800e-01    3.0711e+05 ;     C8 - H8    
   363    365   1    1.3040e-01    4.4267e+05 ;     C8 - N7    
   365    366   1    1.3910e-01    3.4644e+05 ;     N7 - C5    
   366    367   1    1.4190e-01    3.7405e+05 ;     C5 - C6    
   366    376   1    1.3700e-01    4.3514e+05 ;     C5 - C4    
   367    368   1    1.2290e-01    4.7698e+05 ;     C6 - O6    
   367    369   1    1.3880e-01    3.4978e+05 ;     C6 - N1    
   369    370   1    1.0100e-01    3.6317e+05 ;     N1 - H1    
   369    371   1    1.3810e-01    3.5731e+05 ;     N1 - C2    
   371    372   1    1.3400e-01    4.0250e+05 ;     C2 - N2    
   371    375   1    1.3390e-01    4.0417e+05 ;     C2 - N3    
   372    373   1    1.0100e-01    3.6317e+05 ;     N2 - H21   
   372    374   1    1.0100e-01    3.6317e+05 ;     N2 - H22   
   375    376   1    1.3540e-01    3.8576e+05 ;     N3 - C4    
   377    378   1    1.0900e-01    2.8451e+05 ;    C3' - H3'   
   377    379   1    1.5260e-01    2.5941e+05 ;    C3' - C2'   
   377    383   1    1.4100e-01    2.6778e+05 ;    C3' - O3'   
   379    380   1    1.0900e-01    2.8451e+05 ;    C2' - H2'   
   379    381   1    1.4100e-01    2.6778e+05 ;    C2' - O2'   
   381    382   1    9.6000e-02    4.6275e+05 ;    O2' - HO2'  
   383    384   1    1.6100e-01    1.9246e+05 ;    O3' - P     
   384    385   1    1.4800e-01    4.3932e+05 ;      P - OP1   
   384    386   1    1.4800e-01    4.3932e+05 ;      P - OP2   
   384    387   1    1.6100e-01    1.9246e+05 ;      P - O5'   
   387    388   1    1.4100e-01    2.6778e+05 ;    O5' - C5'   
   388    389   1    1.0900e-01    2.8451e+05 ;    C5' - H5'   
   388    390   1    1.0900e-01    2.8451e+05 ;    C5' - H5''  
   388    391   1    1.5260e-01    2.5941e+05 ;    C5' - C4'   
   391    392   1    1.0900e-01    2.8451e+05 ;    C4' - H4'   
   391    393   1    1.4100e-01    2.6778e+05 ;    C4' - O4'   
   391    408   1    1.5260e-01    2.5941e+05 ;    C4' - C3'   
   393    394   1    1.4100e-01    2.6778e+05 ;    O4' - C1'   
   394    395   1    1.0900e-01    2.8451e+05 ;    C1' - H1'   
   394    396   1    1.4750e-01    2.8200e+05 ;    C1' - N1    
   394    410   1    1.5260e-01    2.5941e+05 ;    C1' - C2'   
   396    397   1    1.3650e-01    3.7489e+05 ;     N1 - C6    
   396    406   1    1.3830e-01    3.5480e+05 ;     N1 - C2    
   397    398   1    1.0800e-01    3.0711e+05 ;     C6 - H6    
   397    399   1    1.3500e-01    4.5940e+05 ;     C6 - C5    
   399    400   1    1.0800e-01    3.0711e+05 ;     C5 - H5    
   399    401   1    1.4330e-01    3.5731e+05 ;     C5 - C4    
   401    402   1    1.3400e-01    4.0250e+05 ;     C4 - N4    
   401    405   1    1.3390e-01    4.0417e+05 ;     C4 - N3    
   402    403   1    1.0100e-01    3.6317e+05 ;     N4 - H41   
   402    404   1    1.0100e-01    3.6317e+05 ;     N4 - H42   
   405    406   1    1.3580e-01    3.8242e+05 ;     N3 - C2    
   406    407   1    1.2290e-01    4.7698e+05 ;     C2 - O2    
   408    409   1    1.0900e-01    2.8451e+05 ;    C3' - H3'   
   408    410   1    1.5260e-01    2.5941e+05 ;    C3' - C2'   
   408    414   1    1.4100e-01    2.6778e+05 ;    C3' - O3'   
   410    411   1    1.0900e-01    2.8451e+05 ;    C2' - H2'   
   410    412   1    1.4100e-01    2.6778e+05 ;    C2' - O2'   
   412    413   1    9.6000e-02    4.6275e+05 ;    O2' - HO2'  
   414    415   1    1.6100e-01    1.9246e+05 ;    O3' - P     
   415    416   1    1.4800e-01    4.3932e+05 ;      P - OP1   
   415    417   1    1.4800e-01    4.3932e+05 ;      P - OP2   
   415    418   1    1.6100e-01    1.9246e+05 ;      P - O5'   
   418    419   1    1.4100e-01    2.6778e+05 ;    O5' - C5'   
   419    420   1    1.0900e-01    2.8451e+05 ;    C5' - H5'   
   419    421   1    1.0900e-01    2.8451e+05 ;    C5' - H5''  
   419    422   1    1.5260e-01    2.5941e+05 ;    C5' - C4'   
   422    423   1    1.0900e-01    2.8451e+05 ;    C4' - H4'   
   422    424   1    1.4100e-01    2.6778e+05 ;    C4' - O4'   
   422    442   1    1.5260e-01    2.5941e+05 ;    C4' - C3'   
   424    425   1    1.4100e-01    2.6778e+05 ;    O4' - C1'   
   425    426   1    1.0900e-01    2.8451e+05 ;    C1' - H1'   
   425    427   1    1.4750e-01    2.8200e+05 ;    C1' - N9    
   425    444   1    1.5260e-01    2.5941e+05 ;    C1' - C2'   
   427    428   1    1.3710e-01    3.6819e+05 ;     N9 - C8    
   427    441   1    1.3740e-01    3.6484e+05 ;     N9 - C4    
   428    429   1    1.0800e-01    3.0711e+05 ;     C8 - H8    
   428    430   1    1.3040e-01    4.4267e+05 ;     C8 - N7    
   430    431   1    1.3910e-01    3.4644e+05 ;     N7 - C5    
   431    432   1    1.4190e-01    3.7405e+05 ;     C5 - C6    
   431    441   1    1.3700e-01    4.3514e+05 ;     C5 - C4    
   432    433   1    1.2290e-01    4.7698e+05 ;     C6 - O6    
   432    434   1    1.3880e-01    3.4978e+05 ;     C6 - N1    
   434    435   1    1.0100e-01    3.6317e+05 ;     N1 - H1    
   434    436   1    1.3810e-01    3.5731e+05 ;     N1 - C2    
   436    437   1    1.3400e-01    4.0250e+05 ;     C2 - N2    
   436    440   1    1.3390e-01    4.0417e+05 ;     C2 - N3    
   437    438   1    1.0100e-01    3.6317e+05 ;     N2 - H21   
   437    439   1    1.0100e-01    3.6317e+05 ;     N2 - H22   
   440    441   1    1.3540e-01    3.8576e+05 ;     N3 - C4    
   442    443   1    1.0900e-01    2.8451e+05 ;    C3' - H3'   
   442    444   1    1.5260e-01    2.5941e+05 ;    C3' - C2'   
   442    448   1    1.4100e-01    2.6778e+05 ;    C3' - O3'   
   444    445   1    1.0900e-01    2.8451e+05 ;    C2' - H2'   
   444    446   1    1.4100e-01    2.6778e+05 ;    C2' - O2'   
   446    447   1    9.6000e-02    4.6275e+05 ;    O2' - HO2'  
   448    449   1    1.6100e-01    1.9246e+05 ;    O3' - P     
   449    450   1    1.4800e-01    4.3932e+05 ;      P - OP1   
   449    451   1    1.4800e-01    4.3932e+05 ;      P - OP2   
   449    452   1    1.6100e-01    1.9246e+05 ;      P - O5'   
   452    453   1    1.4100e-01    2.6778e+05 ;    O5' - C5'   
   453    454   1    1.0900e-01    2.8451e+05 ;    C5' - H5'   
   453    455   1    1.0900e-01    2.8451e+05 ;    C5' - H5''  
   453    456   1    1.5260e-01    2.5941e+05 ;    C5' - C4'   
   456    457   1    1.0900e-01    2.8451e+05 ;    C4' - H4'   
   456    458   1    1.4100e-01    2.6778e+05 ;    C4' - O4'   
   456    473   1    1.5260e-01    2.5941e+05 ;    C4' - C3'   
   458    459   1    1.4100e-01    2.6778e+05 ;    O4' - C1'   
   459    460   1    1.0900e-01    2.8451e+05 ;    C1' - H1'   
   459    461   1    1.4750e-01    2.8200e+05 ;    C1' - N1    
   459    475   1    1.5260e-01    2.5941e+05 ;    C1' - C2'   
   461    462   1    1.3650e-01    3.7489e+05 ;     N1 - C6    
   461    471   1    1.3830e-01    3.5480e+05 ;     N1 - C2    
   462    463   1    1.0800e-01    3.0711e+05 ;     C6 - H6    
   462    464   1    1.3500e-01    4.5940e+05 ;     C6 - C5    
   464    465   1    1.0800e-01    3.0711e+05 ;     C5 - H5    
   464    466   1    1.4330e-01    3.5731e+05 ;     C5 - C4    
   466    467   1    1.3400e-01    4.0250e+05 ;     C4 - N4    
   466    470   1    1.3390e-01    4.0417e+05 ;     C4 - N3    
   467    468   1    1.0100e-01    3.6317e+05 ;     N4 - H41   
   467    469   1    1.0100e-01    3.6317e+05 ;     N4 - H42   
   470    471   1    1.3580e-01    3.8242e+05 ;     N3 - C2    
   471    472   1    1.2290e-01    4.7698e+05 ;     C2 - O2    
   473    474   1    1.0900e-01    2.8451e+05 ;    C3' - H3'   
   473    475   1    1.5260e-01    2.5941e+05 ;    C3' - C2'   
   473    479   1    1.4100e-01    2.6778e+05 ;    C3' - O3'   
   475    476   1    1.0900e-01    2.8451e+05 ;    C2' - H2'   
   475    477   1    1.4100e-01    2.6778e+05 ;    C2' - O2'   
   477    478   1    9.6000e-02    4.6275e+05 ;    O2' - HO2'  
   479    480   1    1.6100e-01    1.9246e+05 ;    O3' - P     
   480    481   1    1.4800e-01    4.3932e+05 ;      P - OP1   
   480    482   1    1.4800e-01    4.3932e+05 ;      P - OP2   
   480    483   1    1.6100e-01    1.9246e+05 ;      P - O5'   
   483    484   1    1.4100e-01    2.6778e+05 ;    O5' - C5'   
   484    485   1    1.0900e-01    2.8451e+05 ;    C5' - H5'   
   484    486   1    1.0900e-01    2.8451e+05 ;    C5' - H5''  
   484    487   1    1.5260e-01    2.5941e+05 ;    C5' - C4'   
   487    488   1    1.0900e-01    2.8451e+05 ;    C4' - H4'   
   487    489   1    1.4100e-01    2.6778e+05 ;    C4' - O4'   
   487    503   1    1.5260e-01    2.5941e+05 ;    C4' - C3'   
   489    490   1    1.4100e-01    2.6778e+05 ;    O4' - C1'   
   490    491   1    1.0900e-01    2.8451e+05 ;    C1' - H1'   
   490    492   1    1.4750e-01    2.8200e+05 ;    C1' - N1    
   490    505   1    1.5260e-01    2.5941e+05 ;    C1' - C2'   
   492    493   1    1.3650e-01    3.7489e+05 ;     N1 - C6    
   492    501   1    1.3830e-01    3.5480e+05 ;     N1 - C2    
   493    494   1    1.0800e-01    3.0711e+05 ;     C6 - H6    
   493    495   1    1.3500e-01    4.5940e+05 ;     C6 - C5    
   495    496   1    1.0800e-01    3.0711e+05 ;     C5 - H5    
   495    497   1    1.4440e-01    3.4309e+05 ;     C5 - C4    
   497    498   1    1.2290e-01    4.7698e+05 ;     C4 - O4    
   497    499   1    1.3880e-01    3.4978e+05 ;     C4 - N3    
   499    500   1    1.0100e-01    3.6317e+05 ;     N3 - H3    
   499    501   1    1.3880e-01    3.4978e+05 ;     N3 - C2    
   501    502   1    1.2290e-01    4.7698e+05 ;     C2 - O2    
   503    504   1    1.0900e-01    2.8451e+05 ;    C3' - H3'   
   503    505   1    1.5260e-01    2.5941e+05 ;    C3' - C2'   
   503    509   1    1.4100e-01    2.6778e+05 ;    C3' - O3'   
   505    506   1    1.0900e-01    2.8451e+05 ;    C2' - H2'   
   505    507   1    1.4100e-01    2.6778e+05 ;    C2' - O2'   
   507    508   1    9.6000e-02    4.6275e+05 ;    O2' - HO2'  
   509    510   1    9.6000e-02    4.6275e+05 ;    O3' - HO3'  

[ pairs ]
;   ai     aj    funct
     1      4      1 ;   HO5' - H5'   
     1      5      1 ;   HO5' - H5''  
     1      6      1 ;   HO5' - C4'   
     2      7      1 ;    O5' - H4'   
     2      8      1 ;    O5' - O4'   
     2     25      1 ;    O5' - C3'   
     3      9      1 ;    C5' - C1'   
     3     26      1 ;    C5' - H3'   
     3     27      1 ;    C5' - C2'   
     3     31      1 ;    C5' - O3'   
     4      7      1 ;    H5' - H4'   
     4      8      1 ;    H5' - O4'   
     4     25      1 ;    H5' - C3'   
     5      7      1 ;   H5'' - H4'   
     5      8      1 ;   H5'' - O4'   
     5     25      1 ;   H5'' - C3'   
     6     10      1 ;    C4' - H1'   
     6     11      1 ;    C4' - N9    
     6     28      1 ;    C4' - H2'   
     6     29      1 ;    C4' - O2'   
     6     32      1 ;    C4' - P     
     7      9      1 ;    H4' - C1'   
     7     26      1 ;    H4' - H3'   
     7     27      1 ;    H4' - C2'   
     7     31      1 ;    H4' - O3'   
     8     12      1 ;    O4' - C8    
     8     24      1 ;    O4' - C4    
     8     26      1 ;    O4' - H3'   
     8     28      1 ;    O4' - H2'   
     8     29      1 ;    O4' - O2'   
     8     31      1 ;    O4' - O3'   
     9     13      1 ;    C1' - H8    
     9     14      1 ;    C1' - N7    
     9     15      1 ;    C1' - C5    
     9     23      1 ;    C1' - N3    
     9     26      1 ;    C1' - H3'   
     9     30      1 ;    C1' - HO2'  
     9     31      1 ;    C1' - O3'   
    10     12      1 ;    H1' - C8    
    10     24      1 ;    H1' - C4    
    10     25      1 ;    H1' - C3'   
    10     28      1 ;    H1' - H2'   
    10     29      1 ;    H1' - O2'   
    11     16      1 ;     N9 - C6    
    11     21      1 ;     N9 - C2    
    11     25      1 ;     N9 - C3'   
    11     28      1 ;     N9 - H2'   
    11     29      1 ;     N9 - O2'   
    12     16      1 ;     C8 - C6    
    12     23      1 ;     C8 - N3    
    12     27      1 ;     C8 - C2'   
    13     15      1 ;     H8 - C5    
    13     24      1 ;     H8 - C4    
    14     17      1 ;     N7 - N6    
    14     20      1 ;     N7 - N1    
    14     23      1 ;     N7 - N3    
    15     18      1 ;     C5 - H61   
    15     19      1 ;     C5 - H62   
    15     21      1 ;     C5 - C2    
    16     22      1 ;     C6 - H2    
    16     23      1 ;     C6 - N3    
    17     21      1 ;     N6 - C2    
    17     24      1 ;     N6 - C4    
    18     20      1 ;    H61 - N1    
    19     20      1 ;    H62 - N1    
    20     24      1 ;     N1 - C4    
    22     24      1 ;     H2 - C4    
    24     27      1 ;     C4 - C2'   
    25     30      1 ;    C3' - HO2'  
    25     33      1 ;    C3' - OP1   
    25     34      1 ;    C3' - OP2   
    25     35      1 ;    C3' - O5'   
    26     28      1 ;    H3' - H2'   
    26     29      1 ;    H3' - O2'   
    26     32      1 ;    H3' - P     
    27     32      1 ;    C2' - P     
    28     30      1 ;    H2' - HO2'  
    28     31      1 ;    H2' - O3'   
    29     31      1 ;    O2' - O3'   
    31     36      1 ;    O3' - C5'   
    32     37      1 ;      P - H5'   
    32     38      1 ;      P - H5''  
    32     39      1 ;      P - C4'   
    33     36      1 ;    OP1 - C5'   
    34     36      1 ;    OP2 - C5'   
    35     40      1 ;    O5' - H4'   
    35     41      1 ;    O5' - O4'   
    35     59      1 ;    O5' - C3'   
    36     42      1 ;    C5' - C1'   
    36     60      1 ;    C5' - H3'   
    36     61      1 ;    C5' - C2'   
    36     65      1 ;    C5' - O3'   
    37     40      1 ;    H5' - H4'   
    37     41      1 ;    H5' - O4'   
    37     59      1 ;    H5' - C3'   
    38     40      1 ;   H5'' - H4'   
    38     41      1 ;   H5'' - O4'   
    38     59      1 ;   H5'' - C3'   
    39     43      1 ;    C4' - H1'   
    39     44      1 ;    C4' - N9    
    39     62      1 ;    C4' - H2'   
    39     63      1 ;    C4' - O2'   
    39     66      1 ;    C4' - P     
    40     42      1 ;    H4' - C1'   
    40     60      1 ;    H4' - H3'   
    40     61      1 ;    H4' - C2'   
    40     65      1 ;    H4' - O3'   
    41     45      1 ;    O4' - C8    
    41     58      1 ;    O4' - C4    
    41     60      1 ;    O4' - H3'   
    41     62      1 ;    O4' - H2'   
    41     63      1 ;    O4' - O2'   
    41     65      1 ;    O4' - O3'   
    42     46      1 ;    C1' - H8    
    42     47      1 ;    C1' - N7    
    42     48      1 ;    C1' - C5    
    42     57      1 ;    C1' - N3    
    42     60      1 ;    C1' - H3'   
    42     64      1 ;    C1' - HO2'  
    42     65      1 ;    C1' - O3'   
    43     45      1 ;    H1' - C8    
    43     58      1 ;    H1' - C4    
    43     59      1 ;    H1' - C3'   
    43     62      1 ;    H1' - H2'   
    43     63      1 ;    H1' - O2'   
    44     49      1 ;     N9 - C6    
    44     53      1 ;     N9 - C2    
    44     59      1 ;     N9 - C3'   
    44     62      1 ;     N9 - H2'   
    44     63      1 ;     N9 - O2'   
    45     49      1 ;     C8 - C6    
    45     57      1 ;     C8 - N3    
    45     61      1 ;     C8 - C2'   
    46     48      1 ;     H8 - C5    
    46     58      1 ;     H8 - C4    
    47     50      1 ;     N7 - O6    
    47     51      1 ;     N7 - N1    
    47     57      1 ;     N7 - N3    
    48     52      1 ;     C5 - H1    
    48     53      1 ;     C5 - C2    
    49     54      1 ;     C6 - N2    
    49     57      1 ;     C6 - N3    
    50     52      1 ;     O6 - H1    
    50     53      1 ;     O6 - C2    
    50     58      1 ;     O6 - C4    
    51     55      1 ;     N1 - H21   
    51     56      1 ;     N1 - H22   
    51     58      1 ;     N1 - C4    
    52     54      1 ;     H1 - N2    
    52     57      1 ;     H1 - N3    
    54     58      1 ;     N2 - C4    
    55     57      1 ;    H21 - N3    
    56     57      1 ;    H22 - N3    
    58     61      1 ;     C4 - C2'   
    59     64      1 ;    C3' - HO2'  
    59     67      1 ;    C3' - OP1   
    59     68      1 ;    C3' - OP2   
    59     69      1 ;    C3' - O5'   
    60     62      1 ;    H3' - H2'   
    60     63      1 ;    H3' - O2'   
    60     66      1 ;    H3' - P     
    61     66      1 ;    C2' - P     
    62     64      1 ;    H2' - HO2'  
    62     65      1 ;    H2' - O3'   
    63     65      1 ;    O2' - O3'   
    65     70      1 ;    O3' - C5'   
    66     71      1 ;      P - H5'   
    66     72      1 ;      P - H5''  
    66     73      1 ;      P - C4'   
    67     70      1 ;    OP1 - C5'   
    68     70      1 ;    OP2 - C5'   
    69     74      1 ;    O5' - H4'   
    69     75      1 ;    O5' - O4'   
    69     90      1 ;    O5' - C3'   
    70     76      1 ;    C5' - C1'   
    70     91      1 ;    C5' - H3'   
    70     92      1 ;    C5' - C2'   
    70     96      1 ;    C5' - O3'   
    71     74      1 ;    H5' - H4'   
    71     75      1 ;    H5' - O4'   
    71     90      1 ;    H5' - C3'   
    72     74      1 ;   H5'' - H4'   
    72     75      1 ;   H5'' - O4'   
    72     90      1 ;   H5'' - C3'   
    73     77      1 ;    C4' - H1'   
    73     78      1 ;    C4' - N1    
    73     93      1 ;    C4' - H2'   
    73     94      1 ;    C4' - O2'   
    73     97      1 ;    C4' - P     
    74     76      1 ;    H4' - C1'   
    74     91      1 ;    H4' - H3'   
    74     92      1 ;    H4' - C2'   
    74     96      1 ;    H4' - O3'   
    75     79      1 ;    O4' - C6    
    75     88      1 ;    O4' - C2    
    75     91      1 ;    O4' - H3'   
    75     93      1 ;    O4' - H2'   
    75     94      1 ;    O4' - O2'   
    75     96      1 ;    O4' - O3'   
    76     80      1 ;    C1' - H6    
    76     81      1 ;    C1' - C5    
    76     87      1 ;    C1' - N3    
    76     89      1 ;    C1' - O2    
    76     91      1 ;    C1' - H3'   
    76     95      1 ;    C1' - HO2'  
    76     96      1 ;    C1' - O3'   
    77     79      1 ;    H1' - C6    
    77     88      1 ;    H1' - C2    
    77     90      1 ;    H1' - C3'   
    77     93      1 ;    H1' - H2'   
    77     94      1 ;    H1' - O2'   
    78     82      1 ;     N1 - H5    
    78     83      1 ;     N1 - C4    
    78     90      1 ;     N1 - C3'   
    78     93      1 ;     N1 - H2'   
    78     94      1 ;     N1 - O2'   
    79     84      1 ;     C6 - N4    
    79     87      1 ;     C6 - N3    
    79     89      1 ;     C6 - O2    
    79     92      1 ;     C6 - C2'   
    80     82      1 ;     H6 - H5    
    80     83      1 ;     H6 - C4    
    80     88      1 ;     H6 - C2    
    81     85      1 ;     C5 - H41   
    81     86      1 ;     C5 - H42   
    81     88      1 ;     C5 - C2    
    82     84      1 ;     H5 - N4    
    82     87      1 ;     H5 - N3    
    83     89      1 ;     C4 - O2    
    84     88      1 ;     N4 - C2    
    85     87      1 ;    H41 - N3    
    86     87      1 ;    H42 - N3    
    88     92      1 ;     C2 - C2'   
    90     95      1 ;    C3' - HO2'  
    90     98      1 ;    C3' - OP1   
    90     99      1 ;    C3' - OP2   
    90    100      1 ;    C3' - O5'   
    91     93      1 ;    H3' - H2'   
    91     94      1 ;    H3' - O2'   
    91     97      1 ;    H3' - P     
    92     97      1 ;    C2' - P     
    93     95      1 ;    H2' - HO2'  
    93     96      1 ;    H2' - O3'   
    94     96      1 ;    O2' - O3'   
    96    101      1 ;    O3' - C5'   
    97    102      1 ;      P - H5'   
    97    103      1 ;      P - H5''  
    97    104      1 ;      P - C4'   
    98    101      1 ;    OP1 - C5'   
    99    101      1 ;    OP2 - C5'   
   100    105      1 ;    O5' - H4'   
   100    106      1 ;    O5' - O4'   
   100    124      1 ;    O5' - C3'   
   101    107      1 ;    C5' - C1'   
   101    125      1 ;    C5' - H3'   
   101    126      1 ;    C5' - C2'   
   101    130      1 ;    C5' - O3'   
   102    105      1 ;    H5' - H4'   
   102    106      1 ;    H5' - O4'   
   102    124      1 ;    H5' - C3'   
   103    105      1 ;   H5'' - H4'   
   103    106      1 ;   H5'' - O4'   
   103    124      1 ;   H5'' - C3'   
   104    108      1 ;    C4' - H1'   
   104    109      1 ;    C4' - N9    
   104    127      1 ;    C4' - H2'   
   104    128      1 ;    C4' - O2'   
   104    131      1 ;    C4' - P     
   105    107      1 ;    H4' - C1'   
   105    125      1 ;    H4' - H3'   
   105    126      1 ;    H4' - C2'   
   105    130      1 ;    H4' - O3'   
   106    110      1 ;    O4' - C8    
   106    123      1 ;    O4' - C4    
   106    125      1 ;    O4' - H3'   
   106    127      1 ;    O4' - H2'   
   106    128      1 ;    O4' - O2'   
   106    130      1 ;    O4' - O3'   
   107    111      1 ;    C1' - H8    
   107    112      1 ;    C1' - N7    
   107    113      1 ;    C1' - C5    
   107    122      1 ;    C1' - N3    
   107    125      1 ;    C1' - H3'   
   107    129      1 ;    C1' - HO2'  
   107    130      1 ;    C1' - O3'   
   108    110      1 ;    H1' - C8    
   108    123      1 ;    H1' - C4    
   108    124      1 ;    H1' - C3'   
   108    127      1 ;    H1' - H2'   
   108    128      1 ;    H1' - O2'   
   109    114      1 ;     N9 - C6    
   109    118      1 ;     N9 - C2    
   109    124      1 ;     N9 - C3'   
   109    127      1 ;     N9 - H2'   
   109    128      1 ;     N9 - O2'   
   110    114      1 ;     C8 - C6    
   110    122      1 ;     C8 - N3    
   110    126      1 ;     C8 - C2'   
   111    113      1 ;     H8 - C5    
   111    123      1 ;     H8 - C4    
   112    115      1 ;     N7 - O6    
   112    116      1 ;     N7 - N1    
   112    122      1 ;     N7 - N3    
   113    117      1 ;     C5 - H1    
   113    118      1 ;     C5 - C2    
   114    119      1 ;     C6 - N2    
   114    122      1 ;     C6 - N3    
   115    117      1 ;     O6 - H1    
   115    118      1 ;     O6 - C2    
   115    123      1 ;     O6 - C4    
   116    120      1 ;     N1 - H21   
   116    121      1 ;     N1 - H22   
   116    123      1 ;     N1 - C4    
   117    119      1 ;     H1 - N2    
   117    122      1 ;     H1 - N3    
   119    123      1 ;     N2 - C4    
   120    122      1 ;    H21 - N3    
   121    122      1 ;    H22 - N3    
   123    126      1 ;     C4 - C2'   
   124    129      1 ;    C3' - HO2'  
   124    132      1 ;    C3' - OP1   
   124    133      1 ;    C3' - OP2   
   124    134      1 ;    C3' - O5'   
   125    127      1 ;    H3' - H2'   
   125    128      1 ;    H3' - O2'   
   125    131      1 ;    H3' - P     
   126    131      1 ;    C2' - P     
   127    129      1 ;    H2' - HO2'  
   127    130      1 ;    H2' - O3'   
   128    130      1 ;    O2' - O3'   
   130    135      1 ;    O3' - C5'   
   131    136      1 ;      P - H5'   
   131    137      1 ;      P - H5''  
   131    138      1 ;      P - C4'   
   132    135      1 ;    OP1 - C5'   
   133    135      1 ;    OP2 - C5'   
   134    139      1 ;    O5' - H4'   
   134    140      1 ;    O5' - O4'   
   134    155      1 ;    O5' - C3'   
   135    141      1 ;    C5' - C1'   
   135    156      1 ;    C5' - H3'   
   135    157      1 ;    C5' - C2'   
   135    161      1 ;    C5' - O3'   
   136    139      1 ;    H5' - H4'   
   136    140      1 ;    H5' - O4'   
   136    155      1 ;    H5' - C3'   
   137    139      1 ;   H5'' - H4'   
   137    140      1 ;   H5'' - O4'   
   137    155      1 ;   H5'' - C3'   
   138    142      1 ;    C4' - H1'   
   138    143      1 ;    C4' - N1    
   138    158      1 ;    C4' - H2'   
   138    159      1 ;    C4' - O2'   
   138    162      1 ;    C4' - P     
   139    141      1 ;    H4' - C1'   
   139    156      1 ;    H4' - H3'   
   139    157      1 ;    H4' - C2'   
   139    161      1 ;    H4' - O3'   
   140    144      1 ;    O4' - C6    
   140    153      1 ;    O4' - C2    
   140    156      1 ;    O4' - H3'   
   140    158      1 ;    O4' - H2'   
   140    159      1 ;    O4' - O2'   
   140    161      1 ;    O4' - O3'   
   141    145      1 ;    C1' - H6    
   141    146      1 ;    C1' - C5    
   141    152      1 ;    C1' - N3    
   141    154      1 ;    C1' - O2    
   141    156      1 ;    C1' - H3'   
   141    160      1 ;    C1' - HO2'  
   141    161      1 ;    C1' - O3'   
   142    144      1 ;    H1' - C6    
   142    153      1 ;    H1' - C2    
   142    155      1 ;    H1' - C3'   
   142    158      1 ;    H1' - H2'   
   142    159      1 ;    H1' - O2'   
   143    147      1 ;     N1 - H5    
   143    148      1 ;     N1 - C4    
   143    155      1 ;     N1 - C3'   
   143    158      1 ;     N1 - H2'   
   143    159      1 ;     N1 - O2'   
   144    149      1 ;     C6 - N4    
   144    152      1 ;     C6 - N3    
   144    154      1 ;     C6 - O2    
   144    157      1 ;     C6 - C2'   
   145    147      1 ;     H6 - H5    
   145    148      1 ;     H6 - C4    
   145    153      1 ;     H6 - C2    
   146    150      1 ;     C5 - H41   
   146    151      1 ;     C5 - H42   
   146    153      1 ;     C5 - C2    
   147    149      1 ;     H5 - N4    
   147    152      1 ;     H5 - N3    
   148    154      1 ;     C4 - O2    
   149    153      1 ;     N4 - C2    
   150    152      1 ;    H41 - N3    
   151    152      1 ;    H42 - N3    
   153    157      1 ;     C2 - C2'   
   155    160      1 ;    C3' - HO2'  
   155    163      1 ;    C3' - OP1   
   155    164      1 ;    C3' - OP2   
   155    165      1 ;    C3' - O5'   
   156    158      1 ;    H3' - H2'   
   156    159      1 ;    H3' - O2'   
   156    162      1 ;    H3' - P     
   157    162      1 ;    C2' - P     
   158    160      1 ;    H2' - HO2'  
   158    161      1 ;    H2' - O3'   
   159    161      1 ;    O2' - O3'   
   161    166      1 ;    O3' - C5'   
   162    167      1 ;      P - H5'   
   162    168      1 ;      P - H5''  
   162    169      1 ;      P - C4'   
   163    166      1 ;    OP1 - C5'   
   164    166      1 ;    OP2 - C5'   
   165    170      1 ;    O5' - H4'   
   165    171      1 ;    O5' - O4'   
   165    185      1 ;    O5' - C3'   
   166    172      1 ;    C5' - C1'   
   166    186      1 ;    C5' - H3'   
   166    187      1 ;    C5' - C2'   
   166    191      1 ;    C5' - O3'   
   167    170      1 ;    H5' - H4'   
   167    171      1 ;    H5' - O4'   
   167    185      1 ;    H5' - C3'   
   168    170      1 ;   H5'' - H4'   
   168    171      1 ;   H5'' - O4'   
   168    185      1 ;   H5'' - C3'   
   169    173      1 ;    C4' - H1'   
   169    174      1 ;    C4' - N1    
   169    188      1 ;    C4' - H2'   
   169    189      1 ;    C4' - O2'   
   169    192      1 ;    C4' - P     
   170    172      1 ;    H4' - C1'   
   170    186      1 ;    H4' - H3'   
   170    187      1 ;    H4' - C2'   
   170    191      1 ;    H4' - O3'   
   171    175      1 ;    O4' - C6    
   171    183      1 ;    O4' - C2    
   171    186      1 ;    O4' - H3'   
   171    188      1 ;    O4' - H2'   
   171    189      1 ;    O4' - O2'   
   171    191      1 ;    O4' - O3'   
   172    176      1 ;    C1' - H6    
   172    177      1 ;    C1' - C5    
   172    181      1 ;    C1' - N3    
   172    184      1 ;    C1' - O2    
   172    186      1 ;    C1' - H3'   
   172    190      1 ;    C1' - HO2'  
   172    191      1 ;    C1' - O3'   
   173    175      1 ;    H1' - C6    
   173    183      1 ;    H1' - C2    
   173    185      1 ;    H1' - C3'   
   173    188      1 ;    H1' - H2'   
   173    189      1 ;    H1' - O2'   
   174    178      1 ;     N1 - H5    
   174    179      1 ;     N1 - C4    
   174    182      1 ;     N1 - H3    
   174    185      1 ;     N1 - C3'   
   174    188      1 ;     N1 - H2'   
   174    189      1 ;     N1 - O2'   
   175    180      1 ;     C6 - O4    
   175    181      1 ;     C6 - N3    
   175    184      1 ;     C6 - O2    
   175    187      1 ;     C6 - C2'   
   176    178      1 ;     H6 - H5    
   176    179      1 ;     H6 - C4    
   176    183      1 ;     H6 - C2    
   177    182      1 ;     C5 - H3    
   177    183      1 ;     C5 - C2    
   178    180      1 ;     H5 - O4    
   178    181      1 ;     H5 - N3    
   179    184      1 ;     C4 - O2    
   180    182      1 ;     O4 - H3    
   180    183      1 ;     O4 - C2    
   182    184      1 ;     H3 - O2    
   183    187      1 ;     C2 - C2'   
   185    190      1 ;    C3' - HO2'  
   185    193      1 ;    C3' - OP1   
   185    194      1 ;    C3' - OP2   
   185    195      1 ;    C3' - O5'   
   186    188      1 ;    H3' - H2'   
   186    189      1 ;    H3' - O2'   
   186    192      1 ;    H3' - P     
   187    192      1 ;    C2' - P     
   188    190      1 ;    H2' - HO2'  
   188    191      1 ;    H2' - O3'   
   189    191      1 ;    O2' - O3'   
   191    196      1 ;    O3' - C5'   
   192    197      1 ;      P - H5'   
   192    198      1 ;      P - H5''  
   192    199      1 ;      P - C4'   
   193    196      1 ;    OP1 - C5'   
   194    196      1 ;    OP2 - C5'   
   195    200      1 ;    O5' - H4'   
   195    201      1 ;    O5' - O4'   
   195    215      1 ;    O5' - C3'   
   196    202      1 ;    C5' - C1'   
   196    216      1 ;    C5' - H3'   
   196    217      1 ;    C5' - C2'   
   196    221      1 ;    C5' - O3'   
   197    200      1 ;    H5' - H4'   
   197    201      1 ;    H5' - O4'   
   197    215      1 ;    H5' - C3'   
   198    200      1 ;   H5'' - H4'   
   198    201      1 ;   H5'' - O4'   
   198    215      1 ;   H5'' - C3'   
   199    203      1 ;    C4' - H1'   
   199    204      1 ;    C4' - N1    
   199    218      1 ;    C4' - H2'   
   199    219      1 ;    C4' - O2'   
   199    222      1 ;    C4' - P     
   200    202      1 ;    H4' - C1'   
   200    216      1 ;    H4' - H3'   
   200    217      1 ;    H4' - C2'   
   200    221      1 ;    H4' - O3'   
   201    205      1 ;    O4' - C6    
   201    213      1 ;    O4' - C2    
   201    216      1 ;    O4' - H3'   
   201    218      1 ;    O4' - H2'   
   201    219      1 ;    O4' - O2'   
   201    221      1 ;    O4' - O3'   
   202    206      1 ;    C1' - H6    
   202    207      1 ;    C1' - C5    
   202    211      1 ;    C1' - N3    
   202    214      1 ;    C1' - O2    
   202    216      1 ;    C1' - H3'   
   202    220      1 ;    C1' - HO2'  
   202    221      1 ;    C1' - O3'   
   203    205      1 ;    H1' - C6    
   203    213      1 ;    H1' - C2    
   203    215      1 ;    H1' - C3'   
   203    218      1 ;    H1' - H2'   
   203    219      1 ;    H1' - O2'   
   204    208      1 ;     N1 - H5    
   204    209      1 ;     N1 - C4    
   204    212      1 ;     N1 - H3    
   204    215      1 ;     N1 - C3'   
   204    218      1 ;     N1 - H2'   
   204    219      1 ;     N1 - O2'   
   205    210      1 ;     C6 - O4    
   205    211      1 ;     C6 - N3    
   205    214      1 ;     C6 - O2    
   205    217      1 ;     C6 - C2'   
   206    208      1 ;     H6 - H5    
   206    209      1 ;     H6 - C4    
   206    213      1 ;     H6 - C2    
   207    212      1 ;     C5 - H3    
   207    213      1 ;     C5 - C2    
   208    210      1 ;     H5 - O4    
   208    211      1 ;     H5 - N3    
   209    214      1 ;     C4 - O2    
   210    212      1 ;     O4 - H3    
   210    213      1 ;     O4 - C2    
   212    214      1 ;     H3 - O2    
   213    217      1 ;     C2 - C2'   
   215    220      1 ;    C3' - HO2'  
   215    223      1 ;    C3' - OP1   
   215    224      1 ;    C3' - OP2   
   215    225      1 ;    C3' - O5'   
   216    218      1 ;    H3' - H2'   
   216    219      1 ;    H3' - O2'   
   216    222      1 ;    H3' - P     
   217    222      1 ;    C2' - P     
   218    220      1 ;    H2' - HO2'  
   218    221      1 ;    H2' - O3'   
   219    221      1 ;    O2' - O3'   
   221    226      1 ;    O3' - C5'   
   222    227      1 ;      P - H5'   
   222    228      1 ;      P - H5''  
   222    229      1 ;      P - C4'   
   223    226      1 ;    OP1 - C5'   
   224    226      1 ;    OP2 - C5'   
   225    230      1 ;    O5' - H4'   
   225    231      1 ;    O5' - O4'   
   225    245      1 ;    O5' - C3'   
   226    232      1 ;    C5' - C1'   
   226    246      1 ;    C5' - H3'   
   226    247      1 ;    C5' - C2'   
   226    251      1 ;    C5' - O3'   
   227    230      1 ;    H5' - H4'   
   227    231      1 ;    H5' - O4'   
   227    245      1 ;    H5' - C3'   
   228    230      1 ;   H5'' - H4'   
   228    231      1 ;   H5'' - O4'   
   228    245      1 ;   H5'' - C3'   
   229    233      1 ;    C4' - H1'   
   229    234      1 ;    C4' - N1    
   229    248      1 ;    C4' - H2'   
   229    249      1 ;    C4' - O2'   
   229    252      1 ;    C4' - P     
   230    232      1 ;    H4' - C1'   
   230    246      1 ;    H4' - H3'   
   230    247      1 ;    H4' - C2'   
   230    251      1 ;    H4' - O3'   
   231    235      1 ;    O4' - C6    
   231    243      1 ;    O4' - C2    
   231    246      1 ;    O4' - H3'   
   231    248      1 ;    O4' - H2'   
   231    249      1 ;    O4' - O2'   
   231    251      1 ;    O4' - O3'   
   232    236      1 ;    C1' - H6    
   232    237      1 ;    C1' - C5    
   232    241      1 ;    C1' - N3    
   232    244      1 ;    C1' - O2    
   232    246      1 ;    C1' - H3'   
   232    250      1 ;    C1' - HO2'  
   232    251      1 ;    C1' - O3'   
   233    235      1 ;    H1' - C6    
   233    243      1 ;    H1' - C2    
   233    245      1 ;    H1' - C3'   
   233    248      1 ;    H1' - H2'   
   233    249      1 ;    H1' - O2'   
   234    238      1 ;     N1 - H5    
   234    239      1 ;     N1 - C4    
   234    242      1 ;     N1 - H3    
   234    245      1 ;     N1 - C3'   
   234    248      1 ;     N1 - H2'   
   234    249      1 ;     N1 - O2'   
   235    240      1 ;     C6 - O4    
   235    241      1 ;     C6 - N3    
   235    244      1 ;     C6 - O2    
   235    247      1 ;     C6 - C2'   
   236    238      1 ;     H6 - H5    
   236    239      1 ;     H6 - C4    
   236    243      1 ;     H6 - C2    
   237    242      1 ;     C5 - H3    
   237    243      1 ;     C5 - C2    
   238    240      1 ;     H5 - O4    
   238    241      1 ;     H5 - N3    
   239    244      1 ;     C4 - O2    
   240    242      1 ;     O4 - H3    
   240    243      1 ;     O4 - C2    
   242    244      1 ;     H3 - O2    
   243    247      1 ;     C2 - C2'   
   245    250      1 ;    C3' - HO2'  
   245    253      1 ;    C3' - OP1   
   245    254      1 ;    C3' - OP2   
   245    255      1 ;    C3' - O5'   
   246    248      1 ;    H3' - H2'   
   246    249      1 ;    H3' - O2'   
   246    252      1 ;    H3' - P     
   247    252      1 ;    C2' - P     
   248    250      1 ;    H2' - HO2'  
   248    251      1 ;    H2' - O3'   
   249    251      1 ;    O2' - O3'   
   251    256      1 ;    O3' - C5'   
   252    257      1 ;      P - H5'   
   252    258      1 ;      P - H5''  
   252    259      1 ;      P - C4'   
   253    256      1 ;    OP1 - C5'   
   254    256      1 ;    OP2 - C5'   
   255    260      1 ;    O5' - H4'   
   255    261      1 ;    O5' - O4'   
   255    276      1 ;    O5' - C3'   
   256    262      1 ;    C5' - C1'   
   256    277      1 ;    C5' - H3'   
   256    278      1 ;    C5' - C2'   
   256    282      1 ;    C5' - O3'   
   257    260      1 ;    H5' - H4'   
   257    261      1 ;    H5' - O4'   
   257    276      1 ;    H5' - C3'   
   258    260      1 ;   H5'' - H4'   
   258    261      1 ;   H5'' - O4'   
   258    276      1 ;   H5'' - C3'   
   259    263      1 ;    C4' - H1'   
   259    264      1 ;    C4' - N1    
   259    279      1 ;    C4' - H2'   
   259    280      1 ;    C4' - O2'   
   259    283      1 ;    C4' - P     
   260    262      1 ;    H4' - C1'   
   260    277      1 ;    H4' - H3'   
   260    278      1 ;    H4' - C2'   
   260    282      1 ;    H4' - O3'   
   261    265      1 ;    O4' - C6    
   261    274      1 ;    O4' - C2    
   261    277      1 ;    O4' - H3'   
   261    279      1 ;    O4' - H2'   
   261    280      1 ;    O4' - O2'   
   261    282      1 ;    O4' - O3'   
   262    266      1 ;    C1' - H6    
   262    267      1 ;    C1' - C5    
   262    273      1 ;    C1' - N3    
   262    275      1 ;    C1' - O2    
   262    277      1 ;    C1' - H3'   
   262    281      1 ;    C1' - HO2'  
   262    282      1 ;    C1' - O3'   
   263    265      1 ;    H1' - C6    
   263    274      1 ;    H1' - C2    
   263    276      1 ;    H1' - C3'   
   263    279      1 ;    H1' - H2'   
   263    280      1 ;    H1' - O2'   
   264    268      1 ;     N1 - H5    
   264    269      1 ;     N1 - C4    
   264    276      1 ;     N1 - C3'   
   264    279      1 ;     N1 - H2'   
   264    280      1 ;     N1 - O2'   
   265    270      1 ;     C6 - N4    
   265    273      1 ;     C6 - N3    
   265    275      1 ;     C6 - O2    
   265    278      1 ;     C6 - C2'   
   266    268      1 ;     H6 - H5    
   266    269      1 ;     H6 - C4    
   266    274      1 ;     H6 - C2    
   267    271      1 ;     C5 - H41   
   267    272      1 ;     C5 - H42   
   267    274      1 ;     C5 - C2    
   268    270      1 ;     H5 - N4    
   268    273      1 ;     H5 - N3    
   269    275      1 ;     C4 - O2    
   270    274      1 ;     N4 - C2    
   271    273      1 ;    H41 - N3    
   272    273      1 ;    H42 - N3    
   274    278      1 ;     C2 - C2'   
   276    281      1 ;    C3' - HO2'  
   276    284      1 ;    C3' - OP1   
   276    285      1 ;    C3' - OP2   
   276    286      1 ;    C3' - O5'   
   277    279      1 ;    H3' - H2'   
   277    280      1 ;    H3' - O2'   
   277    283      1 ;    H3' - P     
   278    283      1 ;    C2' - P     
   279    281      1 ;    H2' - HO2'  
   279    282      1 ;    H2' - O3'   
   280    282      1 ;    O2' - O3'   
   282    287      1 ;    O3' - C5'   
   283    288      1 ;      P - H5'   
   283    289      1 ;      P - H5''  
   283    290      1 ;      P - C4'   
   284    287      1 ;    OP1 - C5'   
   285    287      1 ;    OP2 - C5'   
   286    291      1 ;    O5' - H4'   
   286    292      1 ;    O5' - O4'   
   286    310      1 ;    O5' - C3'   
   287    293      1 ;    C5' - C1'   
   287    311      1 ;    C5' - H3'   
   287    312      1 ;    C5' - C2'   
   287    316      1 ;    C5' - O3'   
   288    291      1 ;    H5' - H4'   
   288    292      1 ;    H5' - O4'   
   288    310      1 ;    H5' - C3'   
   289    291      1 ;   H5'' - H4'   
   289    292      1 ;   H5'' - O4'   
   289    310      1 ;   H5'' - C3'   
   290    294      1 ;    C4' - H1'   
   290    295      1 ;    C4' - N9    
   290    313      1 ;    C4' - H2'   
   290    314      1 ;    C4' - O2'   
   290    317      1 ;    C4' - P     
   291    293      1 ;    H4' - C1'   
   291    311      1 ;    H4' - H3'   
   291    312      1 ;    H4' - C2'   
   291    316      1 ;    H4' - O3'   
   292    296      1 ;    O4' - C8    
   292    309      1 ;    O4' - C4    
   292    311      1 ;    O4' - H3'   
   292    313      1 ;    O4' - H2'   
   292    314      1 ;    O4' - O2'   
   292    316      1 ;    O4' - O3'   
   293    297      1 ;    C1' - H8    
   293    298      1 ;    C1' - N7    
   293    299      1 ;    C1' - C5    
   293    308      1 ;    C1' - N3    
   293    311      1 ;    C1' - H3'   
   293    315      1 ;    C1' - HO2'  
   293    316      1 ;    C1' - O3'   
   294    296      1 ;    H1' - C8    
   294    309      1 ;    H1' - C4    
   294    310      1 ;    H1' - C3'   
   294    313      1 ;    H1' - H2'   
   294    314      1 ;    H1' - O2'   
   295    300      1 ;     N9 - C6    
   295    304      1 ;     N9 - C2    
   295    310      1 ;     N9 - C3'   
   295    313      1 ;     N9 - H2'   
   295    314      1 ;     N9 - O2'   
   296    300      1 ;     C8 - C6    
   296    308      1 ;     C8 - N3    
   296    312      1 ;     C8 - C2'   
   297    299      1 ;     H8 - C5    
   297    309      1 ;     H8 - C4    
   298    301      1 ;     N7 - O6    
   298    302      1 ;     N7 - N1    
   298    308      1 ;     N7 - N3    
   299    303      1 ;     C5 - H1    
   299    304      1 ;     C5 - C2    
   300    305      1 ;     C6 - N2    
   300    308      1 ;     C6 - N3    
   301    303      1 ;     O6 - H1    
   301    304      1 ;     O6 - C2    
   301    309      1 ;     O6 - C4    
   302    306      1 ;     N1 - H21   
   302    307      1 ;     N1 - H22   
   302    309      1 ;     N1 - C4    
   303    305      1 ;     H1 - N2    
   303    308      1 ;     H1 - N3    
   305    309      1 ;     N2 - C4    
   306    308      1 ;    H21 - N3    
   307    308      1 ;    H22 - N3    
   309    312      1 ;     C4 - C2'   
   310    315      1 ;    C3' - HO2'  
   310    318      1 ;    C3' - OP1   
   310    319      1 ;    C3' - OP2   
   310    320      1 ;    C3' - O5'   
   311    313      1 ;    H3' - H2'   
   311    314      1 ;    H3' - O2'   
   311    317      1 ;    H3' - P     
   312    317      1 ;    C2' - P     
   313    315      1 ;    H2' - HO2'  
   313    316      1 ;    H2' - O3'   
   314    316      1 ;    O2' - O3'   
   316    321      1 ;    O3' - C5'   
   317    322      1 ;      P - H5'   
   317    323      1 ;      P - H5''  
   317    324      1 ;      P - C4'   
   318    321      1 ;    OP1 - C5'   
   319    321      1 ;    OP2 - C5'   
   320    325      1 ;    O5' - H4'   
   320    326      1 ;    O5' - O4'   
   320    343      1 ;    O5' - C3'   
   321    327      1 ;    C5' - C1'   
   321    344      1 ;    C5' - H3'   
   321    345      1 ;    C5' - C2'   
   321    349      1 ;    C5' - O3'   
   322    325      1 ;    H5' - H4'   
   322    326      1 ;    H5' - O4'   
   322    343      1 ;    H5' - C3'   
   323    325      1 ;   H5'' - H4'   
   323    326      1 ;   H5'' - O4'   
   323    343      1 ;   H5'' - C3'   
   324    328      1 ;    C4' - H1'   
   324    329      1 ;    C4' - N9    
   324    346      1 ;    C4' - H2'   
   324    347      1 ;    C4' - O2'   
   324    350      1 ;    C4' - P     
   325    327      1 ;    H4' - C1'   
   325    344      1 ;    H4' - H3'   
   325    345      1 ;    H4' - C2'   
   325    349      1 ;    H4' - O3'   
   326    330      1 ;    O4' - C8    
   326    342      1 ;    O4' - C4    
   326    344      1 ;    O4' - H3'   
   326    346      1 ;    O4' - H2'   
   326    347      1 ;    O4' - O2'   
   326    349      1 ;    O4' - O3'   
   327    331      1 ;    C1' - H8    
   327    332      1 ;    C1' - N7    
   327    333      1 ;    C1' - C5    
   327    341      1 ;    C1' - N3    
   327    344      1 ;    C1' - H3'   
   327    348      1 ;    C1' - HO2'  
   327    349      1 ;    C1' - O3'   
   328    330      1 ;    H1' - C8    
   328    342      1 ;    H1' - C4    
   328    343      1 ;    H1' - C3'   
   328    346      1 ;    H1' - H2'   
   328    347      1 ;    H1' - O2'   
   329    334      1 ;     N9 - C6    
   329    339      1 ;     N9 - C2    
   329    343      1 ;     N9 - C3'   
   329    346      1 ;     N9 - H2'   
   329    347      1 ;     N9 - O2'   
   330    334      1 ;     C8 - C6    
   330    341      1 ;     C8 - N3    
   330    345      1 ;     C8 - C2'   
   331    333      1 ;     H8 - C5    
   331    342      1 ;     H8 - C4    
   332    335      1 ;     N7 - N6    
   332    338      1 ;     N7 - N1    
   332    341      1 ;     N7 - N3    
   333    336      1 ;     C5 - H61   
   333    337      1 ;     C5 - H62   
   333    339      1 ;     C5 - C2    
   334    340      1 ;     C6 - H2    
   334    341      1 ;     C6 - N3    
   335    339      1 ;     N6 - C2    
   335    342      1 ;     N6 - C4    
   336    338      1 ;    H61 - N1    
   337    338      1 ;    H62 - N1    
   338    342      1 ;     N1 - C4    
   340    342      1 ;     H2 - C4    
   342    345      1 ;     C4 - C2'   
   343    348      1 ;    C3' - HO2'  
   343    351      1 ;    C3' - OP1   
   343    352      1 ;    C3' - OP2   
   343    353      1 ;    C3' - O5'   
   344    346      1 ;    H3' - H2'   
   344    347      1 ;    H3' - O2'   
   344    350      1 ;    H3' - P     
   345    350      1 ;    C2' - P     
   346    348      1 ;    H2' - HO2'  
   346    349      1 ;    H2' - O3'   
   347    349      1 ;    O2' - O3'   
   349    354      1 ;    O3' - C5'   
   350    355      1 ;      P - H5'   
   350    356      1 ;      P - H5''  
   350    357      1 ;      P - C4'   
   351    354      1 ;    OP1 - C5'   
   352    354      1 ;    OP2 - C5'   
   353    358      1 ;    O5' - H4'   
   353    359      1 ;    O5' - O4'   
   353    377      1 ;    O5' - C3'   
   354    360      1 ;    C5' - C1'   
   354    378      1 ;    C5' - H3'   
   354    379      1 ;    C5' - C2'   
   354    383      1 ;    C5' - O3'   
   355    358      1 ;    H5' - H4'   
   355    359      1 ;    H5' - O4'   
   355    377      1 ;    H5' - C3'   
   356    358      1 ;   H5'' - H4'   
   356    359      1 ;   H5'' - O4'   
   356    377      1 ;   H5'' - C3'   
   357    361      1 ;    C4' - H1'   
   357    362      1 ;    C4' - N9    
   357    380      1 ;    C4' - H2'   
   357    381      1 ;    C4' - O2'   
   357    384      1 ;    C4' - P     
   358    360      1 ;    H4' - C1'   
   358    378      1 ;    H4' - H3'   
   358    379      1 ;    H4' - C2'   
   358    383      1 ;    H4' - O3'   
   359    363      1 ;    O4' - C8    
   359    376      1 ;    O4' - C4    
   359    378      1 ;    O4' - H3'   
   359    380      1 ;    O4' - H2'   
   359    381      1 ;    O4' - O2'   
   359    383      1 ;    O4' - O3'   
   360    364      1 ;    C1' - H8    
   360    365      1 ;    C1' - N7    
   360    366      1 ;    C1' - C5    
   360    375      1 ;    C1' - N3    
   360    378      1 ;    C1' - H3'   
   360    382      1 ;    C1' - HO2'  
   360    383      1 ;    C1' - O3'   
   361    363      1 ;    H1' - C8    
   361    376      1 ;    H1' - C4    
   361    377      1 ;    H1' - C3'   
   361    380      1 ;    H1' - H2'   
   361    381      1 ;    H1' - O2'   
   362    367      1 ;     N9 - C6    
   362    371      1 ;     N9 - C2    
   362    377      1 ;     N9 - C3'   
   362    380      1 ;     N9 - H2'   
   362    381      1 ;     N9 - O2'   
   363    367      1 ;     C8 - C6    
   363    375      1 ;     C8 - N3    
   363    379      1 ;     C8 - C2'   
   364    366      1 ;     H8 - C5    
   364    376      1 ;     H8 - C4    
   365    368      1 ;     N7 - O6    
   365    369      1 ;     N7 - N1    
   365    375      1 ;     N7 - N3    
   366    370      1 ;     C5 - H1    
   366    371      1 ;     C5 - C2    
   367    372      1 ;     C6 - N2    
   367    375      1 ;     C6 - N3    
   368    370      1 ;     O6 - H1    
   368    371      1 ;     O6 - C2    
   368    376      1 ;     O6 - C4    
   369    373      1 ;     N1 - H21   
   369    374      1 ;     N1 - H22   
   369    376      1 ;     N1 - C4    
   370    372      1 ;     H1 - N2    
   370    375      1 ;     H1 - N3    
   372    376      1 ;     N2 - C4    
   373    375      1 ;    H21 - N3    
   374    375      1 ;    H22 - N3    
   376    379      1 ;     C4 - C2'   
   377    382      1 ;    C3' - HO2'  
   377    385      1 ;    C3' - OP1   
   377    386      1 ;    C3' - OP2   
   377    387      1 ;    C3' - O5'   
   378    380      1 ;    H3' - H2'   
   378    381      1 ;    H3' - O2'   
   378    384      1 ;    H3' - P     
   379    384      1 ;    C2' - P     
   380    382      1 ;    H2' - HO2'  
   380    383      1 ;    H2' - O3'   
   381    383      1 ;    O2' - O3'   
   383    388      1 ;    O3' - C5'   
   384    389      1 ;      P - H5'   
   384    390      1 ;      P - H5''  
   384    391      1 ;      P - C4'   
   385    388      1 ;    OP1 - C5'   
   386    388      1 ;    OP2 - C5'   
   387    392      1 ;    O5' - H4'   
   387    393      1 ;    O5' - O4'   
   387    408      1 ;    O5' - C3'   
   388    394      1 ;    C5' - C1'   
   388    409      1 ;    C5' - H3'   
   388    410      1 ;    C5' - C2'   
   388    414      1 ;    C5' - O3'   
   389    392      1 ;    H5' - H4'   
   389    393      1 ;    H5' - O4'   
   389    408      1 ;    H5' - C3'   
   390    392      1 ;   H5'' - H4'   
   390    393      1 ;   H5'' - O4'   
   390    408      1 ;   H5'' - C3'   
   391    395      1 ;    C4' - H1'   
   391    396      1 ;    C4' - N1    
   391    411      1 ;    C4' - H2'   
   391    412      1 ;    C4' - O2'   
   391    415      1 ;    C4' - P     
   392    394      1 ;    H4' - C1'   
   392    409      1 ;    H4' - H3'   
   392    410      1 ;    H4' - C2'   
   392    414      1 ;    H4' - O3'   
   393    397      1 ;    O4' - C6    
   393    406      1 ;    O4' - C2    
   393    409      1 ;    O4' - H3'   
   393    411      1 ;    O4' - H2'   
   393    412      1 ;    O4' - O2'   
   393    414      1 ;    O4' - O3'   
   394    398      1 ;    C1' - H6    
   394    399      1 ;    C1' - C5    
   394    405      1 ;    C1' - N3    
   394    407      1 ;    C1' - O2    
   394    409      1 ;    C1' - H3'   
   394    413      1 ;    C1' - HO2'  
   394    414      1 ;    C1' - O3'   
   395    397      1 ;    H1' - C6    
   395    406      1 ;    H1' - C2    
   395    408      1 ;    H1' - C3'   
   395    411      1 ;    H1' - H2'   
   395    412      1 ;    H1' - O2'   
   396    400      1 ;     N1 - H5    
   396    401      1 ;     N1 - C4    
   396    408      1 ;     N1 - C3'   
   396    411      1 ;     N1 - H2'   
   396    412      1 ;     N1 - O2'   
   397    402      1 ;     C6 - N4    
   397    405      1 ;     C6 - N3    
   397    407      1 ;     C6 - O2    
   397    410      1 ;     C6 - C2'   
   398    400      1 ;     H6 - H5    
   398    401      1 ;     H6 - C4    
   398    406      1 ;     H6 - C2    
   399    403      1 ;     C5 - H41   
   399    404      1 ;     C5 - H42   
   399    406      1 ;     C5 - C2    
   400    402      1 ;     H5 - N4    
   400    405      1 ;     H5 - N3    
   401    407      1 ;     C4 - O2    
   402    406      1 ;     N4 - C2    
   403    405      1 ;    H41 - N3    
   404    405      1 ;    H42 - N3    
   406    410      1 ;     C2 - C2'   
   408    413      1 ;    C3' - HO2'  
   408    416      1 ;    C3' - OP1   
   408    417      1 ;    C3' - OP2   
   408    418      1 ;    C3' - O5'   
   409    411      1 ;    H3' - H2'   
   409    412      1 ;    H3' - O2'   
   409    415      1 ;    H3' - P     
   410    415      1 ;    C2' - P     
   411    413      1 ;    H2' - HO2'  
   411    414      1 ;    H2' - O3'   
   412    414      1 ;    O2' - O3'   
   414    419      1 ;    O3' - C5'   
   415    420      1 ;      P - H5'   
   415    421      1 ;      P - H5''  
   415    422      1 ;      P - C4'   
   416    419      1 ;    OP1 - C5'   
   417    419      1 ;    OP2 - C5'   
   418    423      1 ;    O5' - H4'   
   418    424      1 ;    O5' - O4'   
   418    442      1 ;    O5' - C3'   
   419    425      1 ;    C5' - C1'   
   419    443      1 ;    C5' - H3'   
   419    444      1 ;    C5' - C2'   
   419    448      1 ;    C5' - O3'   
   420    423      1 ;    H5' - H4'   
   420    424      1 ;    H5' - O4'   
   420    442      1 ;    H5' - C3'   
   421    423      1 ;   H5'' - H4'   
   421    424      1 ;   H5'' - O4'   
   421    442      1 ;   H5'' - C3'   
   422    426      1 ;    C4' - H1'   
   422    427      1 ;    C4' - N9    
   422    445      1 ;    C4' - H2'   
   422    446      1 ;    C4' - O2'   
   422    449      1 ;    C4' - P     
   423    425      1 ;    H4' - C1'   
   423    443      1 ;    H4' - H3'   
   423    444      1 ;    H4' - C2'   
   423    448      1 ;    H4' - O3'   
   424    428      1 ;    O4' - C8    
   424    441      1 ;    O4' - C4    
   424    443      1 ;    O4' - H3'   
   424    445      1 ;    O4' - H2'   
   424    446      1 ;    O4' - O2'   
   424    448      1 ;    O4' - O3'   
   425    429      1 ;    C1' - H8    
   425    430      1 ;    C1' - N7    
   425    431      1 ;    C1' - C5    
   425    440      1 ;    C1' - N3    
   425    443      1 ;    C1' - H3'   
   425    447      1 ;    C1' - HO2'  
   425    448      1 ;    C1' - O3'   
   426    428      1 ;    H1' - C8    
   426    441      1 ;    H1' - C4    
   426    442      1 ;    H1' - C3'   
   426    445      1 ;    H1' - H2'   
   426    446      1 ;    H1' - O2'   
   427    432      1 ;     N9 - C6    
   427    436      1 ;     N9 - C2    
   427    442      1 ;     N9 - C3'   
   427    445      1 ;     N9 - H2'   
   427    446      1 ;     N9 - O2'   
   428    432      1 ;     C8 - C6    
   428    440      1 ;     C8 - N3    
   428    444      1 ;     C8 - C2'   
   429    431      1 ;     H8 - C5    
   429    441      1 ;     H8 - C4    
   430    433      1 ;     N7 - O6    
   430    434      1 ;     N7 - N1    
   430    440      1 ;     N7 - N3    
   431    435      1 ;     C5 - H1    
   431    436      1 ;     C5 - C2    
   432    437      1 ;     C6 - N2    
   432    440      1 ;     C6 - N3    
   433    435      1 ;     O6 - H1    
   433    436      1 ;     O6 - C2    
   433    441      1 ;     O6 - C4    
   434    438      1 ;     N1 - H21   
   434    439      1 ;     N1 - H22   
   434    441      1 ;     N1 - C4    
   435    437      1 ;     H1 - N2    
   435    440      1 ;     H1 - N3    
   437    441      1 ;     N2 - C4    
   438    440      1 ;    H21 - N3    
   439    440      1 ;    H22 - N3    
   441    444      1 ;     C4 - C2'   
   442    447      1 ;    C3' - HO2'  
   442    450      1 ;    C3' - OP1   
   442    451      1 ;    C3' - OP2   
   442    452      1 ;    C3' - O5'   
   443    445      1 ;    H3' - H2'   
   443    446      1 ;    H3' - O2'   
   443    449      1 ;    H3' - P     
   444    449      1 ;    C2' - P     
   445    447      1 ;    H2' - HO2'  
   445    448      1 ;    H2' - O3'   
   446    448      1 ;    O2' - O3'   
   448    453      1 ;    O3' - C5'   
   449    454      1 ;      P - H5'   
   449    455      1 ;      P - H5''  
   449    456      1 ;      P - C4'   
   450    453      1 ;    OP1 - C5'   
   451    453      1 ;    OP2 - C5'   
   452    457      1 ;    O5' - H4'   
   452    458      1 ;    O5' - O4'   
   452    473      1 ;    O5' - C3'   
   453    459      1 ;    C5' - C1'   
   453    474      1 ;    C5' - H3'   
   453    475      1 ;    C5' - C2'   
   453    479      1 ;    C5' - O3'   
   454    457      1 ;    H5' - H4'   
   454    458      1 ;    H5' - O4'   
   454    473      1 ;    H5' - C3'   
   455    457      1 ;   H5'' - H4'   
   455    458      1 ;   H5'' - O4'   
   455    473      1 ;   H5'' - C3'   
   456    460      1 ;    C4' - H1'   
   456    461      1 ;    C4' - N1    
   456    476      1 ;    C4' - H2'   
   456    477      1 ;    C4' - O2'   
   456    480      1 ;    C4' - P     
   457    459      1 ;    H4' - C1'   
   457    474      1 ;    H4' - H3'   
   457    475      1 ;    H4' - C2'   
   457    479      1 ;    H4' - O3'   
   458    462      1 ;    O4' - C6    
   458    471      1 ;    O4' - C2    
   458    474      1 ;    O4' - H3'   
   458    476      1 ;    O4' - H2'   
   458    477      1 ;    O4' - O2'   
   458    479      1 ;    O4' - O3'   
   459    463      1 ;    C1' - H6    
   459    464      1 ;    C1' - C5    
   459    470      1 ;    C1' - N3    
   459    472      1 ;    C1' - O2    
   459    474      1 ;    C1' - H3'   
   459    478      1 ;    C1' - HO2'  
   459    479      1 ;    C1' - O3'   
   460    462      1 ;    H1' - C6    
   460    471      1 ;    H1' - C2    
   460    473      1 ;    H1' - C3'   
   460    476      1 ;    H1' - H2'   
   460    477      1 ;    H1' - O2'   
   461    465      1 ;     N1 - H5    
   461    466      1 ;     N1 - C4    
   461    473      1 ;     N1 - C3'   
   461    476      1 ;     N1 - H2'   
   461    477      1 ;     N1 - O2'   
   462    467      1 ;     C6 - N4    
   462    470      1 ;     C6 - N3    
   462    472      1 ;     C6 - O2    
   462    475      1 ;     C6 - C2'   
   463    465      1 ;     H6 - H5    
   463    466      1 ;     H6 - C4    
   463    471      1 ;     H6 - C2    
   464    468      1 ;     C5 - H41   
   464    469      1 ;     C5 - H42   
   464    471      1 ;     C5 - C2    
   465    467      1 ;     H5 - N4    
   465    470      1 ;     H5 - N3    
   466    472      1 ;     C4 - O2    
   467    471      1 ;     N4 - C2    
   468    470      1 ;    H41 - N3    
   469    470      1 ;    H42 - N3    
   471    475      1 ;     C2 - C2'   
   473    478      1 ;    C3' - HO2'  
   473    481      1 ;    C3' - OP1   
   473    482      1 ;    C3' - OP2   
   473    483      1 ;    C3' - O5'   
   474    476      1 ;    H3' - H2'   
   474    477      1 ;    H3' - O2'   
   474    480      1 ;    H3' - P     
   475    480      1 ;    C2' - P     
   476    478      1 ;    H2' - HO2'  
   476    479      1 ;    H2' - O3'   
   477    479      1 ;    O2' - O3'   
   479    484      1 ;    O3' - C5'   
   480    485      1 ;      P - H5'   
   480    486      1 ;      P - H5''  
   480    487      1 ;      P - C4'   
   481    484      1 ;    OP1 - C5'   
   482    484      1 ;    OP2 - C5'   
   483    488      1 ;    O5' - H4'   
   483    489      1 ;    O5' - O4'   
   483    503      1 ;    O5' - C3'   
   484    490      1 ;    C5' - C1'   
   484    504      1 ;    C5' - H3'   
   484    505      1 ;    C5' - C2'   
   484    509      1 ;    C5' - O3'   
   485    488      1 ;    H5' - H4'   
   485    489      1 ;    H5' - O4'   
   485    503      1 ;    H5' - C3'   
   486    488      1 ;   H5'' - H4'   
   486    489      1 ;   H5'' - O4'   
   486    503      1 ;   H5'' - C3'   
   487    491      1 ;    C4' - H1'   
   487    492      1 ;    C4' - N1    
   487    506      1 ;    C4' - H2'   
   487    507      1 ;    C4' - O2'   
   487    510      1 ;    C4' - HO3'  
   488    490      1 ;    H4' - C1'   
   488    504      1 ;    H4' - H3'   
   488    505      1 ;    H4' - C2'   
   488    509      1 ;    H4' - O3'   
   489    493      1 ;    O4' - C6    
   489    501      1 ;    O4' - C2    
   489    504      1 ;    O4' - H3'   
   489    506      1 ;    O4' - H2'   
   489    507      1 ;    O4' - O2'   
   489    509      1 ;    O4' - O3'   
   490    494      1 ;    C1' - H6    
   490    495      1 ;    C1' - C5    
   490    499      1 ;    C1' - N3    
   490    502      1 ;    C1' - O2    
   490    504      1 ;    C1' - H3'   
   490    508      1 ;    C1' - HO2'  
   490    509      1 ;    C1' - O3'   
   491    493      1 ;    H1' - C6    
   491    501      1 ;    H1' - C2    
   491    503      1 ;    H1' - C3'   
   491    506      1 ;    H1' - H2'   
   491    507      1 ;    H1' - O2'   
   492    496      1 ;     N1 - H5    
   492    497      1 ;     N1 - C4    
   492    500      1 ;     N1 - H3    
   492    503      1 ;     N1 - C3'   
   492    506      1 ;     N1 - H2'   
   492    507      1 ;     N1 - O2'   
   493    498      1 ;     C6 - O4    
   493    499      1 ;     C6 - N3    
   493    502      1 ;     C6 - O2    
   493    505      1 ;     C6 - C2'   
   494    496      1 ;     H6 - H5    
   494    497      1 ;     H6 - C4    
   494    501      1 ;     H6 - C2    
   495    500      1 ;     C5 - H3    
   495    501      1 ;     C5 - C2    
   496    498      1 ;     H5 - O4    
   496    499      1 ;     H5 - N3    
   497    502      1 ;     C4 - O2    
   498    500      1 ;     O4 - H3    
   498    501      1 ;     O4 - C2    
   500    502      1 ;     H3 - O2    
   501    505      1 ;     C2 - C2'   
   503    508      1 ;    C3' - HO2'  
   504    506      1 ;    H3' - H2'   
   504    507      1 ;    H3' - O2'   
   504    510      1 ;    H3' - HO3'  
   505    510      1 ;    C2' - HO3'  
   506    508      1 ;    H2' - HO2'  
   506    509      1 ;    H2' - O3'   
   507    509      1 ;    O2' - O3'   

[ angles ]
;   ai     aj     ak    funct   theta         cth
     1      2      3      1    1.0850e+02    4.6024e+02 ;   HO5' - O5'    - C5'   
     2      3      4      1    1.0950e+02    4.1840e+02 ;    O5' - C5'    - H5'   
     2      3      5      1    1.0950e+02    4.1840e+02 ;    O5' - C5'    - H5''  
     2      3      6      1    1.0950e+02    4.1840e+02 ;    O5' - C5'    - C4'   
     3      6      7      1    1.0950e+02    4.1840e+02 ;    C5' - C4'    - H4'   
     3      6      8      1    1.0950e+02    4.1840e+02 ;    C5' - C4'    - O4'   
     3      6     25      1    1.0950e+02    3.3472e+02 ;    C5' - C4'    - C3'   
     4      3      5      1    1.0950e+02    2.9288e+02 ;    H5' - C5'    - H5''  
     4      3      6      1    1.0950e+02    4.1840e+02 ;    H5' - C5'    - C4'   
     5      3      6      1    1.0950e+02    4.1840e+02 ;   H5'' - C5'    - C4'   
     6      8      9      1    1.0950e+02    5.0208e+02 ;    C4' - O4'    - C1'   
     6     25     26      1    1.0950e+02    4.1840e+02 ;    C4' - C3'    - H3'   
     6     25     27      1    1.0950e+02    3.3472e+02 ;    C4' - C3'    - C2'   
     6     25     31      1    1.0950e+02    4.1840e+02 ;    C4' - C3'    - O3'   
     7      6      8      1    1.0950e+02    4.1840e+02 ;    H4' - C4'    - O4'   
     7      6     25      1    1.0950e+02    4.1840e+02 ;    H4' - C4'    - C3'   
     8      6     25      1    1.0950e+02    4.1840e+02 ;    O4' - C4'    - C3'   
     8      9     10      1    1.0950e+02    4.1840e+02 ;    O4' - C1'    - H1'   
     8      9     11      1    1.0950e+02    4.1840e+02 ;    O4' - C1'    - N9    
     8      9     27      1    1.0950e+02    4.1840e+02 ;    O4' - C1'    - C2'   
     9     11     12      1    1.2880e+02    5.8576e+02 ;    C1' - N9     - C8    
     9     11     24      1    1.2580e+02    5.8576e+02 ;    C1' - N9     - C4    
     9     27     25      1    1.0950e+02    3.3472e+02 ;    C1' - C2'    - C3'   
     9     27     28      1    1.0950e+02    4.1840e+02 ;    C1' - C2'    - H2'   
     9     27     29      1    1.0950e+02    4.1840e+02 ;    C1' - C2'    - O2'   
    10      9     11      1    1.0950e+02    4.1840e+02 ;    H1' - C1'    - N9    
    10      9     27      1    1.0950e+02    4.1840e+02 ;    H1' - C1'    - C2'   
    11      9     27      1    1.0950e+02    4.1840e+02 ;     N9 - C1'    - C2'   
    11     12     13      1    1.2305e+02    4.1840e+02 ;     N9 - C8     - H8    
    11     12     14      1    1.1390e+02    5.8576e+02 ;     N9 - C8     - N7    
    11     24     15      1    1.0620e+02    5.8576e+02 ;     N9 - C4     - C5    
    11     24     23      1    1.2620e+02    5.8576e+02 ;     N9 - C4     - N3    
    12     11     24      1    1.0540e+02    5.8576e+02 ;     C8 - N9     - C4    
    12     14     15      1    1.0380e+02    5.8576e+02 ;     C8 - N7     - C5    
    13     12     14      1    1.2305e+02    4.1840e+02 ;     H8 - C8     - N7    
    14     15     16      1    1.3240e+02    5.8576e+02 ;     N7 - C5     - C6    
    14     15     24      1    1.1040e+02    5.8576e+02 ;     N7 - C5     - C4    
    15     16     17      1    1.2350e+02    5.8576e+02 ;     C5 - C6     - N6    
    15     16     20      1    1.1730e+02    5.8576e+02 ;     C5 - C6     - N1    
    15     24     23      1    1.2770e+02    5.8576e+02 ;     C5 - C4     - N3    
    16     15     24      1    1.1730e+02    5.2718e+02 ;     C6 - C5     - C4    
    16     17     18      1    1.2000e+02    4.1840e+02 ;     C6 - N6     - H61   
    16     17     19      1    1.2000e+02    4.1840e+02 ;     C6 - N6     - H62   
    16     20     21      1    1.1860e+02    5.8576e+02 ;     C6 - N1     - C2    
    17     16     20      1    1.1930e+02    5.8576e+02 ;     N6 - C6     - N1    
    18     17     19      1    1.2000e+02    2.9288e+02 ;    H61 - N6     - H62   
    20     21     22      1    1.1545e+02    4.1840e+02 ;     N1 - C2     - H2    
    20     21     23      1    1.2910e+02    5.8576e+02 ;     N1 - C2     - N3    
    21     23     24      1    1.1100e+02    5.8576e+02 ;     C2 - N3     - C4    
    22     21     23      1    1.1545e+02    4.1840e+02 ;     H2 - C2     - N3    
    25     27     28      1    1.0950e+02    4.1840e+02 ;    C3' - C2'    - H2'   
    25     27     29      1    1.0950e+02    4.1840e+02 ;    C3' - C2'    - O2'   
    25     31     32      1    1.2050e+02    8.3680e+02 ;    C3' - O3'    - P     
    26     25     27      1    1.0950e+02    4.1840e+02 ;    H3' - C3'    - C2'   
    26     25     31      1    1.0950e+02    4.1840e+02 ;    H3' - C3'    - O3'   
    27     25     31      1    1.0950e+02    4.1840e+02 ;    C2' - C3'    - O3'   
    27     29     30      1    1.0850e+02    4.6024e+02 ;    C2' - O2'    - HO2'  
    28     27     29      1    1.0950e+02    4.1840e+02 ;    H2' - C2'    - O2'   
    31     32     33      1    1.0823e+02    8.3680e+02 ;    O3' - P      - OP1   
    31     32     34      1    1.0823e+02    8.3680e+02 ;    O3' - P      - OP2   
    31     32     35      1    1.0260e+02    3.7656e+02 ;    O3' - P      - O5'   
    32     35     36      1    1.2050e+02    8.3680e+02 ;      P - O5'    - C5'   
    33     32     34      1    1.1990e+02    1.1715e+03 ;    OP1 - P      - OP2   
    33     32     35      1    1.0823e+02    8.3680e+02 ;    OP1 - P      - O5'   
    34     32     35      1    1.0823e+02    8.3680e+02 ;    OP2 - P      - O5'   
    35     36     37      1    1.0950e+02    4.1840e+02 ;    O5' - C5'    - H5'   
    35     36     38      1    1.0950e+02    4.1840e+02 ;    O5' - C5'    - H5''  
    35     36     39      1    1.0950e+02    4.1840e+02 ;    O5' - C5'    - C4'   
    36     39     40      1    1.0950e+02    4.1840e+02 ;    C5' - C4'    - H4'   
    36     39     41      1    1.0950e+02    4.1840e+02 ;    C5' - C4'    - O4'   
    36     39     59      1    1.0950e+02    3.3472e+02 ;    C5' - C4'    - C3'   
    37     36     38      1    1.0950e+02    2.9288e+02 ;    H5' - C5'    - H5''  
    37     36     39      1    1.0950e+02    4.1840e+02 ;    H5' - C5'    - C4'   
    38     36     39      1    1.0950e+02    4.1840e+02 ;   H5'' - C5'    - C4'   
    39     41     42      1    1.0950e+02    5.0208e+02 ;    C4' - O4'    - C1'   
    39     59     60      1    1.0950e+02    4.1840e+02 ;    C4' - C3'    - H3'   
    39     59     61      1    1.0950e+02    3.3472e+02 ;    C4' - C3'    - C2'   
    39     59     65      1    1.0950e+02    4.1840e+02 ;    C4' - C3'    - O3'   
    40     39     41      1    1.0950e+02    4.1840e+02 ;    H4' - C4'    - O4'   
    40     39     59      1    1.0950e+02    4.1840e+02 ;    H4' - C4'    - C3'   
    41     39     59      1    1.0950e+02    4.1840e+02 ;    O4' - C4'    - C3'   
    41     42     43      1    1.0950e+02    4.1840e+02 ;    O4' - C1'    - H1'   
    41     42     44      1    1.0950e+02    4.1840e+02 ;    O4' - C1'    - N9    
    41     42     61      1    1.0950e+02    4.1840e+02 ;    O4' - C1'    - C2'   
    42     44     45      1    1.2880e+02    5.8576e+02 ;    C1' - N9     - C8    
    42     44     58      1    1.2580e+02    5.8576e+02 ;    C1' - N9     - C4    
    42     61     59      1    1.0950e+02    3.3472e+02 ;    C1' - C2'    - C3'   
    42     61     62      1    1.0950e+02    4.1840e+02 ;    C1' - C2'    - H2'   
    42     61     63      1    1.0950e+02    4.1840e+02 ;    C1' - C2'    - O2'   
    43     42     44      1    1.0950e+02    4.1840e+02 ;    H1' - C1'    - N9    
    43     42     61      1    1.0950e+02    4.1840e+02 ;    H1' - C1'    - C2'   
    44     42     61      1    1.0950e+02    4.1840e+02 ;     N9 - C1'    - C2'   
    44     45     46      1    1.2305e+02    4.1840e+02 ;     N9 - C8     - H8    
    44     45     47      1    1.1390e+02    5.8576e+02 ;     N9 - C8     - N7    
    44     58     48      1    1.0620e+02    5.8576e+02 ;     N9 - C4     - C5    
    44     58     57      1    1.2620e+02    5.8576e+02 ;     N9 - C4     - N3    
    45     44     58      1    1.0540e+02    5.8576e+02 ;     C8 - N9     - C4    
    45     47     48      1    1.0380e+02    5.8576e+02 ;     C8 - N7     - C5    
    46     45     47      1    1.2305e+02    4.1840e+02 ;     H8 - C8     - N7    
    47     48     49      1    1.3000e+02    5.8576e+02 ;     N7 - C5     - C6    
    47     48     58      1    1.1040e+02    5.8576e+02 ;     N7 - C5     - C4    
    48     49     50      1    1.2880e+02    6.6944e+02 ;     C5 - C6     - O6    
    48     49     51      1    1.1130e+02    5.8576e+02 ;     C5 - C6     - N1    
    48     58     57      1    1.2770e+02    5.8576e+02 ;     C5 - C4     - N3    
    49     48     58      1    1.1920e+02    5.2718e+02 ;     C6 - C5     - C4    
    49     51     52      1    1.1680e+02    4.1840e+02 ;     C6 - N1     - H1    
    49     51     53      1    1.2520e+02    5.8576e+02 ;     C6 - N1     - C2    
    50     49     51      1    1.2060e+02    6.6944e+02 ;     O6 - C6     - N1    
    51     53     54      1    1.1600e+02    5.8576e+02 ;     N1 - C2     - N2    
    51     53     57      1    1.2330e+02    5.8576e+02 ;     N1 - C2     - N3    
    52     51     53      1    1.1800e+02    4.1840e+02 ;     H1 - N1     - C2    
    53     54     55      1    1.2000e+02    4.1840e+02 ;     C2 - N2     - H21   
    53     54     56      1    1.2000e+02    4.1840e+02 ;     C2 - N2     - H22   
    53     57     58      1    1.1220e+02    5.8576e+02 ;     C2 - N3     - C4    
    54     53     57      1    1.1930e+02    5.8576e+02 ;     N2 - C2     - N3    
    55     54     56      1    1.2000e+02    2.9288e+02 ;    H21 - N2     - H22   
    59     61     62      1    1.0950e+02    4.1840e+02 ;    C3' - C2'    - H2'   
    59     61     63      1    1.0950e+02    4.1840e+02 ;    C3' - C2'    - O2'   
    59     65     66      1    1.2050e+02    8.3680e+02 ;    C3' - O3'    - P     
    60     59     61      1    1.0950e+02    4.1840e+02 ;    H3' - C3'    - C2'   
    60     59     65      1    1.0950e+02    4.1840e+02 ;    H3' - C3'    - O3'   
    61     59     65      1    1.0950e+02    4.1840e+02 ;    C2' - C3'    - O3'   
    61     63     64      1    1.0850e+02    4.6024e+02 ;    C2' - O2'    - HO2'  
    62     61     63      1    1.0950e+02    4.1840e+02 ;    H2' - C2'    - O2'   
    65     66     67      1    1.0823e+02    8.3680e+02 ;    O3' - P      - OP1   
    65     66     68      1    1.0823e+02    8.3680e+02 ;    O3' - P      - OP2   
    65     66     69      1    1.0260e+02    3.7656e+02 ;    O3' - P      - O5'   
    66     69     70      1    1.2050e+02    8.3680e+02 ;      P - O5'    - C5'   
    67     66     68      1    1.1990e+02    1.1715e+03 ;    OP1 - P      - OP2   
    67     66     69      1    1.0823e+02    8.3680e+02 ;    OP1 - P      - O5'   
    68     66     69      1    1.0823e+02    8.3680e+02 ;    OP2 - P      - O5'   
    69     70     71      1    1.0950e+02    4.1840e+02 ;    O5' - C5'    - H5'   
    69     70     72      1    1.0950e+02    4.1840e+02 ;    O5' - C5'    - H5''  
    69     70     73      1    1.0950e+02    4.1840e+02 ;    O5' - C5'    - C4'   
    70     73     74      1    1.0950e+02    4.1840e+02 ;    C5' - C4'    - H4'   
    70     73     75      1    1.0950e+02    4.1840e+02 ;    C5' - C4'    - O4'   
    70     73     90      1    1.0950e+02    3.3472e+02 ;    C5' - C4'    - C3'   
    71     70     72      1    1.0950e+02    2.9288e+02 ;    H5' - C5'    - H5''  
    71     70     73      1    1.0950e+02    4.1840e+02 ;    H5' - C5'    - C4'   
    72     70     73      1    1.0950e+02    4.1840e+02 ;   H5'' - C5'    - C4'   
    73     75     76      1    1.0950e+02    5.0208e+02 ;    C4' - O4'    - C1'   
    73     90     91      1    1.0950e+02    4.1840e+02 ;    C4' - C3'    - H3'   
    73     90     92      1    1.0950e+02    3.3472e+02 ;    C4' - C3'    - C2'   
    73     90     96      1    1.0950e+02    4.1840e+02 ;    C4' - C3'    - O3'   
    74     73     75      1    1.0950e+02    4.1840e+02 ;    H4' - C4'    - O4'   
    74     73     90      1    1.0950e+02    4.1840e+02 ;    H4' - C4'    - C3'   
    75     73     90      1    1.0950e+02    4.1840e+02 ;    O4' - C4'    - C3'   
    75     76     77      1    1.0950e+02    4.1840e+02 ;    O4' - C1'    - H1'   
    75     76     78      1    1.0950e+02    4.1840e+02 ;    O4' - C1'    - N1    
    75     76     92      1    1.0950e+02    4.1840e+02 ;    O4' - C1'    - C2'   
    76     78     79      1    1.2120e+02    5.8576e+02 ;    C1' - N1     - C6    
    76     78     88      1    1.1760e+02    5.8576e+02 ;    C1' - N1     - C2    
    76     92     90      1    1.0950e+02    3.3472e+02 ;    C1' - C2'    - C3'   
    76     92     93      1    1.0950e+02    4.1840e+02 ;    C1' - C2'    - H2'   
    76     92     94      1    1.0950e+02    4.1840e+02 ;    C1' - C2'    - O2'   
    77     76     78      1    1.0950e+02    4.1840e+02 ;    H1' - C1'    - N1    
    77     76     92      1    1.0950e+02    4.1840e+02 ;    H1' - C1'    - C2'   
    78     76     92      1    1.0950e+02    4.1840e+02 ;     N1 - C1'    - C2'   
    78     79     80      1    1.1910e+02    4.1840e+02 ;     N1 - C6     - H6    
    78     79     81      1    1.2120e+02    5.8576e+02 ;     N1 - C6     - C5    
    78     88     87      1    1.1860e+02    5.8576e+02 ;     N1 - C2     - N3    
    78     88     89      1    1.2090e+02    6.6944e+02 ;     N1 - C2     - O2    
    79     78     88      1    1.2160e+02    5.8576e+02 ;     C6 - N1     - C2    
    79     81     82      1    1.1970e+02    4.1840e+02 ;     C6 - C5     - H5    
    79     81     83      1    1.1700e+02    5.2718e+02 ;     C6 - C5     - C4    
    80     79     81      1    1.1970e+02    4.1840e+02 ;     H6 - C6     - C5    
    81     83     84      1    1.2010e+02    5.8576e+02 ;     C5 - C4     - N4    
    81     83     87      1    1.2150e+02    5.8576e+02 ;     C5 - C4     - N3    
    82     81     83      1    1.2330e+02    4.1840e+02 ;     H5 - C5     - C4    
    83     84     85      1    1.2000e+02    4.1840e+02 ;     C4 - N4     - H41   
    83     84     86      1    1.2000e+02    4.1840e+02 ;     C4 - N4     - H42   
    83     87     88      1    1.2050e+02    5.8576e+02 ;     C4 - N3     - C2    
    84     83     87      1    1.1930e+02    5.8576e+02 ;     N4 - C4     - N3    
    85     84     86      1    1.2000e+02    2.9288e+02 ;    H41 - N4     - H42   
    87     88     89      1    1.2250e+02    6.6944e+02 ;     N3 - C2     - O2    
    90     92     93      1    1.0950e+02    4.1840e+02 ;    C3' - C2'    - H2'   
    90     92     94      1    1.0950e+02    4.1840e+02 ;    C3' - C2'    - O2'   
    90     96     97      1    1.2050e+02    8.3680e+02 ;    C3' - O3'    - P     
    91     90     92      1    1.0950e+02    4.1840e+02 ;    H3' - C3'    - C2'   
    91     90     96      1    1.0950e+02    4.1840e+02 ;    H3' - C3'    - O3'   
    92     90     96      1    1.0950e+02    4.1840e+02 ;    C2' - C3'    - O3'   
    92     94     95      1    1.0850e+02    4.6024e+02 ;    C2' - O2'    - HO2'  
    93     92     94      1    1.0950e+02    4.1840e+02 ;    H2' - C2'    - O2'   
    96     97     98      1    1.0823e+02    8.3680e+02 ;    O3' - P      - OP1   
    96     97     99      1    1.0823e+02    8.3680e+02 ;    O3' - P      - OP2   
    96     97    100      1    1.0260e+02    3.7656e+02 ;    O3' - P      - O5'   
    97    100    101      1    1.2050e+02    8.3680e+02 ;      P - O5'    - C5'   
    98     97     99      1    1.1990e+02    1.1715e+03 ;    OP1 - P      - OP2   
    98     97    100      1    1.0823e+02    8.3680e+02 ;    OP1 - P      - O5'   
    99     97    100      1    1.0823e+02    8.3680e+02 ;    OP2 - P      - O5'   
   100    101    102      1    1.0950e+02    4.1840e+02 ;    O5' - C5'    - H5'   
   100    101    103      1    1.0950e+02    4.1840e+02 ;    O5' - C5'    - H5''  
   100    101    104      1    1.0950e+02    4.1840e+02 ;    O5' - C5'    - C4'   
   101    104    105      1    1.0950e+02    4.1840e+02 ;    C5' - C4'    - H4'   
   101    104    106      1    1.0950e+02    4.1840e+02 ;    C5' - C4'    - O4'   
   101    104    124      1    1.0950e+02    3.3472e+02 ;    C5' - C4'    - C3'   
   102    101    103      1    1.0950e+02    2.9288e+02 ;    H5' - C5'    - H5''  
   102    101    104      1    1.0950e+02    4.1840e+02 ;    H5' - C5'    - C4'   
   103    101    104      1    1.0950e+02    4.1840e+02 ;   H5'' - C5'    - C4'   
   104    106    107      1    1.0950e+02    5.0208e+02 ;    C4' - O4'    - C1'   
   104    124    125      1    1.0950e+02    4.1840e+02 ;    C4' - C3'    - H3'   
   104    124    126      1    1.0950e+02    3.3472e+02 ;    C4' - C3'    - C2'   
   104    124    130      1    1.0950e+02    4.1840e+02 ;    C4' - C3'    - O3'   
   105    104    106      1    1.0950e+02    4.1840e+02 ;    H4' - C4'    - O4'   
   105    104    124      1    1.0950e+02    4.1840e+02 ;    H4' - C4'    - C3'   
   106    104    124      1    1.0950e+02    4.1840e+02 ;    O4' - C4'    - C3'   
   106    107    108      1    1.0950e+02    4.1840e+02 ;    O4' - C1'    - H1'   
   106    107    109      1    1.0950e+02    4.1840e+02 ;    O4' - C1'    - N9    
   106    107    126      1    1.0950e+02    4.1840e+02 ;    O4' - C1'    - C2'   
   107    109    110      1    1.2880e+02    5.8576e+02 ;    C1' - N9     - C8    
   107    109    123      1    1.2580e+02    5.8576e+02 ;    C1' - N9     - C4    
   107    126    124      1    1.0950e+02    3.3472e+02 ;    C1' - C2'    - C3'   
   107    126    127      1    1.0950e+02    4.1840e+02 ;    C1' - C2'    - H2'   
   107    126    128      1    1.0950e+02    4.1840e+02 ;    C1' - C2'    - O2'   
   108    107    109      1    1.0950e+02    4.1840e+02 ;    H1' - C1'    - N9    
   108    107    126      1    1.0950e+02    4.1840e+02 ;    H1' - C1'    - C2'   
   109    107    126      1    1.0950e+02    4.1840e+02 ;     N9 - C1'    - C2'   
   109    110    111      1    1.2305e+02    4.1840e+02 ;     N9 - C8     - H8    
   109    110    112      1    1.1390e+02    5.8576e+02 ;     N9 - C8     - N7    
   109    123    113      1    1.0620e+02    5.8576e+02 ;     N9 - C4     - C5    
   109    123    122      1    1.2620e+02    5.8576e+02 ;     N9 - C4     - N3    
   110    109    123      1    1.0540e+02    5.8576e+02 ;     C8 - N9     - C4    
   110    112    113      1    1.0380e+02    5.8576e+02 ;     C8 - N7     - C5    
   111    110    112      1    1.2305e+02    4.1840e+02 ;     H8 - C8     - N7    
   112    113    114      1    1.3000e+02    5.8576e+02 ;     N7 - C5     - C6    
   112    113    123      1    1.1040e+02    5.8576e+02 ;     N7 - C5     - C4    
   113    114    115      1    1.2880e+02    6.6944e+02 ;     C5 - C6     - O6    
   113    114    116      1    1.1130e+02    5.8576e+02 ;     C5 - C6     - N1    
   113    123    122      1    1.2770e+02    5.8576e+02 ;     C5 - C4     - N3    
   114    113    123      1    1.1920e+02    5.2718e+02 ;     C6 - C5     - C4    
   114    116    117      1    1.1680e+02    4.1840e+02 ;     C6 - N1     - H1    
   114    116    118      1    1.2520e+02    5.8576e+02 ;     C6 - N1     - C2    
   115    114    116      1    1.2060e+02    6.6944e+02 ;     O6 - C6     - N1    
   116    118    119      1    1.1600e+02    5.8576e+02 ;     N1 - C2     - N2    
   116    118    122      1    1.2330e+02    5.8576e+02 ;     N1 - C2     - N3    
   117    116    118      1    1.1800e+02    4.1840e+02 ;     H1 - N1     - C2    
   118    119    120      1    1.2000e+02    4.1840e+02 ;     C2 - N2     - H21   
   118    119    121      1    1.2000e+02    4.1840e+02 ;     C2 - N2     - H22   
   118    122    123      1    1.1220e+02    5.8576e+02 ;     C2 - N3     - C4    
   119    118    122      1    1.1930e+02    5.8576e+02 ;     N2 - C2     - N3    
   120    119    121      1    1.2000e+02    2.9288e+02 ;    H21 - N2     - H22   
   124    126    127      1    1.0950e+02    4.1840e+02 ;    C3' - C2'    - H2'   
   124    126    128      1    1.0950e+02    4.1840e+02 ;    C3' - C2'    - O2'   
   124    130    131      1    1.2050e+02    8.3680e+02 ;    C3' - O3'    - P     
   125    124    126      1    1.0950e+02    4.1840e+02 ;    H3' - C3'    - C2'   
   125    124    130      1    1.0950e+02    4.1840e+02 ;    H3' - C3'    - O3'   
   126    124    130      1    1.0950e+02    4.1840e+02 ;    C2' - C3'    - O3'   
   126    128    129      1    1.0850e+02    4.6024e+02 ;    C2' - O2'    - HO2'  
   127    126    128      1    1.0950e+02    4.1840e+02 ;    H2' - C2'    - O2'   
   130    131    132      1    1.0823e+02    8.3680e+02 ;    O3' - P      - OP1   
   130    131    133      1    1.0823e+02    8.3680e+02 ;    O3' - P      - OP2   
   130    131    134      1    1.0260e+02    3.7656e+02 ;    O3' - P      - O5'   
   131    134    135      1    1.2050e+02    8.3680e+02 ;      P - O5'    - C5'   
   132    131    133      1    1.1990e+02    1.1715e+03 ;    OP1 - P      - OP2   
   132    131    134      1    1.0823e+02    8.3680e+02 ;    OP1 - P      - O5'   
   133    131    134      1    1.0823e+02    8.3680e+02 ;    OP2 - P      - O5'   
   134    135    136      1    1.0950e+02    4.1840e+02 ;    O5' - C5'    - H5'   
   134    135    137      1    1.0950e+02    4.1840e+02 ;    O5' - C5'    - H5''  
   134    135    138      1    1.0950e+02    4.1840e+02 ;    O5' - C5'    - C4'   
   135    138    139      1    1.0950e+02    4.1840e+02 ;    C5' - C4'    - H4'   
   135    138    140      1    1.0950e+02    4.1840e+02 ;    C5' - C4'    - O4'   
   135    138    155      1    1.0950e+02    3.3472e+02 ;    C5' - C4'    - C3'   
   136    135    137      1    1.0950e+02    2.9288e+02 ;    H5' - C5'    - H5''  
   136    135    138      1    1.0950e+02    4.1840e+02 ;    H5' - C5'    - C4'   
   137    135    138      1    1.0950e+02    4.1840e+02 ;   H5'' - C5'    - C4'   
   138    140    141      1    1.0950e+02    5.0208e+02 ;    C4' - O4'    - C1'   
   138    155    156      1    1.0950e+02    4.1840e+02 ;    C4' - C3'    - H3'   
   138    155    157      1    1.0950e+02    3.3472e+02 ;    C4' - C3'    - C2'   
   138    155    161      1    1.0950e+02    4.1840e+02 ;    C4' - C3'    - O3'   
   139    138    140      1    1.0950e+02    4.1840e+02 ;    H4' - C4'    - O4'   
   139    138    155      1    1.0950e+02    4.1840e+02 ;    H4' - C4'    - C3'   
   140    138    155      1    1.0950e+02    4.1840e+02 ;    O4' - C4'    - C3'   
   140    141    142      1    1.0950e+02    4.1840e+02 ;    O4' - C1'    - H1'   
   140    141    143      1    1.0950e+02    4.1840e+02 ;    O4' - C1'    - N1    
   140    141    157      1    1.0950e+02    4.1840e+02 ;    O4' - C1'    - C2'   
   141    143    144      1    1.2120e+02    5.8576e+02 ;    C1' - N1     - C6    
   141    143    153      1    1.1760e+02    5.8576e+02 ;    C1' - N1     - C2    
   141    157    155      1    1.0950e+02    3.3472e+02 ;    C1' - C2'    - C3'   
   141    157    158      1    1.0950e+02    4.1840e+02 ;    C1' - C2'    - H2'   
   141    157    159      1    1.0950e+02    4.1840e+02 ;    C1' - C2'    - O2'   
   142    141    143      1    1.0950e+02    4.1840e+02 ;    H1' - C1'    - N1    
   142    141    157      1    1.0950e+02    4.1840e+02 ;    H1' - C1'    - C2'   
   143    141    157      1    1.0950e+02    4.1840e+02 ;     N1 - C1'    - C2'   
   143    144    145      1    1.1910e+02    4.1840e+02 ;     N1 - C6     - H6    
   143    144    146      1    1.2120e+02    5.8576e+02 ;     N1 - C6     - C5    
   143    153    152      1    1.1860e+02    5.8576e+02 ;     N1 - C2     - N3    
   143    153    154      1    1.2090e+02    6.6944e+02 ;     N1 - C2     - O2    
   144    143    153      1    1.2160e+02    5.8576e+02 ;     C6 - N1     - C2    
   144    146    147      1    1.1970e+02    4.1840e+02 ;     C6 - C5     - H5    
   144    146    148      1    1.1700e+02    5.2718e+02 ;     C6 - C5     - C4    
   145    144    146      1    1.1970e+02    4.1840e+02 ;     H6 - C6     - C5    
   146    148    149      1    1.2010e+02    5.8576e+02 ;     C5 - C4     - N4    
   146    148    152      1    1.2150e+02    5.8576e+02 ;     C5 - C4     - N3    
   147    146    148      1    1.2330e+02    4.1840e+02 ;     H5 - C5     - C4    
   148    149    150      1    1.2000e+02    4.1840e+02 ;     C4 - N4     - H41   
   148    149    151      1    1.2000e+02    4.1840e+02 ;     C4 - N4     - H42   
   148    152    153      1    1.2050e+02    5.8576e+02 ;     C4 - N3     - C2    
   149    148    152      1    1.1930e+02    5.8576e+02 ;     N4 - C4     - N3    
   150    149    151      1    1.2000e+02    2.9288e+02 ;    H41 - N4     - H42   
   152    153    154      1    1.2250e+02    6.6944e+02 ;     N3 - C2     - O2    
   155    157    158      1    1.0950e+02    4.1840e+02 ;    C3' - C2'    - H2'   
   155    157    159      1    1.0950e+02    4.1840e+02 ;    C3' - C2'    - O2'   
   155    161    162      1    1.2050e+02    8.3680e+02 ;    C3' - O3'    - P     
   156    155    157      1    1.0950e+02    4.1840e+02 ;    H3' - C3'    - C2'   
   156    155    161      1    1.0950e+02    4.1840e+02 ;    H3' - C3'    - O3'   
   157    155    161      1    1.0950e+02    4.1840e+02 ;    C2' - C3'    - O3'   
   157    159    160      1    1.0850e+02    4.6024e+02 ;    C2' - O2'    - HO2'  
   158    157    159      1    1.0950e+02    4.1840e+02 ;    H2' - C2'    - O2'   
   161    162    163      1    1.0823e+02    8.3680e+02 ;    O3' - P      - OP1   
   161    162    164      1    1.0823e+02    8.3680e+02 ;    O3' - P      - OP2   
   161    162    165      1    1.0260e+02    3.7656e+02 ;    O3' - P      - O5'   
   162    165    166      1    1.2050e+02    8.3680e+02 ;      P - O5'    - C5'   
   163    162    164      1    1.1990e+02    1.1715e+03 ;    OP1 - P      - OP2   
   163    162    165      1    1.0823e+02    8.3680e+02 ;    OP1 - P      - O5'   
   164    162    165      1    1.0823e+02    8.3680e+02 ;    OP2 - P      - O5'   
   165    166    167      1    1.0950e+02    4.1840e+02 ;    O5' - C5'    - H5'   
   165    166    168      1    1.0950e+02    4.1840e+02 ;    O5' - C5'    - H5''  
   165    166    169      1    1.0950e+02    4.1840e+02 ;    O5' - C5'    - C4'   
   166    169    170      1    1.0950e+02    4.1840e+02 ;    C5' - C4'    - H4'   
   166    169    171      1    1.0950e+02    4.1840e+02 ;    C5' - C4'    - O4'   
   166    169    185      1    1.0950e+02    3.3472e+02 ;    C5' - C4'    - C3'   
   167    166    168      1    1.0950e+02    2.9288e+02 ;    H5' - C5'    - H5''  
   167    166    169      1    1.0950e+02    4.1840e+02 ;    H5' - C5'    - C4'   
   168    166    169      1    1.0950e+02    4.1840e+02 ;   H5'' - C5'    - C4'   
   169    171    172      1    1.0950e+02    5.0208e+02 ;    C4' - O4'    - C1'   
   169    185    186      1    1.0950e+02    4.1840e+02 ;    C4' - C3'    - H3'   
   169    185    187      1    1.0950e+02    3.3472e+02 ;    C4' - C3'    - C2'   
   169    185    191      1    1.0950e+02    4.1840e+02 ;    C4' - C3'    - O3'   
   170    169    171      1    1.0950e+02    4.1840e+02 ;    H4' - C4'    - O4'   
   170    169    185      1    1.0950e+02    4.1840e+02 ;    H4' - C4'    - C3'   
   171    169    185      1    1.0950e+02    4.1840e+02 ;    O4' - C4'    - C3'   
   171    172    173      1    1.0950e+02    4.1840e+02 ;    O4' - C1'    - H1'   
   171    172    174      1    1.0950e+02    4.1840e+02 ;    O4' - C1'    - N1    
   171    172    187      1    1.0950e+02    4.1840e+02 ;    O4' - C1'    - C2'   
   172    174    175      1    1.2120e+02    5.8576e+02 ;    C1' - N1     - C6    
   172    174    183      1    1.1760e+02    5.8576e+02 ;    C1' - N1     - C2    
   172    187    185      1    1.0950e+02    3.3472e+02 ;    C1' - C2'    - C3'   
   172    187    188      1    1.0950e+02    4.1840e+02 ;    C1' - C2'    - H2'   
   172    187    189      1    1.0950e+02    4.1840e+02 ;    C1' - C2'    - O2'   
   173    172    174      1    1.0950e+02    4.1840e+02 ;    H1' - C1'    - N1    
   173    172    187      1    1.0950e+02    4.1840e+02 ;    H1' - C1'    - C2'   
   174    172    187      1    1.0950e+02    4.1840e+02 ;     N1 - C1'    - C2'   
   174    175    176      1    1.1910e+02    4.1840e+02 ;     N1 - C6     - H6    
   174    175    177      1    1.2120e+02    5.8576e+02 ;     N1 - C6     - C5    
   174    183    181      1    1.1540e+02    5.8576e+02 ;     N1 - C2     - N3    
   174    183    184      1    1.2090e+02    6.6944e+02 ;     N1 - C2     - O2    
   175    174    183      1    1.2160e+02    5.8576e+02 ;     C6 - N1     - C2    
   175    177    178      1    1.1970e+02    4.1840e+02 ;     C6 - C5     - H5    
   175    177    179      1    1.2070e+02    5.2718e+02 ;     C6 - C5     - C4    
   176    175    177      1    1.1970e+02    4.1840e+02 ;     H6 - C6     - C5    
   177    179    180      1    1.2530e+02    6.6944e+02 ;     C5 - C4     - O4    
   177    179    181      1    1.1410e+02    5.8576e+02 ;     C5 - C4     - N3    
   178    177    179      1    1.1970e+02    4.1840e+02 ;     H5 - C5     - C4    
   179    181    182      1    1.1680e+02    4.1840e+02 ;     C4 - N3     - H3    
   179    181    183      1    1.2640e+02    5.8576e+02 ;     C4 - N3     - C2    
   180    179    181      1    1.2060e+02    6.6944e+02 ;     O4 - C4     - N3    
   181    183    184      1    1.2060e+02    6.6944e+02 ;     N3 - C2     - O2    
   182    181    183      1    1.1680e+02    4.1840e+02 ;     H3 - N3     - C2    
   185    187    188      1    1.0950e+02    4.1840e+02 ;    C3' - C2'    - H2'   
   185    187    189      1    1.0950e+02    4.1840e+02 ;    C3' - C2'    - O2'   
   185    191    192      1    1.2050e+02    8.3680e+02 ;    C3' - O3'    - P     
   186    185    187      1    1.0950e+02    4.1840e+02 ;    H3' - C3'    - C2'   
   186    185    191      1    1.0950e+02    4.1840e+02 ;    H3' - C3'    - O3'   
   187    185    191      1    1.0950e+02    4.1840e+02 ;    C2' - C3'    - O3'   
   187    189    190      1    1.0850e+02    4.6024e+02 ;    C2' - O2'    - HO2'  
   188    187    189      1    1.0950e+02    4.1840e+02 ;    H2' - C2'    - O2'   
   191    192    193      1    1.0823e+02    8.3680e+02 ;    O3' - P      - OP1   
   191    192    194      1    1.0823e+02    8.3680e+02 ;    O3' - P      - OP2   
   191    192    195      1    1.0260e+02    3.7656e+02 ;    O3' - P      - O5'   
   192    195    196      1    1.2050e+02    8.3680e+02 ;      P - O5'    - C5'   
   193    192    194      1    1.1990e+02    1.1715e+03 ;    OP1 - P      - OP2   
   193    192    195      1    1.0823e+02    8.3680e+02 ;    OP1 - P      - O5'   
   194    192    195      1    1.0823e+02    8.3680e+02 ;    OP2 - P      - O5'   
   195    196    197      1    1.0950e+02    4.1840e+02 ;    O5' - C5'    - H5'   
   195    196    198      1    1.0950e+02    4.1840e+02 ;    O5' - C5'    - H5''  
   195    196    199      1    1.0950e+02    4.1840e+02 ;    O5' - C5'    - C4'   
   196    199    200      1    1.0950e+02    4.1840e+02 ;    C5' - C4'    - H4'   
   196    199    201      1    1.0950e+02    4.1840e+02 ;    C5' - C4'    - O4'   
   196    199    215      1    1.0950e+02    3.3472e+02 ;    C5' - C4'    - C3'   
   197    196    198      1    1.0950e+02    2.9288e+02 ;    H5' - C5'    - H5''  
   197    196    199      1    1.0950e+02    4.1840e+02 ;    H5' - C5'    - C4'   
   198    196    199      1    1.0950e+02    4.1840e+02 ;   H5'' - C5'    - C4'   
   199    201    202      1    1.0950e+02    5.0208e+02 ;    C4' - O4'    - C1'   
   199    215    216      1    1.0950e+02    4.1840e+02 ;    C4' - C3'    - H3'   
   199    215    217      1    1.0950e+02    3.3472e+02 ;    C4' - C3'    - C2'   
   199    215    221      1    1.0950e+02    4.1840e+02 ;    C4' - C3'    - O3'   
   200    199    201      1    1.0950e+02    4.1840e+02 ;    H4' - C4'    - O4'   
   200    199    215      1    1.0950e+02    4.1840e+02 ;    H4' - C4'    - C3'   
   201    199    215      1    1.0950e+02    4.1840e+02 ;    O4' - C4'    - C3'   
   201    202    203      1    1.0950e+02    4.1840e+02 ;    O4' - C1'    - H1'   
   201    202    204      1    1.0950e+02    4.1840e+02 ;    O4' - C1'    - N1    
   201    202    217      1    1.0950e+02    4.1840e+02 ;    O4' - C1'    - C2'   
   202    204    205      1    1.2120e+02    5.8576e+02 ;    C1' - N1     - C6    
   202    204    213      1    1.1760e+02    5.8576e+02 ;    C1' - N1     - C2    
   202    217    215      1    1.0950e+02    3.3472e+02 ;    C1' - C2'    - C3'   
   202    217    218      1    1.0950e+02    4.1840e+02 ;    C1' - C2'    - H2'   
   202    217    219      1    1.0950e+02    4.1840e+02 ;    C1' - C2'    - O2'   
   203    202    204      1    1.0950e+02    4.1840e+02 ;    H1' - C1'    - N1    
   203    202    217      1    1.0950e+02    4.1840e+02 ;    H1' - C1'    - C2'   
   204    202    217      1    1.0950e+02    4.1840e+02 ;     N1 - C1'    - C2'   
   204    205    206      1    1.1910e+02    4.1840e+02 ;     N1 - C6     - H6    
   204    205    207      1    1.2120e+02    5.8576e+02 ;     N1 - C6     - C5    
   204    213    211      1    1.1540e+02    5.8576e+02 ;     N1 - C2     - N3    
   204    213    214      1    1.2090e+02    6.6944e+02 ;     N1 - C2     - O2    
   205    204    213      1    1.2160e+02    5.8576e+02 ;     C6 - N1     - C2    
   205    207    208      1    1.1970e+02    4.1840e+02 ;     C6 - C5     - H5    
   205    207    209      1    1.2070e+02    5.2718e+02 ;     C6 - C5     - C4    
   206    205    207      1    1.1970e+02    4.1840e+02 ;     H6 - C6     - C5    
   207    209    210      1    1.2530e+02    6.6944e+02 ;     C5 - C4     - O4    
   207    209    211      1    1.1410e+02    5.8576e+02 ;     C5 - C4     - N3    
   208    207    209      1    1.1970e+02    4.1840e+02 ;     H5 - C5     - C4    
   209    211    212      1    1.1680e+02    4.1840e+02 ;     C4 - N3     - H3    
   209    211    213      1    1.2640e+02    5.8576e+02 ;     C4 - N3     - C2    
   210    209    211      1    1.2060e+02    6.6944e+02 ;     O4 - C4     - N3    
   211    213    214      1    1.2060e+02    6.6944e+02 ;     N3 - C2     - O2    
   212    211    213      1    1.1680e+02    4.1840e+02 ;     H3 - N3     - C2    
   215    217    218      1    1.0950e+02    4.1840e+02 ;    C3' - C2'    - H2'   
   215    217    219      1    1.0950e+02    4.1840e+02 ;    C3' - C2'    - O2'   
   215    221    222      1    1.2050e+02    8.3680e+02 ;    C3' - O3'    - P     
   216    215    217      1    1.0950e+02    4.1840e+02 ;    H3' - C3'    - C2'   
   216    215    221      1    1.0950e+02    4.1840e+02 ;    H3' - C3'    - O3'   
   217    215    221      1    1.0950e+02    4.1840e+02 ;    C2' - C3'    - O3'   
   217    219    220      1    1.0850e+02    4.6024e+02 ;    C2' - O2'    - HO2'  
   218    217    219      1    1.0950e+02    4.1840e+02 ;    H2' - C2'    - O2'   
   221    222    223      1    1.0823e+02    8.3680e+02 ;    O3' - P      - OP1   
   221    222    224      1    1.0823e+02    8.3680e+02 ;    O3' - P      - OP2   
   221    222    225      1    1.0260e+02    3.7656e+02 ;    O3' - P      - O5'   
   222    225    226      1    1.2050e+02    8.3680e+02 ;      P - O5'    - C5'   
   223    222    224      1    1.1990e+02    1.1715e+03 ;    OP1 - P      - OP2   
   223    222    225      1    1.0823e+02    8.3680e+02 ;    OP1 - P      - O5'   
   224    222    225      1    1.0823e+02    8.3680e+02 ;    OP2 - P      - O5'   
   225    226    227      1    1.0950e+02    4.1840e+02 ;    O5' - C5'    - H5'   
   225    226    228      1    1.0950e+02    4.1840e+02 ;    O5' - C5'    - H5''  
   225    226    229      1    1.0950e+02    4.1840e+02 ;    O5' - C5'    - C4'   
   226    229    230      1    1.0950e+02    4.1840e+02 ;    C5' - C4'    - H4'   
   226    229    231      1    1.0950e+02    4.1840e+02 ;    C5' - C4'    - O4'   
   226    229    245      1    1.0950e+02    3.3472e+02 ;    C5' - C4'    - C3'   
   227    226    228      1    1.0950e+02    2.9288e+02 ;    H5' - C5'    - H5''  
   227    226    229      1    1.0950e+02    4.1840e+02 ;    H5' - C5'    - C4'   
   228    226    229      1    1.0950e+02    4.1840e+02 ;   H5'' - C5'    - C4'   
   229    231    232      1    1.0950e+02    5.0208e+02 ;    C4' - O4'    - C1'   
   229    245    246      1    1.0950e+02    4.1840e+02 ;    C4' - C3'    - H3'   
   229    245    247      1    1.0950e+02    3.3472e+02 ;    C4' - C3'    - C2'   
   229    245    251      1    1.0950e+02    4.1840e+02 ;    C4' - C3'    - O3'   
   230    229    231      1    1.0950e+02    4.1840e+02 ;    H4' - C4'    - O4'   
   230    229    245      1    1.0950e+02    4.1840e+02 ;    H4' - C4'    - C3'   
   231    229    245      1    1.0950e+02    4.1840e+02 ;    O4' - C4'    - C3'   
   231    232    233      1    1.0950e+02    4.1840e+02 ;    O4' - C1'    - H1'   
   231    232    234      1    1.0950e+02    4.1840e+02 ;    O4' - C1'    - N1    
   231    232    247      1    1.0950e+02    4.1840e+02 ;    O4' - C1'    - C2'   
   232    234    235      1    1.2120e+02    5.8576e+02 ;    C1' - N1     - C6    
   232    234    243      1    1.1760e+02    5.8576e+02 ;    C1' - N1     - C2    
   232    247    245      1    1.0950e+02    3.3472e+02 ;    C1' - C2'    - C3'   
   232    247    248      1    1.0950e+02    4.1840e+02 ;    C1' - C2'    - H2'   
   232    247    249      1    1.0950e+02    4.1840e+02 ;    C1' - C2'    - O2'   
   233    232    234      1    1.0950e+02    4.1840e+02 ;    H1' - C1'    - N1    
   233    232    247      1    1.0950e+02    4.1840e+02 ;    H1' - C1'    - C2'   
   234    232    247      1    1.0950e+02    4.1840e+02 ;     N1 - C1'    - C2'   
   234    235    236      1    1.1910e+02    4.1840e+02 ;     N1 - C6     - H6    
   234    235    237      1    1.2120e+02    5.8576e+02 ;     N1 - C6     - C5    
   234    243    241      1    1.1540e+02    5.8576e+02 ;     N1 - C2     - N3    
   234    243    244      1    1.2090e+02    6.6944e+02 ;     N1 - C2     - O2    
   235    234    243      1    1.2160e+02    5.8576e+02 ;     C6 - N1     - C2    
   235    237    238      1    1.1970e+02    4.1840e+02 ;     C6 - C5     - H5    
   235    237    239      1    1.2070e+02    5.2718e+02 ;     C6 - C5     - C4    
   236    235    237      1    1.1970e+02    4.1840e+02 ;     H6 - C6     - C5    
   237    239    240      1    1.2530e+02    6.6944e+02 ;     C5 - C4     - O4    
   237    239    241      1    1.1410e+02    5.8576e+02 ;     C5 - C4     - N3    
   238    237    239      1    1.1970e+02    4.1840e+02 ;     H5 - C5     - C4    
   239    241    242      1    1.1680e+02    4.1840e+02 ;     C4 - N3     - H3    
   239    241    243      1    1.2640e+02    5.8576e+02 ;     C4 - N3     - C2    
   240    239    241      1    1.2060e+02    6.6944e+02 ;     O4 - C4     - N3    
   241    243    244      1    1.2060e+02    6.6944e+02 ;     N3 - C2     - O2    
   242    241    243      1    1.1680e+02    4.1840e+02 ;     H3 - N3     - C2    
   245    247    248      1    1.0950e+02    4.1840e+02 ;    C3' - C2'    - H2'   
   245    247    249      1    1.0950e+02    4.1840e+02 ;    C3' - C2'    - O2'   
   245    251    252      1    1.2050e+02    8.3680e+02 ;    C3' - O3'    - P     
   246    245    247      1    1.0950e+02    4.1840e+02 ;    H3' - C3'    - C2'   
   246    245    251      1    1.0950e+02    4.1840e+02 ;    H3' - C3'    - O3'   
   247    245    251      1    1.0950e+02    4.1840e+02 ;    C2' - C3'    - O3'   
   247    249    250      1    1.0850e+02    4.6024e+02 ;    C2' - O2'    - HO2'  
   248    247    249      1    1.0950e+02    4.1840e+02 ;    H2' - C2'    - O2'   
   251    252    253      1    1.0823e+02    8.3680e+02 ;    O3' - P      - OP1   
   251    252    254      1    1.0823e+02    8.3680e+02 ;    O3' - P      - OP2   
   251    252    255      1    1.0260e+02    3.7656e+02 ;    O3' - P      - O5'   
   252    255    256      1    1.2050e+02    8.3680e+02 ;      P - O5'    - C5'   
   253    252    254      1    1.1990e+02    1.1715e+03 ;    OP1 - P      - OP2   
   253    252    255      1    1.0823e+02    8.3680e+02 ;    OP1 - P      - O5'   
   254    252    255      1    1.0823e+02    8.3680e+02 ;    OP2 - P      - O5'   
   255    256    257      1    1.0950e+02    4.1840e+02 ;    O5' - C5'    - H5'   
   255    256    258      1    1.0950e+02    4.1840e+02 ;    O5' - C5'    - H5''  
   255    256    259      1    1.0950e+02    4.1840e+02 ;    O5' - C5'    - C4'   
   256    259    260      1    1.0950e+02    4.1840e+02 ;    C5' - C4'    - H4'   
   256    259    261      1    1.0950e+02    4.1840e+02 ;    C5' - C4'    - O4'   
   256    259    276      1    1.0950e+02    3.3472e+02 ;    C5' - C4'    - C3'   
   257    256    258      1    1.0950e+02    2.9288e+02 ;    H5' - C5'    - H5''  
   257    256    259      1    1.0950e+02    4.1840e+02 ;    H5' - C5'    - C4'   
   258    256    259      1    1.0950e+02    4.1840e+02 ;   H5'' - C5'    - C4'   
   259    261    262      1    1.0950e+02    5.0208e+02 ;    C4' - O4'    - C1'   
   259    276    277      1    1.0950e+02    4.1840e+02 ;    C4' - C3'    - H3'   
   259    276    278      1    1.0950e+02    3.3472e+02 ;    C4' - C3'    - C2'   
   259    276    282      1    1.0950e+02    4.1840e+02 ;    C4' - C3'    - O3'   
   260    259    261      1    1.0950e+02    4.1840e+02 ;    H4' - C4'    - O4'   
   260    259    276      1    1.0950e+02    4.1840e+02 ;    H4' - C4'    - C3'   
   261    259    276      1    1.0950e+02    4.1840e+02 ;    O4' - C4'    - C3'   
   261    262    263      1    1.0950e+02    4.1840e+02 ;    O4' - C1'    - H1'   
   261    262    264      1    1.0950e+02    4.1840e+02 ;    O4' - C1'    - N1    
   261    262    278      1    1.0950e+02    4.1840e+02 ;    O4' - C1'    - C2'   
   262    264    265      1    1.2120e+02    5.8576e+02 ;    C1' - N1     - C6    
   262    264    274      1    1.1760e+02    5.8576e+02 ;    C1' - N1     - C2    
   262    278    276      1    1.0950e+02    3.3472e+02 ;    C1' - C2'    - C3'   
   262    278    279      1    1.0950e+02    4.1840e+02 ;    C1' - C2'    - H2'   
   262    278    280      1    1.0950e+02    4.1840e+02 ;    C1' - C2'    - O2'   
   263    262    264      1    1.0950e+02    4.1840e+02 ;    H1' - C1'    - N1    
   263    262    278      1    1.0950e+02    4.1840e+02 ;    H1' - C1'    - C2'   
   264    262    278      1    1.0950e+02    4.1840e+02 ;     N1 - C1'    - C2'   
   264    265    266      1    1.1910e+02    4.1840e+02 ;     N1 - C6     - H6    
   264    265    267      1    1.2120e+02    5.8576e+02 ;     N1 - C6     - C5    
   264    274    273      1    1.1860e+02    5.8576e+02 ;     N1 - C2     - N3    
   264    274    275      1    1.2090e+02    6.6944e+02 ;     N1 - C2     - O2    
   265    264    274      1    1.2160e+02    5.8576e+02 ;     C6 - N1     - C2    
   265    267    268      1    1.1970e+02    4.1840e+02 ;     C6 - C5     - H5    
   265    267    269      1    1.1700e+02    5.2718e+02 ;     C6 - C5     - C4    
   266    265    267      1    1.1970e+02    4.1840e+02 ;     H6 - C6     - C5    
   267    269    270      1    1.2010e+02    5.8576e+02 ;     C5 - C4     - N4    
   267    269    273      1    1.2150e+02    5.8576e+02 ;     C5 - C4     - N3    
   268    267    269      1    1.2330e+02    4.1840e+02 ;     H5 - C5     - C4    
   269    270    271      1    1.2000e+02    4.1840e+02 ;     C4 - N4     - H41   
   269    270    272      1    1.2000e+02    4.1840e+02 ;     C4 - N4     - H42   
   269    273    274      1    1.2050e+02    5.8576e+02 ;     C4 - N3     - C2    
   270    269    273      1    1.1930e+02    5.8576e+02 ;     N4 - C4     - N3    
   271    270    272      1    1.2000e+02    2.9288e+02 ;    H41 - N4     - H42   
   273    274    275      1    1.2250e+02    6.6944e+02 ;     N3 - C2     - O2    
   276    278    279      1    1.0950e+02    4.1840e+02 ;    C3' - C2'    - H2'   
   276    278    280      1    1.0950e+02    4.1840e+02 ;    C3' - C2'    - O2'   
   276    282    283      1    1.2050e+02    8.3680e+02 ;    C3' - O3'    - P     
   277    276    278      1    1.0950e+02    4.1840e+02 ;    H3' - C3'    - C2'   
   277    276    282      1    1.0950e+02    4.1840e+02 ;    H3' - C3'    - O3'   
   278    276    282      1    1.0950e+02    4.1840e+02 ;    C2' - C3'    - O3'   
   278    280    281      1    1.0850e+02    4.6024e+02 ;    C2' - O2'    - HO2'  
   279    278    280      1    1.0950e+02    4.1840e+02 ;    H2' - C2'    - O2'   
   282    283    284      1    1.0823e+02    8.3680e+02 ;    O3' - P      - OP1   
   282    283    285      1    1.0823e+02    8.3680e+02 ;    O3' - P      - OP2   
   282    283    286      1    1.0260e+02    3.7656e+02 ;    O3' - P      - O5'   
   283    286    287      1    1.2050e+02    8.3680e+02 ;      P - O5'    - C5'   
   284    283    285      1    1.1990e+02    1.1715e+03 ;    OP1 - P      - OP2   
   284    283    286      1    1.0823e+02    8.3680e+02 ;    OP1 - P      - O5'   
   285    283    286      1    1.0823e+02    8.3680e+02 ;    OP2 - P      - O5'   
   286    287    288      1    1.0950e+02    4.1840e+02 ;    O5' - C5'    - H5'   
   286    287    289      1    1.0950e+02    4.1840e+02 ;    O5' - C5'    - H5''  
   286    287    290      1    1.0950e+02    4.1840e+02 ;    O5' - C5'    - C4'   
   287    290    291      1    1.0950e+02    4.1840e+02 ;    C5' - C4'    - H4'   
   287    290    292      1    1.0950e+02    4.1840e+02 ;    C5' - C4'    - O4'   
   287    290    310      1    1.0950e+02    3.3472e+02 ;    C5' - C4'    - C3'   
   288    287    289      1    1.0950e+02    2.9288e+02 ;    H5' - C5'    - H5''  
   288    287    290      1    1.0950e+02    4.1840e+02 ;    H5' - C5'    - C4'   
   289    287    290      1    1.0950e+02    4.1840e+02 ;   H5'' - C5'    - C4'   
   290    292    293      1    1.0950e+02    5.0208e+02 ;    C4' - O4'    - C1'   
   290    310    311      1    1.0950e+02    4.1840e+02 ;    C4' - C3'    - H3'   
   290    310    312      1    1.0950e+02    3.3472e+02 ;    C4' - C3'    - C2'   
   290    310    316      1    1.0950e+02    4.1840e+02 ;    C4' - C3'    - O3'   
   291    290    292      1    1.0950e+02    4.1840e+02 ;    H4' - C4'    - O4'   
   291    290    310      1    1.0950e+02    4.1840e+02 ;    H4' - C4'    - C3'   
   292    290    310      1    1.0950e+02    4.1840e+02 ;    O4' - C4'    - C3'   
   292    293    294      1    1.0950e+02    4.1840e+02 ;    O4' - C1'    - H1'   
   292    293    295      1    1.0950e+02    4.1840e+02 ;    O4' - C1'    - N9    
   292    293    312      1    1.0950e+02    4.1840e+02 ;    O4' - C1'    - C2'   
   293    295    296      1    1.2880e+02    5.8576e+02 ;    C1' - N9     - C8    
   293    295    309      1    1.2580e+02    5.8576e+02 ;    C1' - N9     - C4    
   293    312    310      1    1.0950e+02    3.3472e+02 ;    C1' - C2'    - C3'   
   293    312    313      1    1.0950e+02    4.1840e+02 ;    C1' - C2'    - H2'   
   293    312    314      1    1.0950e+02    4.1840e+02 ;    C1' - C2'    - O2'   
   294    293    295      1    1.0950e+02    4.1840e+02 ;    H1' - C1'    - N9    
   294    293    312      1    1.0950e+02    4.1840e+02 ;    H1' - C1'    - C2'   
   295    293    312      1    1.0950e+02    4.1840e+02 ;     N9 - C1'    - C2'   
   295    296    297      1    1.2305e+02    4.1840e+02 ;     N9 - C8     - H8    
   295    296    298      1    1.1390e+02    5.8576e+02 ;     N9 - C8     - N7    
   295    309    299      1    1.0620e+02    5.8576e+02 ;     N9 - C4     - C5    
   295    309    308      1    1.2620e+02    5.8576e+02 ;     N9 - C4     - N3    
   296    295    309      1    1.0540e+02    5.8576e+02 ;     C8 - N9     - C4    
   296    298    299      1    1.0380e+02    5.8576e+02 ;     C8 - N7     - C5    
   297    296    298      1    1.2305e+02    4.1840e+02 ;     H8 - C8     - N7    
   298    299    300      1    1.3000e+02    5.8576e+02 ;     N7 - C5     - C6    
   298    299    309      1    1.1040e+02    5.8576e+02 ;     N7 - C5     - C4    
   299    300    301      1    1.2880e+02    6.6944e+02 ;     C5 - C6     - O6    
   299    300    302      1    1.1130e+02    5.8576e+02 ;     C5 - C6     - N1    
   299    309    308      1    1.2770e+02    5.8576e+02 ;     C5 - C4     - N3    
   300    299    309      1    1.1920e+02    5.2718e+02 ;     C6 - C5     - C4    
   300    302    303      1    1.1680e+02    4.1840e+02 ;     C6 - N1     - H1    
   300    302    304      1    1.2520e+02    5.8576e+02 ;     C6 - N1     - C2    
   301    300    302      1    1.2060e+02    6.6944e+02 ;     O6 - C6     - N1    
   302    304    305      1    1.1600e+02    5.8576e+02 ;     N1 - C2     - N2    
   302    304    308      1    1.2330e+02    5.8576e+02 ;     N1 - C2     - N3    
   303    302    304      1    1.1800e+02    4.1840e+02 ;     H1 - N1     - C2    
   304    305    306      1    1.2000e+02    4.1840e+02 ;     C2 - N2     - H21   
   304    305    307      1    1.2000e+02    4.1840e+02 ;     C2 - N2     - H22   
   304    308    309      1    1.1220e+02    5.8576e+02 ;     C2 - N3     - C4    
   305    304    308      1    1.1930e+02    5.8576e+02 ;     N2 - C2     - N3    
   306    305    307      1    1.2000e+02    2.9288e+02 ;    H21 - N2     - H22   
   310    312    313      1    1.0950e+02    4.1840e+02 ;    C3' - C2'    - H2'   
   310    312    314      1    1.0950e+02    4.1840e+02 ;    C3' - C2'    - O2'   
   310    316    317      1    1.2050e+02    8.3680e+02 ;    C3' - O3'    - P     
   311    310    312      1    1.0950e+02    4.1840e+02 ;    H3' - C3'    - C2'   
   311    310    316      1    1.0950e+02    4.1840e+02 ;    H3' - C3'    - O3'   
   312    310    316      1    1.0950e+02    4.1840e+02 ;    C2' - C3'    - O3'   
   312    314    315      1    1.0850e+02    4.6024e+02 ;    C2' - O2'    - HO2'  
   313    312    314      1    1.0950e+02    4.1840e+02 ;    H2' - C2'    - O2'   
   316    317    318      1    1.0823e+02    8.3680e+02 ;    O3' - P      - OP1   
   316    317    319      1    1.0823e+02    8.3680e+02 ;    O3' - P      - OP2   
   316    317    320      1    1.0260e+02    3.7656e+02 ;    O3' - P      - O5'   
   317    320    321      1    1.2050e+02    8.3680e+02 ;      P - O5'    - C5'   
   318    317    319      1    1.1990e+02    1.1715e+03 ;    OP1 - P      - OP2   
   318    317    320      1    1.0823e+02    8.3680e+02 ;    OP1 - P      - O5'   
   319    317    320      1    1.0823e+02    8.3680e+02 ;    OP2 - P      - O5'   
   320    321    322      1    1.0950e+02    4.1840e+02 ;    O5' - C5'    - H5'   
   320    321    323      1    1.0950e+02    4.1840e+02 ;    O5' - C5'    - H5''  
   320    321    324      1    1.0950e+02    4.1840e+02 ;    O5' - C5'    - C4'   
   321    324    325      1    1.0950e+02    4.1840e+02 ;    C5' - C4'    - H4'   
   321    324    326      1    1.0950e+02    4.1840e+02 ;    C5' - C4'    - O4'   
   321    324    343      1    1.0950e+02    3.3472e+02 ;    C5' - C4'    - C3'   
   322    321    323      1    1.0950e+02    2.9288e+02 ;    H5' - C5'    - H5''  
   322    321    324      1    1.0950e+02    4.1840e+02 ;    H5' - C5'    - C4'   
   323    321    324      1    1.0950e+02    4.1840e+02 ;   H5'' - C5'    - C4'   
   324    326    327      1    1.0950e+02    5.0208e+02 ;    C4' - O4'    - C1'   
   324    343    344      1    1.0950e+02    4.1840e+02 ;    C4' - C3'    - H3'   
   324    343    345      1    1.0950e+02    3.3472e+02 ;    C4' - C3'    - C2'   
   324    343    349      1    1.0950e+02    4.1840e+02 ;    C4' - C3'    - O3'   
   325    324    326      1    1.0950e+02    4.1840e+02 ;    H4' - C4'    - O4'   
   325    324    343      1    1.0950e+02    4.1840e+02 ;    H4' - C4'    - C3'   
   326    324    343      1    1.0950e+02    4.1840e+02 ;    O4' - C4'    - C3'   
   326    327    328      1    1.0950e+02    4.1840e+02 ;    O4' - C1'    - H1'   
   326    327    329      1    1.0950e+02    4.1840e+02 ;    O4' - C1'    - N9    
   326    327    345      1    1.0950e+02    4.1840e+02 ;    O4' - C1'    - C2'   
   327    329    330      1    1.2880e+02    5.8576e+02 ;    C1' - N9     - C8    
   327    329    342      1    1.2580e+02    5.8576e+02 ;    C1' - N9     - C4    
   327    345    343      1    1.0950e+02    3.3472e+02 ;    C1' - C2'    - C3'   
   327    345    346      1    1.0950e+02    4.1840e+02 ;    C1' - C2'    - H2'   
   327    345    347      1    1.0950e+02    4.1840e+02 ;    C1' - C2'    - O2'   
   328    327    329      1    1.0950e+02    4.1840e+02 ;    H1' - C1'    - N9    
   328    327    345      1    1.0950e+02    4.1840e+02 ;    H1' - C1'    - C2'   
   329    327    345      1    1.0950e+02    4.1840e+02 ;     N9 - C1'    - C2'   
   329    330    331      1    1.2305e+02    4.1840e+02 ;     N9 - C8     - H8    
   329    330    332      1    1.1390e+02    5.8576e+02 ;     N9 - C8     - N7    
   329    342    333      1    1.0620e+02    5.8576e+02 ;     N9 - C4     - C5    
   329    342    341      1    1.2620e+02    5.8576e+02 ;     N9 - C4     - N3    
   330    329    342      1    1.0540e+02    5.8576e+02 ;     C8 - N9     - C4    
   330    332    333      1    1.0380e+02    5.8576e+02 ;     C8 - N7     - C5    
   331    330    332      1    1.2305e+02    4.1840e+02 ;     H8 - C8     - N7    
   332    333    334      1    1.3240e+02    5.8576e+02 ;     N7 - C5     - C6    
   332    333    342      1    1.1040e+02    5.8576e+02 ;     N7 - C5     - C4    
   333    334    335      1    1.2350e+02    5.8576e+02 ;     C5 - C6     - N6    
   333    334    338      1    1.1730e+02    5.8576e+02 ;     C5 - C6     - N1    
   333    342    341      1    1.2770e+02    5.8576e+02 ;     C5 - C4     - N3    
   334    333    342      1    1.1730e+02    5.2718e+02 ;     C6 - C5     - C4    
   334    335    336      1    1.2000e+02    4.1840e+02 ;     C6 - N6     - H61   
   334    335    337      1    1.2000e+02    4.1840e+02 ;     C6 - N6     - H62   
   334    338    339      1    1.1860e+02    5.8576e+02 ;     C6 - N1     - C2    
   335    334    338      1    1.1930e+02    5.8576e+02 ;     N6 - C6     - N1    
   336    335    337      1    1.2000e+02    2.9288e+02 ;    H61 - N6     - H62   
   338    339    340      1    1.1545e+02    4.1840e+02 ;     N1 - C2     - H2    
   338    339    341      1    1.2910e+02    5.8576e+02 ;     N1 - C2     - N3    
   339    341    342      1    1.1100e+02    5.8576e+02 ;     C2 - N3     - C4    
   340    339    341      1    1.1545e+02    4.1840e+02 ;     H2 - C2     - N3    
   343    345    346      1    1.0950e+02    4.1840e+02 ;    C3' - C2'    - H2'   
   343    345    347      1    1.0950e+02    4.1840e+02 ;    C3' - C2'    - O2'   
   343    349    350      1    1.2050e+02    8.3680e+02 ;    C3' - O3'    - P     
   344    343    345      1    1.0950e+02    4.1840e+02 ;    H3' - C3'    - C2'   
   344    343    349      1    1.0950e+02    4.1840e+02 ;    H3' - C3'    - O3'   
   345    343    349      1    1.0950e+02    4.1840e+02 ;    C2' - C3'    - O3'   
   345    347    348      1    1.0850e+02    4.6024e+02 ;    C2' - O2'    - HO2'  
   346    345    347      1    1.0950e+02    4.1840e+02 ;    H2' - C2'    - O2'   
   349    350    351      1    1.0823e+02    8.3680e+02 ;    O3' - P      - OP1   
   349    350    352      1    1.0823e+02    8.3680e+02 ;    O3' - P      - OP2   
   349    350    353      1    1.0260e+02    3.7656e+02 ;    O3' - P      - O5'   
   350    353    354      1    1.2050e+02    8.3680e+02 ;      P - O5'    - C5'   
   351    350    352      1    1.1990e+02    1.1715e+03 ;    OP1 - P      - OP2   
   351    350    353      1    1.0823e+02    8.3680e+02 ;    OP1 - P      - O5'   
   352    350    353      1    1.0823e+02    8.3680e+02 ;    OP2 - P      - O5'   
   353    354    355      1    1.0950e+02    4.1840e+02 ;    O5' - C5'    - H5'   
   353    354    356      1    1.0950e+02    4.1840e+02 ;    O5' - C5'    - H5''  
   353    354    357      1    1.0950e+02    4.1840e+02 ;    O5' - C5'    - C4'   
   354    357    358      1    1.0950e+02    4.1840e+02 ;    C5' - C4'    - H4'   
   354    357    359      1    1.0950e+02    4.1840e+02 ;    C5' - C4'    - O4'   
   354    357    377      1    1.0950e+02    3.3472e+02 ;    C5' - C4'    - C3'   
   355    354    356      1    1.0950e+02    2.9288e+02 ;    H5' - C5'    - H5''  
   355    354    357      1    1.0950e+02    4.1840e+02 ;    H5' - C5'    - C4'   
   356    354    357      1    1.0950e+02    4.1840e+02 ;   H5'' - C5'    - C4'   
   357    359    360      1    1.0950e+02    5.0208e+02 ;    C4' - O4'    - C1'   
   357    377    378      1    1.0950e+02    4.1840e+02 ;    C4' - C3'    - H3'   
   357    377    379      1    1.0950e+02    3.3472e+02 ;    C4' - C3'    - C2'   
   357    377    383      1    1.0950e+02    4.1840e+02 ;    C4' - C3'    - O3'   
   358    357    359      1    1.0950e+02    4.1840e+02 ;    H4' - C4'    - O4'   
   358    357    377      1    1.0950e+02    4.1840e+02 ;    H4' - C4'    - C3'   
   359    357    377      1    1.0950e+02    4.1840e+02 ;    O4' - C4'    - C3'   
   359    360    361      1    1.0950e+02    4.1840e+02 ;    O4' - C1'    - H1'   
   359    360    362      1    1.0950e+02    4.1840e+02 ;    O4' - C1'    - N9    
   359    360    379      1    1.0950e+02    4.1840e+02 ;    O4' - C1'    - C2'   
   360    362    363      1    1.2880e+02    5.8576e+02 ;    C1' - N9     - C8    
   360    362    376      1    1.2580e+02    5.8576e+02 ;    C1' - N9     - C4    
   360    379    377      1    1.0950e+02    3.3472e+02 ;    C1' - C2'    - C3'   
   360    379    380      1    1.0950e+02    4.1840e+02 ;    C1' - C2'    - H2'   
   360    379    381      1    1.0950e+02    4.1840e+02 ;    C1' - C2'    - O2'   
   361    360    362      1    1.0950e+02    4.1840e+02 ;    H1' - C1'    - N9    
   361    360    379      1    1.0950e+02    4.1840e+02 ;    H1' - C1'    - C2'   
   362    360    379      1    1.0950e+02    4.1840e+02 ;     N9 - C1'    - C2'   
   362    363    364      1    1.2305e+02    4.1840e+02 ;     N9 - C8     - H8    
   362    363    365      1    1.1390e+02    5.8576e+02 ;     N9 - C8     - N7    
   362    376    366      1    1.0620e+02    5.8576e+02 ;     N9 - C4     - C5    
   362    376    375      1    1.2620e+02    5.8576e+02 ;     N9 - C4     - N3    
   363    362    376      1    1.0540e+02    5.8576e+02 ;     C8 - N9     - C4    
   363    365    366      1    1.0380e+02    5.8576e+02 ;     C8 - N7     - C5    
   364    363    365      1    1.2305e+02    4.1840e+02 ;     H8 - C8     - N7    
   365    366    367      1    1.3000e+02    5.8576e+02 ;     N7 - C5     - C6    
   365    366    376      1    1.1040e+02    5.8576e+02 ;     N7 - C5     - C4    
   366    367    368      1    1.2880e+02    6.6944e+02 ;     C5 - C6     - O6    
   366    367    369      1    1.1130e+02    5.8576e+02 ;     C5 - C6     - N1    
   366    376    375      1    1.2770e+02    5.8576e+02 ;     C5 - C4     - N3    
   367    366    376      1    1.1920e+02    5.2718e+02 ;     C6 - C5     - C4    
   367    369    370      1    1.1680e+02    4.1840e+02 ;     C6 - N1     - H1    
   367    369    371      1    1.2520e+02    5.8576e+02 ;     C6 - N1     - C2    
   368    367    369      1    1.2060e+02    6.6944e+02 ;     O6 - C6     - N1    
   369    371    372      1    1.1600e+02    5.8576e+02 ;     N1 - C2     - N2    
   369    371    375      1    1.2330e+02    5.8576e+02 ;     N1 - C2     - N3    
   370    369    371      1    1.1800e+02    4.1840e+02 ;     H1 - N1     - C2    
   371    372    373      1    1.2000e+02    4.1840e+02 ;     C2 - N2     - H21   
   371    372    374      1    1.2000e+02    4.1840e+02 ;     C2 - N2     - H22   
   371    375    376      1    1.1220e+02    5.8576e+02 ;     C2 - N3     - C4    
   372    371    375      1    1.1930e+02    5.8576e+02 ;     N2 - C2     - N3    
   373    372    374      1    1.2000e+02    2.9288e+02 ;    H21 - N2     - H22   
   377    379    380      1    1.0950e+02    4.1840e+02 ;    C3' - C2'    - H2'   
   377    379    381      1    1.0950e+02    4.1840e+02 ;    C3' - C2'    - O2'   
   377    383    384      1    1.2050e+02    8.3680e+02 ;    C3' - O3'    - P     
   378    377    379      1    1.0950e+02    4.1840e+02 ;    H3' - C3'    - C2'   
   378    377    383      1    1.0950e+02    4.1840e+02 ;    H3' - C3'    - O3'   
   379    377    383      1    1.0950e+02    4.1840e+02 ;    C2' - C3'    - O3'   
   379    381    382      1    1.0850e+02    4.6024e+02 ;    C2' - O2'    - HO2'  
   380    379    381      1    1.0950e+02    4.1840e+02 ;    H2' - C2'    - O2'   
   383    384    385      1    1.0823e+02    8.3680e+02 ;    O3' - P      - OP1   
   383    384    386      1    1.0823e+02    8.3680e+02 ;    O3' - P      - OP2   
   383    384    387      1    1.0260e+02    3.7656e+02 ;    O3' - P      - O5'   
   384    387    388      1    1.2050e+02    8.3680e+02 ;      P - O5'    - C5'   
   385    384    386      1    1.1990e+02    1.1715e+03 ;    OP1 - P      - OP2   
   385    384    387      1    1.0823e+02    8.3680e+02 ;    OP1 - P      - O5'   
   386    384    387      1    1.0823e+02    8.3680e+02 ;    OP2 - P      - O5'   
   387    388    389      1    1.0950e+02    4.1840e+02 ;    O5' - C5'    - H5'   
   387    388    390      1    1.0950e+02    4.1840e+02 ;    O5' - C5'    - H5''  
   387    388    391      1    1.0950e+02    4.1840e+02 ;    O5' - C5'    - C4'   
   388    391    392      1    1.0950e+02    4.1840e+02 ;    C5' - C4'    - H4'   
   388    391    393      1    1.0950e+02    4.1840e+02 ;    C5' - C4'    - O4'   
   388    391    408      1    1.0950e+02    3.3472e+02 ;    C5' - C4'    - C3'   
   389    388    390      1    1.0950e+02    2.9288e+02 ;    H5' - C5'    - H5''  
   389    388    391      1    1.0950e+02    4.1840e+02 ;    H5' - C5'    - C4'   
   390    388    391      1    1.0950e+02    4.1840e+02 ;   H5'' - C5'    - C4'   
   391    393    394      1    1.0950e+02    5.0208e+02 ;    C4' - O4'    - C1'   
   391    408    409      1    1.0950e+02    4.1840e+02 ;    C4' - C3'    - H3'   
   391    408    410      1    1.0950e+02    3.3472e+02 ;    C4' - C3'    - C2'   
   391    408    414      1    1.0950e+02    4.1840e+02 ;    C4' - C3'    - O3'   
   392    391    393      1    1.0950e+02    4.1840e+02 ;    H4' - C4'    - O4'   
   392    391    408      1    1.0950e+02    4.1840e+02 ;    H4' - C4'    - C3'   
   393    391    408      1    1.0950e+02    4.1840e+02 ;    O4' - C4'    - C3'   
   393    394    395      1    1.0950e+02    4.1840e+02 ;    O4' - C1'    - H1'   
   393    394    396      1    1.0950e+02    4.1840e+02 ;    O4' - C1'    - N1    
   393    394    410      1    1.0950e+02    4.1840e+02 ;    O4' - C1'    - C2'   
   394    396    397      1    1.2120e+02    5.8576e+02 ;    C1' - N1     - C6    
   394    396    406      1    1.1760e+02    5.8576e+02 ;    C1' - N1     - C2    
   394    410    408      1    1.0950e+02    3.3472e+02 ;    C1' - C2'    - C3'   
   394    410    411      1    1.0950e+02    4.1840e+02 ;    C1' - C2'    - H2'   
   394    410    412      1    1.0950e+02    4.1840e+02 ;    C1' - C2'    - O2'   
   395    394    396      1    1.0950e+02    4.1840e+02 ;    H1' - C1'    - N1    
   395    394    410      1    1.0950e+02    4.1840e+02 ;    H1' - C1'    - C2'   
   396    394    410      1    1.0950e+02    4.1840e+02 ;     N1 - C1'    - C2'   
   396    397    398      1    1.1910e+02    4.1840e+02 ;     N1 - C6     - H6    
   396    397    399      1    1.2120e+02    5.8576e+02 ;     N1 - C6     - C5    
   396    406    405      1    1.1860e+02    5.8576e+02 ;     N1 - C2     - N3    
   396    406    407      1    1.2090e+02    6.6944e+02 ;     N1 - C2     - O2    
   397    396    406      1    1.2160e+02    5.8576e+02 ;     C6 - N1     - C2    
   397    399    400      1    1.1970e+02    4.1840e+02 ;     C6 - C5     - H5    
   397    399    401      1    1.1700e+02    5.2718e+02 ;     C6 - C5     - C4    
   398    397    399      1    1.1970e+02    4.1840e+02 ;     H6 - C6     - C5    
   399    401    402      1    1.2010e+02    5.8576e+02 ;     C5 - C4     - N4    
   399    401    405      1    1.2150e+02    5.8576e+02 ;     C5 - C4     - N3    
   400    399    401      1    1.2330e+02    4.1840e+02 ;     H5 - C5     - C4    
   401    402    403      1    1.2000e+02    4.1840e+02 ;     C4 - N4     - H41   
   401    402    404      1    1.2000e+02    4.1840e+02 ;     C4 - N4     - H42   
   401    405    406      1    1.2050e+02    5.8576e+02 ;     C4 - N3     - C2    
   402    401    405      1    1.1930e+02    5.8576e+02 ;     N4 - C4     - N3    
   403    402    404      1    1.2000e+02    2.9288e+02 ;    H41 - N4     - H42   
   405    406    407      1    1.2250e+02    6.6944e+02 ;     N3 - C2     - O2    
   408    410    411      1    1.0950e+02    4.1840e+02 ;    C3' - C2'    - H2'   
   408    410    412      1    1.0950e+02    4.1840e+02 ;    C3' - C2'    - O2'   
   408    414    415      1    1.2050e+02    8.3680e+02 ;    C3' - O3'    - P     
   409    408    410      1    1.0950e+02    4.1840e+02 ;    H3' - C3'    - C2'   
   409    408    414      1    1.0950e+02    4.1840e+02 ;    H3' - C3'    - O3'   
   410    408    414      1    1.0950e+02    4.1840e+02 ;    C2' - C3'    - O3'   
   410    412    413      1    1.0850e+02    4.6024e+02 ;    C2' - O2'    - HO2'  
   411    410    412      1    1.0950e+02    4.1840e+02 ;    H2' - C2'    - O2'   
   414    415    416      1    1.0823e+02    8.3680e+02 ;    O3' - P      - OP1   
   414    415    417      1    1.0823e+02    8.3680e+02 ;    O3' - P      - OP2   
   414    415    418      1    1.0260e+02    3.7656e+02 ;    O3' - P      - O5'   
   415    418    419      1    1.2050e+02    8.3680e+02 ;      P - O5'    - C5'   
   416    415    417      1    1.1990e+02    1.1715e+03 ;    OP1 - P      - OP2   
   416    415    418      1    1.0823e+02    8.3680e+02 ;    OP1 - P      - O5'   
   417    415    418      1    1.0823e+02    8.3680e+02 ;    OP2 - P      - O5'   
   418    419    420      1    1.0950e+02    4.1840e+02 ;    O5' - C5'    - H5'   
   418    419    421      1    1.0950e+02    4.1840e+02 ;    O5' - C5'    - H5''  
   418    419    422      1    1.0950e+02    4.1840e+02 ;    O5' - C5'    - C4'   
   419    422    423      1    1.0950e+02    4.1840e+02 ;    C5' - C4'    - H4'   
   419    422    424      1    1.0950e+02    4.1840e+02 ;    C5' - C4'    - O4'   
   419    422    442      1    1.0950e+02    3.3472e+02 ;    C5' - C4'    - C3'   
   420    419    421      1    1.0950e+02    2.9288e+02 ;    H5' - C5'    - H5''  
   420    419    422      1    1.0950e+02    4.1840e+02 ;    H5' - C5'    - C4'   
   421    419    422      1    1.0950e+02    4.1840e+02 ;   H5'' - C5'    - C4'   
   422    424    425      1    1.0950e+02    5.0208e+02 ;    C4' - O4'    - C1'   
   422    442    443      1    1.0950e+02    4.1840e+02 ;    C4' - C3'    - H3'   
   422    442    444      1    1.0950e+02    3.3472e+02 ;    C4' - C3'    - C2'   
   422    442    448      1    1.0950e+02    4.1840e+02 ;    C4' - C3'    - O3'   
   423    422    424      1    1.0950e+02    4.1840e+02 ;    H4' - C4'    - O4'   
   423    422    442      1    1.0950e+02    4.1840e+02 ;    H4' - C4'    - C3'   
   424    422    442      1    1.0950e+02    4.1840e+02 ;    O4' - C4'    - C3'   
   424    425    426      1    1.0950e+02    4.1840e+02 ;    O4' - C1'    - H1'   
   424    425    427      1    1.0950e+02    4.1840e+02 ;    O4' - C1'    - N9    
   424    425    444      1    1.0950e+02    4.1840e+02 ;    O4' - C1'    - C2'   
   425    427    428      1    1.2880e+02    5.8576e+02 ;    C1' - N9     - C8    
   425    427    441      1    1.2580e+02    5.8576e+02 ;    C1' - N9     - C4    
   425    444    442      1    1.0950e+02    3.3472e+02 ;    C1' - C2'    - C3'   
   425    444    445      1    1.0950e+02    4.1840e+02 ;    C1' - C2'    - H2'   
   425    444    446      1    1.0950e+02    4.1840e+02 ;    C1' - C2'    - O2'   
   426    425    427      1    1.0950e+02    4.1840e+02 ;    H1' - C1'    - N9    
   426    425    444      1    1.0950e+02    4.1840e+02 ;    H1' - C1'    - C2'   
   427    425    444      1    1.0950e+02    4.1840e+02 ;     N9 - C1'    - C2'   
   427    428    429      1    1.2305e+02    4.1840e+02 ;     N9 - C8     - H8    
   427    428    430      1    1.1390e+02    5.8576e+02 ;     N9 - C8     - N7    
   427    441    431      1    1.0620e+02    5.8576e+02 ;     N9 - C4     - C5    
   427    441    440      1    1.2620e+02    5.8576e+02 ;     N9 - C4     - N3    
   428    427    441      1    1.0540e+02    5.8576e+02 ;     C8 - N9     - C4    
   428    430    431      1    1.0380e+02    5.8576e+02 ;     C8 - N7     - C5    
   429    428    430      1    1.2305e+02    4.1840e+02 ;     H8 - C8     - N7    
   430    431    432      1    1.3000e+02    5.8576e+02 ;     N7 - C5     - C6    
   430    431    441      1    1.1040e+02    5.8576e+02 ;     N7 - C5     - C4    
   431    432    433      1    1.2880e+02    6.6944e+02 ;     C5 - C6     - O6    
   431    432    434      1    1.1130e+02    5.8576e+02 ;     C5 - C6     - N1    
   431    441    440      1    1.2770e+02    5.8576e+02 ;     C5 - C4     - N3    
   432    431    441      1    1.1920e+02    5.2718e+02 ;     C6 - C5     - C4    
   432    434    435      1    1.1680e+02    4.1840e+02 ;     C6 - N1     - H1    
   432    434    436      1    1.2520e+02    5.8576e+02 ;     C6 - N1     - C2    
   433    432    434      1    1.2060e+02    6.6944e+02 ;     O6 - C6     - N1    
   434    436    437      1    1.1600e+02    5.8576e+02 ;     N1 - C2     - N2    
   434    436    440      1    1.2330e+02    5.8576e+02 ;     N1 - C2     - N3    
   435    434    436      1    1.1800e+02    4.1840e+02 ;     H1 - N1     - C2    
   436    437    438      1    1.2000e+02    4.1840e+02 ;     C2 - N2     - H21   
   436    437    439      1    1.2000e+02    4.1840e+02 ;     C2 - N2     - H22   
   436    440    441      1    1.1220e+02    5.8576e+02 ;     C2 - N3     - C4    
   437    436    440      1    1.1930e+02    5.8576e+02 ;     N2 - C2     - N3    
   438    437    439      1    1.2000e+02    2.9288e+02 ;    H21 - N2     - H22   
   442    444    445      1    1.0950e+02    4.1840e+02 ;    C3' - C2'    - H2'   
   442    444    446      1    1.0950e+02    4.1840e+02 ;    C3' - C2'    - O2'   
   442    448    449      1    1.2050e+02    8.3680e+02 ;    C3' - O3'    - P     
   443    442    444      1    1.0950e+02    4.1840e+02 ;    H3' - C3'    - C2'   
   443    442    448      1    1.0950e+02    4.1840e+02 ;    H3' - C3'    - O3'   
   444    442    448      1    1.0950e+02    4.1840e+02 ;    C2' - C3'    - O3'   
   444    446    447      1    1.0850e+02    4.6024e+02 ;    C2' - O2'    - HO2'  
   445    444    446      1    1.0950e+02    4.1840e+02 ;    H2' - C2'    - O2'   
   448    449    450      1    1.0823e+02    8.3680e+02 ;    O3' - P      - OP1   
   448    449    451      1    1.0823e+02    8.3680e+02 ;    O3' - P      - OP2   
   448    449    452      1    1.0260e+02    3.7656e+02 ;    O3' - P      - O5'   
   449    452    453      1    1.2050e+02    8.3680e+02 ;      P - O5'    - C5'   
   450    449    451      1    1.1990e+02    1.1715e+03 ;    OP1 - P      - OP2   
   450    449    452      1    1.0823e+02    8.3680e+02 ;    OP1 - P      - O5'   
   451    449    452      1    1.0823e+02    8.3680e+02 ;    OP2 - P      - O5'   
   452    453    454      1    1.0950e+02    4.1840e+02 ;    O5' - C5'    - H5'   
   452    453    455      1    1.0950e+02    4.1840e+02 ;    O5' - C5'    - H5''  
   452    453    456      1    1.0950e+02    4.1840e+02 ;    O5' - C5'    - C4'   
   453    456    457      1    1.0950e+02    4.1840e+02 ;    C5' - C4'    - H4'   
   453    456    458      1    1.0950e+02    4.1840e+02 ;    C5' - C4'    - O4'   
   453    456    473      1    1.0950e+02    3.3472e+02 ;    C5' - C4'    - C3'   
   454    453    455      1    1.0950e+02    2.9288e+02 ;    H5' - C5'    - H5''  
   454    453    456      1    1.0950e+02    4.1840e+02 ;    H5' - C5'    - C4'   
   455    453    456      1    1.0950e+02    4.1840e+02 ;   H5'' - C5'    - C4'   
   456    458    459      1    1.0950e+02    5.0208e+02 ;    C4' - O4'    - C1'   
   456    473    474      1    1.0950e+02    4.1840e+02 ;    C4' - C3'    - H3'   
   456    473    475      1    1.0950e+02    3.3472e+02 ;    C4' - C3'    - C2'   
   456    473    479      1    1.0950e+02    4.1840e+02 ;    C4' - C3'    - O3'   
   457    456    458      1    1.0950e+02    4.1840e+02 ;    H4' - C4'    - O4'   
   457    456    473      1    1.0950e+02    4.1840e+02 ;    H4' - C4'    - C3'   
   458    456    473      1    1.0950e+02    4.1840e+02 ;    O4' - C4'    - C3'   
   458    459    460      1    1.0950e+02    4.1840e+02 ;    O4' - C1'    - H1'   
   458    459    461      1    1.0950e+02    4.1840e+02 ;    O4' - C1'    - N1    
   458    459    475      1    1.0950e+02    4.1840e+02 ;    O4' - C1'    - C2'   
   459    461    462      1    1.2120e+02    5.8576e+02 ;    C1' - N1     - C6    
   459    461    471      1    1.1760e+02    5.8576e+02 ;    C1' - N1     - C2    
   459    475    473      1    1.0950e+02    3.3472e+02 ;    C1' - C2'    - C3'   
   459    475    476      1    1.0950e+02    4.1840e+02 ;    C1' - C2'    - H2'   
   459    475    477      1    1.0950e+02    4.1840e+02 ;    C1' - C2'    - O2'   
   460    459    461      1    1.0950e+02    4.1840e+02 ;    H1' - C1'    - N1    
   460    459    475      1    1.0950e+02    4.1840e+02 ;    H1' - C1'    - C2'   
   461    459    475      1    1.0950e+02    4.1840e+02 ;     N1 - C1'    - C2'   
   461    462    463      1    1.1910e+02    4.1840e+02 ;     N1 - C6     - H6    
   461    462    464      1    1.2120e+02    5.8576e+02 ;     N1 - C6     - C5    
   461    471    470      1    1.1860e+02    5.8576e+02 ;     N1 - C2     - N3    
   461    471    472      1    1.2090e+02    6.6944e+02 ;     N1 - C2     - O2    
   462    461    471      1    1.2160e+02    5.8576e+02 ;     C6 - N1     - C2    
   462    464    465      1    1.1970e+02    4.1840e+02 ;     C6 - C5     - H5    
   462    464    466      1    1.1700e+02    5.2718e+02 ;     C6 - C5     - C4    
   463    462    464      1    1.1970e+02    4.1840e+02 ;     H6 - C6     - C5    
   464    466    467      1    1.2010e+02    5.8576e+02 ;     C5 - C4     - N4    
   464    466    470      1    1.2150e+02    5.8576e+02 ;     C5 - C4     - N3    
   465    464    466      1    1.2330e+02    4.1840e+02 ;     H5 - C5     - C4    
   466    467    468      1    1.2000e+02    4.1840e+02 ;     C4 - N4     - H41   
   466    467    469      1    1.2000e+02    4.1840e+02 ;     C4 - N4     - H42   
   466    470    471      1    1.2050e+02    5.8576e+02 ;     C4 - N3     - C2    
   467    466    470      1    1.1930e+02    5.8576e+02 ;     N4 - C4     - N3    
   468    467    469      1    1.2000e+02    2.9288e+02 ;    H41 - N4     - H42   
   470    471    472      1    1.2250e+02    6.6944e+02 ;     N3 - C2     - O2    
   473    475    476      1    1.0950e+02    4.1840e+02 ;    C3' - C2'    - H2'   
   473    475    477      1    1.0950e+02    4.1840e+02 ;    C3' - C2'    - O2'   
   473    479    480      1    1.2050e+02    8.3680e+02 ;    C3' - O3'    - P     
   474    473    475      1    1.0950e+02    4.1840e+02 ;    H3' - C3'    - C2'   
   474    473    479      1    1.0950e+02    4.1840e+02 ;    H3' - C3'    - O3'   
   475    473    479      1    1.0950e+02    4.1840e+02 ;    C2' - C3'    - O3'   
   475    477    478      1    1.0850e+02    4.6024e+02 ;    C2' - O2'    - HO2'  
   476    475    477      1    1.0950e+02    4.1840e+02 ;    H2' - C2'    - O2'   
   479    480    481      1    1.0823e+02    8.3680e+02 ;    O3' - P      - OP1   
   479    480    482      1    1.0823e+02    8.3680e+02 ;    O3' - P      - OP2   
   479    480    483      1    1.0260e+02    3.7656e+02 ;    O3' - P      - O5'   
   480    483    484      1    1.2050e+02    8.3680e+02 ;      P - O5'    - C5'   
   481    480    482      1    1.1990e+02    1.1715e+03 ;    OP1 - P      - OP2   
   481    480    483      1    1.0823e+02    8.3680e+02 ;    OP1 - P      - O5'   
   482    480    483      1    1.0823e+02    8.3680e+02 ;    OP2 - P      - O5'   
   483    484    485      1    1.0950e+02    4.1840e+02 ;    O5' - C5'    - H5'   
   483    484    486      1    1.0950e+02    4.1840e+02 ;    O5' - C5'    - H5''  
   483    484    487      1    1.0950e+02    4.1840e+02 ;    O5' - C5'    - C4'   
   484    487    488      1    1.0950e+02    4.1840e+02 ;    C5' - C4'    - H4'   
   484    487    489      1    1.0950e+02    4.1840e+02 ;    C5' - C4'    - O4'   
   484    487    503      1    1.0950e+02    3.3472e+02 ;    C5' - C4'    - C3'   
   485    484    486      1    1.0950e+02    2.9288e+02 ;    H5' - C5'    - H5''  
   485    484    487      1    1.0950e+02    4.1840e+02 ;    H5' - C5'    - C4'   
   486    484    487      1    1.0950e+02    4.1840e+02 ;   H5'' - C5'    - C4'   
   487    489    490      1    1.0950e+02    5.0208e+02 ;    C4' - O4'    - C1'   
   487    503    504      1    1.0950e+02    4.1840e+02 ;    C4' - C3'    - H3'   
   487    503    505      1    1.0950e+02    3.3472e+02 ;    C4' - C3'    - C2'   
   487    503    509      1    1.0950e+02    4.1840e+02 ;    C4' - C3'    - O3'   
   488    487    489      1    1.0950e+02    4.1840e+02 ;    H4' - C4'    - O4'   
   488    487    503      1    1.0950e+02    4.1840e+02 ;    H4' - C4'    - C3'   
   489    487    503      1    1.0950e+02    4.1840e+02 ;    O4' - C4'    - C3'   
   489    490    491      1    1.0950e+02    4.1840e+02 ;    O4' - C1'    - H1'   
   489    490    492      1    1.0950e+02    4.1840e+02 ;    O4' - C1'    - N1    
   489    490    505      1    1.0950e+02    4.1840e+02 ;    O4' - C1'    - C2'   
   490    492    493      1    1.2120e+02    5.8576e+02 ;    C1' - N1     - C6    
   490    492    501      1    1.1760e+02    5.8576e+02 ;    C1' - N1     - C2    
   490    505    503      1    1.0950e+02    3.3472e+02 ;    C1' - C2'    - C3'   
   490    505    506      1    1.0950e+02    4.1840e+02 ;    C1' - C2'    - H2'   
   490    505    507      1    1.0950e+02    4.1840e+02 ;    C1' - C2'    - O2'   
   491    490    492      1    1.0950e+02    4.1840e+02 ;    H1' - C1'    - N1    
   491    490    505      1    1.0950e+02    4.1840e+02 ;    H1' - C1'    - C2'   
   492    490    505      1    1.0950e+02    4.1840e+02 ;     N1 - C1'    - C2'   
   492    493    494      1    1.1910e+02    4.1840e+02 ;     N1 - C6     - H6    
   492    493    495      1    1.2120e+02    5.8576e+02 ;     N1 - C6     - C5    
   492    501    499      1    1.1540e+02    5.8576e+02 ;     N1 - C2     - N3    
   492    501    502      1    1.2090e+02    6.6944e+02 ;     N1 - C2     - O2    
   493    492    501      1    1.2160e+02    5.8576e+02 ;     C6 - N1     - C2    
   493    495    496      1    1.1970e+02    4.1840e+02 ;     C6 - C5     - H5    
   493    495    497      1    1.2070e+02    5.2718e+02 ;     C6 - C5     - C4    
   494    493    495      1    1.1970e+02    4.1840e+02 ;     H6 - C6     - C5    
   495    497    498      1    1.2530e+02    6.6944e+02 ;     C5 - C4     - O4    
   495    497    499      1    1.1410e+02    5.8576e+02 ;     C5 - C4     - N3    
   496    495    497      1    1.1970e+02    4.1840e+02 ;     H5 - C5     - C4    
   497    499    500      1    1.1680e+02    4.1840e+02 ;     C4 - N3     - H3    
   497    499    501      1    1.2640e+02    5.8576e+02 ;     C4 - N3     - C2    
   498    497    499      1    1.2060e+02    6.6944e+02 ;     O4 - C4     - N3    
   499    501    502      1    1.2060e+02    6.6944e+02 ;     N3 - C2     - O2    
   500    499    501      1    1.1680e+02    4.1840e+02 ;     H3 - N3     - C2    
   503    505    506      1    1.0950e+02    4.1840e+02 ;    C3' - C2'    - H2'   
   503    505    507      1    1.0950e+02    4.1840e+02 ;    C3' - C2'    - O2'   
   503    509    510      1    1.0850e+02    4.6024e+02 ;    C3' - O3'    - HO3'  
   504    503    505      1    1.0950e+02    4.1840e+02 ;    H3' - C3'    - C2'   
   504    503    509      1    1.0950e+02    4.1840e+02 ;    H3' - C3'    - O3'   
   505    503    509      1    1.0950e+02    4.1840e+02 ;    C2' - C3'    - O3'   
   505    507    508      1    1.0850e+02    4.6024e+02 ;    C2' - O2'    - HO2'  
   506    505    507      1    1.0950e+02    4.1840e+02 ;    H2' - C2'    - O2'   

[ dihedrals ] ; propers
; for gromacs 4.5 or higher, using funct 9
;    i      j      k      l   func   phase     kd      pn
     1      2      3      4      9     0.00   0.69733   3 ;   HO5'-   O5'-   C5'-   H5'
     1      2      3      5      9     0.00   0.69733   3 ;   HO5'-   O5'-   C5'-  H5''
     1      2      3      6      9     0.00   0.69733   3 ;   HO5'-   O5'-   C5'-   C4'
     2      3      6      7      9     0.00   0.00000   0 ;    O5'-   C5'-   C4'-   H4'
     2      3      6      7      9     0.00   1.04600   1 ;    O5'-   C5'-   C4'-   H4'
     2      3      6      8      9     0.00   0.65084   3 ;    O5'-   C5'-   C4'-   O4'
     3      6      8      9      9     0.00   1.60247   3 ;    C5'-   C4'-   O4'-   C1'
     3      6      8      9      9   180.00   0.41840   2 ;    C5'-   C4'-   O4'-   C1'
     3      6     25     26      9     0.00   0.65084   3 ;    C5'-   C4'-   C3'-   H3'
     3      6     25     27      9     0.00   0.75312   3 ;    C5'-   C4'-   C3'-   C2'
     3      6     25     27      9   180.00   0.83680   1 ;    C5'-   C4'-   C3'-   C2'
     3      6     25     27      9   180.00   1.04600   2 ;    C5'-   C4'-   C3'-   C2'
     3      6     25     31      9     0.00   0.65084   3 ;    C5'-   C4'-   C3'-   O3'
     4      3      6      7      9     0.00   0.65084   3 ;    H5'-   C5'-   C4'-   H4'
     4      3      6      8      9     0.00   0.00000   0 ;    H5'-   C5'-   C4'-   O4'
     4      3      6      8      9     0.00   1.04600   1 ;    H5'-   C5'-   C4'-   O4'
     4      3      6     25      9     0.00   0.65084   3 ;    H5'-   C5'-   C4'-   C3'
     5      3      6      7      9     0.00   0.65084   3 ;   H5''-   C5'-   C4'-   H4'
     5      3      6      8      9     0.00   0.00000   0 ;   H5''-   C5'-   C4'-   O4'
     5      3      6      8      9     0.00   1.04600   1 ;   H5''-   C5'-   C4'-   O4'
     5      3      6     25      9     0.00   0.65084   3 ;   H5''-   C5'-   C4'-   C3'
     6      8      9     10      9     0.00   1.60387   3 ;    C4'-   O4'-   C1'-   H1'
     6      8      9     11      9     0.00   1.60247   3 ;    C4'-   O4'-   C1'-    N9
     6      8      9     11      9     0.00   2.71960   2 ;    C4'-   O4'-   C1'-    N9
     6      8      9     27      9     0.00   1.60247   3 ;    C4'-   O4'-   C1'-   C2'
     6      8      9     27      9   180.00   0.41840   2 ;    C4'-   O4'-   C1'-   C2'
     6     25     27      9      9     0.00   0.75312   3 ;    C4'-   C3'-   C2'-   C1'
     6     25     27      9      9   180.00   0.83680   1 ;    C4'-   C3'-   C2'-   C1'
     6     25     27      9      9   180.00   1.04600   2 ;    C4'-   C3'-   C2'-   C1'
     6     25     27     28      9     0.00   0.65084   3 ;    C4'-   C3'-   C2'-   H2'
     6     25     27     29      9     0.00   0.65084   3 ;    C4'-   C3'-   C2'-   O2'
     6     25     31     32      9     0.00   1.60387   3 ;    C4'-   C3'-   O3'-     P
     7      6      8      9      9     0.00   1.60387   3 ;    H4'-   C4'-   O4'-   C1'
     7      6     25     26      9     0.00   0.65084   3 ;    H4'-   C4'-   C3'-   H3'
     7      6     25     27      9     0.00   0.65084   3 ;    H4'-   C4'-   C3'-   C2'
     7      6     25     31      9     0.00   0.00000   0 ;    H4'-   C4'-   C3'-   O3'
     7      6     25     31      9     0.00   1.04600   1 ;    H4'-   C4'-   C3'-   O3'
     8      6     25     26      9     0.00   0.00000   0 ;    O4'-   C4'-   C3'-   H3'
     8      6     25     26      9     0.00   1.04600   1 ;    O4'-   C4'-   C3'-   H3'
     8      6     25     27      9     0.00   0.65084   3 ;    O4'-   C4'-   C3'-   C2'
     8      6     25     31      9     0.00   0.60250   3 ;    O4'-   C4'-   C3'-   O3'
     8      6     25     31      9     0.00   4.91620   2 ;    O4'-   C4'-   C3'-   O3'
     8      9     11     12      9     0.70   7.99144   2 ;    O4'-   C1'-    N9-    C8
     8      9     11     24      9     0.00   0.00000   0 ;    O4'-   C1'-    N9-    C4
     8      9     27     25      9     0.00   0.65084   3 ;    O4'-   C1'-   C2'-   C3'
     8      9     27     28      9     0.00   0.00000   0 ;    O4'-   C1'-   C2'-   H2'
     8      9     27     28      9     0.00   1.04600   1 ;    O4'-   C1'-   C2'-   H2'
     8      9     27     29      9     0.00   0.60250   3 ;    O4'-   C1'-   C2'-   O2'
     8      9     27     29      9     0.00   4.91620   2 ;    O4'-   C1'-   C2'-   O2'
     9      8      6     25      9     0.00   1.60247   3 ;    C1'-   O4'-   C4'-   C3'
     9      8      6     25      9   180.00   0.41840   2 ;    C1'-   O4'-   C4'-   C3'
     9     11     12     13      9   180.00   7.11280   2 ;    C1'-    N9-    C8-    H8
     9     11     12     14      9   180.00   7.11280   2 ;    C1'-    N9-    C8-    N7
     9     11     24     15      9   180.00   6.90360   2 ;    C1'-    N9-    C4-    C5
     9     11     24     23      9   180.00   6.90360   2 ;    C1'-    N9-    C4-    N3
     9     27     25     26      9     0.00   0.65084   3 ;    C1'-   C2'-   C3'-   H3'
     9     27     25     31      9     0.00   0.65084   3 ;    C1'-   C2'-   C3'-   O3'
     9     27     29     30      9     0.00   0.66944   3 ;    C1'-   C2'-   O2'-  HO2'
     9     27     29     30      9     0.00   1.04600   1 ;    C1'-   C2'-   O2'-  HO2'
    10      9     11     12      9     0.00   0.00000   0 ;    H1'-   C1'-    N9-    C8
    10      9     11     24      9     0.00   0.00000   0 ;    H1'-   C1'-    N9-    C4
    10      9     27     25      9     0.00   0.65084   3 ;    H1'-   C1'-   C2'-   C3'
    10      9     27     28      9     0.00   0.65084   3 ;    H1'-   C1'-   C2'-   H2'
    10      9     27     29      9     0.00   0.65084   3 ;    H1'-   C1'-   C2'-   O2'
    11      9     27     25      9     0.00   0.65084   3 ;     N9-   C1'-   C2'-   C3'
    11      9     27     28      9     0.00   0.65084   3 ;     N9-   C1'-   C2'-   H2'
    11      9     27     29      9     0.00   0.65084   3 ;     N9-   C1'-   C2'-   O2'
    11     12     14     15      9   180.00  41.84000   2 ;     N9-    C8-    N7-    C5
    11     24     15     14      9   180.00  22.80280   2 ;     N9-    C4-    C5-    N7
    11     24     15     16      9   180.00  22.80280   2 ;     N9-    C4-    C5-    C6
    11     24     23     21      9   180.00  17.36360   2 ;     N9-    C4-    N3-    C2
    12     11      9     27      9     0.00   0.00000   0 ;     C8-    N9-   C1'-   C2'
    12     11     24     15      9   180.00   6.90360   2 ;     C8-    N9-    C4-    C5
    12     11     24     23      9   180.00   6.90360   2 ;     C8-    N9-    C4-    N3
    12     14     15     16      9   180.00  10.66920   2 ;     C8-    N7-    C5-    C6
    12     14     15     24      9   180.00  10.66920   2 ;     C8-    N7-    C5-    C4
    13     12     11     24      9   180.00   7.11280   2 ;     H8-    C8-    N9-    C4
    13     12     14     15      9   180.00  41.84000   2 ;     H8-    C8-    N7-    C5
    14     12     11     24      9   180.00   7.11280   2 ;     N7-    C8-    N9-    C4
    14     15     16     17      9   180.00  14.64400   2 ;     N7-    C5-    C6-    N6
    14     15     16     20      9   180.00  14.64400   2 ;     N7-    C5-    C6-    N1
    14     15     24     23      9   180.00  22.80280   2 ;     N7-    C5-    C4-    N3
    15     16     17     18      9   180.00  10.04160   2 ;     C5-    C6-    N6-   H61
    15     16     17     19      9   180.00  10.04160   2 ;     C5-    C6-    N6-   H62
    15     16     20     21      9   180.00  20.08320   2 ;     C5-    C6-    N1-    C2
    15     24     23     21      9   180.00  17.36360   2 ;     C5-    C4-    N3-    C2
    16     15     24     23      9   180.00  22.80280   2 ;     C6-    C5-    C4-    N3
    16     20     21     22      9   180.00  28.45120   2 ;     C6-    N1-    C2-    H2
    16     20     21     23      9   180.00  28.45120   2 ;     C6-    N1-    C2-    N3
    17     16     15     24      9   180.00  14.64400   2 ;     N6-    C6-    C5-    C4
    17     16     20     21      9   180.00  20.08320   2 ;     N6-    C6-    N1-    C2
    18     17     16     20      9   180.00  10.04160   2 ;    H61-    N6-    C6-    N1
    19     17     16     20      9   180.00  10.04160   2 ;    H62-    N6-    C6-    N1
    20     16     15     24      9   180.00  14.64400   2 ;     N1-    C6-    C5-    C4
    20     21     23     24      9   180.00  28.45120   2 ;     N1-    C2-    N3-    C4
    22     21     23     24      9   180.00  28.45120   2 ;     H2-    C2-    N3-    C4
    24     11      9     27      9     0.00   0.00000   0 ;     C4-    N9-   C1'-   C2'
    25     27     29     30      9     0.00   0.66944   3 ;    C3'-   C2'-   O2'-  HO2'
    25     27     29     30      9     0.00   1.04600   1 ;    C3'-   C2'-   O2'-  HO2'
    25     31     32     33      9     0.00   1.04600   3 ;    C3'-   O3'-     P-   OP1
    25     31     32     34      9     0.00   1.04600   3 ;    C3'-   O3'-     P-   OP2
    25     31     32     35      9     0.00   1.04600   3 ;    C3'-   O3'-     P-   O5'
    25     31     32     35      9     0.00   5.02080   2 ;    C3'-   O3'-     P-   O5'
    26     25     27     28      9     0.00   0.65084   3 ;    H3'-   C3'-   C2'-   H2'
    26     25     27     29      9     0.00   0.00000   0 ;    H3'-   C3'-   C2'-   O2'
    26     25     27     29      9     0.00   1.04600   1 ;    H3'-   C3'-   C2'-   O2'
    26     25     31     32      9     0.00   1.60387   3 ;    H3'-   C3'-   O3'-     P
    27     25     31     32      9     0.00   1.60387   3 ;    C2'-   C3'-   O3'-     P
    28     27     25     31      9     0.00   0.00000   0 ;    H2'-   C2'-   C3'-   O3'
    28     27     25     31      9     0.00   1.04600   1 ;    H2'-   C2'-   C3'-   O3'
    28     27     29     30      9     0.00   0.69733   3 ;    H2'-   C2'-   O2'-  HO2'
    29     27     25     31      9     0.00   0.60250   3 ;    O2'-   C2'-   C3'-   O3'
    29     27     25     31      9     0.00   4.91620   2 ;    O2'-   C2'-   C3'-   O3'
    32     35     36     37      9     0.00   1.60387   3 ;      P-   O5'-   C5'-   H5'
    32     35     36     38      9     0.00   1.60387   3 ;      P-   O5'-   C5'-  H5''
    32     35     36     39      9     0.00   1.60387   3 ;      P-   O5'-   C5'-   C4'
    33     32     35     36      9     0.00   1.04600   3 ;    OP1-     P-   O5'-   C5'
    34     32     35     36      9     0.00   1.04600   3 ;    OP2-     P-   O5'-   C5'
    35     36     39     40      9     0.00   0.00000   0 ;    O5'-   C5'-   C4'-   H4'
    35     36     39     40      9     0.00   1.04600   1 ;    O5'-   C5'-   C4'-   H4'
    35     36     39     41      9     0.00   0.65084   3 ;    O5'-   C5'-   C4'-   O4'
    36     39     41     42      9     0.00   1.60247   3 ;    C5'-   C4'-   O4'-   C1'
    36     39     41     42      9   180.00   0.41840   2 ;    C5'-   C4'-   O4'-   C1'
    36     39     59     60      9     0.00   0.65084   3 ;    C5'-   C4'-   C3'-   H3'
    36     39     59     61      9     0.00   0.75312   3 ;    C5'-   C4'-   C3'-   C2'
    36     39     59     61      9   180.00   0.83680   1 ;    C5'-   C4'-   C3'-   C2'
    36     39     59     61      9   180.00   1.04600   2 ;    C5'-   C4'-   C3'-   C2'
    36     39     59     65      9     0.00   0.65084   3 ;    C5'-   C4'-   C3'-   O3'
    37     36     39     40      9     0.00   0.65084   3 ;    H5'-   C5'-   C4'-   H4'
    37     36     39     41      9     0.00   0.00000   0 ;    H5'-   C5'-   C4'-   O4'
    37     36     39     41      9     0.00   1.04600   1 ;    H5'-   C5'-   C4'-   O4'
    37     36     39     59      9     0.00   0.65084   3 ;    H5'-   C5'-   C4'-   C3'
    38     36     39     40      9     0.00   0.65084   3 ;   H5''-   C5'-   C4'-   H4'
    38     36     39     41      9     0.00   0.00000   0 ;   H5''-   C5'-   C4'-   O4'
    38     36     39     41      9     0.00   1.04600   1 ;   H5''-   C5'-   C4'-   O4'
    38     36     39     59      9     0.00   0.65084   3 ;   H5''-   C5'-   C4'-   C3'
    39     41     42     43      9     0.00   1.60387   3 ;    C4'-   O4'-   C1'-   H1'
    39     41     42     44      9     0.00   1.60247   3 ;    C4'-   O4'-   C1'-    N9
    39     41     42     44      9     0.00   2.71960   2 ;    C4'-   O4'-   C1'-    N9
    39     41     42     61      9     0.00   1.60247   3 ;    C4'-   O4'-   C1'-   C2'
    39     41     42     61      9   180.00   0.41840   2 ;    C4'-   O4'-   C1'-   C2'
    39     59     61     42      9     0.00   0.75312   3 ;    C4'-   C3'-   C2'-   C1'
    39     59     61     42      9   180.00   0.83680   1 ;    C4'-   C3'-   C2'-   C1'
    39     59     61     42      9   180.00   1.04600   2 ;    C4'-   C3'-   C2'-   C1'
    39     59     61     62      9     0.00   0.65084   3 ;    C4'-   C3'-   C2'-   H2'
    39     59     61     63      9     0.00   0.65084   3 ;    C4'-   C3'-   C2'-   O2'
    39     59     65     66      9     0.00   1.60387   3 ;    C4'-   C3'-   O3'-     P
    40     39     41     42      9     0.00   1.60387   3 ;    H4'-   C4'-   O4'-   C1'
    40     39     59     60      9     0.00   0.65084   3 ;    H4'-   C4'-   C3'-   H3'
    40     39     59     61      9     0.00   0.65084   3 ;    H4'-   C4'-   C3'-   C2'
    40     39     59     65      9     0.00   0.00000   0 ;    H4'-   C4'-   C3'-   O3'
    40     39     59     65      9     0.00   1.04600   1 ;    H4'-   C4'-   C3'-   O3'
    41     39     59     60      9     0.00   0.00000   0 ;    O4'-   C4'-   C3'-   H3'
    41     39     59     60      9     0.00   1.04600   1 ;    O4'-   C4'-   C3'-   H3'
    41     39     59     61      9     0.00   0.65084   3 ;    O4'-   C4'-   C3'-   C2'
    41     39     59     65      9     0.00   0.60250   3 ;    O4'-   C4'-   C3'-   O3'
    41     39     59     65      9     0.00   4.91620   2 ;    O4'-   C4'-   C3'-   O3'
    41     42     44     58      9     0.00   0.00000   0 ;    O4'-   C1'-    N9-    C4
    41     42     61     59      9     0.00   0.65084   3 ;    O4'-   C1'-   C2'-   C3'
    41     42     61     62      9     0.00   0.00000   0 ;    O4'-   C1'-   C2'-   H2'
    41     42     61     62      9     0.00   1.04600   1 ;    O4'-   C1'-   C2'-   H2'
    41     42     61     63      9     0.00   0.60250   3 ;    O4'-   C1'-   C2'-   O2'
    41     42     61     63      9     0.00   4.91620   2 ;    O4'-   C1'-   C2'-   O2'
    42     41     39     59      9     0.00   1.60247   3 ;    C1'-   O4'-   C4'-   C3'
    42     41     39     59      9   180.00   0.41840   2 ;    C1'-   O4'-   C4'-   C3'
    42     44     45     46      9   180.00   7.11280   2 ;    C1'-    N9-    C8-    H8
    42     44     45     47      9   180.00   7.11280   2 ;    C1'-    N9-    C8-    N7
    42     44     58     48      9   180.00   6.90360   2 ;    C1'-    N9-    C4-    C5
    42     44     58     57      9   180.00   6.90360   2 ;    C1'-    N9-    C4-    N3
    42     61     59     60      9     0.00   0.65084   3 ;    C1'-   C2'-   C3'-   H3'
    42     61     59     65      9     0.00   0.65084   3 ;    C1'-   C2'-   C3'-   O3'
    42     61     63     64      9     0.00   0.66944   3 ;    C1'-   C2'-   O2'-  HO2'
    42     61     63     64      9     0.00   1.04600   1 ;    C1'-   C2'-   O2'-  HO2'
    43     42     44     45      9     0.00   0.00000   0 ;    H1'-   C1'-    N9-    C8
    43     42     44     58      9     0.00   0.00000   0 ;    H1'-   C1'-    N9-    C4
    43     42     61     59      9     0.00   0.65084   3 ;    H1'-   C1'-   C2'-   C3'
    43     42     61     62      9     0.00   0.65084   3 ;    H1'-   C1'-   C2'-   H2'
    43     42     61     63      9     0.00   0.65084   3 ;    H1'-   C1'-   C2'-   O2'
    44     42     61     59      9     0.00   0.65084   3 ;     N9-   C1'-   C2'-   C3'
    44     42     61     62      9     0.00   0.65084   3 ;     N9-   C1'-   C2'-   H2'
    44     42     61     63      9     0.00   0.65084   3 ;     N9-   C1'-   C2'-   O2'
    44     45     47     48      9   180.00  41.84000   2 ;     N9-    C8-    N7-    C5
    44     58     48     47      9   180.00  22.80280   2 ;     N9-    C4-    C5-    N7
    44     58     48     49      9   180.00  22.80280   2 ;     N9-    C4-    C5-    C6
    44     58     57     53      9   180.00  17.36360   2 ;     N9-    C4-    N3-    C2
    45     44     42     61      9     0.00   0.00000   0 ;     C8-    N9-   C1'-   C2'
    45     44     58     48      9   180.00   6.90360   2 ;     C8-    N9-    C4-    C5
    45     44     58     57      9   180.00   6.90360   2 ;     C8-    N9-    C4-    N3
    45     47     48     49      9   180.00  10.66920   2 ;     C8-    N7-    C5-    C6
    45     47     48     58      9   180.00  10.66920   2 ;     C8-    N7-    C5-    C4
    46     45     44     58      9   180.00   7.11280   2 ;     H8-    C8-    N9-    C4
    46     45     47     48      9   180.00  41.84000   2 ;     H8-    C8-    N7-    C5
    47     45     44     58      9   180.00   7.11280   2 ;     N7-    C8-    N9-    C4
    47     48     49     50      9   180.00  12.55200   2 ;     N7-    C5-    C6-    O6
    47     48     49     51      9   180.00  12.55200   2 ;     N7-    C5-    C6-    N1
    47     48     58     57      9   180.00  22.80280   2 ;     N7-    C5-    C4-    N3
    48     49     51     52      9   180.00   5.64840   2 ;     C5-    C6-    N1-    H1
    48     49     51     53      9   180.00   5.64840   2 ;     C5-    C6-    N1-    C2
    48     58     57     53      9   180.00  17.36360   2 ;     C5-    C4-    N3-    C2
    49     48     58     57      9   180.00  22.80280   2 ;     C6-    C5-    C4-    N3
    49     51     53     54      9   180.00   6.27600   2 ;     C6-    N1-    C2-    N2
    49     51     53     57      9   180.00   6.27600   2 ;     C6-    N1-    C2-    N3
    50     49     48     58      9   180.00  12.55200   2 ;     O6-    C6-    C5-    C4
    50     49     51     52      9   180.00   5.64840   2 ;     O6-    C6-    N1-    H1
    50     49     51     53      9   180.00   5.64840   2 ;     O6-    C6-    N1-    C2
    51     49     48     58      9   180.00  12.55200   2 ;     N1-    C6-    C5-    C4
    51     53     54     55      9   180.00  10.04160   2 ;     N1-    C2-    N2-   H21
    51     53     54     56      9   180.00  10.04160   2 ;     N1-    C2-    N2-   H22
    51     53     57     58      9   180.00  20.08320   2 ;     N1-    C2-    N3-    C4
    52     51     53     54      9   180.00   6.27600   2 ;     H1-    N1-    C2-    N2
    52     51     53     57      9   180.00   6.27600   2 ;     H1-    N1-    C2-    N3
    54     53     57     58      9   180.00  20.08320   2 ;     N2-    C2-    N3-    C4
    55     54     53     57      9   180.00  10.04160   2 ;    H21-    N2-    C2-    N3
    56     54     53     57      9   180.00  10.04160   2 ;    H22-    N2-    C2-    N3
    58     44     42     61      9     0.00   0.00000   0 ;     C4-    N9-   C1'-   C2'
    59     61     63     64      9     0.00   0.66944   3 ;    C3'-   C2'-   O2'-  HO2'
    59     61     63     64      9     0.00   1.04600   1 ;    C3'-   C2'-   O2'-  HO2'
    59     65     66     67      9     0.00   1.04600   3 ;    C3'-   O3'-     P-   OP1
    59     65     66     68      9     0.00   1.04600   3 ;    C3'-   O3'-     P-   OP2
    59     65     66     69      9     0.00   1.04600   3 ;    C3'-   O3'-     P-   O5'
    59     65     66     69      9     0.00   5.02080   2 ;    C3'-   O3'-     P-   O5'
    60     59     61     62      9     0.00   0.65084   3 ;    H3'-   C3'-   C2'-   H2'
    60     59     61     63      9     0.00   0.00000   0 ;    H3'-   C3'-   C2'-   O2'
    60     59     61     63      9     0.00   1.04600   1 ;    H3'-   C3'-   C2'-   O2'
    60     59     65     66      9     0.00   1.60387   3 ;    H3'-   C3'-   O3'-     P
    61     59     65     66      9     0.00   1.60387   3 ;    C2'-   C3'-   O3'-     P
    62     61     59     65      9     0.00   0.00000   0 ;    H2'-   C2'-   C3'-   O3'
    62     61     59     65      9     0.00   1.04600   1 ;    H2'-   C2'-   C3'-   O3'
    62     61     63     64      9     0.00   0.69733   3 ;    H2'-   C2'-   O2'-  HO2'
    63     61     59     65      9     0.00   0.60250   3 ;    O2'-   C2'-   C3'-   O3'
    63     61     59     65      9     0.00   4.91620   2 ;    O2'-   C2'-   C3'-   O3'
    66     69     70     71      9     0.00   1.60387   3 ;      P-   O5'-   C5'-   H5'
    66     69     70     72      9     0.00   1.60387   3 ;      P-   O5'-   C5'-  H5''
    66     69     70     73      9     0.00   1.60387   3 ;      P-   O5'-   C5'-   C4'
    67     66     69     70      9     0.00   1.04600   3 ;    OP1-     P-   O5'-   C5'
    68     66     69     70      9     0.00   1.04600   3 ;    OP2-     P-   O5'-   C5'
    69     70     73     74      9     0.00   0.00000   0 ;    O5'-   C5'-   C4'-   H4'
    69     70     73     74      9     0.00   1.04600   1 ;    O5'-   C5'-   C4'-   H4'
    69     70     73     75      9     0.00   0.65084   3 ;    O5'-   C5'-   C4'-   O4'
    70     73     75     76      9     0.00   1.60247   3 ;    C5'-   C4'-   O4'-   C1'
    70     73     75     76      9   180.00   0.41840   2 ;    C5'-   C4'-   O4'-   C1'
    70     73     90     91      9     0.00   0.65084   3 ;    C5'-   C4'-   C3'-   H3'
    70     73     90     92      9     0.00   0.75312   3 ;    C5'-   C4'-   C3'-   C2'
    70     73     90     92      9   180.00   0.83680   1 ;    C5'-   C4'-   C3'-   C2'
    70     73     90     92      9   180.00   1.04600   2 ;    C5'-   C4'-   C3'-   C2'
    70     73     90     96      9     0.00   0.65084   3 ;    C5'-   C4'-   C3'-   O3'
    71     70     73     74      9     0.00   0.65084   3 ;    H5'-   C5'-   C4'-   H4'
    71     70     73     75      9     0.00   0.00000   0 ;    H5'-   C5'-   C4'-   O4'
    71     70     73     75      9     0.00   1.04600   1 ;    H5'-   C5'-   C4'-   O4'
    71     70     73     90      9     0.00   0.65084   3 ;    H5'-   C5'-   C4'-   C3'
    72     70     73     74      9     0.00   0.65084   3 ;   H5''-   C5'-   C4'-   H4'
    72     70     73     75      9     0.00   0.00000   0 ;   H5''-   C5'-   C4'-   O4'
    72     70     73     75      9     0.00   1.04600   1 ;   H5''-   C5'-   C4'-   O4'
    72     70     73     90      9     0.00   0.65084   3 ;   H5''-   C5'-   C4'-   C3'
    73     75     76     77      9     0.00   1.60387   3 ;    C4'-   O4'-   C1'-   H1'
    73     75     76     78      9     0.00   1.60247   3 ;    C4'-   O4'-   C1'-    N1
    73     75     76     78      9     0.00   2.71960   2 ;    C4'-   O4'-   C1'-    N1
    73     75     76     92      9     0.00   1.60247   3 ;    C4'-   O4'-   C1'-   C2'
    73     75     76     92      9   180.00   0.41840   2 ;    C4'-   O4'-   C1'-   C2'
    73     90     92     76      9     0.00   0.75312   3 ;    C4'-   C3'-   C2'-   C1'
    73     90     92     76      9   180.00   0.83680   1 ;    C4'-   C3'-   C2'-   C1'
    73     90     92     76      9   180.00   1.04600   2 ;    C4'-   C3'-   C2'-   C1'
    73     90     92     93      9     0.00   0.65084   3 ;    C4'-   C3'-   C2'-   H2'
    73     90     92     94      9     0.00   0.65084   3 ;    C4'-   C3'-   C2'-   O2'
    73     90     96     97      9     0.00   1.60387   3 ;    C4'-   C3'-   O3'-     P
    74     73     75     76      9     0.00   1.60387   3 ;    H4'-   C4'-   O4'-   C1'
    74     73     90     91      9     0.00   0.65084   3 ;    H4'-   C4'-   C3'-   H3'
    74     73     90     92      9     0.00   0.65084   3 ;    H4'-   C4'-   C3'-   C2'
    74     73     90     96      9     0.00   0.00000   0 ;    H4'-   C4'-   C3'-   O3'
    74     73     90     96      9     0.00   1.04600   1 ;    H4'-   C4'-   C3'-   O3'
    75     73     90     91      9     0.00   0.00000   0 ;    O4'-   C4'-   C3'-   H3'
    75     73     90     91      9     0.00   1.04600   1 ;    O4'-   C4'-   C3'-   H3'
    75     73     90     92      9     0.00   0.65084   3 ;    O4'-   C4'-   C3'-   C2'
    75     73     90     96      9     0.00   0.60250   3 ;    O4'-   C4'-   C3'-   O3'
    75     73     90     96      9     0.00   4.91620   2 ;    O4'-   C4'-   C3'-   O3'
    75     76     78     88      9     0.00   0.00000   0 ;    O4'-   C1'-    N1-    C2
    75     76     92     90      9     0.00   0.65084   3 ;    O4'-   C1'-   C2'-   C3'
    75     76     92     93      9     0.00   0.00000   0 ;    O4'-   C1'-   C2'-   H2'
    75     76     92     93      9     0.00   1.04600   1 ;    O4'-   C1'-   C2'-   H2'
    75     76     92     94      9     0.00   0.60250   3 ;    O4'-   C1'-   C2'-   O2'
    75     76     92     94      9     0.00   4.91620   2 ;    O4'-   C1'-   C2'-   O2'
    76     75     73     90      9     0.00   1.60247   3 ;    C1'-   O4'-   C4'-   C3'
    76     75     73     90      9   180.00   0.41840   2 ;    C1'-   O4'-   C4'-   C3'
    76     78     79     80      9   180.00   7.74040   2 ;    C1'-    N1-    C6-    H6
    76     78     79     81      9   180.00   7.74040   2 ;    C1'-    N1-    C6-    C5
    76     78     88     87      9   180.00   6.06680   2 ;    C1'-    N1-    C2-    N3
    76     78     88     89      9   180.00   6.06680   2 ;    C1'-    N1-    C2-    O2
    76     92     90     91      9     0.00   0.65084   3 ;    C1'-   C2'-   C3'-   H3'
    76     92     90     96      9     0.00   0.65084   3 ;    C1'-   C2'-   C3'-   O3'
    76     92     94     95      9     0.00   0.66944   3 ;    C1'-   C2'-   O2'-  HO2'
    76     92     94     95      9     0.00   1.04600   1 ;    C1'-   C2'-   O2'-  HO2'
    77     76     78     79      9     0.00   0.00000   0 ;    H1'-   C1'-    N1-    C6
    77     76     78     88      9     0.00   0.00000   0 ;    H1'-   C1'-    N1-    C2
    77     76     92     90      9     0.00   0.65084   3 ;    H1'-   C1'-   C2'-   C3'
    77     76     92     93      9     0.00   0.65084   3 ;    H1'-   C1'-   C2'-   H2'
    77     76     92     94      9     0.00   0.65084   3 ;    H1'-   C1'-   C2'-   O2'
    78     76     92     90      9     0.00   0.65084   3 ;     N1-   C1'-   C2'-   C3'
    78     76     92     93      9     0.00   0.65084   3 ;     N1-   C1'-   C2'-   H2'
    78     76     92     94      9     0.00   0.65084   3 ;     N1-   C1'-   C2'-   O2'
    78     79     81     82      9   180.00  27.82360   2 ;     N1-    C6-    C5-    H5
    78     79     81     83      9   180.00  27.82360   2 ;     N1-    C6-    C5-    C4
    78     88     87     83      9   180.00  16.73600   2 ;     N1-    C2-    N3-    C4
    79     78     76     92      9     0.00   0.00000   0 ;     C6-    N1-   C1'-   C2'
    79     78     88     87      9   180.00   6.06680   2 ;     C6-    N1-    C2-    N3
    79     78     88     89      9   180.00   6.06680   2 ;     C6-    N1-    C2-    O2
    79     81     83     84      9   180.00  10.66920   2 ;     C6-    C5-    C4-    N4
    79     81     83     87      9   180.00  10.66920   2 ;     C6-    C5-    C4-    N3
    80     79     78     88      9   180.00   7.74040   2 ;     H6-    C6-    N1-    C2
    80     79     81     82      9   180.00  27.82360   2 ;     H6-    C6-    C5-    H5
    80     79     81     83      9   180.00  27.82360   2 ;     H6-    C6-    C5-    C4
    81     79     78     88      9   180.00   7.74040   2 ;     C5-    C6-    N1-    C2
    81     83     84     85      9   180.00  10.04160   2 ;     C5-    C4-    N4-   H41
    81     83     84     86      9   180.00  10.04160   2 ;     C5-    C4-    N4-   H42
    81     83     87     88      9   180.00  20.08320   2 ;     C5-    C4-    N3-    C2
    82     81     83     84      9   180.00  10.66920   2 ;     H5-    C5-    C4-    N4
    82     81     83     87      9   180.00  10.66920   2 ;     H5-    C5-    C4-    N3
    83     87     88     89      9   180.00  16.73600   2 ;     C4-    N3-    C2-    O2
    84     83     87     88      9   180.00  20.08320   2 ;     N4-    C4-    N3-    C2
    85     84     83     87      9   180.00  10.04160   2 ;    H41-    N4-    C4-    N3
    86     84     83     87      9   180.00  10.04160   2 ;    H42-    N4-    C4-    N3
    88     78     76     92      9     0.00   0.00000   0 ;     C2-    N1-   C1'-   C2'
    90     92     94     95      9     0.00   0.66944   3 ;    C3'-   C2'-   O2'-  HO2'
    90     92     94     95      9     0.00   1.04600   1 ;    C3'-   C2'-   O2'-  HO2'
    90     96     97     98      9     0.00   1.04600   3 ;    C3'-   O3'-     P-   OP1
    90     96     97     99      9     0.00   1.04600   3 ;    C3'-   O3'-     P-   OP2
    90     96     97    100      9     0.00   1.04600   3 ;    C3'-   O3'-     P-   O5'
    90     96     97    100      9     0.00   5.02080   2 ;    C3'-   O3'-     P-   O5'
    91     90     92     93      9     0.00   0.65084   3 ;    H3'-   C3'-   C2'-   H2'
    91     90     92     94      9     0.00   0.00000   0 ;    H3'-   C3'-   C2'-   O2'
    91     90     92     94      9     0.00   1.04600   1 ;    H3'-   C3'-   C2'-   O2'
    91     90     96     97      9     0.00   1.60387   3 ;    H3'-   C3'-   O3'-     P
    92     90     96     97      9     0.00   1.60387   3 ;    C2'-   C3'-   O3'-     P
    93     92     90     96      9     0.00   0.00000   0 ;    H2'-   C2'-   C3'-   O3'
    93     92     90     96      9     0.00   1.04600   1 ;    H2'-   C2'-   C3'-   O3'
    93     92     94     95      9     0.00   0.69733   3 ;    H2'-   C2'-   O2'-  HO2'
    94     92     90     96      9     0.00   0.60250   3 ;    O2'-   C2'-   C3'-   O3'
    94     92     90     96      9     0.00   4.91620   2 ;    O2'-   C2'-   C3'-   O3'
    97    100    101    102      9     0.00   1.60387   3 ;      P-   O5'-   C5'-   H5'
    97    100    101    103      9     0.00   1.60387   3 ;      P-   O5'-   C5'-  H5''
    97    100    101    104      9     0.00   1.60387   3 ;      P-   O5'-   C5'-   C4'
    98     97    100    101      9     0.00   1.04600   3 ;    OP1-     P-   O5'-   C5'
    99     97    100    101      9     0.00   1.04600   3 ;    OP2-     P-   O5'-   C5'
   100    101    104    105      9     0.00   0.00000   0 ;    O5'-   C5'-   C4'-   H4'
   100    101    104    105      9     0.00   1.04600   1 ;    O5'-   C5'-   C4'-   H4'
   100    101    104    106      9     0.00   0.65084   3 ;    O5'-   C5'-   C4'-   O4'
   101    104    106    107      9     0.00   1.60247   3 ;    C5'-   C4'-   O4'-   C1'
   101    104    106    107      9   180.00   0.41840   2 ;    C5'-   C4'-   O4'-   C1'
   101    104    124    125      9     0.00   0.65084   3 ;    C5'-   C4'-   C3'-   H3'
   101    104    124    126      9     0.00   0.75312   3 ;    C5'-   C4'-   C3'-   C2'
   101    104    124    126      9   180.00   0.83680   1 ;    C5'-   C4'-   C3'-   C2'
   101    104    124    126      9   180.00   1.04600   2 ;    C5'-   C4'-   C3'-   C2'
   101    104    124    130      9     0.00   0.65084   3 ;    C5'-   C4'-   C3'-   O3'
   102    101    104    105      9     0.00   0.65084   3 ;    H5'-   C5'-   C4'-   H4'
   102    101    104    106      9     0.00   0.00000   0 ;    H5'-   C5'-   C4'-   O4'
   102    101    104    106      9     0.00   1.04600   1 ;    H5'-   C5'-   C4'-   O4'
   102    101    104    124      9     0.00   0.65084   3 ;    H5'-   C5'-   C4'-   C3'
   103    101    104    105      9     0.00   0.65084   3 ;   H5''-   C5'-   C4'-   H4'
   103    101    104    106      9     0.00   0.00000   0 ;   H5''-   C5'-   C4'-   O4'
   103    101    104    106      9     0.00   1.04600   1 ;   H5''-   C5'-   C4'-   O4'
   103    101    104    124      9     0.00   0.65084   3 ;   H5''-   C5'-   C4'-   C3'
   104    106    107    108      9     0.00   1.60387   3 ;    C4'-   O4'-   C1'-   H1'
   104    106    107    109      9     0.00   1.60247   3 ;    C4'-   O4'-   C1'-    N9
   104    106    107    109      9     0.00   2.71960   2 ;    C4'-   O4'-   C1'-    N9
   104    106    107    126      9     0.00   1.60247   3 ;    C4'-   O4'-   C1'-   C2'
   104    106    107    126      9   180.00   0.41840   2 ;    C4'-   O4'-   C1'-   C2'
   104    124    126    107      9     0.00   0.75312   3 ;    C4'-   C3'-   C2'-   C1'
   104    124    126    107      9   180.00   0.83680   1 ;    C4'-   C3'-   C2'-   C1'
   104    124    126    107      9   180.00   1.04600   2 ;    C4'-   C3'-   C2'-   C1'
   104    124    126    127      9     0.00   0.65084   3 ;    C4'-   C3'-   C2'-   H2'
   104    124    126    128      9     0.00   0.65084   3 ;    C4'-   C3'-   C2'-   O2'
   104    124    130    131      9     0.00   1.60387   3 ;    C4'-   C3'-   O3'-     P
   105    104    106    107      9     0.00   1.60387   3 ;    H4'-   C4'-   O4'-   C1'
   105    104    124    125      9     0.00   0.65084   3 ;    H4'-   C4'-   C3'-   H3'
   105    104    124    126      9     0.00   0.65084   3 ;    H4'-   C4'-   C3'-   C2'
   105    104    124    130      9     0.00   0.00000   0 ;    H4'-   C4'-   C3'-   O3'
   105    104    124    130      9     0.00   1.04600   1 ;    H4'-   C4'-   C3'-   O3'
   106    104    124    125      9     0.00   0.00000   0 ;    O4'-   C4'-   C3'-   H3'
   106    104    124    125      9     0.00   1.04600   1 ;    O4'-   C4'-   C3'-   H3'
   106    104    124    126      9     0.00   0.65084   3 ;    O4'-   C4'-   C3'-   C2'
   106    104    124    130      9     0.00   0.60250   3 ;    O4'-   C4'-   C3'-   O3'
   106    104    124    130      9     0.00   4.91620   2 ;    O4'-   C4'-   C3'-   O3'
   106    107    109    123      9     0.00   0.00000   0 ;    O4'-   C1'-    N9-    C4
   106    107    126    124      9     0.00   0.65084   3 ;    O4'-   C1'-   C2'-   C3'
   106    107    126    127      9     0.00   0.00000   0 ;    O4'-   C1'-   C2'-   H2'
   106    107    126    127      9     0.00   1.04600   1 ;    O4'-   C1'-   C2'-   H2'
   106    107    126    128      9     0.00   0.60250   3 ;    O4'-   C1'-   C2'-   O2'
   106    107    126    128      9     0.00   4.91620   2 ;    O4'-   C1'-   C2'-   O2'
   107    106    104    124      9     0.00   1.60247   3 ;    C1'-   O4'-   C4'-   C3'
   107    106    104    124      9   180.00   0.41840   2 ;    C1'-   O4'-   C4'-   C3'
   107    109    110    111      9   180.00   7.11280   2 ;    C1'-    N9-    C8-    H8
   107    109    110    112      9   180.00   7.11280   2 ;    C1'-    N9-    C8-    N7
   107    109    123    113      9   180.00   6.90360   2 ;    C1'-    N9-    C4-    C5
   107    109    123    122      9   180.00   6.90360   2 ;    C1'-    N9-    C4-    N3
   107    126    124    125      9     0.00   0.65084   3 ;    C1'-   C2'-   C3'-   H3'
   107    126    124    130      9     0.00   0.65084   3 ;    C1'-   C2'-   C3'-   O3'
   107    126    128    129      9     0.00   0.66944   3 ;    C1'-   C2'-   O2'-  HO2'
   107    126    128    129      9     0.00   1.04600   1 ;    C1'-   C2'-   O2'-  HO2'
   108    107    109    110      9     0.00   0.00000   0 ;    H1'-   C1'-    N9-    C8
   108    107    109    123      9     0.00   0.00000   0 ;    H1'-   C1'-    N9-    C4
   108    107    126    124      9     0.00   0.65084   3 ;    H1'-   C1'-   C2'-   C3'
   108    107    126    127      9     0.00   0.65084   3 ;    H1'-   C1'-   C2'-   H2'
   108    107    126    128      9     0.00   0.65084   3 ;    H1'-   C1'-   C2'-   O2'
   109    107    126    124      9     0.00   0.65084   3 ;     N9-   C1'-   C2'-   C3'
   109    107    126    127      9     0.00   0.65084   3 ;     N9-   C1'-   C2'-   H2'
   109    107    126    128      9     0.00   0.65084   3 ;     N9-   C1'-   C2'-   O2'
   109    110    112    113      9   180.00  41.84000   2 ;     N9-    C8-    N7-    C5
   109    123    113    112      9   180.00  22.80280   2 ;     N9-    C4-    C5-    N7
   109    123    113    114      9   180.00  22.80280   2 ;     N9-    C4-    C5-    C6
   109    123    122    118      9   180.00  17.36360   2 ;     N9-    C4-    N3-    C2
   110    109    107    126      9     0.00   0.00000   0 ;     C8-    N9-   C1'-   C2'
   110    109    123    113      9   180.00   6.90360   2 ;     C8-    N9-    C4-    C5
   110    109    123    122      9   180.00   6.90360   2 ;     C8-    N9-    C4-    N3
   110    112    113    114      9   180.00  10.66920   2 ;     C8-    N7-    C5-    C6
   110    112    113    123      9   180.00  10.66920   2 ;     C8-    N7-    C5-    C4
   111    110    109    123      9   180.00   7.11280   2 ;     H8-    C8-    N9-    C4
   111    110    112    113      9   180.00  41.84000   2 ;     H8-    C8-    N7-    C5
   112    110    109    123      9   180.00   7.11280   2 ;     N7-    C8-    N9-    C4
   112    113    114    115      9   180.00  12.55200   2 ;     N7-    C5-    C6-    O6
   112    113    114    116      9   180.00  12.55200   2 ;     N7-    C5-    C6-    N1
   112    113    123    122      9   180.00  22.80280   2 ;     N7-    C5-    C4-    N3
   113    114    116    117      9   180.00   5.64840   2 ;     C5-    C6-    N1-    H1
   113    114    116    118      9   180.00   5.64840   2 ;     C5-    C6-    N1-    C2
   113    123    122    118      9   180.00  17.36360   2 ;     C5-    C4-    N3-    C2
   114    113    123    122      9   180.00  22.80280   2 ;     C6-    C5-    C4-    N3
   114    116    118    119      9   180.00   6.27600   2 ;     C6-    N1-    C2-    N2
   114    116    118    122      9   180.00   6.27600   2 ;     C6-    N1-    C2-    N3
   115    114    113    123      9   180.00  12.55200   2 ;     O6-    C6-    C5-    C4
   115    114    116    117      9   180.00   5.64840   2 ;     O6-    C6-    N1-    H1
   115    114    116    118      9   180.00   5.64840   2 ;     O6-    C6-    N1-    C2
   116    114    113    123      9   180.00  12.55200   2 ;     N1-    C6-    C5-    C4
   116    118    119    120      9   180.00  10.04160   2 ;     N1-    C2-    N2-   H21
   116    118    119    121      9   180.00  10.04160   2 ;     N1-    C2-    N2-   H22
   116    118    122    123      9   180.00  20.08320   2 ;     N1-    C2-    N3-    C4
   117    116    118    119      9   180.00   6.27600   2 ;     H1-    N1-    C2-    N2
   117    116    118    122      9   180.00   6.27600   2 ;     H1-    N1-    C2-    N3
   119    118    122    123      9   180.00  20.08320   2 ;     N2-    C2-    N3-    C4
   120    119    118    122      9   180.00  10.04160   2 ;    H21-    N2-    C2-    N3
   121    119    118    122      9   180.00  10.04160   2 ;    H22-    N2-    C2-    N3
   123    109    107    126      9     0.00   0.00000   0 ;     C4-    N9-   C1'-   C2'
   124    126    128    129      9     0.00   0.66944   3 ;    C3'-   C2'-   O2'-  HO2'
   124    126    128    129      9     0.00   1.04600   1 ;    C3'-   C2'-   O2'-  HO2'
   124    130    131    132      9     0.00   1.04600   3 ;    C3'-   O3'-     P-   OP1
   124    130    131    133      9     0.00   1.04600   3 ;    C3'-   O3'-     P-   OP2
   124    130    131    134      9     0.00   1.04600   3 ;    C3'-   O3'-     P-   O5'
   124    130    131    134      9     0.00   5.02080   2 ;    C3'-   O3'-     P-   O5'
   125    124    126    127      9     0.00   0.65084   3 ;    H3'-   C3'-   C2'-   H2'
   125    124    126    128      9     0.00   0.00000   0 ;    H3'-   C3'-   C2'-   O2'
   125    124    126    128      9     0.00   1.04600   1 ;    H3'-   C3'-   C2'-   O2'
   125    124    130    131      9     0.00   1.60387   3 ;    H3'-   C3'-   O3'-     P
   126    124    130    131      9     0.00   1.60387   3 ;    C2'-   C3'-   O3'-     P
   127    126    124    130      9     0.00   0.00000   0 ;    H2'-   C2'-   C3'-   O3'
   127    126    124    130      9     0.00   1.04600   1 ;    H2'-   C2'-   C3'-   O3'
   127    126    128    129      9     0.00   0.69733   3 ;    H2'-   C2'-   O2'-  HO2'
   128    126    124    130      9     0.00   0.60250   3 ;    O2'-   C2'-   C3'-   O3'
   128    126    124    130      9     0.00   4.91620   2 ;    O2'-   C2'-   C3'-   O3'
   131    134    135    136      9     0.00   1.60387   3 ;      P-   O5'-   C5'-   H5'
   131    134    135    137      9     0.00   1.60387   3 ;      P-   O5'-   C5'-  H5''
   131    134    135    138      9     0.00   1.60387   3 ;      P-   O5'-   C5'-   C4'
   132    131    134    135      9     0.00   1.04600   3 ;    OP1-     P-   O5'-   C5'
   133    131    134    135      9     0.00   1.04600   3 ;    OP2-     P-   O5'-   C5'
   134    135    138    139      9     0.00   0.00000   0 ;    O5'-   C5'-   C4'-   H4'
   134    135    138    139      9     0.00   1.04600   1 ;    O5'-   C5'-   C4'-   H4'
   134    135    138    140      9     0.00   0.65084   3 ;    O5'-   C5'-   C4'-   O4'
   135    138    140    141      9     0.00   1.60247   3 ;    C5'-   C4'-   O4'-   C1'
   135    138    140    141      9   180.00   0.41840   2 ;    C5'-   C4'-   O4'-   C1'
   135    138    155    156      9     0.00   0.65084   3 ;    C5'-   C4'-   C3'-   H3'
   135    138    155    157      9     0.00   0.75312   3 ;    C5'-   C4'-   C3'-   C2'
   135    138    155    157      9   180.00   0.83680   1 ;    C5'-   C4'-   C3'-   C2'
   135    138    155    157      9   180.00   1.04600   2 ;    C5'-   C4'-   C3'-   C2'
   135    138    155    161      9     0.00   0.65084   3 ;    C5'-   C4'-   C3'-   O3'
   136    135    138    139      9     0.00   0.65084   3 ;    H5'-   C5'-   C4'-   H4'
   136    135    138    140      9     0.00   0.00000   0 ;    H5'-   C5'-   C4'-   O4'
   136    135    138    140      9     0.00   1.04600   1 ;    H5'-   C5'-   C4'-   O4'
   136    135    138    155      9     0.00   0.65084   3 ;    H5'-   C5'-   C4'-   C3'
   137    135    138    139      9     0.00   0.65084   3 ;   H5''-   C5'-   C4'-   H4'
   137    135    138    140      9     0.00   0.00000   0 ;   H5''-   C5'-   C4'-   O4'
   137    135    138    140      9     0.00   1.04600   1 ;   H5''-   C5'-   C4'-   O4'
   137    135    138    155      9     0.00   0.65084   3 ;   H5''-   C5'-   C4'-   C3'
   138    140    141    142      9     0.00   1.60387   3 ;    C4'-   O4'-   C1'-   H1'
   138    140    141    143      9     0.00   1.60247   3 ;    C4'-   O4'-   C1'-    N1
   138    140    141    143      9     0.00   2.71960   2 ;    C4'-   O4'-   C1'-    N1
   138    140    141    157      9     0.00   1.60247   3 ;    C4'-   O4'-   C1'-   C2'
   138    140    141    157      9   180.00   0.41840   2 ;    C4'-   O4'-   C1'-   C2'
   138    155    157    141      9     0.00   0.75312   3 ;    C4'-   C3'-   C2'-   C1'
   138    155    157    141      9   180.00   0.83680   1 ;    C4'-   C3'-   C2'-   C1'
   138    155    157    141      9   180.00   1.04600   2 ;    C4'-   C3'-   C2'-   C1'
   138    155    157    158      9     0.00   0.65084   3 ;    C4'-   C3'-   C2'-   H2'
   138    155    157    159      9     0.00   0.65084   3 ;    C4'-   C3'-   C2'-   O2'
   138    155    161    162      9     0.00   1.60387   3 ;    C4'-   C3'-   O3'-     P
   139    138    140    141      9     0.00   1.60387   3 ;    H4'-   C4'-   O4'-   C1'
   139    138    155    156      9     0.00   0.65084   3 ;    H4'-   C4'-   C3'-   H3'
   139    138    155    157      9     0.00   0.65084   3 ;    H4'-   C4'-   C3'-   C2'
   139    138    155    161      9     0.00   0.00000   0 ;    H4'-   C4'-   C3'-   O3'
   139    138    155    161      9     0.00   1.04600   1 ;    H4'-   C4'-   C3'-   O3'
   140    138    155    156      9     0.00   0.00000   0 ;    O4'-   C4'-   C3'-   H3'
   140    138    155    156      9     0.00   1.04600   1 ;    O4'-   C4'-   C3'-   H3'
   140    138    155    157      9     0.00   0.65084   3 ;    O4'-   C4'-   C3'-   C2'
   140    138    155    161      9     0.00   0.60250   3 ;    O4'-   C4'-   C3'-   O3'
   140    138    155    161      9     0.00   4.91620   2 ;    O4'-   C4'-   C3'-   O3'
   140    141    143    153      9     0.00   0.00000   0 ;    O4'-   C1'-    N1-    C2
   140    141    157    155      9     0.00   0.65084   3 ;    O4'-   C1'-   C2'-   C3'
   140    141    157    158      9     0.00   0.00000   0 ;    O4'-   C1'-   C2'-   H2'
   140    141    157    158      9     0.00   1.04600   1 ;    O4'-   C1'-   C2'-   H2'
   140    141    157    159      9     0.00   0.60250   3 ;    O4'-   C1'-   C2'-   O2'
   140    141    157    159      9     0.00   4.91620   2 ;    O4'-   C1'-   C2'-   O2'
   141    140    138    155      9     0.00   1.60247   3 ;    C1'-   O4'-   C4'-   C3'
   141    140    138    155      9   180.00   0.41840   2 ;    C1'-   O4'-   C4'-   C3'
   141    143    144    145      9   180.00   7.74040   2 ;    C1'-    N1-    C6-    H6
   141    143    144    146      9   180.00   7.74040   2 ;    C1'-    N1-    C6-    C5
   141    143    153    152      9   180.00   6.06680   2 ;    C1'-    N1-    C2-    N3
   141    143    153    154      9   180.00   6.06680   2 ;    C1'-    N1-    C2-    O2
   141    157    155    156      9     0.00   0.65084   3 ;    C1'-   C2'-   C3'-   H3'
   141    157    155    161      9     0.00   0.65084   3 ;    C1'-   C2'-   C3'-   O3'
   141    157    159    160      9     0.00   0.66944   3 ;    C1'-   C2'-   O2'-  HO2'
   141    157    159    160      9     0.00   1.04600   1 ;    C1'-   C2'-   O2'-  HO2'
   142    141    143    144      9     0.00   0.00000   0 ;    H1'-   C1'-    N1-    C6
   142    141    143    153      9     0.00   0.00000   0 ;    H1'-   C1'-    N1-    C2
   142    141    157    155      9     0.00   0.65084   3 ;    H1'-   C1'-   C2'-   C3'
   142    141    157    158      9     0.00   0.65084   3 ;    H1'-   C1'-   C2'-   H2'
   142    141    157    159      9     0.00   0.65084   3 ;    H1'-   C1'-   C2'-   O2'
   143    141    157    155      9     0.00   0.65084   3 ;     N1-   C1'-   C2'-   C3'
   143    141    157    158      9     0.00   0.65084   3 ;     N1-   C1'-   C2'-   H2'
   143    141    157    159      9     0.00   0.65084   3 ;     N1-   C1'-   C2'-   O2'
   143    144    146    147      9   180.00  27.82360   2 ;     N1-    C6-    C5-    H5
   143    144    146    148      9   180.00  27.82360   2 ;     N1-    C6-    C5-    C4
   143    153    152    148      9   180.00  16.73600   2 ;     N1-    C2-    N3-    C4
   144    143    141    157      9     0.00   0.00000   0 ;     C6-    N1-   C1'-   C2'
   144    143    153    152      9   180.00   6.06680   2 ;     C6-    N1-    C2-    N3
   144    143    153    154      9   180.00   6.06680   2 ;     C6-    N1-    C2-    O2
   144    146    148    149      9   180.00  10.66920   2 ;     C6-    C5-    C4-    N4
   144    146    148    152      9   180.00  10.66920   2 ;     C6-    C5-    C4-    N3
   145    144    143    153      9   180.00   7.74040   2 ;     H6-    C6-    N1-    C2
   145    144    146    147      9   180.00  27.82360   2 ;     H6-    C6-    C5-    H5
   145    144    146    148      9   180.00  27.82360   2 ;     H6-    C6-    C5-    C4
   146    144    143    153      9   180.00   7.74040   2 ;     C5-    C6-    N1-    C2
   146    148    149    150      9   180.00  10.04160   2 ;     C5-    C4-    N4-   H41
   146    148    149    151      9   180.00  10.04160   2 ;     C5-    C4-    N4-   H42
   146    148    152    153      9   180.00  20.08320   2 ;     C5-    C4-    N3-    C2
   147    146    148    149      9   180.00  10.66920   2 ;     H5-    C5-    C4-    N4
   147    146    148    152      9   180.00  10.66920   2 ;     H5-    C5-    C4-    N3
   148    152    153    154      9   180.00  16.73600   2 ;     C4-    N3-    C2-    O2
   149    148    152    153      9   180.00  20.08320   2 ;     N4-    C4-    N3-    C2
   150    149    148    152      9   180.00  10.04160   2 ;    H41-    N4-    C4-    N3
   151    149    148    152      9   180.00  10.04160   2 ;    H42-    N4-    C4-    N3
   153    143    141    157      9     0.00   0.00000   0 ;     C2-    N1-   C1'-   C2'
   155    157    159    160      9     0.00   0.66944   3 ;    C3'-   C2'-   O2'-  HO2'
   155    157    159    160      9     0.00   1.04600   1 ;    C3'-   C2'-   O2'-  HO2'
   155    161    162    163      9     0.00   1.04600   3 ;    C3'-   O3'-     P-   OP1
   155    161    162    164      9     0.00   1.04600   3 ;    C3'-   O3'-     P-   OP2
   155    161    162    165      9     0.00   1.04600   3 ;    C3'-   O3'-     P-   O5'
   155    161    162    165      9     0.00   5.02080   2 ;    C3'-   O3'-     P-   O5'
   156    155    157    158      9     0.00   0.65084   3 ;    H3'-   C3'-   C2'-   H2'
   156    155    157    159      9     0.00   0.00000   0 ;    H3'-   C3'-   C2'-   O2'
   156    155    157    159      9     0.00   1.04600   1 ;    H3'-   C3'-   C2'-   O2'
   156    155    161    162      9     0.00   1.60387   3 ;    H3'-   C3'-   O3'-     P
   157    155    161    162      9     0.00   1.60387   3 ;    C2'-   C3'-   O3'-     P
   158    157    155    161      9     0.00   0.00000   0 ;    H2'-   C2'-   C3'-   O3'
   158    157    155    161      9     0.00   1.04600   1 ;    H2'-   C2'-   C3'-   O3'
   158    157    159    160      9     0.00   0.69733   3 ;    H2'-   C2'-   O2'-  HO2'
   159    157    155    161      9     0.00   0.60250   3 ;    O2'-   C2'-   C3'-   O3'
   159    157    155    161      9     0.00   4.91620   2 ;    O2'-   C2'-   C3'-   O3'
   162    165    166    167      9     0.00   1.60387   3 ;      P-   O5'-   C5'-   H5'
   162    165    166    168      9     0.00   1.60387   3 ;      P-   O5'-   C5'-  H5''
   162    165    166    169      9     0.00   1.60387   3 ;      P-   O5'-   C5'-   C4'
   163    162    165    166      9     0.00   1.04600   3 ;    OP1-     P-   O5'-   C5'
   164    162    165    166      9     0.00   1.04600   3 ;    OP2-     P-   O5'-   C5'
   165    166    169    170      9     0.00   0.00000   0 ;    O5'-   C5'-   C4'-   H4'
   165    166    169    170      9     0.00   1.04600   1 ;    O5'-   C5'-   C4'-   H4'
   165    166    169    171      9     0.00   0.65084   3 ;    O5'-   C5'-   C4'-   O4'
   166    169    171    172      9     0.00   1.60247   3 ;    C5'-   C4'-   O4'-   C1'
   166    169    171    172      9   180.00   0.41840   2 ;    C5'-   C4'-   O4'-   C1'
   166    169    185    186      9     0.00   0.65084   3 ;    C5'-   C4'-   C3'-   H3'
   166    169    185    187      9     0.00   0.75312   3 ;    C5'-   C4'-   C3'-   C2'
   166    169    185    187      9   180.00   0.83680   1 ;    C5'-   C4'-   C3'-   C2'
   166    169    185    187      9   180.00   1.04600   2 ;    C5'-   C4'-   C3'-   C2'
   166    169    185    191      9     0.00   0.65084   3 ;    C5'-   C4'-   C3'-   O3'
   167    166    169    170      9     0.00   0.65084   3 ;    H5'-   C5'-   C4'-   H4'
   167    166    169    171      9     0.00   0.00000   0 ;    H5'-   C5'-   C4'-   O4'
   167    166    169    171      9     0.00   1.04600   1 ;    H5'-   C5'-   C4'-   O4'
   167    166    169    185      9     0.00   0.65084   3 ;    H5'-   C5'-   C4'-   C3'
   168    166    169    170      9     0.00   0.65084   3 ;   H5''-   C5'-   C4'-   H4'
   168    166    169    171      9     0.00   0.00000   0 ;   H5''-   C5'-   C4'-   O4'
   168    166    169    171      9     0.00   1.04600   1 ;   H5''-   C5'-   C4'-   O4'
   168    166    169    185      9     0.00   0.65084   3 ;   H5''-   C5'-   C4'-   C3'
   169    171    172    173      9     0.00   1.60387   3 ;    C4'-   O4'-   C1'-   H1'
   169    171    172    174      9     0.00   1.60247   3 ;    C4'-   O4'-   C1'-    N1
   169    171    172    174      9     0.00   2.71960   2 ;    C4'-   O4'-   C1'-    N1
   169    171    172    187      9     0.00   1.60247   3 ;    C4'-   O4'-   C1'-   C2'
   169    171    172    187      9   180.00   0.41840   2 ;    C4'-   O4'-   C1'-   C2'
   169    185    187    172      9     0.00   0.75312   3 ;    C4'-   C3'-   C2'-   C1'
   169    185    187    172      9   180.00   0.83680   1 ;    C4'-   C3'-   C2'-   C1'
   169    185    187    172      9   180.00   1.04600   2 ;    C4'-   C3'-   C2'-   C1'
   169    185    187    188      9     0.00   0.65084   3 ;    C4'-   C3'-   C2'-   H2'
   169    185    187    189      9     0.00   0.65084   3 ;    C4'-   C3'-   C2'-   O2'
   169    185    191    192      9     0.00   1.60387   3 ;    C4'-   C3'-   O3'-     P
   170    169    171    172      9     0.00   1.60387   3 ;    H4'-   C4'-   O4'-   C1'
   170    169    185    186      9     0.00   0.65084   3 ;    H4'-   C4'-   C3'-   H3'
   170    169    185    187      9     0.00   0.65084   3 ;    H4'-   C4'-   C3'-   C2'
   170    169    185    191      9     0.00   0.00000   0 ;    H4'-   C4'-   C3'-   O3'
   170    169    185    191      9     0.00   1.04600   1 ;    H4'-   C4'-   C3'-   O3'
   171    169    185    186      9     0.00   0.00000   0 ;    O4'-   C4'-   C3'-   H3'
   171    169    185    186      9     0.00   1.04600   1 ;    O4'-   C4'-   C3'-   H3'
   171    169    185    187      9     0.00   0.65084   3 ;    O4'-   C4'-   C3'-   C2'
   171    169    185    191      9     0.00   0.60250   3 ;    O4'-   C4'-   C3'-   O3'
   171    169    185    191      9     0.00   4.91620   2 ;    O4'-   C4'-   C3'-   O3'
   171    172    174    183      9     0.00   0.00000   0 ;    O4'-   C1'-    N1-    C2
   171    172    187    185      9     0.00   0.65084   3 ;    O4'-   C1'-   C2'-   C3'
   171    172    187    188      9     0.00   0.00000   0 ;    O4'-   C1'-   C2'-   H2'
   171    172    187    188      9     0.00   1.04600   1 ;    O4'-   C1'-   C2'-   H2'
   171    172    187    189      9     0.00   0.60250   3 ;    O4'-   C1'-   C2'-   O2'
   171    172    187    189      9     0.00   4.91620   2 ;    O4'-   C1'-   C2'-   O2'
   172    171    169    185      9     0.00   1.60247   3 ;    C1'-   O4'-   C4'-   C3'
   172    171    169    185      9   180.00   0.41840   2 ;    C1'-   O4'-   C4'-   C3'
   172    174    175    176      9   180.00   7.74040   2 ;    C1'-    N1-    C6-    H6
   172    174    175    177      9   180.00   7.74040   2 ;    C1'-    N1-    C6-    C5
   172    174    183    181      9   180.00   6.06680   2 ;    C1'-    N1-    C2-    N3
   172    174    183    184      9   180.00   6.06680   2 ;    C1'-    N1-    C2-    O2
   172    187    185    186      9     0.00   0.65084   3 ;    C1'-   C2'-   C3'-   H3'
   172    187    185    191      9     0.00   0.65084   3 ;    C1'-   C2'-   C3'-   O3'
   172    187    189    190      9     0.00   0.66944   3 ;    C1'-   C2'-   O2'-  HO2'
   172    187    189    190      9     0.00   1.04600   1 ;    C1'-   C2'-   O2'-  HO2'
   173    172    174    175      9     0.00   0.00000   0 ;    H1'-   C1'-    N1-    C6
   173    172    174    183      9     0.00   0.00000   0 ;    H1'-   C1'-    N1-    C2
   173    172    187    185      9     0.00   0.65084   3 ;    H1'-   C1'-   C2'-   C3'
   173    172    187    188      9     0.00   0.65084   3 ;    H1'-   C1'-   C2'-   H2'
   173    172    187    189      9     0.00   0.65084   3 ;    H1'-   C1'-   C2'-   O2'
   174    172    187    185      9     0.00   0.65084   3 ;     N1-   C1'-   C2'-   C3'
   174    172    187    188      9     0.00   0.65084   3 ;     N1-   C1'-   C2'-   H2'
   174    172    187    189      9     0.00   0.65084   3 ;     N1-   C1'-   C2'-   O2'
   174    175    177    178      9   180.00  27.82360   2 ;     N1-    C6-    C5-    H5
   174    175    177    179      9   180.00  27.82360   2 ;     N1-    C6-    C5-    C4
   174    183    181    179      9   180.00   5.64840   2 ;     N1-    C2-    N3-    C4
   174    183    181    182      9   180.00   5.64840   2 ;     N1-    C2-    N3-    H3
   175    174    172    187      9     0.00   0.00000   0 ;     C6-    N1-   C1'-   C2'
   175    174    183    181      9   180.00   6.06680   2 ;     C6-    N1-    C2-    N3
   175    174    183    184      9   180.00   6.06680   2 ;     C6-    N1-    C2-    O2
   175    177    179    180      9     0.00   1.25520   3 ;     C6-    C5-    C4-    O4
   175    177    179    180      9   180.00   9.10020   2 ;     C6-    C5-    C4-    O4
   175    177    179    181      9   180.00   9.10020   2 ;     C6-    C5-    C4-    N3
   176    175    174    183      9   180.00   7.74040   2 ;     H6-    C6-    N1-    C2
   176    175    177    178      9   180.00  27.82360   2 ;     H6-    C6-    C5-    H5
   176    175    177    179      9   180.00  27.82360   2 ;     H6-    C6-    C5-    C4
   177    175    174    183      9   180.00   7.74040   2 ;     C5-    C6-    N1-    C2
   177    179    181    182      9   180.00   5.64840   2 ;     C5-    C4-    N3-    H3
   177    179    181    183      9   180.00   5.64840   2 ;     C5-    C4-    N3-    C2
   178    177    179    180      9   180.00   9.10020   2 ;     H5-    C5-    C4-    O4
   178    177    179    181      9   180.00   9.10020   2 ;     H5-    C5-    C4-    N3
   179    181    183    184      9   180.00   5.64840   2 ;     C4-    N3-    C2-    O2
   180    179    181    182      9   180.00   5.64840   2 ;     O4-    C4-    N3-    H3
   180    179    181    183      9   180.00   5.64840   2 ;     O4-    C4-    N3-    C2
   182    181    183    184      9   180.00   5.64840   2 ;     H3-    N3-    C2-    O2
   183    174    172    187      9     0.00   0.00000   0 ;     C2-    N1-   C1'-   C2'
   185    187    189    190      9     0.00   0.66944   3 ;    C3'-   C2'-   O2'-  HO2'
   185    187    189    190      9     0.00   1.04600   1 ;    C3'-   C2'-   O2'-  HO2'
   185    191    192    193      9     0.00   1.04600   3 ;    C3'-   O3'-     P-   OP1
   185    191    192    194      9     0.00   1.04600   3 ;    C3'-   O3'-     P-   OP2
   185    191    192    195      9     0.00   1.04600   3 ;    C3'-   O3'-     P-   O5'
   185    191    192    195      9     0.00   5.02080   2 ;    C3'-   O3'-     P-   O5'
   186    185    187    188      9     0.00   0.65084   3 ;    H3'-   C3'-   C2'-   H2'
   186    185    187    189      9     0.00   0.00000   0 ;    H3'-   C3'-   C2'-   O2'
   186    185    187    189      9     0.00   1.04600   1 ;    H3'-   C3'-   C2'-   O2'
   186    185    191    192      9     0.00   1.60387   3 ;    H3'-   C3'-   O3'-     P
   187    185    191    192      9     0.00   1.60387   3 ;    C2'-   C3'-   O3'-     P
   188    187    185    191      9     0.00   0.00000   0 ;    H2'-   C2'-   C3'-   O3'
   188    187    185    191      9     0.00   1.04600   1 ;    H2'-   C2'-   C3'-   O3'
   188    187    189    190      9     0.00   0.69733   3 ;    H2'-   C2'-   O2'-  HO2'
   189    187    185    191      9     0.00   0.60250   3 ;    O2'-   C2'-   C3'-   O3'
   189    187    185    191      9     0.00   4.91620   2 ;    O2'-   C2'-   C3'-   O3'
   192    195    196    197      9     0.00   1.60387   3 ;      P-   O5'-   C5'-   H5'
   192    195    196    198      9     0.00   1.60387   3 ;      P-   O5'-   C5'-  H5''
   192    195    196    199      9     0.00   1.60387   3 ;      P-   O5'-   C5'-   C4'
   193    192    195    196      9     0.00   1.04600   3 ;    OP1-     P-   O5'-   C5'
   194    192    195    196      9     0.00   1.04600   3 ;    OP2-     P-   O5'-   C5'
   195    196    199    200      9     0.00   0.00000   0 ;    O5'-   C5'-   C4'-   H4'
   195    196    199    200      9     0.00   1.04600   1 ;    O5'-   C5'-   C4'-   H4'
   195    196    199    201      9     0.00   0.65084   3 ;    O5'-   C5'-   C4'-   O4'
   196    199    201    202      9     0.00   1.60247   3 ;    C5'-   C4'-   O4'-   C1'
   196    199    201    202      9   180.00   0.41840   2 ;    C5'-   C4'-   O4'-   C1'
   196    199    215    216      9     0.00   0.65084   3 ;    C5'-   C4'-   C3'-   H3'
   196    199    215    217      9     0.00   0.75312   3 ;    C5'-   C4'-   C3'-   C2'
   196    199    215    217      9   180.00   0.83680   1 ;    C5'-   C4'-   C3'-   C2'
   196    199    215    217      9   180.00   1.04600   2 ;    C5'-   C4'-   C3'-   C2'
   196    199    215    221      9     0.00   0.65084   3 ;    C5'-   C4'-   C3'-   O3'
   197    196    199    200      9     0.00   0.65084   3 ;    H5'-   C5'-   C4'-   H4'
   197    196    199    201      9     0.00   0.00000   0 ;    H5'-   C5'-   C4'-   O4'
   197    196    199    201      9     0.00   1.04600   1 ;    H5'-   C5'-   C4'-   O4'
   197    196    199    215      9     0.00   0.65084   3 ;    H5'-   C5'-   C4'-   C3'
   198    196    199    200      9     0.00   0.65084   3 ;   H5''-   C5'-   C4'-   H4'
   198    196    199    201      9     0.00   0.00000   0 ;   H5''-   C5'-   C4'-   O4'
   198    196    199    201      9     0.00   1.04600   1 ;   H5''-   C5'-   C4'-   O4'
   198    196    199    215      9     0.00   0.65084   3 ;   H5''-   C5'-   C4'-   C3'
   199    201    202    203      9     0.00   1.60387   3 ;    C4'-   O4'-   C1'-   H1'
   199    201    202    204      9     0.00   1.60247   3 ;    C4'-   O4'-   C1'-    N1
   199    201    202    204      9     0.00   2.71960   2 ;    C4'-   O4'-   C1'-    N1
   199    201    202    217      9     0.00   1.60247   3 ;    C4'-   O4'-   C1'-   C2'
   199    201    202    217      9   180.00   0.41840   2 ;    C4'-   O4'-   C1'-   C2'
   199    215    217    202      9     0.00   0.75312   3 ;    C4'-   C3'-   C2'-   C1'
   199    215    217    202      9   180.00   0.83680   1 ;    C4'-   C3'-   C2'-   C1'
   199    215    217    202      9   180.00   1.04600   2 ;    C4'-   C3'-   C2'-   C1'
   199    215    217    218      9     0.00   0.65084   3 ;    C4'-   C3'-   C2'-   H2'
   199    215    217    219      9     0.00   0.65084   3 ;    C4'-   C3'-   C2'-   O2'
   199    215    221    222      9     0.00   1.60387   3 ;    C4'-   C3'-   O3'-     P
   200    199    201    202      9     0.00   1.60387   3 ;    H4'-   C4'-   O4'-   C1'
   200    199    215    216      9     0.00   0.65084   3 ;    H4'-   C4'-   C3'-   H3'
   200    199    215    217      9     0.00   0.65084   3 ;    H4'-   C4'-   C3'-   C2'
   200    199    215    221      9     0.00   0.00000   0 ;    H4'-   C4'-   C3'-   O3'
   200    199    215    221      9     0.00   1.04600   1 ;    H4'-   C4'-   C3'-   O3'
   201    199    215    216      9     0.00   0.00000   0 ;    O4'-   C4'-   C3'-   H3'
   201    199    215    216      9     0.00   1.04600   1 ;    O4'-   C4'-   C3'-   H3'
   201    199    215    217      9     0.00   0.65084   3 ;    O4'-   C4'-   C3'-   C2'
   201    199    215    221      9     0.00   0.60250   3 ;    O4'-   C4'-   C3'-   O3'
   201    199    215    221      9     0.00   4.91620   2 ;    O4'-   C4'-   C3'-   O3'
   201    202    204    213      9     0.00   0.00000   0 ;    O4'-   C1'-    N1-    C2
   201    202    217    215      9     0.00   0.65084   3 ;    O4'-   C1'-   C2'-   C3'
   201    202    217    218      9     0.00   0.00000   0 ;    O4'-   C1'-   C2'-   H2'
   201    202    217    218      9     0.00   1.04600   1 ;    O4'-   C1'-   C2'-   H2'
   201    202    217    219      9     0.00   0.60250   3 ;    O4'-   C1'-   C2'-   O2'
   201    202    217    219      9     0.00   4.91620   2 ;    O4'-   C1'-   C2'-   O2'
   202    201    199    215      9     0.00   1.60247   3 ;    C1'-   O4'-   C4'-   C3'
   202    201    199    215      9   180.00   0.41840   2 ;    C1'-   O4'-   C4'-   C3'
   202    204    205    206      9   180.00   7.74040   2 ;    C1'-    N1-    C6-    H6
   202    204    205    207      9   180.00   7.74040   2 ;    C1'-    N1-    C6-    C5
   202    204    213    211      9   180.00   6.06680   2 ;    C1'-    N1-    C2-    N3
   202    204    213    214      9   180.00   6.06680   2 ;    C1'-    N1-    C2-    O2
   202    217    215    216      9     0.00   0.65084   3 ;    C1'-   C2'-   C3'-   H3'
   202    217    215    221      9     0.00   0.65084   3 ;    C1'-   C2'-   C3'-   O3'
   202    217    219    220      9     0.00   0.66944   3 ;    C1'-   C2'-   O2'-  HO2'
   202    217    219    220      9     0.00   1.04600   1 ;    C1'-   C2'-   O2'-  HO2'
   203    202    204    205      9     0.00   0.00000   0 ;    H1'-   C1'-    N1-    C6
   203    202    204    213      9     0.00   0.00000   0 ;    H1'-   C1'-    N1-    C2
   203    202    217    215      9     0.00   0.65084   3 ;    H1'-   C1'-   C2'-   C3'
   203    202    217    218      9     0.00   0.65084   3 ;    H1'-   C1'-   C2'-   H2'
   203    202    217    219      9     0.00   0.65084   3 ;    H1'-   C1'-   C2'-   O2'
   204    202    217    215      9     0.00   0.65084   3 ;     N1-   C1'-   C2'-   C3'
   204    202    217    218      9     0.00   0.65084   3 ;     N1-   C1'-   C2'-   H2'
   204    202    217    219      9     0.00   0.65084   3 ;     N1-   C1'-   C2'-   O2'
   204    205    207    208      9   180.00  27.82360   2 ;     N1-    C6-    C5-    H5
   204    205    207    209      9   180.00  27.82360   2 ;     N1-    C6-    C5-    C4
   204    213    211    209      9   180.00   5.64840   2 ;     N1-    C2-    N3-    C4
   204    213    211    212      9   180.00   5.64840   2 ;     N1-    C2-    N3-    H3
   205    204    202    217      9     0.00   0.00000   0 ;     C6-    N1-   C1'-   C2'
   205    204    213    211      9   180.00   6.06680   2 ;     C6-    N1-    C2-    N3
   205    204    213    214      9   180.00   6.06680   2 ;     C6-    N1-    C2-    O2
   205    207    209    210      9     0.00   1.25520   3 ;     C6-    C5-    C4-    O4
   205    207    209    210      9   180.00   9.10020   2 ;     C6-    C5-    C4-    O4
   205    207    209    211      9   180.00   9.10020   2 ;     C6-    C5-    C4-    N3
   206    205    204    213      9   180.00   7.74040   2 ;     H6-    C6-    N1-    C2
   206    205    207    208      9   180.00  27.82360   2 ;     H6-    C6-    C5-    H5
   206    205    207    209      9   180.00  27.82360   2 ;     H6-    C6-    C5-    C4
   207    205    204    213      9   180.00   7.74040   2 ;     C5-    C6-    N1-    C2
   207    209    211    212      9   180.00   5.64840   2 ;     C5-    C4-    N3-    H3
   207    209    211    213      9   180.00   5.64840   2 ;     C5-    C4-    N3-    C2
   208    207    209    210      9   180.00   9.10020   2 ;     H5-    C5-    C4-    O4
   208    207    209    211      9   180.00   9.10020   2 ;     H5-    C5-    C4-    N3
   209    211    213    214      9   180.00   5.64840   2 ;     C4-    N3-    C2-    O2
   210    209    211    212      9   180.00   5.64840   2 ;     O4-    C4-    N3-    H3
   210    209    211    213      9   180.00   5.64840   2 ;     O4-    C4-    N3-    C2
   212    211    213    214      9   180.00   5.64840   2 ;     H3-    N3-    C2-    O2
   213    204    202    217      9     0.00   0.00000   0 ;     C2-    N1-   C1'-   C2'
   215    217    219    220      9     0.00   0.66944   3 ;    C3'-   C2'-   O2'-  HO2'
   215    217    219    220      9     0.00   1.04600   1 ;    C3'-   C2'-   O2'-  HO2'
   215    221    222    223      9     0.00   1.04600   3 ;    C3'-   O3'-     P-   OP1
   215    221    222    224      9     0.00   1.04600   3 ;    C3'-   O3'-     P-   OP2
   215    221    222    225      9     0.00   1.04600   3 ;    C3'-   O3'-     P-   O5'
   215    221    222    225      9     0.00   5.02080   2 ;    C3'-   O3'-     P-   O5'
   216    215    217    218      9     0.00   0.65084   3 ;    H3'-   C3'-   C2'-   H2'
   216    215    217    219      9     0.00   0.00000   0 ;    H3'-   C3'-   C2'-   O2'
   216    215    217    219      9     0.00   1.04600   1 ;    H3'-   C3'-   C2'-   O2'
   216    215    221    222      9     0.00   1.60387   3 ;    H3'-   C3'-   O3'-     P
   217    215    221    222      9     0.00   1.60387   3 ;    C2'-   C3'-   O3'-     P
   218    217    215    221      9     0.00   0.00000   0 ;    H2'-   C2'-   C3'-   O3'
   218    217    215    221      9     0.00   1.04600   1 ;    H2'-   C2'-   C3'-   O3'
   218    217    219    220      9     0.00   0.69733   3 ;    H2'-   C2'-   O2'-  HO2'
   219    217    215    221      9     0.00   0.60250   3 ;    O2'-   C2'-   C3'-   O3'
   219    217    215    221      9     0.00   4.91620   2 ;    O2'-   C2'-   C3'-   O3'
   222    225    226    227      9     0.00   1.60387   3 ;      P-   O5'-   C5'-   H5'
   222    225    226    228      9     0.00   1.60387   3 ;      P-   O5'-   C5'-  H5''
   222    225    226    229      9     0.00   1.60387   3 ;      P-   O5'-   C5'-   C4'
   223    222    225    226      9     0.00   1.04600   3 ;    OP1-     P-   O5'-   C5'
   224    222    225    226      9     0.00   1.04600   3 ;    OP2-     P-   O5'-   C5'
   225    226    229    230      9     0.00   0.00000   0 ;    O5'-   C5'-   C4'-   H4'
   225    226    229    230      9     0.00   1.04600   1 ;    O5'-   C5'-   C4'-   H4'
   225    226    229    231      9     0.00   0.65084   3 ;    O5'-   C5'-   C4'-   O4'
   226    229    231    232      9     0.00   1.60247   3 ;    C5'-   C4'-   O4'-   C1'
   226    229    231    232      9   180.00   0.41840   2 ;    C5'-   C4'-   O4'-   C1'
   226    229    245    246      9     0.00   0.65084   3 ;    C5'-   C4'-   C3'-   H3'
   226    229    245    247      9     0.00   0.75312   3 ;    C5'-   C4'-   C3'-   C2'
   226    229    245    247      9   180.00   0.83680   1 ;    C5'-   C4'-   C3'-   C2'
   226    229    245    247      9   180.00   1.04600   2 ;    C5'-   C4'-   C3'-   C2'
   226    229    245    251      9     0.00   0.65084   3 ;    C5'-   C4'-   C3'-   O3'
   227    226    229    230      9     0.00   0.65084   3 ;    H5'-   C5'-   C4'-   H4'
   227    226    229    231      9     0.00   0.00000   0 ;    H5'-   C5'-   C4'-   O4'
   227    226    229    231      9     0.00   1.04600   1 ;    H5'-   C5'-   C4'-   O4'
   227    226    229    245      9     0.00   0.65084   3 ;    H5'-   C5'-   C4'-   C3'
   228    226    229    230      9     0.00   0.65084   3 ;   H5''-   C5'-   C4'-   H4'
   228    226    229    231      9     0.00   0.00000   0 ;   H5''-   C5'-   C4'-   O4'
   228    226    229    231      9     0.00   1.04600   1 ;   H5''-   C5'-   C4'-   O4'
   228    226    229    245      9     0.00   0.65084   3 ;   H5''-   C5'-   C4'-   C3'
   229    231    232    233      9     0.00   1.60387   3 ;    C4'-   O4'-   C1'-   H1'
   229    231    232    234      9     0.00   1.60247   3 ;    C4'-   O4'-   C1'-    N1
   229    231    232    234      9     0.00   2.71960   2 ;    C4'-   O4'-   C1'-    N1
   229    231    232    247      9     0.00   1.60247   3 ;    C4'-   O4'-   C1'-   C2'
   229    231    232    247      9   180.00   0.41840   2 ;    C4'-   O4'-   C1'-   C2'
   229    245    247    232      9     0.00   0.75312   3 ;    C4'-   C3'-   C2'-   C1'
   229    245    247    232      9   180.00   0.83680   1 ;    C4'-   C3'-   C2'-   C1'
   229    245    247    232      9   180.00   1.04600   2 ;    C4'-   C3'-   C2'-   C1'
   229    245    247    248      9     0.00   0.65084   3 ;    C4'-   C3'-   C2'-   H2'
   229    245    247    249      9     0.00   0.65084   3 ;    C4'-   C3'-   C2'-   O2'
   229    245    251    252      9     0.00   1.60387   3 ;    C4'-   C3'-   O3'-     P
   230    229    231    232      9     0.00   1.60387   3 ;    H4'-   C4'-   O4'-   C1'
   230    229    245    246      9     0.00   0.65084   3 ;    H4'-   C4'-   C3'-   H3'
   230    229    245    247      9     0.00   0.65084   3 ;    H4'-   C4'-   C3'-   C2'
   230    229    245    251      9     0.00   0.00000   0 ;    H4'-   C4'-   C3'-   O3'
   230    229    245    251      9     0.00   1.04600   1 ;    H4'-   C4'-   C3'-   O3'
   231    229    245    246      9     0.00   0.00000   0 ;    O4'-   C4'-   C3'-   H3'
   231    229    245    246      9     0.00   1.04600   1 ;    O4'-   C4'-   C3'-   H3'
   231    229    245    247      9     0.00   0.65084   3 ;    O4'-   C4'-   C3'-   C2'
   231    229    245    251      9     0.00   0.60250   3 ;    O4'-   C4'-   C3'-   O3'
   231    229    245    251      9     0.00   4.91620   2 ;    O4'-   C4'-   C3'-   O3'
   231    232    234    243      9     0.00   0.00000   0 ;    O4'-   C1'-    N1-    C2
   231    232    247    245      9     0.00   0.65084   3 ;    O4'-   C1'-   C2'-   C3'
   231    232    247    248      9     0.00   0.00000   0 ;    O4'-   C1'-   C2'-   H2'
   231    232    247    248      9     0.00   1.04600   1 ;    O4'-   C1'-   C2'-   H2'
   231    232    247    249      9     0.00   0.60250   3 ;    O4'-   C1'-   C2'-   O2'
   231    232    247    249      9     0.00   4.91620   2 ;    O4'-   C1'-   C2'-   O2'
   232    231    229    245      9     0.00   1.60247   3 ;    C1'-   O4'-   C4'-   C3'
   232    231    229    245      9   180.00   0.41840   2 ;    C1'-   O4'-   C4'-   C3'
   232    234    235    236      9   180.00   7.74040   2 ;    C1'-    N1-    C6-    H6
   232    234    235    237      9   180.00   7.74040   2 ;    C1'-    N1-    C6-    C5
   232    234    243    241      9   180.00   6.06680   2 ;    C1'-    N1-    C2-    N3
   232    234    243    244      9   180.00   6.06680   2 ;    C1'-    N1-    C2-    O2
   232    247    245    246      9     0.00   0.65084   3 ;    C1'-   C2'-   C3'-   H3'
   232    247    245    251      9     0.00   0.65084   3 ;    C1'-   C2'-   C3'-   O3'
   232    247    249    250      9     0.00   0.66944   3 ;    C1'-   C2'-   O2'-  HO2'
   232    247    249    250      9     0.00   1.04600   1 ;    C1'-   C2'-   O2'-  HO2'
   233    232    234    235      9     0.00   0.00000   0 ;    H1'-   C1'-    N1-    C6
   233    232    234    243      9     0.00   0.00000   0 ;    H1'-   C1'-    N1-    C2
   233    232    247    245      9     0.00   0.65084   3 ;    H1'-   C1'-   C2'-   C3'
   233    232    247    248      9     0.00   0.65084   3 ;    H1'-   C1'-   C2'-   H2'
   233    232    247    249      9     0.00   0.65084   3 ;    H1'-   C1'-   C2'-   O2'
   234    232    247    245      9     0.00   0.65084   3 ;     N1-   C1'-   C2'-   C3'
   234    232    247    248      9     0.00   0.65084   3 ;     N1-   C1'-   C2'-   H2'
   234    232    247    249      9     0.00   0.65084   3 ;     N1-   C1'-   C2'-   O2'
   234    235    237    238      9   180.00  27.82360   2 ;     N1-    C6-    C5-    H5
   234    235    237    239      9   180.00  27.82360   2 ;     N1-    C6-    C5-    C4
   234    243    241    239      9   180.00   5.64840   2 ;     N1-    C2-    N3-    C4
   234    243    241    242      9   180.00   5.64840   2 ;     N1-    C2-    N3-    H3
   235    234    232    247      9     0.00   0.00000   0 ;     C6-    N1-   C1'-   C2'
   235    234    243    241      9   180.00   6.06680   2 ;     C6-    N1-    C2-    N3
   235    234    243    244      9   180.00   6.06680   2 ;     C6-    N1-    C2-    O2
   235    237    239    240      9     0.00   1.25520   3 ;     C6-    C5-    C4-    O4
   235    237    239    240      9   180.00   9.10020   2 ;     C6-    C5-    C4-    O4
   235    237    239    241      9   180.00   9.10020   2 ;     C6-    C5-    C4-    N3
   236    235    234    243      9   180.00   7.74040   2 ;     H6-    C6-    N1-    C2
   236    235    237    238      9   180.00  27.82360   2 ;     H6-    C6-    C5-    H5
   236    235    237    239      9   180.00  27.82360   2 ;     H6-    C6-    C5-    C4
   237    235    234    243      9   180.00   7.74040   2 ;     C5-    C6-    N1-    C2
   237    239    241    242      9   180.00   5.64840   2 ;     C5-    C4-    N3-    H3
   237    239    241    243      9   180.00   5.64840   2 ;     C5-    C4-    N3-    C2
   238    237    239    240      9   180.00   9.10020   2 ;     H5-    C5-    C4-    O4
   238    237    239    241      9   180.00   9.10020   2 ;     H5-    C5-    C4-    N3
   239    241    243    244      9   180.00   5.64840   2 ;     C4-    N3-    C2-    O2
   240    239    241    242      9   180.00   5.64840   2 ;     O4-    C4-    N3-    H3
   240    239    241    243      9   180.00   5.64840   2 ;     O4-    C4-    N3-    C2
   242    241    243    244      9   180.00   5.64840   2 ;     H3-    N3-    C2-    O2
   243    234    232    247      9     0.00   0.00000   0 ;     C2-    N1-   C1'-   C2'
   245    247    249    250      9     0.00   0.66944   3 ;    C3'-   C2'-   O2'-  HO2'
   245    247    249    250      9     0.00   1.04600   1 ;    C3'-   C2'-   O2'-  HO2'
   245    251    252    253      9     0.00   1.04600   3 ;    C3'-   O3'-     P-   OP1
   245    251    252    254      9     0.00   1.04600   3 ;    C3'-   O3'-     P-   OP2
   245    251    252    255      9     0.00   1.04600   3 ;    C3'-   O3'-     P-   O5'
   245    251    252    255      9     0.00   5.02080   2 ;    C3'-   O3'-     P-   O5'
   246    245    247    248      9     0.00   0.65084   3 ;    H3'-   C3'-   C2'-   H2'
   246    245    247    249      9     0.00   0.00000   0 ;    H3'-   C3'-   C2'-   O2'
   246    245    247    249      9     0.00   1.04600   1 ;    H3'-   C3'-   C2'-   O2'
   246    245    251    252      9     0.00   1.60387   3 ;    H3'-   C3'-   O3'-     P
   247    245    251    252      9     0.00   1.60387   3 ;    C2'-   C3'-   O3'-     P
   248    247    245    251      9     0.00   0.00000   0 ;    H2'-   C2'-   C3'-   O3'
   248    247    245    251      9     0.00   1.04600   1 ;    H2'-   C2'-   C3'-   O3'
   248    247    249    250      9     0.00   0.69733   3 ;    H2'-   C2'-   O2'-  HO2'
   249    247    245    251      9     0.00   0.60250   3 ;    O2'-   C2'-   C3'-   O3'
   249    247    245    251      9     0.00   4.91620   2 ;    O2'-   C2'-   C3'-   O3'
   252    255    256    257      9     0.00   1.60387   3 ;      P-   O5'-   C5'-   H5'
   252    255    256    258      9     0.00   1.60387   3 ;      P-   O5'-   C5'-  H5''
   252    255    256    259      9     0.00   1.60387   3 ;      P-   O5'-   C5'-   C4'
   253    252    255    256      9     0.00   1.04600   3 ;    OP1-     P-   O5'-   C5'
   254    252    255    256      9     0.00   1.04600   3 ;    OP2-     P-   O5'-   C5'
   255    256    259    260      9     0.00   0.00000   0 ;    O5'-   C5'-   C4'-   H4'
   255    256    259    260      9     0.00   1.04600   1 ;    O5'-   C5'-   C4'-   H4'
   255    256    259    261      9     0.00   0.65084   3 ;    O5'-   C5'-   C4'-   O4'
   256    259    261    262      9     0.00   1.60247   3 ;    C5'-   C4'-   O4'-   C1'
   256    259    261    262      9   180.00   0.41840   2 ;    C5'-   C4'-   O4'-   C1'
   256    259    276    277      9     0.00   0.65084   3 ;    C5'-   C4'-   C3'-   H3'
   256    259    276    278      9     0.00   0.75312   3 ;    C5'-   C4'-   C3'-   C2'
   256    259    276    278      9   180.00   0.83680   1 ;    C5'-   C4'-   C3'-   C2'
   256    259    276    278      9   180.00   1.04600   2 ;    C5'-   C4'-   C3'-   C2'
   256    259    276    282      9     0.00   0.65084   3 ;    C5'-   C4'-   C3'-   O3'
   257    256    259    260      9     0.00   0.65084   3 ;    H5'-   C5'-   C4'-   H4'
   257    256    259    261      9     0.00   0.00000   0 ;    H5'-   C5'-   C4'-   O4'
   257    256    259    261      9     0.00   1.04600   1 ;    H5'-   C5'-   C4'-   O4'
   257    256    259    276      9     0.00   0.65084   3 ;    H5'-   C5'-   C4'-   C3'
   258    256    259    260      9     0.00   0.65084   3 ;   H5''-   C5'-   C4'-   H4'
   258    256    259    261      9     0.00   0.00000   0 ;   H5''-   C5'-   C4'-   O4'
   258    256    259    261      9     0.00   1.04600   1 ;   H5''-   C5'-   C4'-   O4'
   258    256    259    276      9     0.00   0.65084   3 ;   H5''-   C5'-   C4'-   C3'
   259    261    262    263      9     0.00   1.60387   3 ;    C4'-   O4'-   C1'-   H1'
   259    261    262    264      9     0.00   1.60247   3 ;    C4'-   O4'-   C1'-    N1
   259    261    262    264      9     0.00   2.71960   2 ;    C4'-   O4'-   C1'-    N1
   259    261    262    278      9     0.00   1.60247   3 ;    C4'-   O4'-   C1'-   C2'
   259    261    262    278      9   180.00   0.41840   2 ;    C4'-   O4'-   C1'-   C2'
   259    276    278    262      9     0.00   0.75312   3 ;    C4'-   C3'-   C2'-   C1'
   259    276    278    262      9   180.00   0.83680   1 ;    C4'-   C3'-   C2'-   C1'
   259    276    278    262      9   180.00   1.04600   2 ;    C4'-   C3'-   C2'-   C1'
   259    276    278    279      9     0.00   0.65084   3 ;    C4'-   C3'-   C2'-   H2'
   259    276    278    280      9     0.00   0.65084   3 ;    C4'-   C3'-   C2'-   O2'
   259    276    282    283      9     0.00   1.60387   3 ;    C4'-   C3'-   O3'-     P
   260    259    261    262      9     0.00   1.60387   3 ;    H4'-   C4'-   O4'-   C1'
   260    259    276    277      9     0.00   0.65084   3 ;    H4'-   C4'-   C3'-   H3'
   260    259    276    278      9     0.00   0.65084   3 ;    H4'-   C4'-   C3'-   C2'
   260    259    276    282      9     0.00   0.00000   0 ;    H4'-   C4'-   C3'-   O3'
   260    259    276    282      9     0.00   1.04600   1 ;    H4'-   C4'-   C3'-   O3'
   261    259    276    277      9     0.00   0.00000   0 ;    O4'-   C4'-   C3'-   H3'
   261    259    276    277      9     0.00   1.04600   1 ;    O4'-   C4'-   C3'-   H3'
   261    259    276    278      9     0.00   0.65084   3 ;    O4'-   C4'-   C3'-   C2'
   261    259    276    282      9     0.00   0.60250   3 ;    O4'-   C4'-   C3'-   O3'
   261    259    276    282      9     0.00   4.91620   2 ;    O4'-   C4'-   C3'-   O3'
   261    262    264    274      9     0.00   0.00000   0 ;    O4'-   C1'-    N1-    C2
   261    262    278    276      9     0.00   0.65084   3 ;    O4'-   C1'-   C2'-   C3'
   261    262    278    279      9     0.00   0.00000   0 ;    O4'-   C1'-   C2'-   H2'
   261    262    278    279      9     0.00   1.04600   1 ;    O4'-   C1'-   C2'-   H2'
   261    262    278    280      9     0.00   0.60250   3 ;    O4'-   C1'-   C2'-   O2'
   261    262    278    280      9     0.00   4.91620   2 ;    O4'-   C1'-   C2'-   O2'
   262    261    259    276      9     0.00   1.60247   3 ;    C1'-   O4'-   C4'-   C3'
   262    261    259    276      9   180.00   0.41840   2 ;    C1'-   O4'-   C4'-   C3'
   262    264    265    266      9   180.00   7.74040   2 ;    C1'-    N1-    C6-    H6
   262    264    265    267      9   180.00   7.74040   2 ;    C1'-    N1-    C6-    C5
   262    264    274    273      9   180.00   6.06680   2 ;    C1'-    N1-    C2-    N3
   262    264    274    275      9   180.00   6.06680   2 ;    C1'-    N1-    C2-    O2
   262    278    276    277      9     0.00   0.65084   3 ;    C1'-   C2'-   C3'-   H3'
   262    278    276    282      9     0.00   0.65084   3 ;    C1'-   C2'-   C3'-   O3'
   262    278    280    281      9     0.00   0.66944   3 ;    C1'-   C2'-   O2'-  HO2'
   262    278    280    281      9     0.00   1.04600   1 ;    C1'-   C2'-   O2'-  HO2'
   263    262    264    265      9     0.00   0.00000   0 ;    H1'-   C1'-    N1-    C6
   263    262    264    274      9     0.00   0.00000   0 ;    H1'-   C1'-    N1-    C2
   263    262    278    276      9     0.00   0.65084   3 ;    H1'-   C1'-   C2'-   C3'
   263    262    278    279      9     0.00   0.65084   3 ;    H1'-   C1'-   C2'-   H2'
   263    262    278    280      9     0.00   0.65084   3 ;    H1'-   C1'-   C2'-   O2'
   264    262    278    276      9     0.00   0.65084   3 ;     N1-   C1'-   C2'-   C3'
   264    262    278    279      9     0.00   0.65084   3 ;     N1-   C1'-   C2'-   H2'
   264    262    278    280      9     0.00   0.65084   3 ;     N1-   C1'-   C2'-   O2'
   264    265    267    268      9   180.00  27.82360   2 ;     N1-    C6-    C5-    H5
   264    265    267    269      9   180.00  27.82360   2 ;     N1-    C6-    C5-    C4
   264    274    273    269      9   180.00  16.73600   2 ;     N1-    C2-    N3-    C4
   265    264    262    278      9     0.00   0.00000   0 ;     C6-    N1-   C1'-   C2'
   265    264    274    273      9   180.00   6.06680   2 ;     C6-    N1-    C2-    N3
   265    264    274    275      9   180.00   6.06680   2 ;     C6-    N1-    C2-    O2
   265    267    269    270      9   180.00  10.66920   2 ;     C6-    C5-    C4-    N4
   265    267    269    273      9   180.00  10.66920   2 ;     C6-    C5-    C4-    N3
   266    265    264    274      9   180.00   7.74040   2 ;     H6-    C6-    N1-    C2
   266    265    267    268      9   180.00  27.82360   2 ;     H6-    C6-    C5-    H5
   266    265    267    269      9   180.00  27.82360   2 ;     H6-    C6-    C5-    C4
   267    265    264    274      9   180.00   7.74040   2 ;     C5-    C6-    N1-    C2
   267    269    270    271      9   180.00  10.04160   2 ;     C5-    C4-    N4-   H41
   267    269    270    272      9   180.00  10.04160   2 ;     C5-    C4-    N4-   H42
   267    269    273    274      9   180.00  20.08320   2 ;     C5-    C4-    N3-    C2
   268    267    269    270      9   180.00  10.66920   2 ;     H5-    C5-    C4-    N4
   268    267    269    273      9   180.00  10.66920   2 ;     H5-    C5-    C4-    N3
   269    273    274    275      9   180.00  16.73600   2 ;     C4-    N3-    C2-    O2
   270    269    273    274      9   180.00  20.08320   2 ;     N4-    C4-    N3-    C2
   271    270    269    273      9   180.00  10.04160   2 ;    H41-    N4-    C4-    N3
   272    270    269    273      9   180.00  10.04160   2 ;    H42-    N4-    C4-    N3
   274    264    262    278      9     0.00   0.00000   0 ;     C2-    N1-   C1'-   C2'
   276    278    280    281      9     0.00   0.66944   3 ;    C3'-   C2'-   O2'-  HO2'
   276    278    280    281      9     0.00   1.04600   1 ;    C3'-   C2'-   O2'-  HO2'
   276    282    283    284      9     0.00   1.04600   3 ;    C3'-   O3'-     P-   OP1
   276    282    283    285      9     0.00   1.04600   3 ;    C3'-   O3'-     P-   OP2
   276    282    283    286      9     0.00   1.04600   3 ;    C3'-   O3'-     P-   O5'
   276    282    283    286      9     0.00   5.02080   2 ;    C3'-   O3'-     P-   O5'
   277    276    278    279      9     0.00   0.65084   3 ;    H3'-   C3'-   C2'-   H2'
   277    276    278    280      9     0.00   0.00000   0 ;    H3'-   C3'-   C2'-   O2'
   277    276    278    280      9     0.00   1.04600   1 ;    H3'-   C3'-   C2'-   O2'
   277    276    282    283      9     0.00   1.60387   3 ;    H3'-   C3'-   O3'-     P
   278    276    282    283      9     0.00   1.60387   3 ;    C2'-   C3'-   O3'-     P
   279    278    276    282      9     0.00   0.00000   0 ;    H2'-   C2'-   C3'-   O3'
   279    278    276    282      9     0.00   1.04600   1 ;    H2'-   C2'-   C3'-   O3'
   279    278    280    281      9     0.00   0.69733   3 ;    H2'-   C2'-   O2'-  HO2'
   280    278    276    282      9     0.00   0.60250   3 ;    O2'-   C2'-   C3'-   O3'
   280    278    276    282      9     0.00   4.91620   2 ;    O2'-   C2'-   C3'-   O3'
   283    286    287    288      9     0.00   1.60387   3 ;      P-   O5'-   C5'-   H5'
   283    286    287    289      9     0.00   1.60387   3 ;      P-   O5'-   C5'-  H5''
   283    286    287    290      9     0.00   1.60387   3 ;      P-   O5'-   C5'-   C4'
   284    283    286    287      9     0.00   1.04600   3 ;    OP1-     P-   O5'-   C5'
   285    283    286    287      9     0.00   1.04600   3 ;    OP2-     P-   O5'-   C5'
   286    287    290    291      9     0.00   0.00000   0 ;    O5'-   C5'-   C4'-   H4'
   286    287    290    291      9     0.00   1.04600   1 ;    O5'-   C5'-   C4'-   H4'
   286    287    290    292      9     0.00   0.65084   3 ;    O5'-   C5'-   C4'-   O4'
   287    290    292    293      9     0.00   1.60247   3 ;    C5'-   C4'-   O4'-   C1'
   287    290    292    293      9   180.00   0.41840   2 ;    C5'-   C4'-   O4'-   C1'
   287    290    310    311      9     0.00   0.65084   3 ;    C5'-   C4'-   C3'-   H3'
   287    290    310    312      9     0.00   0.75312   3 ;    C5'-   C4'-   C3'-   C2'
   287    290    310    312      9   180.00   0.83680   1 ;    C5'-   C4'-   C3'-   C2'
   287    290    310    312      9   180.00   1.04600   2 ;    C5'-   C4'-   C3'-   C2'
   287    290    310    316      9     0.00   0.65084   3 ;    C5'-   C4'-   C3'-   O3'
   288    287    290    291      9     0.00   0.65084   3 ;    H5'-   C5'-   C4'-   H4'
   288    287    290    292      9     0.00   0.00000   0 ;    H5'-   C5'-   C4'-   O4'
   288    287    290    292      9     0.00   1.04600   1 ;    H5'-   C5'-   C4'-   O4'
   288    287    290    310      9     0.00   0.65084   3 ;    H5'-   C5'-   C4'-   C3'
   289    287    290    291      9     0.00   0.65084   3 ;   H5''-   C5'-   C4'-   H4'
   289    287    290    292      9     0.00   0.00000   0 ;   H5''-   C5'-   C4'-   O4'
   289    287    290    292      9     0.00   1.04600   1 ;   H5''-   C5'-   C4'-   O4'
   289    287    290    310      9     0.00   0.65084   3 ;   H5''-   C5'-   C4'-   C3'
   290    292    293    294      9     0.00   1.60387   3 ;    C4'-   O4'-   C1'-   H1'
   290    292    293    295      9     0.00   1.60247   3 ;    C4'-   O4'-   C1'-    N9
   290    292    293    295      9     0.00   2.71960   2 ;    C4'-   O4'-   C1'-    N9
   290    292    293    312      9     0.00   1.60247   3 ;    C4'-   O4'-   C1'-   C2'
   290    292    293    312      9   180.00   0.41840   2 ;    C4'-   O4'-   C1'-   C2'
   290    310    312    293      9     0.00   0.75312   3 ;    C4'-   C3'-   C2'-   C1'
   290    310    312    293      9   180.00   0.83680   1 ;    C4'-   C3'-   C2'-   C1'
   290    310    312    293      9   180.00   1.04600   2 ;    C4'-   C3'-   C2'-   C1'
   290    310    312    313      9     0.00   0.65084   3 ;    C4'-   C3'-   C2'-   H2'
   290    310    312    314      9     0.00   0.65084   3 ;    C4'-   C3'-   C2'-   O2'
   290    310    316    317      9     0.00   1.60387   3 ;    C4'-   C3'-   O3'-     P
   291    290    292    293      9     0.00   1.60387   3 ;    H4'-   C4'-   O4'-   C1'
   291    290    310    311      9     0.00   0.65084   3 ;    H4'-   C4'-   C3'-   H3'
   291    290    310    312      9     0.00   0.65084   3 ;    H4'-   C4'-   C3'-   C2'
   291    290    310    316      9     0.00   0.00000   0 ;    H4'-   C4'-   C3'-   O3'
   291    290    310    316      9     0.00   1.04600   1 ;    H4'-   C4'-   C3'-   O3'
   292    290    310    311      9     0.00   0.00000   0 ;    O4'-   C4'-   C3'-   H3'
   292    290    310    311      9     0.00   1.04600   1 ;    O4'-   C4'-   C3'-   H3'
   292    290    310    312      9     0.00   0.65084   3 ;    O4'-   C4'-   C3'-   C2'
   292    290    310    316      9     0.00   0.60250   3 ;    O4'-   C4'-   C3'-   O3'
   292    290    310    316      9     0.00   4.91620   2 ;    O4'-   C4'-   C3'-   O3'
   292    293    295    309      9     0.00   0.00000   0 ;    O4'-   C1'-    N9-    C4
   292    293    312    310      9     0.00   0.65084   3 ;    O4'-   C1'-   C2'-   C3'
   292    293    312    313      9     0.00   0.00000   0 ;    O4'-   C1'-   C2'-   H2'
   292    293    312    313      9     0.00   1.04600   1 ;    O4'-   C1'-   C2'-   H2'
   292    293    312    314      9     0.00   0.60250   3 ;    O4'-   C1'-   C2'-   O2'
   292    293    312    314      9     0.00   4.91620   2 ;    O4'-   C1'-   C2'-   O2'
   293    292    290    310      9     0.00   1.60247   3 ;    C1'-   O4'-   C4'-   C3'
   293    292    290    310      9   180.00   0.41840   2 ;    C1'-   O4'-   C4'-   C3'
   293    295    296    297      9   180.00   7.11280   2 ;    C1'-    N9-    C8-    H8
   293    295    296    298      9   180.00   7.11280   2 ;    C1'-    N9-    C8-    N7
   293    295    309    299      9   180.00   6.90360   2 ;    C1'-    N9-    C4-    C5
   293    295    309    308      9   180.00   6.90360   2 ;    C1'-    N9-    C4-    N3
   293    312    310    311      9     0.00   0.65084   3 ;    C1'-   C2'-   C3'-   H3'
   293    312    310    316      9     0.00   0.65084   3 ;    C1'-   C2'-   C3'-   O3'
   293    312    314    315      9     0.00   0.66944   3 ;    C1'-   C2'-   O2'-  HO2'
   293    312    314    315      9     0.00   1.04600   1 ;    C1'-   C2'-   O2'-  HO2'
   294    293    295    296      9     0.00   0.00000   0 ;    H1'-   C1'-    N9-    C8
   294    293    295    309      9     0.00   0.00000   0 ;    H1'-   C1'-    N9-    C4
   294    293    312    310      9     0.00   0.65084   3 ;    H1'-   C1'-   C2'-   C3'
   294    293    312    313      9     0.00   0.65084   3 ;    H1'-   C1'-   C2'-   H2'
   294    293    312    314      9     0.00   0.65084   3 ;    H1'-   C1'-   C2'-   O2'
   295    293    312    310      9     0.00   0.65084   3 ;     N9-   C1'-   C2'-   C3'
   295    293    312    313      9     0.00   0.65084   3 ;     N9-   C1'-   C2'-   H2'
   295    293    312    314      9     0.00   0.65084   3 ;     N9-   C1'-   C2'-   O2'
   295    296    298    299      9   180.00  41.84000   2 ;     N9-    C8-    N7-    C5
   295    309    299    298      9   180.00  22.80280   2 ;     N9-    C4-    C5-    N7
   295    309    299    300      9   180.00  22.80280   2 ;     N9-    C4-    C5-    C6
   295    309    308    304      9   180.00  17.36360   2 ;     N9-    C4-    N3-    C2
   296    295    293    312      9     0.00   0.00000   0 ;     C8-    N9-   C1'-   C2'
   296    295    309    299      9   180.00   6.90360   2 ;     C8-    N9-    C4-    C5
   296    295    309    308      9   180.00   6.90360   2 ;     C8-    N9-    C4-    N3
   296    298    299    300      9   180.00  10.66920   2 ;     C8-    N7-    C5-    C6
   296    298    299    309      9   180.00  10.66920   2 ;     C8-    N7-    C5-    C4
   297    296    295    309      9   180.00   7.11280   2 ;     H8-    C8-    N9-    C4
   297    296    298    299      9   180.00  41.84000   2 ;     H8-    C8-    N7-    C5
   298    296    295    309      9   180.00   7.11280   2 ;     N7-    C8-    N9-    C4
   298    299    300    301      9   180.00  12.55200   2 ;     N7-    C5-    C6-    O6
   298    299    300    302      9   180.00  12.55200   2 ;     N7-    C5-    C6-    N1
   298    299    309    308      9   180.00  22.80280   2 ;     N7-    C5-    C4-    N3
   299    300    302    303      9   180.00   5.64840   2 ;     C5-    C6-    N1-    H1
   299    300    302    304      9   180.00   5.64840   2 ;     C5-    C6-    N1-    C2
   299    309    308    304      9   180.00  17.36360   2 ;     C5-    C4-    N3-    C2
   300    299    309    308      9   180.00  22.80280   2 ;     C6-    C5-    C4-    N3
   300    302    304    305      9   180.00   6.27600   2 ;     C6-    N1-    C2-    N2
   300    302    304    308      9   180.00   6.27600   2 ;     C6-    N1-    C2-    N3
   301    300    299    309      9   180.00  12.55200   2 ;     O6-    C6-    C5-    C4
   301    300    302    303      9   180.00   5.64840   2 ;     O6-    C6-    N1-    H1
   301    300    302    304      9   180.00   5.64840   2 ;     O6-    C6-    N1-    C2
   302    300    299    309      9   180.00  12.55200   2 ;     N1-    C6-    C5-    C4
   302    304    305    306      9   180.00  10.04160   2 ;     N1-    C2-    N2-   H21
   302    304    305    307      9   180.00  10.04160   2 ;     N1-    C2-    N2-   H22
   302    304    308    309      9   180.00  20.08320   2 ;     N1-    C2-    N3-    C4
   303    302    304    305      9   180.00   6.27600   2 ;     H1-    N1-    C2-    N2
   303    302    304    308      9   180.00   6.27600   2 ;     H1-    N1-    C2-    N3
   305    304    308    309      9   180.00  20.08320   2 ;     N2-    C2-    N3-    C4
   306    305    304    308      9   180.00  10.04160   2 ;    H21-    N2-    C2-    N3
   307    305    304    308      9   180.00  10.04160   2 ;    H22-    N2-    C2-    N3
   309    295    293    312      9     0.00   0.00000   0 ;     C4-    N9-   C1'-   C2'
   310    312    314    315      9     0.00   0.66944   3 ;    C3'-   C2'-   O2'-  HO2'
   310    312    314    315      9     0.00   1.04600   1 ;    C3'-   C2'-   O2'-  HO2'
   310    316    317    318      9     0.00   1.04600   3 ;    C3'-   O3'-     P-   OP1
   310    316    317    319      9     0.00   1.04600   3 ;    C3'-   O3'-     P-   OP2
   310    316    317    320      9     0.00   1.04600   3 ;    C3'-   O3'-     P-   O5'
   310    316    317    320      9     0.00   5.02080   2 ;    C3'-   O3'-     P-   O5'
   311    310    312    313      9     0.00   0.65084   3 ;    H3'-   C3'-   C2'-   H2'
   311    310    312    314      9     0.00   0.00000   0 ;    H3'-   C3'-   C2'-   O2'
   311    310    312    314      9     0.00   1.04600   1 ;    H3'-   C3'-   C2'-   O2'
   311    310    316    317      9     0.00   1.60387   3 ;    H3'-   C3'-   O3'-     P
   312    310    316    317      9     0.00   1.60387   3 ;    C2'-   C3'-   O3'-     P
   313    312    310    316      9     0.00   0.00000   0 ;    H2'-   C2'-   C3'-   O3'
   313    312    310    316      9     0.00   1.04600   1 ;    H2'-   C2'-   C3'-   O3'
   313    312    314    315      9     0.00   0.69733   3 ;    H2'-   C2'-   O2'-  HO2'
   314    312    310    316      9     0.00   0.60250   3 ;    O2'-   C2'-   C3'-   O3'
   314    312    310    316      9     0.00   4.91620   2 ;    O2'-   C2'-   C3'-   O3'
   317    320    321    322      9     0.00   1.60387   3 ;      P-   O5'-   C5'-   H5'
   317    320    321    323      9     0.00   1.60387   3 ;      P-   O5'-   C5'-  H5''
   317    320    321    324      9     0.00   1.60387   3 ;      P-   O5'-   C5'-   C4'
   318    317    320    321      9     0.00   1.04600   3 ;    OP1-     P-   O5'-   C5'
   319    317    320    321      9     0.00   1.04600   3 ;    OP2-     P-   O5'-   C5'
   320    321    324    325      9     0.00   0.00000   0 ;    O5'-   C5'-   C4'-   H4'
   320    321    324    325      9     0.00   1.04600   1 ;    O5'-   C5'-   C4'-   H4'
   320    321    324    326      9     0.00   0.65084   3 ;    O5'-   C5'-   C4'-   O4'
   321    324    326    327      9     0.00   1.60247   3 ;    C5'-   C4'-   O4'-   C1'
   321    324    326    327      9   180.00   0.41840   2 ;    C5'-   C4'-   O4'-   C1'
   321    324    343    344      9     0.00   0.65084   3 ;    C5'-   C4'-   C3'-   H3'
   321    324    343    345      9     0.00   0.75312   3 ;    C5'-   C4'-   C3'-   C2'
   321    324    343    345      9   180.00   0.83680   1 ;    C5'-   C4'-   C3'-   C2'
   321    324    343    345      9   180.00   1.04600   2 ;    C5'-   C4'-   C3'-   C2'
   321    324    343    349      9     0.00   0.65084   3 ;    C5'-   C4'-   C3'-   O3'
   322    321    324    325      9     0.00   0.65084   3 ;    H5'-   C5'-   C4'-   H4'
   322    321    324    326      9     0.00   0.00000   0 ;    H5'-   C5'-   C4'-   O4'
   322    321    324    326      9     0.00   1.04600   1 ;    H5'-   C5'-   C4'-   O4'
   322    321    324    343      9     0.00   0.65084   3 ;    H5'-   C5'-   C4'-   C3'
   323    321    324    325      9     0.00   0.65084   3 ;   H5''-   C5'-   C4'-   H4'
   323    321    324    326      9     0.00   0.00000   0 ;   H5''-   C5'-   C4'-   O4'
   323    321    324    326      9     0.00   1.04600   1 ;   H5''-   C5'-   C4'-   O4'
   323    321    324    343      9     0.00   0.65084   3 ;   H5''-   C5'-   C4'-   C3'
   324    326    327    328      9     0.00   1.60387   3 ;    C4'-   O4'-   C1'-   H1'
   324    326    327    329      9     0.00   1.60247   3 ;    C4'-   O4'-   C1'-    N9
   324    326    327    329      9     0.00   2.71960   2 ;    C4'-   O4'-   C1'-    N9
   324    326    327    345      9     0.00   1.60247   3 ;    C4'-   O4'-   C1'-   C2'
   324    326    327    345      9   180.00   0.41840   2 ;    C4'-   O4'-   C1'-   C2'
   324    343    345    327      9     0.00   0.75312   3 ;    C4'-   C3'-   C2'-   C1'
   324    343    345    327      9   180.00   0.83680   1 ;    C4'-   C3'-   C2'-   C1'
   324    343    345    327      9   180.00   1.04600   2 ;    C4'-   C3'-   C2'-   C1'
   324    343    345    346      9     0.00   0.65084   3 ;    C4'-   C3'-   C2'-   H2'
   324    343    345    347      9     0.00   0.65084   3 ;    C4'-   C3'-   C2'-   O2'
   324    343    349    350      9     0.00   1.60387   3 ;    C4'-   C3'-   O3'-     P
   325    324    326    327      9     0.00   1.60387   3 ;    H4'-   C4'-   O4'-   C1'
   325    324    343    344      9     0.00   0.65084   3 ;    H4'-   C4'-   C3'-   H3'
   325    324    343    345      9     0.00   0.65084   3 ;    H4'-   C4'-   C3'-   C2'
   325    324    343    349      9     0.00   0.00000   0 ;    H4'-   C4'-   C3'-   O3'
   325    324    343    349      9     0.00   1.04600   1 ;    H4'-   C4'-   C3'-   O3'
   326    324    343    344      9     0.00   0.00000   0 ;    O4'-   C4'-   C3'-   H3'
   326    324    343    344      9     0.00   1.04600   1 ;    O4'-   C4'-   C3'-   H3'
   326    324    343    345      9     0.00   0.65084   3 ;    O4'-   C4'-   C3'-   C2'
   326    324    343    349      9     0.00   0.60250   3 ;    O4'-   C4'-   C3'-   O3'
   326    324    343    349      9     0.00   4.91620   2 ;    O4'-   C4'-   C3'-   O3'
   326    327    329    330      9     0.70   7.99144   2 ;    O4'-   C1'-    N9-    C8
   326    327    329    342      9     0.00   0.00000   0 ;    O4'-   C1'-    N9-    C4
   326    327    345    343      9     0.00   0.65084   3 ;    O4'-   C1'-   C2'-   C3'
   326    327    345    346      9     0.00   0.00000   0 ;    O4'-   C1'-   C2'-   H2'
   326    327    345    346      9     0.00   1.04600   1 ;    O4'-   C1'-   C2'-   H2'
   326    327    345    347      9     0.00   0.60250   3 ;    O4'-   C1'-   C2'-   O2'
   326    327    345    347      9     0.00   4.91620   2 ;    O4'-   C1'-   C2'-   O2'
   327    326    324    343      9     0.00   1.60247   3 ;    C1'-   O4'-   C4'-   C3'
   327    326    324    343      9   180.00   0.41840   2 ;    C1'-   O4'-   C4'-   C3'
   327    329    330    331      9   180.00   7.11280   2 ;    C1'-    N9-    C8-    H8
   327    329    330    332      9   180.00   7.11280   2 ;    C1'-    N9-    C8-    N7
   327    329    342    333      9   180.00   6.90360   2 ;    C1'-    N9-    C4-    C5
   327    329    342    341      9   180.00   6.90360   2 ;    C1'-    N9-    C4-    N3
   327    345    343    344      9     0.00   0.65084   3 ;    C1'-   C2'-   C3'-   H3'
   327    345    343    349      9     0.00   0.65084   3 ;    C1'-   C2'-   C3'-   O3'
   327    345    347    348      9     0.00   0.66944   3 ;    C1'-   C2'-   O2'-  HO2'
   327    345    347    348      9     0.00   1.04600   1 ;    C1'-   C2'-   O2'-  HO2'
   328    327    329    330      9     0.00   0.00000   0 ;    H1'-   C1'-    N9-    C8
   328    327    329    342      9     0.00   0.00000   0 ;    H1'-   C1'-    N9-    C4
   328    327    345    343      9     0.00   0.65084   3 ;    H1'-   C1'-   C2'-   C3'
   328    327    345    346      9     0.00   0.65084   3 ;    H1'-   C1'-   C2'-   H2'
   328    327    345    347      9     0.00   0.65084   3 ;    H1'-   C1'-   C2'-   O2'
   329    327    345    343      9     0.00   0.65084   3 ;     N9-   C1'-   C2'-   C3'
   329    327    345    346      9     0.00   0.65084   3 ;     N9-   C1'-   C2'-   H2'
   329    327    345    347      9     0.00   0.65084   3 ;     N9-   C1'-   C2'-   O2'
   329    330    332    333      9   180.00  41.84000   2 ;     N9-    C8-    N7-    C5
   329    342    333    332      9   180.00  22.80280   2 ;     N9-    C4-    C5-    N7
   329    342    333    334      9   180.00  22.80280   2 ;     N9-    C4-    C5-    C6
   329    342    341    339      9   180.00  17.36360   2 ;     N9-    C4-    N3-    C2
   330    329    327    345      9     0.00   0.00000   0 ;     C8-    N9-   C1'-   C2'
   330    329    342    333      9   180.00   6.90360   2 ;     C8-    N9-    C4-    C5
   330    329    342    341      9   180.00   6.90360   2 ;     C8-    N9-    C4-    N3
   330    332    333    334      9   180.00  10.66920   2 ;     C8-    N7-    C5-    C6
   330    332    333    342      9   180.00  10.66920   2 ;     C8-    N7-    C5-    C4
   331    330    329    342      9   180.00   7.11280   2 ;     H8-    C8-    N9-    C4
   331    330    332    333      9   180.00  41.84000   2 ;     H8-    C8-    N7-    C5
   332    330    329    342      9   180.00   7.11280   2 ;     N7-    C8-    N9-    C4
   332    333    334    335      9   180.00  14.64400   2 ;     N7-    C5-    C6-    N6
   332    333    334    338      9   180.00  14.64400   2 ;     N7-    C5-    C6-    N1
   332    333    342    341      9   180.00  22.80280   2 ;     N7-    C5-    C4-    N3
   333    334    335    336      9   180.00  10.04160   2 ;     C5-    C6-    N6-   H61
   333    334    335    337      9   180.00  10.04160   2 ;     C5-    C6-    N6-   H62
   333    334    338    339      9   180.00  20.08320   2 ;     C5-    C6-    N1-    C2
   333    342    341    339      9   180.00  17.36360   2 ;     C5-    C4-    N3-    C2
   334    333    342    341      9   180.00  22.80280   2 ;     C6-    C5-    C4-    N3
   334    338    339    340      9   180.00  28.45120   2 ;     C6-    N1-    C2-    H2
   334    338    339    341      9   180.00  28.45120   2 ;     C6-    N1-    C2-    N3
   335    334    333    342      9   180.00  14.64400   2 ;     N6-    C6-    C5-    C4
   335    334    338    339      9   180.00  20.08320   2 ;     N6-    C6-    N1-    C2
   336    335    334    338      9   180.00  10.04160   2 ;    H61-    N6-    C6-    N1
   337    335    334    338      9   180.00  10.04160   2 ;    H62-    N6-    C6-    N1
   338    334    333    342      9   180.00  14.64400   2 ;     N1-    C6-    C5-    C4
   338    339    341    342      9   180.00  28.45120   2 ;     N1-    C2-    N3-    C4
   340    339    341    342      9   180.00  28.45120   2 ;     H2-    C2-    N3-    C4
   342    329    327    345      9     0.00   0.00000   0 ;     C4-    N9-   C1'-   C2'
   343    345    347    348      9     0.00   0.66944   3 ;    C3'-   C2'-   O2'-  HO2'
   343    345    347    348      9     0.00   1.04600   1 ;    C3'-   C2'-   O2'-  HO2'
   343    349    350    351      9     0.00   1.04600   3 ;    C3'-   O3'-     P-   OP1
   343    349    350    352      9     0.00   1.04600   3 ;    C3'-   O3'-     P-   OP2
   343    349    350    353      9     0.00   1.04600   3 ;    C3'-   O3'-     P-   O5'
   343    349    350    353      9     0.00   5.02080   2 ;    C3'-   O3'-     P-   O5'
   344    343    345    346      9     0.00   0.65084   3 ;    H3'-   C3'-   C2'-   H2'
   344    343    345    347      9     0.00   0.00000   0 ;    H3'-   C3'-   C2'-   O2'
   344    343    345    347      9     0.00   1.04600   1 ;    H3'-   C3'-   C2'-   O2'
   344    343    349    350      9     0.00   1.60387   3 ;    H3'-   C3'-   O3'-     P
   345    343    349    350      9     0.00   1.60387   3 ;    C2'-   C3'-   O3'-     P
   346    345    343    349      9     0.00   0.00000   0 ;    H2'-   C2'-   C3'-   O3'
   346    345    343    349      9     0.00   1.04600   1 ;    H2'-   C2'-   C3'-   O3'
   346    345    347    348      9     0.00   0.69733   3 ;    H2'-   C2'-   O2'-  HO2'
   347    345    343    349      9     0.00   0.60250   3 ;    O2'-   C2'-   C3'-   O3'
   347    345    343    349      9     0.00   4.91620   2 ;    O2'-   C2'-   C3'-   O3'
   350    353    354    355      9     0.00   1.60387   3 ;      P-   O5'-   C5'-   H5'
   350    353    354    356      9     0.00   1.60387   3 ;      P-   O5'-   C5'-  H5''
   350    353    354    357      9     0.00   1.60387   3 ;      P-   O5'-   C5'-   C4'
   351    350    353    354      9     0.00   1.04600   3 ;    OP1-     P-   O5'-   C5'
   352    350    353    354      9     0.00   1.04600   3 ;    OP2-     P-   O5'-   C5'
   353    354    357    358      9     0.00   0.00000   0 ;    O5'-   C5'-   C4'-   H4'
   353    354    357    358      9     0.00   1.04600   1 ;    O5'-   C5'-   C4'-   H4'
   353    354    357    359      9     0.00   0.65084   3 ;    O5'-   C5'-   C4'-   O4'
   354    357    359    360      9     0.00   1.60247   3 ;    C5'-   C4'-   O4'-   C1'
   354    357    359    360      9   180.00   0.41840   2 ;    C5'-   C4'-   O4'-   C1'
   354    357    377    378      9     0.00   0.65084   3 ;    C5'-   C4'-   C3'-   H3'
   354    357    377    379      9     0.00   0.75312   3 ;    C5'-   C4'-   C3'-   C2'
   354    357    377    379      9   180.00   0.83680   1 ;    C5'-   C4'-   C3'-   C2'
   354    357    377    379      9   180.00   1.04600   2 ;    C5'-   C4'-   C3'-   C2'
   354    357    377    383      9     0.00   0.65084   3 ;    C5'-   C4'-   C3'-   O3'
   355    354    357    358      9     0.00   0.65084   3 ;    H5'-   C5'-   C4'-   H4'
   355    354    357    359      9     0.00   0.00000   0 ;    H5'-   C5'-   C4'-   O4'
   355    354    357    359      9     0.00   1.04600   1 ;    H5'-   C5'-   C4'-   O4'
   355    354    357    377      9     0.00   0.65084   3 ;    H5'-   C5'-   C4'-   C3'
   356    354    357    358      9     0.00   0.65084   3 ;   H5''-   C5'-   C4'-   H4'
   356    354    357    359      9     0.00   0.00000   0 ;   H5''-   C5'-   C4'-   O4'
   356    354    357    359      9     0.00   1.04600   1 ;   H5''-   C5'-   C4'-   O4'
   356    354    357    377      9     0.00   0.65084   3 ;   H5''-   C5'-   C4'-   C3'
   357    359    360    361      9     0.00   1.60387   3 ;    C4'-   O4'-   C1'-   H1'
   357    359    360    362      9     0.00   1.60247   3 ;    C4'-   O4'-   C1'-    N9
   357    359    360    362      9     0.00   2.71960   2 ;    C4'-   O4'-   C1'-    N9
   357    359    360    379      9     0.00   1.60247   3 ;    C4'-   O4'-   C1'-   C2'
   357    359    360    379      9   180.00   0.41840   2 ;    C4'-   O4'-   C1'-   C2'
   357    377    379    360      9     0.00   0.75312   3 ;    C4'-   C3'-   C2'-   C1'
   357    377    379    360      9   180.00   0.83680   1 ;    C4'-   C3'-   C2'-   C1'
   357    377    379    360      9   180.00   1.04600   2 ;    C4'-   C3'-   C2'-   C1'
   357    377    379    380      9     0.00   0.65084   3 ;    C4'-   C3'-   C2'-   H2'
   357    377    379    381      9     0.00   0.65084   3 ;    C4'-   C3'-   C2'-   O2'
   357    377    383    384      9     0.00   1.60387   3 ;    C4'-   C3'-   O3'-     P
   358    357    359    360      9     0.00   1.60387   3 ;    H4'-   C4'-   O4'-   C1'
   358    357    377    378      9     0.00   0.65084   3 ;    H4'-   C4'-   C3'-   H3'
   358    357    377    379      9     0.00   0.65084   3 ;    H4'-   C4'-   C3'-   C2'
   358    357    377    383      9     0.00   0.00000   0 ;    H4'-   C4'-   C3'-   O3'
   358    357    377    383      9     0.00   1.04600   1 ;    H4'-   C4'-   C3'-   O3'
   359    357    377    378      9     0.00   0.00000   0 ;    O4'-   C4'-   C3'-   H3'
   359    357    377    378      9     0.00   1.04600   1 ;    O4'-   C4'-   C3'-   H3'
   359    357    377    379      9     0.00   0.65084   3 ;    O4'-   C4'-   C3'-   C2'
   359    357    377    383      9     0.00   0.60250   3 ;    O4'-   C4'-   C3'-   O3'
   359    357    377    383      9     0.00   4.91620   2 ;    O4'-   C4'-   C3'-   O3'
   359    360    362    376      9     0.00   0.00000   0 ;    O4'-   C1'-    N9-    C4
   359    360    379    377      9     0.00   0.65084   3 ;    O4'-   C1'-   C2'-   C3'
   359    360    379    380      9     0.00   0.00000   0 ;    O4'-   C1'-   C2'-   H2'
   359    360    379    380      9     0.00   1.04600   1 ;    O4'-   C1'-   C2'-   H2'
   359    360    379    381      9     0.00   0.60250   3 ;    O4'-   C1'-   C2'-   O2'
   359    360    379    381      9     0.00   4.91620   2 ;    O4'-   C1'-   C2'-   O2'
   360    359    357    377      9     0.00   1.60247   3 ;    C1'-   O4'-   C4'-   C3'
   360    359    357    377      9   180.00   0.41840   2 ;    C1'-   O4'-   C4'-   C3'
   360    362    363    364      9   180.00   7.11280   2 ;    C1'-    N9-    C8-    H8
   360    362    363    365      9   180.00   7.11280   2 ;    C1'-    N9-    C8-    N7
   360    362    376    366      9   180.00   6.90360   2 ;    C1'-    N9-    C4-    C5
   360    362    376    375      9   180.00   6.90360   2 ;    C1'-    N9-    C4-    N3
   360    379    377    378      9     0.00   0.65084   3 ;    C1'-   C2'-   C3'-   H3'
   360    379    377    383      9     0.00   0.65084   3 ;    C1'-   C2'-   C3'-   O3'
   360    379    381    382      9     0.00   0.66944   3 ;    C1'-   C2'-   O2'-  HO2'
   360    379    381    382      9     0.00   1.04600   1 ;    C1'-   C2'-   O2'-  HO2'
   361    360    362    363      9     0.00   0.00000   0 ;    H1'-   C1'-    N9-    C8
   361    360    362    376      9     0.00   0.00000   0 ;    H1'-   C1'-    N9-    C4
   361    360    379    377      9     0.00   0.65084   3 ;    H1'-   C1'-   C2'-   C3'
   361    360    379    380      9     0.00   0.65084   3 ;    H1'-   C1'-   C2'-   H2'
   361    360    379    381      9     0.00   0.65084   3 ;    H1'-   C1'-   C2'-   O2'
   362    360    379    377      9     0.00   0.65084   3 ;     N9-   C1'-   C2'-   C3'
   362    360    379    380      9     0.00   0.65084   3 ;     N9-   C1'-   C2'-   H2'
   362    360    379    381      9     0.00   0.65084   3 ;     N9-   C1'-   C2'-   O2'
   362    363    365    366      9   180.00  41.84000   2 ;     N9-    C8-    N7-    C5
   362    376    366    365      9   180.00  22.80280   2 ;     N9-    C4-    C5-    N7
   362    376    366    367      9   180.00  22.80280   2 ;     N9-    C4-    C5-    C6
   362    376    375    371      9   180.00  17.36360   2 ;     N9-    C4-    N3-    C2
   363    362    360    379      9     0.00   0.00000   0 ;     C8-    N9-   C1'-   C2'
   363    362    376    366      9   180.00   6.90360   2 ;     C8-    N9-    C4-    C5
   363    362    376    375      9   180.00   6.90360   2 ;     C8-    N9-    C4-    N3
   363    365    366    367      9   180.00  10.66920   2 ;     C8-    N7-    C5-    C6
   363    365    366    376      9   180.00  10.66920   2 ;     C8-    N7-    C5-    C4
   364    363    362    376      9   180.00   7.11280   2 ;     H8-    C8-    N9-    C4
   364    363    365    366      9   180.00  41.84000   2 ;     H8-    C8-    N7-    C5
   365    363    362    376      9   180.00   7.11280   2 ;     N7-    C8-    N9-    C4
   365    366    367    368      9   180.00  12.55200   2 ;     N7-    C5-    C6-    O6
   365    366    367    369      9   180.00  12.55200   2 ;     N7-    C5-    C6-    N1
   365    366    376    375      9   180.00  22.80280   2 ;     N7-    C5-    C4-    N3
   366    367    369    370      9   180.00   5.64840   2 ;     C5-    C6-    N1-    H1
   366    367    369    371      9   180.00   5.64840   2 ;     C5-    C6-    N1-    C2
   366    376    375    371      9   180.00  17.36360   2 ;     C5-    C4-    N3-    C2
   367    366    376    375      9   180.00  22.80280   2 ;     C6-    C5-    C4-    N3
   367    369    371    372      9   180.00   6.27600   2 ;     C6-    N1-    C2-    N2
   367    369    371    375      9   180.00   6.27600   2 ;     C6-    N1-    C2-    N3
   368    367    366    376      9   180.00  12.55200   2 ;     O6-    C6-    C5-    C4
   368    367    369    370      9   180.00   5.64840   2 ;     O6-    C6-    N1-    H1
   368    367    369    371      9   180.00   5.64840   2 ;     O6-    C6-    N1-    C2
   369    367    366    376      9   180.00  12.55200   2 ;     N1-    C6-    C5-    C4
   369    371    372    373      9   180.00  10.04160   2 ;     N1-    C2-    N2-   H21
   369    371    372    374      9   180.00  10.04160   2 ;     N1-    C2-    N2-   H22
   369    371    375    376      9   180.00  20.08320   2 ;     N1-    C2-    N3-    C4
   370    369    371    372      9   180.00   6.27600   2 ;     H1-    N1-    C2-    N2
   370    369    371    375      9   180.00   6.27600   2 ;     H1-    N1-    C2-    N3
   372    371    375    376      9   180.00  20.08320   2 ;     N2-    C2-    N3-    C4
   373    372    371    375      9   180.00  10.04160   2 ;    H21-    N2-    C2-    N3
   374    372    371    375      9   180.00  10.04160   2 ;    H22-    N2-    C2-    N3
   376    362    360    379      9     0.00   0.00000   0 ;     C4-    N9-   C1'-   C2'
   377    379    381    382      9     0.00   0.66944   3 ;    C3'-   C2'-   O2'-  HO2'
   377    379    381    382      9     0.00   1.04600   1 ;    C3'-   C2'-   O2'-  HO2'
   377    383    384    385      9     0.00   1.04600   3 ;    C3'-   O3'-     P-   OP1
   377    383    384    386      9     0.00   1.04600   3 ;    C3'-   O3'-     P-   OP2
   377    383    384    387      9     0.00   1.04600   3 ;    C3'-   O3'-     P-   O5'
   377    383    384    387      9     0.00   5.02080   2 ;    C3'-   O3'-     P-   O5'
   378    377    379    380      9     0.00   0.65084   3 ;    H3'-   C3'-   C2'-   H2'
   378    377    379    381      9     0.00   0.00000   0 ;    H3'-   C3'-   C2'-   O2'
   378    377    379    381      9     0.00   1.04600   1 ;    H3'-   C3'-   C2'-   O2'
   378    377    383    384      9     0.00   1.60387   3 ;    H3'-   C3'-   O3'-     P
   379    377    383    384      9     0.00   1.60387   3 ;    C2'-   C3'-   O3'-     P
   380    379    377    383      9     0.00   0.00000   0 ;    H2'-   C2'-   C3'-   O3'
   380    379    377    383      9     0.00   1.04600   1 ;    H2'-   C2'-   C3'-   O3'
   380    379    381    382      9     0.00   0.69733   3 ;    H2'-   C2'-   O2'-  HO2'
   381    379    377    383      9     0.00   0.60250   3 ;    O2'-   C2'-   C3'-   O3'
   381    379    377    383      9     0.00   4.91620   2 ;    O2'-   C2'-   C3'-   O3'
   384    387    388    389      9     0.00   1.60387   3 ;      P-   O5'-   C5'-   H5'
   384    387    388    390      9     0.00   1.60387   3 ;      P-   O5'-   C5'-  H5''
   384    387    388    391      9     0.00   1.60387   3 ;      P-   O5'-   C5'-   C4'
   385    384    387    388      9     0.00   1.04600   3 ;    OP1-     P-   O5'-   C5'
   386    384    387    388      9     0.00   1.04600   3 ;    OP2-     P-   O5'-   C5'
   387    388    391    392      9     0.00   0.00000   0 ;    O5'-   C5'-   C4'-   H4'
   387    388    391    392      9     0.00   1.04600   1 ;    O5'-   C5'-   C4'-   H4'
   387    388    391    393      9     0.00   0.65084   3 ;    O5'-   C5'-   C4'-   O4'
   388    391    393    394      9     0.00   1.60247   3 ;    C5'-   C4'-   O4'-   C1'
   388    391    393    394      9   180.00   0.41840   2 ;    C5'-   C4'-   O4'-   C1'
   388    391    408    409      9     0.00   0.65084   3 ;    C5'-   C4'-   C3'-   H3'
   388    391    408    410      9     0.00   0.75312   3 ;    C5'-   C4'-   C3'-   C2'
   388    391    408    410      9   180.00   0.83680   1 ;    C5'-   C4'-   C3'-   C2'
   388    391    408    410      9   180.00   1.04600   2 ;    C5'-   C4'-   C3'-   C2'
   388    391    408    414      9     0.00   0.65084   3 ;    C5'-   C4'-   C3'-   O3'
   389    388    391    392      9     0.00   0.65084   3 ;    H5'-   C5'-   C4'-   H4'
   389    388    391    393      9     0.00   0.00000   0 ;    H5'-   C5'-   C4'-   O4'
   389    388    391    393      9     0.00   1.04600   1 ;    H5'-   C5'-   C4'-   O4'
   389    388    391    408      9     0.00   0.65084   3 ;    H5'-   C5'-   C4'-   C3'
   390    388    391    392      9     0.00   0.65084   3 ;   H5''-   C5'-   C4'-   H4'
   390    388    391    393      9     0.00   0.00000   0 ;   H5''-   C5'-   C4'-   O4'
   390    388    391    393      9     0.00   1.04600   1 ;   H5''-   C5'-   C4'-   O4'
   390    388    391    408      9     0.00   0.65084   3 ;   H5''-   C5'-   C4'-   C3'
   391    393    394    395      9     0.00   1.60387   3 ;    C4'-   O4'-   C1'-   H1'
   391    393    394    396      9     0.00   1.60247   3 ;    C4'-   O4'-   C1'-    N1
   391    393    394    396      9     0.00   2.71960   2 ;    C4'-   O4'-   C1'-    N1
   391    393    394    410      9     0.00   1.60247   3 ;    C4'-   O4'-   C1'-   C2'
   391    393    394    410      9   180.00   0.41840   2 ;    C4'-   O4'-   C1'-   C2'
   391    408    410    394      9     0.00   0.75312   3 ;    C4'-   C3'-   C2'-   C1'
   391    408    410    394      9   180.00   0.83680   1 ;    C4'-   C3'-   C2'-   C1'
   391    408    410    394      9   180.00   1.04600   2 ;    C4'-   C3'-   C2'-   C1'
   391    408    410    411      9     0.00   0.65084   3 ;    C4'-   C3'-   C2'-   H2'
   391    408    410    412      9     0.00   0.65084   3 ;    C4'-   C3'-   C2'-   O2'
   391    408    414    415      9     0.00   1.60387   3 ;    C4'-   C3'-   O3'-     P
   392    391    393    394      9     0.00   1.60387   3 ;    H4'-   C4'-   O4'-   C1'
   392    391    408    409      9     0.00   0.65084   3 ;    H4'-   C4'-   C3'-   H3'
   392    391    408    410      9     0.00   0.65084   3 ;    H4'-   C4'-   C3'-   C2'
   392    391    408    414      9     0.00   0.00000   0 ;    H4'-   C4'-   C3'-   O3'
   392    391    408    414      9     0.00   1.04600   1 ;    H4'-   C4'-   C3'-   O3'
   393    391    408    409      9     0.00   0.00000   0 ;    O4'-   C4'-   C3'-   H3'
   393    391    408    409      9     0.00   1.04600   1 ;    O4'-   C4'-   C3'-   H3'
   393    391    408    410      9     0.00   0.65084   3 ;    O4'-   C4'-   C3'-   C2'
   393    391    408    414      9     0.00   0.60250   3 ;    O4'-   C4'-   C3'-   O3'
   393    391    408    414      9     0.00   4.91620   2 ;    O4'-   C4'-   C3'-   O3'
   393    394    396    406      9     0.00   0.00000   0 ;    O4'-   C1'-    N1-    C2
   393    394    410    408      9     0.00   0.65084   3 ;    O4'-   C1'-   C2'-   C3'
   393    394    410    411      9     0.00   0.00000   0 ;    O4'-   C1'-   C2'-   H2'
   393    394    410    411      9     0.00   1.04600   1 ;    O4'-   C1'-   C2'-   H2'
   393    394    410    412      9     0.00   0.60250   3 ;    O4'-   C1'-   C2'-   O2'
   393    394    410    412      9     0.00   4.91620   2 ;    O4'-   C1'-   C2'-   O2'
   394    393    391    408      9     0.00   1.60247   3 ;    C1'-   O4'-   C4'-   C3'
   394    393    391    408      9   180.00   0.41840   2 ;    C1'-   O4'-   C4'-   C3'
   394    396    397    398      9   180.00   7.74040   2 ;    C1'-    N1-    C6-    H6
   394    396    397    399      9   180.00   7.74040   2 ;    C1'-    N1-    C6-    C5
   394    396    406    405      9   180.00   6.06680   2 ;    C1'-    N1-    C2-    N3
   394    396    406    407      9   180.00   6.06680   2 ;    C1'-    N1-    C2-    O2
   394    410    408    409      9     0.00   0.65084   3 ;    C1'-   C2'-   C3'-   H3'
   394    410    408    414      9     0.00   0.65084   3 ;    C1'-   C2'-   C3'-   O3'
   394    410    412    413      9     0.00   0.66944   3 ;    C1'-   C2'-   O2'-  HO2'
   394    410    412    413      9     0.00   1.04600   1 ;    C1'-   C2'-   O2'-  HO2'
   395    394    396    397      9     0.00   0.00000   0 ;    H1'-   C1'-    N1-    C6
   395    394    396    406      9     0.00   0.00000   0 ;    H1'-   C1'-    N1-    C2
   395    394    410    408      9     0.00   0.65084   3 ;    H1'-   C1'-   C2'-   C3'
   395    394    410    411      9     0.00   0.65084   3 ;    H1'-   C1'-   C2'-   H2'
   395    394    410    412      9     0.00   0.65084   3 ;    H1'-   C1'-   C2'-   O2'
   396    394    410    408      9     0.00   0.65084   3 ;     N1-   C1'-   C2'-   C3'
   396    394    410    411      9     0.00   0.65084   3 ;     N1-   C1'-   C2'-   H2'
   396    394    410    412      9     0.00   0.65084   3 ;     N1-   C1'-   C2'-   O2'
   396    397    399    400      9   180.00  27.82360   2 ;     N1-    C6-    C5-    H5
   396    397    399    401      9   180.00  27.82360   2 ;     N1-    C6-    C5-    C4
   396    406    405    401      9   180.00  16.73600   2 ;     N1-    C2-    N3-    C4
   397    396    394    410      9     0.00   0.00000   0 ;     C6-    N1-   C1'-   C2'
   397    396    406    405      9   180.00   6.06680   2 ;     C6-    N1-    C2-    N3
   397    396    406    407      9   180.00   6.06680   2 ;     C6-    N1-    C2-    O2
   397    399    401    402      9   180.00  10.66920   2 ;     C6-    C5-    C4-    N4
   397    399    401    405      9   180.00  10.66920   2 ;     C6-    C5-    C4-    N3
   398    397    396    406      9   180.00   7.74040   2 ;     H6-    C6-    N1-    C2
   398    397    399    400      9   180.00  27.82360   2 ;     H6-    C6-    C5-    H5
   398    397    399    401      9   180.00  27.82360   2 ;     H6-    C6-    C5-    C4
   399    397    396    406      9   180.00   7.74040   2 ;     C5-    C6-    N1-    C2
   399    401    402    403      9   180.00  10.04160   2 ;     C5-    C4-    N4-   H41
   399    401    402    404      9   180.00  10.04160   2 ;     C5-    C4-    N4-   H42
   399    401    405    406      9   180.00  20.08320   2 ;     C5-    C4-    N3-    C2
   400    399    401    402      9   180.00  10.66920   2 ;     H5-    C5-    C4-    N4
   400    399    401    405      9   180.00  10.66920   2 ;     H5-    C5-    C4-    N3
   401    405    406    407      9   180.00  16.73600   2 ;     C4-    N3-    C2-    O2
   402    401    405    406      9   180.00  20.08320   2 ;     N4-    C4-    N3-    C2
   403    402    401    405      9   180.00  10.04160   2 ;    H41-    N4-    C4-    N3
   404    402    401    405      9   180.00  10.04160   2 ;    H42-    N4-    C4-    N3
   406    396    394    410      9     0.00   0.00000   0 ;     C2-    N1-   C1'-   C2'
   408    410    412    413      9     0.00   0.66944   3 ;    C3'-   C2'-   O2'-  HO2'
   408    410    412    413      9     0.00   1.04600   1 ;    C3'-   C2'-   O2'-  HO2'
   408    414    415    416      9     0.00   1.04600   3 ;    C3'-   O3'-     P-   OP1
   408    414    415    417      9     0.00   1.04600   3 ;    C3'-   O3'-     P-   OP2
   408    414    415    418      9     0.00   1.04600   3 ;    C3'-   O3'-     P-   O5'
   408    414    415    418      9     0.00   5.02080   2 ;    C3'-   O3'-     P-   O5'
   409    408    410    411      9     0.00   0.65084   3 ;    H3'-   C3'-   C2'-   H2'
   409    408    410    412      9     0.00   0.00000   0 ;    H3'-   C3'-   C2'-   O2'
   409    408    410    412      9     0.00   1.04600   1 ;    H3'-   C3'-   C2'-   O2'
   409    408    414    415      9     0.00   1.60387   3 ;    H3'-   C3'-   O3'-     P
   410    408    414    415      9     0.00   1.60387   3 ;    C2'-   C3'-   O3'-     P
   411    410    408    414      9     0.00   0.00000   0 ;    H2'-   C2'-   C3'-   O3'
   411    410    408    414      9     0.00   1.04600   1 ;    H2'-   C2'-   C3'-   O3'
   411    410    412    413      9     0.00   0.69733   3 ;    H2'-   C2'-   O2'-  HO2'
   412    410    408    414      9     0.00   0.60250   3 ;    O2'-   C2'-   C3'-   O3'
   412    410    408    414      9     0.00   4.91620   2 ;    O2'-   C2'-   C3'-   O3'
   415    418    419    420      9     0.00   1.60387   3 ;      P-   O5'-   C5'-   H5'
   415    418    419    421      9     0.00   1.60387   3 ;      P-   O5'-   C5'-  H5''
   415    418    419    422      9     0.00   1.60387   3 ;      P-   O5'-   C5'-   C4'
   416    415    418    419      9     0.00   1.04600   3 ;    OP1-     P-   O5'-   C5'
   417    415    418    419      9     0.00   1.04600   3 ;    OP2-     P-   O5'-   C5'
   418    419    422    423      9     0.00   0.00000   0 ;    O5'-   C5'-   C4'-   H4'
   418    419    422    423      9     0.00   1.04600   1 ;    O5'-   C5'-   C4'-   H4'
   418    419    422    424      9     0.00   0.65084   3 ;    O5'-   C5'-   C4'-   O4'
   419    422    424    425      9     0.00   1.60247   3 ;    C5'-   C4'-   O4'-   C1'
   419    422    424    425      9   180.00   0.41840   2 ;    C5'-   C4'-   O4'-   C1'
   419    422    442    443      9     0.00   0.65084   3 ;    C5'-   C4'-   C3'-   H3'
   419    422    442    444      9     0.00   0.75312   3 ;    C5'-   C4'-   C3'-   C2'
   419    422    442    444      9   180.00   0.83680   1 ;    C5'-   C4'-   C3'-   C2'
   419    422    442    444      9   180.00   1.04600   2 ;    C5'-   C4'-   C3'-   C2'
   419    422    442    448      9     0.00   0.65084   3 ;    C5'-   C4'-   C3'-   O3'
   420    419    422    423      9     0.00   0.65084   3 ;    H5'-   C5'-   C4'-   H4'
   420    419    422    424      9     0.00   0.00000   0 ;    H5'-   C5'-   C4'-   O4'
   420    419    422    424      9     0.00   1.04600   1 ;    H5'-   C5'-   C4'-   O4'
   420    419    422    442      9     0.00   0.65084   3 ;    H5'-   C5'-   C4'-   C3'
   421    419    422    423      9     0.00   0.65084   3 ;   H5''-   C5'-   C4'-   H4'
   421    419    422    424      9     0.00   0.00000   0 ;   H5''-   C5'-   C4'-   O4'
   421    419    422    424      9     0.00   1.04600   1 ;   H5''-   C5'-   C4'-   O4'
   421    419    422    442      9     0.00   0.65084   3 ;   H5''-   C5'-   C4'-   C3'
   422    424    425    426      9     0.00   1.60387   3 ;    C4'-   O4'-   C1'-   H1'
   422    424    425    427      9     0.00   1.60247   3 ;    C4'-   O4'-   C1'-    N9
   422    424    425    427      9     0.00   2.71960   2 ;    C4'-   O4'-   C1'-    N9
   422    424    425    444      9     0.00   1.60247   3 ;    C4'-   O4'-   C1'-   C2'
   422    424    425    444      9   180.00   0.41840   2 ;    C4'-   O4'-   C1'-   C2'
   422    442    444    425      9     0.00   0.75312   3 ;    C4'-   C3'-   C2'-   C1'
   422    442    444    425      9   180.00   0.83680   1 ;    C4'-   C3'-   C2'-   C1'
   422    442    444    425      9   180.00   1.04600   2 ;    C4'-   C3'-   C2'-   C1'
   422    442    444    445      9     0.00   0.65084   3 ;    C4'-   C3'-   C2'-   H2'
   422    442    444    446      9     0.00   0.65084   3 ;    C4'-   C3'-   C2'-   O2'
   422    442    448    449      9     0.00   1.60387   3 ;    C4'-   C3'-   O3'-     P
   423    422    424    425      9     0.00   1.60387   3 ;    H4'-   C4'-   O4'-   C1'
   423    422    442    443      9     0.00   0.65084   3 ;    H4'-   C4'-   C3'-   H3'
   423    422    442    444      9     0.00   0.65084   3 ;    H4'-   C4'-   C3'-   C2'
   423    422    442    448      9     0.00   0.00000   0 ;    H4'-   C4'-   C3'-   O3'
   423    422    442    448      9     0.00   1.04600   1 ;    H4'-   C4'-   C3'-   O3'
   424    422    442    443      9     0.00   0.00000   0 ;    O4'-   C4'-   C3'-   H3'
   424    422    442    443      9     0.00   1.04600   1 ;    O4'-   C4'-   C3'-   H3'
   424    422    442    444      9     0.00   0.65084   3 ;    O4'-   C4'-   C3'-   C2'
   424    422    442    448      9     0.00   0.60250   3 ;    O4'-   C4'-   C3'-   O3'
   424    422    442    448      9     0.00   4.91620   2 ;    O4'-   C4'-   C3'-   O3'
   424    425    427    441      9     0.00   0.00000   0 ;    O4'-   C1'-    N9-    C4
   424    425    444    442      9     0.00   0.65084   3 ;    O4'-   C1'-   C2'-   C3'
   424    425    444    445      9     0.00   0.00000   0 ;    O4'-   C1'-   C2'-   H2'
   424    425    444    445      9     0.00   1.04600   1 ;    O4'-   C1'-   C2'-   H2'
   424    425    444    446      9     0.00   0.60250   3 ;    O4'-   C1'-   C2'-   O2'
   424    425    444    446      9     0.00   4.91620   2 ;    O4'-   C1'-   C2'-   O2'
   425    424    422    442      9     0.00   1.60247   3 ;    C1'-   O4'-   C4'-   C3'
   425    424    422    442      9   180.00   0.41840   2 ;    C1'-   O4'-   C4'-   C3'
   425    427    428    429      9   180.00   7.11280   2 ;    C1'-    N9-    C8-    H8
   425    427    428    430      9   180.00   7.11280   2 ;    C1'-    N9-    C8-    N7
   425    427    441    431      9   180.00   6.90360   2 ;    C1'-    N9-    C4-    C5
   425    427    441    440      9   180.00   6.90360   2 ;    C1'-    N9-    C4-    N3
   425    444    442    443      9     0.00   0.65084   3 ;    C1'-   C2'-   C3'-   H3'
   425    444    442    448      9     0.00   0.65084   3 ;    C1'-   C2'-   C3'-   O3'
   425    444    446    447      9     0.00   0.66944   3 ;    C1'-   C2'-   O2'-  HO2'
   425    444    446    447      9     0.00   1.04600   1 ;    C1'-   C2'-   O2'-  HO2'
   426    425    427    428      9     0.00   0.00000   0 ;    H1'-   C1'-    N9-    C8
   426    425    427    441      9     0.00   0.00000   0 ;    H1'-   C1'-    N9-    C4
   426    425    444    442      9     0.00   0.65084   3 ;    H1'-   C1'-   C2'-   C3'
   426    425    444    445      9     0.00   0.65084   3 ;    H1'-   C1'-   C2'-   H2'
   426    425    444    446      9     0.00   0.65084   3 ;    H1'-   C1'-   C2'-   O2'
   427    425    444    442      9     0.00   0.65084   3 ;     N9-   C1'-   C2'-   C3'
   427    425    444    445      9     0.00   0.65084   3 ;     N9-   C1'-   C2'-   H2'
   427    425    444    446      9     0.00   0.65084   3 ;     N9-   C1'-   C2'-   O2'
   427    428    430    431      9   180.00  41.84000   2 ;     N9-    C8-    N7-    C5
   427    441    431    430      9   180.00  22.80280   2 ;     N9-    C4-    C5-    N7
   427    441    431    432      9   180.00  22.80280   2 ;     N9-    C4-    C5-    C6
   427    441    440    436      9   180.00  17.36360   2 ;     N9-    C4-    N3-    C2
   428    427    425    444      9     0.00   0.00000   0 ;     C8-    N9-   C1'-   C2'
   428    427    441    431      9   180.00   6.90360   2 ;     C8-    N9-    C4-    C5
   428    427    441    440      9   180.00   6.90360   2 ;     C8-    N9-    C4-    N3
   428    430    431    432      9   180.00  10.66920   2 ;     C8-    N7-    C5-    C6
   428    430    431    441      9   180.00  10.66920   2 ;     C8-    N7-    C5-    C4
   429    428    427    441      9   180.00   7.11280   2 ;     H8-    C8-    N9-    C4
   429    428    430    431      9   180.00  41.84000   2 ;     H8-    C8-    N7-    C5
   430    428    427    441      9   180.00   7.11280   2 ;     N7-    C8-    N9-    C4
   430    431    432    433      9   180.00  12.55200   2 ;     N7-    C5-    C6-    O6
   430    431    432    434      9   180.00  12.55200   2 ;     N7-    C5-    C6-    N1
   430    431    441    440      9   180.00  22.80280   2 ;     N7-    C5-    C4-    N3
   431    432    434    435      9   180.00   5.64840   2 ;     C5-    C6-    N1-    H1
   431    432    434    436      9   180.00   5.64840   2 ;     C5-    C6-    N1-    C2
   431    441    440    436      9   180.00  17.36360   2 ;     C5-    C4-    N3-    C2
   432    431    441    440      9   180.00  22.80280   2 ;     C6-    C5-    C4-    N3
   432    434    436    437      9   180.00   6.27600   2 ;     C6-    N1-    C2-    N2
   432    434    436    440      9   180.00   6.27600   2 ;     C6-    N1-    C2-    N3
   433    432    431    441      9   180.00  12.55200   2 ;     O6-    C6-    C5-    C4
   433    432    434    435      9   180.00   5.64840   2 ;     O6-    C6-    N1-    H1
   433    432    434    436      9   180.00   5.64840   2 ;     O6-    C6-    N1-    C2
   434    432    431    441      9   180.00  12.55200   2 ;     N1-    C6-    C5-    C4
   434    436    437    438      9   180.00  10.04160   2 ;     N1-    C2-    N2-   H21
   434    436    437    439      9   180.00  10.04160   2 ;     N1-    C2-    N2-   H22
   434    436    440    441      9   180.00  20.08320   2 ;     N1-    C2-    N3-    C4
   435    434    436    437      9   180.00   6.27600   2 ;     H1-    N1-    C2-    N2
   435    434    436    440      9   180.00   6.27600   2 ;     H1-    N1-    C2-    N3
   437    436    440    441      9   180.00  20.08320   2 ;     N2-    C2-    N3-    C4
   438    437    436    440      9   180.00  10.04160   2 ;    H21-    N2-    C2-    N3
   439    437    436    440      9   180.00  10.04160   2 ;    H22-    N2-    C2-    N3
   441    427    425    444      9     0.00   0.00000   0 ;     C4-    N9-   C1'-   C2'
   442    444    446    447      9     0.00   0.66944   3 ;    C3'-   C2'-   O2'-  HO2'
   442    444    446    447      9     0.00   1.04600   1 ;    C3'-   C2'-   O2'-  HO2'
   442    448    449    450      9     0.00   1.04600   3 ;    C3'-   O3'-     P-   OP1
   442    448    449    451      9     0.00   1.04600   3 ;    C3'-   O3'-     P-   OP2
   442    448    449    452      9     0.00   1.04600   3 ;    C3'-   O3'-     P-   O5'
   442    448    449    452      9     0.00   5.02080   2 ;    C3'-   O3'-     P-   O5'
   443    442    444    445      9     0.00   0.65084   3 ;    H3'-   C3'-   C2'-   H2'
   443    442    444    446      9     0.00   0.00000   0 ;    H3'-   C3'-   C2'-   O2'
   443    442    444    446      9     0.00   1.04600   1 ;    H3'-   C3'-   C2'-   O2'
   443    442    448    449      9     0.00   1.60387   3 ;    H3'-   C3'-   O3'-     P
   444    442    448    449      9     0.00   1.60387   3 ;    C2'-   C3'-   O3'-     P
   445    444    442    448      9     0.00   0.00000   0 ;    H2'-   C2'-   C3'-   O3'
   445    444    442    448      9     0.00   1.04600   1 ;    H2'-   C2'-   C3'-   O3'
   445    444    446    447      9     0.00   0.69733   3 ;    H2'-   C2'-   O2'-  HO2'
   446    444    442    448      9     0.00   0.60250   3 ;    O2'-   C2'-   C3'-   O3'
   446    444    442    448      9     0.00   4.91620   2 ;    O2'-   C2'-   C3'-   O3'
   449    452    453    454      9     0.00   1.60387   3 ;      P-   O5'-   C5'-   H5'
   449    452    453    455      9     0.00   1.60387   3 ;      P-   O5'-   C5'-  H5''
   449    452    453    456      9     0.00   1.60387   3 ;      P-   O5'-   C5'-   C4'
   450    449    452    453      9     0.00   1.04600   3 ;    OP1-     P-   O5'-   C5'
   451    449    452    453      9     0.00   1.04600   3 ;    OP2-     P-   O5'-   C5'
   452    453    456    457      9     0.00   0.00000   0 ;    O5'-   C5'-   C4'-   H4'
   452    453    456    457      9     0.00   1.04600   1 ;    O5'-   C5'-   C4'-   H4'
   452    453    456    458      9     0.00   0.65084   3 ;    O5'-   C5'-   C4'-   O4'
   453    456    458    459      9     0.00   1.60247   3 ;    C5'-   C4'-   O4'-   C1'
   453    456    458    459      9   180.00   0.41840   2 ;    C5'-   C4'-   O4'-   C1'
   453    456    473    474      9     0.00   0.65084   3 ;    C5'-   C4'-   C3'-   H3'
   453    456    473    475      9     0.00   0.75312   3 ;    C5'-   C4'-   C3'-   C2'
   453    456    473    475      9   180.00   0.83680   1 ;    C5'-   C4'-   C3'-   C2'
   453    456    473    475      9   180.00   1.04600   2 ;    C5'-   C4'-   C3'-   C2'
   453    456    473    479      9     0.00   0.65084   3 ;    C5'-   C4'-   C3'-   O3'
   454    453    456    457      9     0.00   0.65084   3 ;    H5'-   C5'-   C4'-   H4'
   454    453    456    458      9     0.00   0.00000   0 ;    H5'-   C5'-   C4'-   O4'
   454    453    456    458      9     0.00   1.04600   1 ;    H5'-   C5'-   C4'-   O4'
   454    453    456    473      9     0.00   0.65084   3 ;    H5'-   C5'-   C4'-   C3'
   455    453    456    457      9     0.00   0.65084   3 ;   H5''-   C5'-   C4'-   H4'
   455    453    456    458      9     0.00   0.00000   0 ;   H5''-   C5'-   C4'-   O4'
   455    453    456    458      9     0.00   1.04600   1 ;   H5''-   C5'-   C4'-   O4'
   455    453    456    473      9     0.00   0.65084   3 ;   H5''-   C5'-   C4'-   C3'
   456    458    459    460      9     0.00   1.60387   3 ;    C4'-   O4'-   C1'-   H1'
   456    458    459    461      9     0.00   1.60247   3 ;    C4'-   O4'-   C1'-    N1
   456    458    459    461      9     0.00   2.71960   2 ;    C4'-   O4'-   C1'-    N1
   456    458    459    475      9     0.00   1.60247   3 ;    C4'-   O4'-   C1'-   C2'
   456    458    459    475      9   180.00   0.41840   2 ;    C4'-   O4'-   C1'-   C2'
   456    473    475    459      9     0.00   0.75312   3 ;    C4'-   C3'-   C2'-   C1'
   456    473    475    459      9   180.00   0.83680   1 ;    C4'-   C3'-   C2'-   C1'
   456    473    475    459      9   180.00   1.04600   2 ;    C4'-   C3'-   C2'-   C1'
   456    473    475    476      9     0.00   0.65084   3 ;    C4'-   C3'-   C2'-   H2'
   456    473    475    477      9     0.00   0.65084   3 ;    C4'-   C3'-   C2'-   O2'
   456    473    479    480      9     0.00   1.60387   3 ;    C4'-   C3'-   O3'-     P
   457    456    458    459      9     0.00   1.60387   3 ;    H4'-   C4'-   O4'-   C1'
   457    456    473    474      9     0.00   0.65084   3 ;    H4'-   C4'-   C3'-   H3'
   457    456    473    475      9     0.00   0.65084   3 ;    H4'-   C4'-   C3'-   C2'
   457    456    473    479      9     0.00   0.00000   0 ;    H4'-   C4'-   C3'-   O3'
   457    456    473    479      9     0.00   1.04600   1 ;    H4'-   C4'-   C3'-   O3'
   458    456    473    474      9     0.00   0.00000   0 ;    O4'-   C4'-   C3'-   H3'
   458    456    473    474      9     0.00   1.04600   1 ;    O4'-   C4'-   C3'-   H3'
   458    456    473    475      9     0.00   0.65084   3 ;    O4'-   C4'-   C3'-   C2'
   458    456    473    479      9     0.00   0.60250   3 ;    O4'-   C4'-   C3'-   O3'
   458    456    473    479      9     0.00   4.91620   2 ;    O4'-   C4'-   C3'-   O3'
   458    459    461    471      9     0.00   0.00000   0 ;    O4'-   C1'-    N1-    C2
   458    459    475    473      9     0.00   0.65084   3 ;    O4'-   C1'-   C2'-   C3'
   458    459    475    476      9     0.00   0.00000   0 ;    O4'-   C1'-   C2'-   H2'
   458    459    475    476      9     0.00   1.04600   1 ;    O4'-   C1'-   C2'-   H2'
   458    459    475    477      9     0.00   0.60250   3 ;    O4'-   C1'-   C2'-   O2'
   458    459    475    477      9     0.00   4.91620   2 ;    O4'-   C1'-   C2'-   O2'
   459    458    456    473      9     0.00   1.60247   3 ;    C1'-   O4'-   C4'-   C3'
   459    458    456    473      9   180.00   0.41840   2 ;    C1'-   O4'-   C4'-   C3'
   459    461    462    463      9   180.00   7.74040   2 ;    C1'-    N1-    C6-    H6
   459    461    462    464      9   180.00   7.74040   2 ;    C1'-    N1-    C6-    C5
   459    461    471    470      9   180.00   6.06680   2 ;    C1'-    N1-    C2-    N3
   459    461    471    472      9   180.00   6.06680   2 ;    C1'-    N1-    C2-    O2
   459    475    473    474      9     0.00   0.65084   3 ;    C1'-   C2'-   C3'-   H3'
   459    475    473    479      9     0.00   0.65084   3 ;    C1'-   C2'-   C3'-   O3'
   459    475    477    478      9     0.00   0.66944   3 ;    C1'-   C2'-   O2'-  HO2'
   459    475    477    478      9     0.00   1.04600   1 ;    C1'-   C2'-   O2'-  HO2'
   460    459    461    462      9     0.00   0.00000   0 ;    H1'-   C1'-    N1-    C6
   460    459    461    471      9     0.00   0.00000   0 ;    H1'-   C1'-    N1-    C2
   460    459    475    473      9     0.00   0.65084   3 ;    H1'-   C1'-   C2'-   C3'
   460    459    475    476      9     0.00   0.65084   3 ;    H1'-   C1'-   C2'-   H2'
   460    459    475    477      9     0.00   0.65084   3 ;    H1'-   C1'-   C2'-   O2'
   461    459    475    473      9     0.00   0.65084   3 ;     N1-   C1'-   C2'-   C3'
   461    459    475    476      9     0.00   0.65084   3 ;     N1-   C1'-   C2'-   H2'
   461    459    475    477      9     0.00   0.65084   3 ;     N1-   C1'-   C2'-   O2'
   461    462    464    465      9   180.00  27.82360   2 ;     N1-    C6-    C5-    H5
   461    462    464    466      9   180.00  27.82360   2 ;     N1-    C6-    C5-    C4
   461    471    470    466      9   180.00  16.73600   2 ;     N1-    C2-    N3-    C4
   462    461    459    475      9     0.00   0.00000   0 ;     C6-    N1-   C1'-   C2'
   462    461    471    470      9   180.00   6.06680   2 ;     C6-    N1-    C2-    N3
   462    461    471    472      9   180.00   6.06680   2 ;     C6-    N1-    C2-    O2
   462    464    466    467      9   180.00  10.66920   2 ;     C6-    C5-    C4-    N4
   462    464    466    470      9   180.00  10.66920   2 ;     C6-    C5-    C4-    N3
   463    462    461    471      9   180.00   7.74040   2 ;     H6-    C6-    N1-    C2
   463    462    464    465      9   180.00  27.82360   2 ;     H6-    C6-    C5-    H5
   463    462    464    466      9   180.00  27.82360   2 ;     H6-    C6-    C5-    C4
   464    462    461    471      9   180.00   7.74040   2 ;     C5-    C6-    N1-    C2
   464    466    467    468      9   180.00  10.04160   2 ;     C5-    C4-    N4-   H41
   464    466    467    469      9   180.00  10.04160   2 ;     C5-    C4-    N4-   H42
   464    466    470    471      9   180.00  20.08320   2 ;     C5-    C4-    N3-    C2
   465    464    466    467      9   180.00  10.66920   2 ;     H5-    C5-    C4-    N4
   465    464    466    470      9   180.00  10.66920   2 ;     H5-    C5-    C4-    N3
   466    470    471    472      9   180.00  16.73600   2 ;     C4-    N3-    C2-    O2
   467    466    470    471      9   180.00  20.08320   2 ;     N4-    C4-    N3-    C2
   468    467    466    470      9   180.00  10.04160   2 ;    H41-    N4-    C4-    N3
   469    467    466    470      9   180.00  10.04160   2 ;    H42-    N4-    C4-    N3
   471    461    459    475      9     0.00   0.00000   0 ;     C2-    N1-   C1'-   C2'
   473    475    477    478      9     0.00   0.66944   3 ;    C3'-   C2'-   O2'-  HO2'
   473    475    477    478      9     0.00   1.04600   1 ;    C3'-   C2'-   O2'-  HO2'
   473    479    480    481      9     0.00   1.04600   3 ;    C3'-   O3'-     P-   OP1
   473    479    480    482      9     0.00   1.04600   3 ;    C3'-   O3'-     P-   OP2
   473    479    480    483      9     0.00   1.04600   3 ;    C3'-   O3'-     P-   O5'
   473    479    480    483      9     0.00   5.02080   2 ;    C3'-   O3'-     P-   O5'
   474    473    475    476      9     0.00   0.65084   3 ;    H3'-   C3'-   C2'-   H2'
   474    473    475    477      9     0.00   0.00000   0 ;    H3'-   C3'-   C2'-   O2'
   474    473    475    477      9     0.00   1.04600   1 ;    H3'-   C3'-   C2'-   O2'
   474    473    479    480      9     0.00   1.60387   3 ;    H3'-   C3'-   O3'-     P
   475    473    479    480      9     0.00   1.60387   3 ;    C2'-   C3'-   O3'-     P
   476    475    473    479      9     0.00   0.00000   0 ;    H2'-   C2'-   C3'-   O3'
   476    475    473    479      9     0.00   1.04600   1 ;    H2'-   C2'-   C3'-   O3'
   476    475    477    478      9     0.00   0.69733   3 ;    H2'-   C2'-   O2'-  HO2'
   477    475    473    479      9     0.00   0.60250   3 ;    O2'-   C2'-   C3'-   O3'
   477    475    473    479      9     0.00   4.91620   2 ;    O2'-   C2'-   C3'-   O3'
   480    483    484    485      9     0.00   1.60387   3 ;      P-   O5'-   C5'-   H5'
   480    483    484    486      9     0.00   1.60387   3 ;      P-   O5'-   C5'-  H5''
   480    483    484    487      9     0.00   1.60387   3 ;      P-   O5'-   C5'-   C4'
   481    480    483    484      9     0.00   1.04600   3 ;    OP1-     P-   O5'-   C5'
   482    480    483    484      9     0.00   1.04600   3 ;    OP2-     P-   O5'-   C5'
   483    484    487    488      9     0.00   0.00000   0 ;    O5'-   C5'-   C4'-   H4'
   483    484    487    488      9     0.00   1.04600   1 ;    O5'-   C5'-   C4'-   H4'
   483    484    487    489      9     0.00   0.65084   3 ;    O5'-   C5'-   C4'-   O4'
   484    487    489    490      9     0.00   1.60247   3 ;    C5'-   C4'-   O4'-   C1'
   484    487    489    490      9   180.00   0.41840   2 ;    C5'-   C4'-   O4'-   C1'
   484    487    503    504      9     0.00   0.65084   3 ;    C5'-   C4'-   C3'-   H3'
   484    487    503    505      9     0.00   0.75312   3 ;    C5'-   C4'-   C3'-   C2'
   484    487    503    505      9   180.00   0.83680   1 ;    C5'-   C4'-   C3'-   C2'
   484    487    503    505      9   180.00   1.04600   2 ;    C5'-   C4'-   C3'-   C2'
   484    487    503    509      9     0.00   0.65084   3 ;    C5'-   C4'-   C3'-   O3'
   485    484    487    488      9     0.00   0.65084   3 ;    H5'-   C5'-   C4'-   H4'
   485    484    487    489      9     0.00   0.00000   0 ;    H5'-   C5'-   C4'-   O4'
   485    484    487    489      9     0.00   1.04600   1 ;    H5'-   C5'-   C4'-   O4'
   485    484    487    503      9     0.00   0.65084   3 ;    H5'-   C5'-   C4'-   C3'
   486    484    487    488      9     0.00   0.65084   3 ;   H5''-   C5'-   C4'-   H4'
   486    484    487    489      9     0.00   0.00000   0 ;   H5''-   C5'-   C4'-   O4'
   486    484    487    489      9     0.00   1.04600   1 ;   H5''-   C5'-   C4'-   O4'
   486    484    487    503      9     0.00   0.65084   3 ;   H5''-   C5'-   C4'-   C3'
   487    489    490    491      9     0.00   1.60387   3 ;    C4'-   O4'-   C1'-   H1'
   487    489    490    492      9     0.00   1.60247   3 ;    C4'-   O4'-   C1'-    N1
   487    489    490    492      9     0.00   2.71960   2 ;    C4'-   O4'-   C1'-    N1
   487    489    490    505      9     0.00   1.60247   3 ;    C4'-   O4'-   C1'-   C2'
   487    489    490    505      9   180.00   0.41840   2 ;    C4'-   O4'-   C1'-   C2'
   487    503    505    490      9     0.00   0.75312   3 ;    C4'-   C3'-   C2'-   C1'
   487    503    505    490      9   180.00   0.83680   1 ;    C4'-   C3'-   C2'-   C1'
   487    503    505    490      9   180.00   1.04600   2 ;    C4'-   C3'-   C2'-   C1'
   487    503    505    506      9     0.00   0.65084   3 ;    C4'-   C3'-   C2'-   H2'
   487    503    505    507      9     0.00   0.65084   3 ;    C4'-   C3'-   C2'-   O2'
   487    503    509    510      9     0.00   0.66944   3 ;    C4'-   C3'-   O3'-  HO3'
   487    503    509    510      9     0.00   1.04600   1 ;    C4'-   C3'-   O3'-  HO3'
   488    487    489    490      9     0.00   1.60387   3 ;    H4'-   C4'-   O4'-   C1'
   488    487    503    504      9     0.00   0.65084   3 ;    H4'-   C4'-   C3'-   H3'
   488    487    503    505      9     0.00   0.65084   3 ;    H4'-   C4'-   C3'-   C2'
   488    487    503    509      9     0.00   0.00000   0 ;    H4'-   C4'-   C3'-   O3'
   488    487    503    509      9     0.00   1.04600   1 ;    H4'-   C4'-   C3'-   O3'
   489    487    503    504      9     0.00   0.00000   0 ;    O4'-   C4'-   C3'-   H3'
   489    487    503    504      9     0.00   1.04600   1 ;    O4'-   C4'-   C3'-   H3'
   489    487    503    505      9     0.00   0.65084   3 ;    O4'-   C4'-   C3'-   C2'
   489    487    503    509      9     0.00   0.60250   3 ;    O4'-   C4'-   C3'-   O3'
   489    487    503    509      9     0.00   4.91620   2 ;    O4'-   C4'-   C3'-   O3'
   489    490    492    501      9     0.00   0.00000   0 ;    O4'-   C1'-    N1-    C2
   489    490    505    503      9     0.00   0.65084   3 ;    O4'-   C1'-   C2'-   C3'
   489    490    505    506      9     0.00   0.00000   0 ;    O4'-   C1'-   C2'-   H2'
   489    490    505    506      9     0.00   1.04600   1 ;    O4'-   C1'-   C2'-   H2'
   489    490    505    507      9     0.00   0.60250   3 ;    O4'-   C1'-   C2'-   O2'
   489    490    505    507      9     0.00   4.91620   2 ;    O4'-   C1'-   C2'-   O2'
   490    489    487    503      9     0.00   1.60247   3 ;    C1'-   O4'-   C4'-   C3'
   490    489    487    503      9   180.00   0.41840   2 ;    C1'-   O4'-   C4'-   C3'
   490    492    493    494      9   180.00   7.74040   2 ;    C1'-    N1-    C6-    H6
   490    492    493    495      9   180.00   7.74040   2 ;    C1'-    N1-    C6-    C5
   490    492    501    499      9   180.00   6.06680   2 ;    C1'-    N1-    C2-    N3
   490    492    501    502      9   180.00   6.06680   2 ;    C1'-    N1-    C2-    O2
   490    505    503    504      9     0.00   0.65084   3 ;    C1'-   C2'-   C3'-   H3'
   490    505    503    509      9     0.00   0.65084   3 ;    C1'-   C2'-   C3'-   O3'
   490    505    507    508      9     0.00   0.66944   3 ;    C1'-   C2'-   O2'-  HO2'
   490    505    507    508      9     0.00   1.04600   1 ;    C1'-   C2'-   O2'-  HO2'
   491    490    492    493      9     0.00   0.00000   0 ;    H1'-   C1'-    N1-    C6
   491    490    492    501      9     0.00   0.00000   0 ;    H1'-   C1'-    N1-    C2
   491    490    505    503      9     0.00   0.65084   3 ;    H1'-   C1'-   C2'-   C3'
   491    490    505    506      9     0.00   0.65084   3 ;    H1'-   C1'-   C2'-   H2'
   491    490    505    507      9     0.00   0.65084   3 ;    H1'-   C1'-   C2'-   O2'
   492    490    505    503      9     0.00   0.65084   3 ;     N1-   C1'-   C2'-   C3'
   492    490    505    506      9     0.00   0.65084   3 ;     N1-   C1'-   C2'-   H2'
   492    490    505    507      9     0.00   0.65084   3 ;     N1-   C1'-   C2'-   O2'
   492    493    495    496      9   180.00  27.82360   2 ;     N1-    C6-    C5-    H5
   492    493    495    497      9   180.00  27.82360   2 ;     N1-    C6-    C5-    C4
   492    501    499    497      9   180.00   5.64840   2 ;     N1-    C2-    N3-    C4
   492    501    499    500      9   180.00   5.64840   2 ;     N1-    C2-    N3-    H3
   493    492    490    505      9     0.00   0.00000   0 ;     C6-    N1-   C1'-   C2'
   493    492    501    499      9   180.00   6.06680   2 ;     C6-    N1-    C2-    N3
   493    492    501    502      9   180.00   6.06680   2 ;     C6-    N1-    C2-    O2
   493    495    497    498      9     0.00   1.25520   3 ;     C6-    C5-    C4-    O4
   493    495    497    498      9   180.00   9.10020   2 ;     C6-    C5-    C4-    O4
   493    495    497    499      9   180.00   9.10020   2 ;     C6-    C5-    C4-    N3
   494    493    492    501      9   180.00   7.74040   2 ;     H6-    C6-    N1-    C2
   494    493    495    496      9   180.00  27.82360   2 ;     H6-    C6-    C5-    H5
   494    493    495    497      9   180.00  27.82360   2 ;     H6-    C6-    C5-    C4
   495    493    492    501      9   180.00   7.74040   2 ;     C5-    C6-    N1-    C2
   495    497    499    500      9   180.00   5.64840   2 ;     C5-    C4-    N3-    H3
   495    497    499    501      9   180.00   5.64840   2 ;     C5-    C4-    N3-    C2
   496    495    497    498      9   180.00   9.10020   2 ;     H5-    C5-    C4-    O4
   496    495    497    499      9   180.00   9.10020   2 ;     H5-    C5-    C4-    N3
   497    499    501    502      9   180.00   5.64840   2 ;     C4-    N3-    C2-    O2
   498    497    499    500      9   180.00   5.64840   2 ;     O4-    C4-    N3-    H3
   498    497    499    501      9   180.00   5.64840   2 ;     O4-    C4-    N3-    C2
   500    499    501    502      9   180.00   5.64840   2 ;     H3-    N3-    C2-    O2
   501    492    490    505      9     0.00   0.00000   0 ;     C2-    N1-   C1'-   C2'
   503    505    507    508      9     0.00   0.66944   3 ;    C3'-   C2'-   O2'-  HO2'
   503    505    507    508      9     0.00   1.04600   1 ;    C3'-   C2'-   O2'-  HO2'
   504    503    505    506      9     0.00   0.65084   3 ;    H3'-   C3'-   C2'-   H2'
   504    503    505    507      9     0.00   0.00000   0 ;    H3'-   C3'-   C2'-   O2'
   504    503    505    507      9     0.00   1.04600   1 ;    H3'-   C3'-   C2'-   O2'
   504    503    509    510      9     0.00   0.69733   3 ;    H3'-   C3'-   O3'-  HO3'
   505    503    509    510      9     0.00   0.66944   3 ;    C2'-   C3'-   O3'-  HO3'
   505    503    509    510      9     0.00   1.04600   1 ;    C2'-   C3'-   O3'-  HO3'
   506    505    503    509      9     0.00   0.00000   0 ;    H2'-   C2'-   C3'-   O3'
   506    505    503    509      9     0.00   1.04600   1 ;    H2'-   C2'-   C3'-   O3'
   506    505    507    508      9     0.00   0.69733   3 ;    H2'-   C2'-   O2'-  HO2'
   507    505    503    509      9     0.00   0.60250   3 ;    O2'-   C2'-   C3'-   O3'
   507    505    503    509      9     0.00   4.91620   2 ;    O2'-   C2'-   C3'-   O3'
; treated as usual propers in GROMACS since Phase angle diff from 0 or 180 degrees
;    i      j      k      l   func   phase     kd      pn
     2      3      6     25      4   190.98   4.92892   1 ;    O5'-   C5'-   C4'-   C3'
     2      3      6     25      4   295.63   0.38535   2 ;    O5'-   C5'-   C4'-   C3'
     2      3      6     25      4   348.10   4.02848   3 ;    O5'-   C5'-   C4'-   C3'
     8      9     11     12      4   120.10   3.80744   1 ;    O4'-   C1'-    N9-    C8
     8      9     11     12      4   225.40   1.71544   3 ;    O4'-   C1'-    N9-    C8
    31     32     35     36      4    31.80   0.77480   1 ;    O3'-     P-   O5'-   C5'
    31     32     35     36      4   351.96   5.25733   2 ;    O3'-     P-   O5'-   C5'
    31     32     35     36      4   357.25   1.48473   3 ;    O3'-     P-   O5'-   C5'
    35     36     39     59      4   190.98   4.92892   1 ;    O5'-   C5'-   C4'-   C3'
    35     36     39     59      4   295.63   0.38535   2 ;    O5'-   C5'-   C4'-   C3'
    35     36     39     59      4   348.10   4.02848   3 ;    O5'-   C5'-   C4'-   C3'
    41     42     44     45      4     4.00   7.23832   2 ;    O4'-   C1'-    N9-    C8
    41     42     44     45      4    87.50   3.38904   1 ;    O4'-   C1'-    N9-    C8
    41     42     44     45      4   219.80   1.84096   3 ;    O4'-   C1'-    N9-    C8
    65     66     69     70      4    31.80   0.77480   1 ;    O3'-     P-   O5'-   C5'
    65     66     69     70      4   351.96   5.25733   2 ;    O3'-     P-   O5'-   C5'
    65     66     69     70      4   357.25   1.48473   3 ;    O3'-     P-   O5'-   C5'
    69     70     73     90      4   190.98   4.92892   1 ;    O5'-   C5'-   C4'-   C3'
    69     70     73     90      4   295.63   0.38535   2 ;    O5'-   C5'-   C4'-   C3'
    69     70     73     90      4   348.10   4.02848   3 ;    O5'-   C5'-   C4'-   C3'
    75     76     78     79      4     7.80   6.35968   2 ;    O4'-   C1'-    N1-    C6
    75     76     78     79      4   184.80   4.30952   1 ;    O4'-   C1'-    N1-    C6
    75     76     78     79      4   209.60   1.08784   3 ;    O4'-   C1'-    N1-    C6
    96     97    100    101      4    31.80   0.77480   1 ;    O3'-     P-   O5'-   C5'
    96     97    100    101      4   351.96   5.25733   2 ;    O3'-     P-   O5'-   C5'
    96     97    100    101      4   357.25   1.48473   3 ;    O3'-     P-   O5'-   C5'
   100    101    104    124      4   190.98   4.92892   1 ;    O5'-   C5'-   C4'-   C3'
   100    101    104    124      4   295.63   0.38535   2 ;    O5'-   C5'-   C4'-   C3'
   100    101    104    124      4   348.10   4.02848   3 ;    O5'-   C5'-   C4'-   C3'
   106    107    109    110      4     4.00   7.23832   2 ;    O4'-   C1'-    N9-    C8
   106    107    109    110      4    87.50   3.38904   1 ;    O4'-   C1'-    N9-    C8
   106    107    109    110      4   219.80   1.84096   3 ;    O4'-   C1'-    N9-    C8
   130    131    134    135      4    31.80   0.77480   1 ;    O3'-     P-   O5'-   C5'
   130    131    134    135      4   351.96   5.25733   2 ;    O3'-     P-   O5'-   C5'
   130    131    134    135      4   357.25   1.48473   3 ;    O3'-     P-   O5'-   C5'
   134    135    138    155      4   190.98   4.92892   1 ;    O5'-   C5'-   C4'-   C3'
   134    135    138    155      4   295.63   0.38535   2 ;    O5'-   C5'-   C4'-   C3'
   134    135    138    155      4   348.10   4.02848   3 ;    O5'-   C5'-   C4'-   C3'
   140    141    143    144      4     7.80   6.35968   2 ;    O4'-   C1'-    N1-    C6
   140    141    143    144      4   184.80   4.30952   1 ;    O4'-   C1'-    N1-    C6
   140    141    143    144      4   209.60   1.08784   3 ;    O4'-   C1'-    N1-    C6
   161    162    165    166      4    31.80   0.77480   1 ;    O3'-     P-   O5'-   C5'
   161    162    165    166      4   351.96   5.25733   2 ;    O3'-     P-   O5'-   C5'
   161    162    165    166      4   357.25   1.48473   3 ;    O3'-     P-   O5'-   C5'
   165    166    169    185      4   190.98   4.92892   1 ;    O5'-   C5'-   C4'-   C3'
   165    166    169    185      4   295.63   0.38535   2 ;    O5'-   C5'-   C4'-   C3'
   165    166    169    185      4   348.10   4.02848   3 ;    O5'-   C5'-   C4'-   C3'
   171    172    174    175      4     4.70   6.98728   2 ;    O4'-   C1'-    N1-    C6
   171    172    174    175      4   188.00   4.14216   1 ;    O4'-   C1'-    N1-    C6
   171    172    174    175      4   210.90   0.71128   3 ;    O4'-   C1'-    N1-    C6
   191    192    195    196      4    31.80   0.77480   1 ;    O3'-     P-   O5'-   C5'
   191    192    195    196      4   351.96   5.25733   2 ;    O3'-     P-   O5'-   C5'
   191    192    195    196      4   357.25   1.48473   3 ;    O3'-     P-   O5'-   C5'
   195    196    199    215      4   190.98   4.92892   1 ;    O5'-   C5'-   C4'-   C3'
   195    196    199    215      4   295.63   0.38535   2 ;    O5'-   C5'-   C4'-   C3'
   195    196    199    215      4   348.10   4.02848   3 ;    O5'-   C5'-   C4'-   C3'
   201    202    204    205      4     4.70   6.98728   2 ;    O4'-   C1'-    N1-    C6
   201    202    204    205      4   188.00   4.14216   1 ;    O4'-   C1'-    N1-    C6
   201    202    204    205      4   210.90   0.71128   3 ;    O4'-   C1'-    N1-    C6
   221    222    225    226      4    31.80   0.77480   1 ;    O3'-     P-   O5'-   C5'
   221    222    225    226      4   351.96   5.25733   2 ;    O3'-     P-   O5'-   C5'
   221    222    225    226      4   357.25   1.48473   3 ;    O3'-     P-   O5'-   C5'
   225    226    229    245      4   190.98   4.92892   1 ;    O5'-   C5'-   C4'-   C3'
   225    226    229    245      4   295.63   0.38535   2 ;    O5'-   C5'-   C4'-   C3'
   225    226    229    245      4   348.10   4.02848   3 ;    O5'-   C5'-   C4'-   C3'
   231    232    234    235      4     4.70   6.98728   2 ;    O4'-   C1'-    N1-    C6
   231    232    234    235      4   188.00   4.14216   1 ;    O4'-   C1'-    N1-    C6
   231    232    234    235      4   210.90   0.71128   3 ;    O4'-   C1'-    N1-    C6
   251    252    255    256      4    31.80   0.77480   1 ;    O3'-     P-   O5'-   C5'
   251    252    255    256      4   351.96   5.25733   2 ;    O3'-     P-   O5'-   C5'
   251    252    255    256      4   357.25   1.48473   3 ;    O3'-     P-   O5'-   C5'
   255    256    259    276      4   190.98   4.92892   1 ;    O5'-   C5'-   C4'-   C3'
   255    256    259    276      4   295.63   0.38535   2 ;    O5'-   C5'-   C4'-   C3'
   255    256    259    276      4   348.10   4.02848   3 ;    O5'-   C5'-   C4'-   C3'
   261    262    264    265      4     7.80   6.35968   2 ;    O4'-   C1'-    N1-    C6
   261    262    264    265      4   184.80   4.30952   1 ;    O4'-   C1'-    N1-    C6
   261    262    264    265      4   209.60   1.08784   3 ;    O4'-   C1'-    N1-    C6
   282    283    286    287      4    31.80   0.77480   1 ;    O3'-     P-   O5'-   C5'
   282    283    286    287      4   351.96   5.25733   2 ;    O3'-     P-   O5'-   C5'
   282    283    286    287      4   357.25   1.48473   3 ;    O3'-     P-   O5'-   C5'
   286    287    290    310      4   190.98   4.92892   1 ;    O5'-   C5'-   C4'-   C3'
   286    287    290    310      4   295.63   0.38535   2 ;    O5'-   C5'-   C4'-   C3'
   286    287    290    310      4   348.10   4.02848   3 ;    O5'-   C5'-   C4'-   C3'
   292    293    295    296      4     4.00   7.23832   2 ;    O4'-   C1'-    N9-    C8
   292    293    295    296      4    87.50   3.38904   1 ;    O4'-   C1'-    N9-    C8
   292    293    295    296      4   219.80   1.84096   3 ;    O4'-   C1'-    N9-    C8
   316    317    320    321      4    31.80   0.77480   1 ;    O3'-     P-   O5'-   C5'
   316    317    320    321      4   351.96   5.25733   2 ;    O3'-     P-   O5'-   C5'
   316    317    320    321      4   357.25   1.48473   3 ;    O3'-     P-   O5'-   C5'
   320    321    324    343      4   190.98   4.92892   1 ;    O5'-   C5'-   C4'-   C3'
   320    321    324    343      4   295.63   0.38535   2 ;    O5'-   C5'-   C4'-   C3'
   320    321    324    343      4   348.10   4.02848   3 ;    O5'-   C5'-   C4'-   C3'
   326    327    329    330      4   120.10   3.80744   1 ;    O4'-   C1'-    N9-    C8
   326    327    329    330      4   225.40   1.71544   3 ;    O4'-   C1'-    N9-    C8
   349    350    353    354      4    31.80   0.77480   1 ;    O3'-     P-   O5'-   C5'
   349    350    353    354      4   351.96   5.25733   2 ;    O3'-     P-   O5'-   C5'
   349    350    353    354      4   357.25   1.48473   3 ;    O3'-     P-   O5'-   C5'
   353    354    357    377      4   190.98   4.92892   1 ;    O5'-   C5'-   C4'-   C3'
   353    354    357    377      4   295.63   0.38535   2 ;    O5'-   C5'-   C4'-   C3'
   353    354    357    377      4   348.10   4.02848   3 ;    O5'-   C5'-   C4'-   C3'
   359    360    362    363      4     4.00   7.23832   2 ;    O4'-   C1'-    N9-    C8
   359    360    362    363      4    87.50   3.38904   1 ;    O4'-   C1'-    N9-    C8
   359    360    362    363      4   219.80   1.84096   3 ;    O4'-   C1'-    N9-    C8
   383    384    387    388      4    31.80   0.77480   1 ;    O3'-     P-   O5'-   C5'
   383    384    387    388      4   351.96   5.25733   2 ;    O3'-     P-   O5'-   C5'
   383    384    387    388      4   357.25   1.48473   3 ;    O3'-     P-   O5'-   C5'
   387    388    391    408      4   190.98   4.92892   1 ;    O5'-   C5'-   C4'-   C3'
   387    388    391    408      4   295.63   0.38535   2 ;    O5'-   C5'-   C4'-   C3'
   387    388    391    408      4   348.10   4.02848   3 ;    O5'-   C5'-   C4'-   C3'
   393    394    396    397      4     7.80   6.35968   2 ;    O4'-   C1'-    N1-    C6
   393    394    396    397      4   184.80   4.30952   1 ;    O4'-   C1'-    N1-    C6
   393    394    396    397      4   209.60   1.08784   3 ;    O4'-   C1'-    N1-    C6
   414    415    418    419      4    31.80   0.77480   1 ;    O3'-     P-   O5'-   C5'
   414    415    418    419      4   351.96   5.25733   2 ;    O3'-     P-   O5'-   C5'
   414    415    418    419      4   357.25   1.48473   3 ;    O3'-     P-   O5'-   C5'
   418    419    422    442      4   190.98   4.92892   1 ;    O5'-   C5'-   C4'-   C3'
   418    419    422    442      4   295.63   0.38535   2 ;    O5'-   C5'-   C4'-   C3'
   418    419    422    442      4   348.10   4.02848   3 ;    O5'-   C5'-   C4'-   C3'
   424    425    427    428      4     4.00   7.23832   2 ;    O4'-   C1'-    N9-    C8
   424    425    427    428      4    87.50   3.38904   1 ;    O4'-   C1'-    N9-    C8
   424    425    427    428      4   219.80   1.84096   3 ;    O4'-   C1'-    N9-    C8
   448    449    452    453      4    31.80   0.77480   1 ;    O3'-     P-   O5'-   C5'
   448    449    452    453      4   351.96   5.25733   2 ;    O3'-     P-   O5'-   C5'
   448    449    452    453      4   357.25   1.48473   3 ;    O3'-     P-   O5'-   C5'
   452    453    456    473      4   190.98   4.92892   1 ;    O5'-   C5'-   C4'-   C3'
   452    453    456    473      4   295.63   0.38535   2 ;    O5'-   C5'-   C4'-   C3'
   452    453    456    473      4   348.10   4.02848   3 ;    O5'-   C5'-   C4'-   C3'
   458    459    461    462      4     7.80   6.35968   2 ;    O4'-   C1'-    N1-    C6
   458    459    461    462      4   184.80   4.30952   1 ;    O4'-   C1'-    N1-    C6
   458    459    461    462      4   209.60   1.08784   3 ;    O4'-   C1'-    N1-    C6
   479    480    483    484      4    31.80   0.77480   1 ;    O3'-     P-   O5'-   C5'
   479    480    483    484      4   351.96   5.25733   2 ;    O3'-     P-   O5'-   C5'
   479    480    483    484      4   357.25   1.48473   3 ;    O3'-     P-   O5'-   C5'
   483    484    487    503      4   190.98   4.92892   1 ;    O5'-   C5'-   C4'-   C3'
   483    484    487    503      4   295.63   0.38535   2 ;    O5'-   C5'-   C4'-   C3'
   483    484    487    503      4   348.10   4.02848   3 ;    O5'-   C5'-   C4'-   C3'
   489    490    492    493      4     4.70   6.98728   2 ;    O4'-   C1'-    N1-    C6
   489    490    492    493      4   188.00   4.14216   1 ;    O4'-   C1'-    N1-    C6
   489    490    492    493      4   210.90   0.71128   3 ;    O4'-   C1'-    N1-    C6

[ dihedrals ] ; impropers
; treated as propers in GROMACS to use correct AMBER analytical function
;    i      j      k      l   func   phase     kd      pn
    11     14     12     13      4   180.00   4.60240   2 ;     N9-    N7-    C8-    H8
    11     15     24     23      4   180.00   0.00000   2 ;     N9-    C5-    C4-    N3
    14     16     15     24      4   180.00   0.00000   2 ;     N7-    C6-    C5-    C4
    15     17     16     20      4   180.00   4.60240   2 ;     C5-    N6-    C6-    N1
    16     18     17     19      4   180.00   4.18400   2 ;     C6-   H61-    N6-   H62
    20     23     21     22      4   180.00   4.60240   2 ;     N1-    N3-    C2-    H2
    24     12     11      9      4   180.00   4.18400   2 ;     C4-    C8-    N9-   C1'
    44     47     45     46      4   180.00   4.60240   2 ;     N9-    N7-    C8-    H8
    47     49     48     58      4   180.00   0.00000   2 ;     N7-    C6-    C5-    C4
    48     44     58     57      4   180.00   0.00000   2 ;     C5-    N9-    C4-    N3
    48     51     49     50      4   180.00  43.93200   2 ;     C5-    N1-    C6-    O6
    49     53     51     52      4   180.00   4.18400   2 ;     C6-    C2-    N1-    H1
    53     55     54     56      4   180.00   4.18400   2 ;     C2-   H21-    N2-   H22
    54     51     53     57      4   180.00   4.60240   2 ;     N2-    N1-    C2-    N3
    58     45     44     42      4   180.00   4.18400   2 ;     C4-    C8-    N9-   C1'
    78     81     79     80      4   180.00   4.60240   2 ;     N1-    C5-    C6-    H6
    78     87     88     89      4   180.00  43.93200   2 ;     N1-    N3-    C2-    O2
    79     83     81     82      4   180.00   4.60240   2 ;     C6-    C4-    C5-    H5
    81     84     83     87      4   180.00   4.60240   2 ;     C5-    N4-    C4-    N3
    83     85     84     86      4   180.00   4.18400   2 ;     C4-   H41-    N4-   H42
    88     79     78     76      4   180.00   4.18400   2 ;     C2-    C6-    N1-   C1'
   109    112    110    111      4   180.00   4.60240   2 ;     N9-    N7-    C8-    H8
   113    109    123    122      4   180.00   0.00000   2 ;     C5-    N9-    C4-    N3
   113    116    114    115      4   180.00  43.93200   2 ;     C5-    N1-    C6-    O6
   114    118    116    117      4   180.00   4.18400   2 ;     C6-    C2-    N1-    H1
   114    123    113    112      4   180.00   0.00000   2 ;     C6-    C4-    C5-    N7
   118    120    119    121      4   180.00   4.18400   2 ;     C2-   H21-    N2-   H22
   119    116    118    122      4   180.00   4.60240   2 ;     N2-    N1-    C2-    N3
   123    110    109    107      4   180.00   4.18400   2 ;     C4-    C8-    N9-   C1'
   143    146    144    145      4   180.00   4.60240   2 ;     N1-    C5-    C6-    H6
   143    152    153    154      4   180.00  43.93200   2 ;     N1-    N3-    C2-    O2
   144    148    146    147      4   180.00   4.60240   2 ;     C6-    C4-    C5-    H5
   146    149    148    152      4   180.00   4.60240   2 ;     C5-    N4-    C4-    N3
   148    150    149    151      4   180.00   4.18400   2 ;     C4-   H41-    N4-   H42
   153    144    143    141      4   180.00   4.18400   2 ;     C2-    C6-    N1-   C1'
   174    177    175    176      4   180.00   4.60240   2 ;     N1-    C5-    C6-    H6
   174    181    183    184      4   180.00  43.93200   2 ;     N1-    N3-    C2-    O2
   175    179    177    178      4   180.00   4.60240   2 ;     C6-    C4-    C5-    H5
   177    181    179    180      4   180.00  43.93200   2 ;     C5-    N3-    C4-    O4
   179    183    181    182      4   180.00   4.18400   2 ;     C4-    C2-    N3-    H3
   183    175    174    172      4   180.00   4.18400   2 ;     C2-    C6-    N1-   C1'
   204    207    205    206      4   180.00   4.60240   2 ;     N1-    C5-    C6-    H6
   204    211    213    214      4   180.00  43.93200   2 ;     N1-    N3-    C2-    O2
   205    209    207    208      4   180.00   4.60240   2 ;     C6-    C4-    C5-    H5
   207    211    209    210      4   180.00  43.93200   2 ;     C5-    N3-    C4-    O4
   209    213    211    212      4   180.00   4.18400   2 ;     C4-    C2-    N3-    H3
   213    205    204    202      4   180.00   4.18400   2 ;     C2-    C6-    N1-   C1'
   234    237    235    236      4   180.00   4.60240   2 ;     N1-    C5-    C6-    H6
   234    241    243    244      4   180.00  43.93200   2 ;     N1-    N3-    C2-    O2
   235    239    237    238      4   180.00   4.60240   2 ;     C6-    C4-    C5-    H5
   237    241    239    240      4   180.00  43.93200   2 ;     C5-    N3-    C4-    O4
   239    243    241    242      4   180.00   4.18400   2 ;     C4-    C2-    N3-    H3
   243    235    234    232      4   180.00   4.18400   2 ;     C2-    C6-    N1-   C1'
   264    267    265    266      4   180.00   4.60240   2 ;     N1-    C5-    C6-    H6
   264    273    274    275      4   180.00  43.93200   2 ;     N1-    N3-    C2-    O2
   265    269    267    268      4   180.00   4.60240   2 ;     C6-    C4-    C5-    H5
   267    270    269    273      4   180.00   4.60240   2 ;     C5-    N4-    C4-    N3
   269    271    270    272      4   180.00   4.18400   2 ;     C4-   H41-    N4-   H42
   274    265    264    262      4   180.00   4.18400   2 ;     C2-    C6-    N1-   C1'
   295    298    296    297      4   180.00   4.60240   2 ;     N9-    N7-    C8-    H8
   299    295    309    308      4   180.00   0.00000   2 ;     C5-    N9-    C4-    N3
   299    302    300    301      4   180.00  43.93200   2 ;     C5-    N1-    C6-    O6
   300    304    302    303      4   180.00   4.18400   2 ;     C6-    C2-    N1-    H1
   300    309    299    298      4   180.00   0.00000   2 ;     C6-    C4-    C5-    N7
   304    306    305    307      4   180.00   4.18400   2 ;     C2-   H21-    N2-   H22
   305    302    304    308      4   180.00   4.60240   2 ;     N2-    N1-    C2-    N3
   309    296    295    293      4   180.00   4.18400   2 ;     C4-    C8-    N9-   C1'
   329    332    330    331      4   180.00   4.60240   2 ;     N9-    N7-    C8-    H8
   330    342    329    327      4   180.00   4.18400   2 ;     C8-    C4-    N9-   C1'
   333    329    342    341      4   180.00   0.00000   2 ;     C5-    N9-    C4-    N3
   333    335    334    338      4   180.00   4.60240   2 ;     C5-    N6-    C6-    N1
   334    336    335    337      4   180.00   4.18400   2 ;     C6-   H61-    N6-   H62
   334    342    333    332      4   180.00   0.00000   2 ;     C6-    C4-    C5-    N7
   338    341    339    340      4   180.00   4.60240   2 ;     N1-    N3-    C2-    H2
   362    365    363    364      4   180.00   4.60240   2 ;     N9-    N7-    C8-    H8
   366    362    376    375      4   180.00   0.00000   2 ;     C5-    N9-    C4-    N3
   366    369    367    368      4   180.00  43.93200   2 ;     C5-    N1-    C6-    O6
   367    371    369    370      4   180.00   4.18400   2 ;     C6-    C2-    N1-    H1
   367    376    366    365      4   180.00   0.00000   2 ;     C6-    C4-    C5-    N7
   371    373    372    374      4   180.00   4.18400   2 ;     C2-   H21-    N2-   H22
   372    369    371    375      4   180.00   4.60240   2 ;     N2-    N1-    C2-    N3
   376    363    362    360      4   180.00   4.18400   2 ;     C4-    C8-    N9-   C1'
   396    399    397    398      4   180.00   4.60240   2 ;     N1-    C5-    C6-    H6
   396    405    406    407      4   180.00  43.93200   2 ;     N1-    N3-    C2-    O2
   397    401    399    400      4   180.00   4.60240   2 ;     C6-    C4-    C5-    H5
   399    402    401    405      4   180.00   4.60240   2 ;     C5-    N4-    C4-    N3
   401    403    402    404      4   180.00   4.18400   2 ;     C4-   H41-    N4-   H42
   406    397    396    394      4   180.00   4.18400   2 ;     C2-    C6-    N1-   C1'
   427    430    428    429      4   180.00   4.60240   2 ;     N9-    N7-    C8-    H8
   431    427    441    440      4   180.00   0.00000   2 ;     C5-    N9-    C4-    N3
   431    434    432    433      4   180.00  43.93200   2 ;     C5-    N1-    C6-    O6
   432    436    434    435      4   180.00   4.18400   2 ;     C6-    C2-    N1-    H1
   432    441    431    430      4   180.00   0.00000   2 ;     C6-    C4-    C5-    N7
   436    438    437    439      4   180.00   4.18400   2 ;     C2-   H21-    N2-   H22
   437    434    436    440      4   180.00   4.60240   2 ;     N2-    N1-    C2-    N3
   441    428    427    425      4   180.00   4.18400   2 ;     C4-    C8-    N9-   C1'
   461    464    462    463      4   180.00   4.60240   2 ;     N1-    C5-    C6-    H6
   461    470    471    472      4   180.00  43.93200   2 ;     N1-    N3-    C2-    O2
   462    466    464    465      4   180.00   4.60240   2 ;     C6-    C4-    C5-    H5
   464    467    466    470      4   180.00   4.60240   2 ;     C5-    N4-    C4-    N3
   466    468    467    469      4   180.00   4.18400   2 ;     C4-   H41-    N4-   H42
   471    462    461    459      4   180.00   4.18400   2 ;     C2-    C6-    N1-   C1'
   492    495    493    494      4   180.00   4.60240   2 ;     N1-    C5-    C6-    H6
   492    499    501    502      4   180.00  43.93200   2 ;     N1-    N3-    C2-    O2
   493    497    495    496      4   180.00   4.60240   2 ;     C6-    C4-    C5-    H5
   495    499    497    498      4   180.00  43.93200   2 ;     C5-    N3-    C4-    O4
   497    501    499    500      4   180.00   4.18400   2 ;     C4-    C2-    N3-    H3
   501    493    492    490      4   180.00   4.18400   2 ;     C2-    C6-    N1-   C1'
