%VERSION  VERSION_STAMP = V0001.000  DATE = 04/07/26  09:36:01                  
%FLAG TITLE                                                                     
%FORMAT(20a4)                                                                   
default_name                                                                    
%FLAG POINTERS                                                                  
%FORMAT(10I8)                                                                   
   13174      18    9657    3535     398     581     897    1124       0       0
   24999    3197    3535     581    1124      49      94      58      32       0
       0       0       0       0       0       0       0       1      34       0
    3161
%FLAG ATOM_NAME                                                                 
%FORMAT(20a4)                                                                   
HO5'O5' C5' H5' H5''C4' H4' O4' C1' H1' N9  C8  H8  N7  C5  C6  N6  H61 H62 N1  
C2  H2  N3  C4  C3' H3' C2' H2' O2' HO2'O3' P   OP1 OP2 O5' C5' H5' H5''C4' H4' 
O4' C1' H1' N9  C8  H8  N7  C5  C6  O6  N1  H1  C2  N2  H21 H22 N3  C4  C3' H3' 
C2' H2' O2' HO2'O3' P   OP1 OP2 O5' C5' H5' H5''C4' H4' O4' C1' H1' N1  C6  H6  
C5  H5  C4  N4  H41 H42 N3  C2  O2  C3' H3' C2' H2' O2' HO2'O3' P   OP1 OP2 O5' 
C5' H5' H5''C4' H4' O4' C1' H1' N9  C8  H8  N7  C5  C6  O6  N1  H1  C2  N2  H21 
H22 N3  C4  C3' H3' C2' H2' O2' HO2'O3' P   OP1 OP2 O5' C5' H5' H5''C4' H4' O4' 
C1' H1' N1  C6  H6  C5  H5  C4  N4  H41 H42 N3  C2  O2  C3' H3' C2' H2' O2' HO2'
O3' P   OP1 OP2 O5' C5' H5' H5''C4' H4' O4' C1' H1' N1  C6  H6  C5  H5  C4  O4  
N3  H3  C2  O2  C3' H3' C2' H2' O2' HO2'O3' P   OP1 OP2 O5' C5' H5' H5''C4' H4' 
O4' C1' H1' N1  C6  H6  C5  H5  C4  O4  N3  H3  C2  O2  C3' H3' C2' H2' O2' HO2'
O3' P   OP1 OP2 O5' C5' H5' H5''C4' H4' O4' C1' H1' N1  C6  H6  C5  H5  C4  O4  
N3  H3  C2  O2  C3' H3' C2' H2' O2' HO2'O3' P   OP1 OP2 O5' C5' H5' H5''C4' H4' 
O4' C1' H1' N1  C6  H6  C5  H5  C4  N4  H41 H42 N3  C2  O2  C3' H3' C2' H2' O2' 
HO2'O3' P   OP1 OP2 O5' C5' H5' H5''C4' H4' O4' C1' H1' N9  C8  H8  N7  C5  C6  
O6  N1  H1  C2  N2  H21 H22 N3  C4  C3' H3' C2' H2' O2' HO2'O3' P   OP1 OP2 O5' 
C5' H5' H5''C4' H4' O4' C1' H1' N9  C8  H8  N7  C5  C6  N6  H61 H62 N1  C2  H2  
N3  C4  C3' H3' C2' H2' O2' HO2'O3' P   OP1 OP2 O5' C5' H5' H5''C4' H4' O4' C1' 
H1' N9  C8  H8  N7  C5  C6  O6  N1  H1  C2  N2  H21 H22 N3  C4  C3' H3' C2' H2' 
O2' HO2'O3' P   OP1 OP2 O5' C5' H5' H5''C4' H4' O4' C1' H1' N1  C6  H6  C5  H5  
C4  N4  H41 H42 N3  C2  O2  C3' H3' C2' H2' O2' HO2'O3' P   OP1 OP2 O5' C5' H5' 
H5''C4' H4' O4' C1' H1' N9  C8  H8  N7  C5  C6  O6  N1  H1  C2  N2  H21 H22 N3  
C4  C3' H3' C2' H2' O2' HO2'O3' P   OP1 OP2 O5' C5' H5' H5''C4' H4' O4' C1' H1' 
N1  C6  H6  C5  H5  C4  N4  H41 H42 N3  C2  O2  C3' H3' C2' H2' O2' HO2'O3' P   
OP1 OP2 O5' C5' H5' H5''C4' H4' O4' C1' H1' N1  C6  H6  C5  H5  C4  O4  N3  H3  
C2  O2  C3' H3' C2' H2' O2' HO2'O3' HO3'MG  MG  MG  MG  MG  MG  MG  MG  MG  MG  
Cl- Cl- Cl- Cl- Cl- Cl- Cl- Cl- Cl- Cl- O   H1  H2  EPW O   H1  H2  EPW O   H1  
H2  EPW O   H1  H2  EPW O   H1  H2  EPW O   H1  H2  EPW O   H1  H2  EPW O   H1  
H2  EPW O   H1  H2  EPW O   H1  H2  EPW O   H1  H2  EPW O   H1  H2  EPW O   H1  
H2  EPW O   H1  H2  EPW O   H1  H2  EPW O   H1  H2  EPW O   H1  H2  EPW O   H1  
H2  EPW O   H1  H2  EPW O   H1  H2  EPW O   H1  H2  EPW O   H1  H2  EPW O   H1  
H2  EPW O   H1  H2  EPW O   H1  H2  EPW O   H1  H2  EPW O   H1  H2  EPW O   H1  
H2  EPW O   H1  H2  EPW O   H1  H2  EPW O   H1  H2  EPW O   H1  H2  EPW O   H1  
H2  EPW O   H1  H2  EPW O   H1  H2  EPW O   H1  H2  EPW O   H1  H2  EPW O   H1  
H2  EPW O   H1  H2  EPW O   H1  H2  EPW O   H1  H2  EPW O   H1  H2  EPW O   H1  
H2  EPW O   H1  H2  EPW O   H1  H2  EPW O   H1  H2  EPW O   H1  H2  EPW O   H1  
H2  EPW O   H1  H2  EPW O   H1  H2  EPW O   H1  H2  EPW O   H1  H2  EPW O   H1  
H2  EPW O   H1  H2  EPW O   H1  H2  EPW O   H1  H2  EPW O   H1  H2  EPW O   H1  
H2  EPW O   H1  H2  EPW O   H1  H2  EPW O   H1  H2  EPW O   H1  H2  EPW O   H1  
H2  EPW O   H1  H2  EPW O   H1  H2  EPW O   H1  H2  EPW O   H1  H2  EPW O   H1  
H2  EPW O   H1  H2  EPW O   H1  H2  EPW O   H1  H2  EPW O   H1  H2  EPW O   H1  
H2  EPW O   H1  H2  EPW O   H1  H2  EPW O   H1  H2  EPW O   H1  H2  EPW O   H1  
H2  EPW O   H1  H2  EPW O   H1  H2  EPW O   H1  H2  EPW O   H1  H2  EPW O   H1  
H2  EPW O   H1  H2  EPW O   H1  H2  EPW O   H1  H2  EPW O   H1  H2  EPW O   H1  
H2  EPW O   H1  H2  EPW O   H1  H2  EPW O   H1  H2  EPW O   H1  H2  EPW O   H1  
H2  EPW O   H1  H2  EPW O   H1  H2  EPW O   H1  H2  EPW O   H1  H2  EPW O   H1  
H2  EPW O   H1  H2  EPW O   H1  H2  EPW O   H1  H2  EPW O   H1  H2  EPW O   H1  
H2  EPW O   H1  H2  EPW O   H1  H2  EPW O   H1  H2  EPW O   H1  H2  EPW O   H1  
H2  EPW O   H1  H2  EPW O   H1  H2  EPW O   H1  H2  EPW O   H1  H2  EPW O   H1  
H2  EPW O   H1  H2  EPW O   H1  H2  EPW O   H1  H2  EPW O   H1  H2  EPW O   H1  
H2  EPW O   H1  H2  EPW O   H1  H2  EPW O   H1  H2  EPW O   H1  H2  EPW O   H1  
H2  EPW O   H1  H2  EPW O   H1  H2  EPW O   H1  H2  EPW O   H1  H2  EPW O   H1  
H2  EPW O   H1  H2  EPW O   H1  H2  EPW O   H1  H2  EPW O   H1  H2  EPW O   H1  
H2  EPW O   H1  H2  EPW O   H1  H2  EPW O   H1  H2  EPW O   H1  H2  EPW O   H1  
H2  EPW O   H1  H2  EPW O   H1  H2  EPW O   H1  H2  EPW O   H1  H2  EPW O   H1  
H2  EPW O   H1  H2  EPW O   H1  H2  EPW O   H1  H2  EPW O   H1  H2  EPW O   H1  
H2  EPW O   H1  H2  EPW O   H1  H2  EPW O   H1  H2  EPW O   H1  H2  EPW O   H1  
H2  EPW O   H1  H2  EPW O   H1  H2  EPW O   H1  H2  EPW O   H1  H2  EPW O   H1  
H2  EPW O   H1  H2  EPW O   H1  H2  EPW O   H1  H2  EPW O   H1  H2  EPW O   H1  
H2  EPW O   H1  H2  EPW O   H1  H2  EPW O   H1  H2  EPW O   H1  H2  EPW O   H1  
H2  EPW O   H1  H2  EPW O   H1  H2  EPW O   H1  H2  EPW O   H1  H2  EPW O   H1  
H2  EPW O   H1  H2  EPW O   H1  H2  EPW O   H1  H2  EPW O   H1  H2  EPW O   H1  
H2  EPW O   H1  H2  EPW O   H1  H2  EPW O   H1  H2  EPW O   H1  H2  EPW O   H1  
H2  EPW O   H1  H2  EPW O   H1  H2  EPW O   H1  H2  EPW O   H1  H2  EPW O   H1  
H2  EPW O   H1  H2  EPW O   H1  H2  EPW O   H1  H2  EPW O   H1  H2  EPW O   H1  
H2  EPW O   H1  H2  EPW O   H1  H2  EPW O   H1  H2  EPW O   H1  H2  EPW O   H1  
H2  EPW O   H1  H2  EPW O   H1  H2  EPW O   H1  H2  EPW O   H1  H2  EPW O   H1  
H2  EPW O   H1  H2  EPW O   H1  H2  EPW O   H1  H2  EPW O   H1  H2  EPW O   H1  
H2  EPW O   H1  H2  EPW O   H1  H2  EPW O   H1  H2  EPW O   H1  H2  EPW O   H1  
H2  EPW O   H1  H2  EPW O   H1  H2  EPW O   H1  H2  EPW O   H1  H2  EPW O   H1  
H2  EPW O   H1  H2  EPW O   H1  H2  EPW O   H1  H2  EPW O   H1  H2  EPW O   H1  
H2  EPW O   H1  H2  EPW O   H1  H2  EPW O   H1  H2  EPW O   H1  H2  EPW O   H1  
H2  EPW O   H1  H2  EPW O   H1  H2  EPW O   H1  H2  EPW O   H1  H2  EPW O   H1  
H2  EPW O   H1  H2  EPW O   H1  H2  EPW O   H1  H2  EPW O   H1  H2  EPW O   H1  
H2  EPW O   H1  H2  EPW O   H1  H2  EPW O   H1  H2  EPW O   H1  H2  EPW O   H1  
H2  EPW O   H1  H2  EPW O   H1  H2  EPW O   H1  H2  EPW O   H1  H2  EPW O   H1  
H2  EPW O   H1  H2  EPW O   H1  H2  EPW O   H1  H2  EPW O   H1  H2  EPW O   H1  
H2  EPW O   H1  H2  EPW O   H1  H2  EPW O   H1  H2  EPW O   H1  H2  EPW O   H1  
H2  EPW O   H1  H2  EPW O   H1  H2  EPW O   H1  H2  EPW O   H1  H2  EPW O   H1  
H2  EPW O   H1  H2  EPW O   H1  H2  EPW O   H1  H2  EPW O   H1  H2  EPW O   H1  
H2  EPW O   H1  H2  EPW O   H1  H2  EPW O   H1  H2  EPW O   H1  H2  EPW O   H1  
H2  EPW O   H1  H2  EPW O   H1  H2  EPW O   H1  H2  EPW O   H1  H2  EPW O   H1  
H2  EPW O   H1  H2  EPW O   H1  H2  EPW O   H1  H2  EPW O   H1  H2  EPW O   H1  
H2  EPW O   H1  H2  EPW O   H1  H2  EPW O   H1  H2  EPW O   H1  H2  EPW O   H1  
H2  EPW O   H1  H2  EPW O   H1  H2  EPW O   H1  H2  EPW O   H1  H2  EPW O   H1  
H2  EPW O   H1  H2  EPW O   H1  H2  EPW O   H1  H2  EPW O   H1  H2  EPW O   H1  
H2  EPW O   H1  H2  EPW O   H1  H2  EPW O   H1  H2  EPW O   H1  H2  EPW O   H1  
H2  EPW O   H1  H2  EPW O   H1  H2  EPW O   H1  H2  EPW O   H1  H2  EPW O   H1  
H2  EPW O   H1  H2  EPW O   H1  H2  EPW O   H1  H2  EPW O   H1  H2  EPW O   H1  
H2  EPW O   H1  H2  EPW O   H1  H2  EPW O   H1  H2  EPW O   H1  H2  EPW O   H1  
H2  EPW O   H1  H2  EPW O   H1  H2  EPW O   H1  H2  EPW O   H1  H2  EPW O   H1  
H2  EPW O   H1  H2  EPW O   H1  H2  EPW O   H1  H2  EPW O   H1  H2  EPW O   H1  
H2  EPW O   H1  H2  EPW O   H1  H2  EPW O   H1  H2  EPW O   H1  H2  EPW O   H1  
H2  EPW O   H1  H2  EPW O   H1  H2  EPW O   H1  H2  EPW O   H1  H2  EPW O   H1  
H2  EPW O   H1  H2  EPW O   H1  H2  EPW O   H1  H2  EPW O   H1  H2  EPW O   H1  
H2  EPW O   H1  H2  EPW O   H1  H2  EPW O   H1  H2  EPW O   H1  H2  EPW O   H1  
H2  EPW O   H1  H2  EPW O   H1  H2  EPW O   H1  H2  EPW O   H1  H2  EPW O   H1  
H2  EPW O   H1  H2  EPW O   H1  H2  EPW O   H1  H2  EPW O   H1  H2  EPW O   H1  
H2  EPW O   H1  H2  EPW O   H1  H2  EPW O   H1  H2  EPW O   H1  H2  EPW O   H1  
H2  EPW O   H1  H2  EPW O   H1  H2  EPW O   H1  H2  EPW O   H1  H2  EPW O   H1  
H2  EPW O   H1  H2  EPW O   H1  H2  EPW O   H1  H2  EPW O   H1  H2  EPW O   H1  
H2  EPW O   H1  H2  EPW O   H1  H2  EPW O   H1  H2  EPW O   H1  H2  EPW O   H1  
H2  EPW O   H1  H2  EPW O   H1  H2  EPW O   H1  H2  EPW O   H1  H2  EPW O   H1  
H2  EPW O   H1  H2  EPW O   H1  H2  EPW O   H1  H2  EPW O   H1  H2  EPW O   H1  
H2  EPW O   H1  H2  EPW O   H1  H2  EPW O   H1  H2  EPW O   H1  H2  EPW O   H1  
H2  EPW O   H1  H2  EPW O   H1  H2  EPW O   H1  H2  EPW O   H1  H2  EPW O   H1  
H2  EPW O   H1  H2  EPW O   H1  H2  EPW O   H1  H2  EPW O   H1  H2  EPW O   H1  
H2  EPW O   H1  H2  EPW O   H1  H2  EPW O   H1  H2  EPW O   H1  H2  EPW O   H1  
H2  EPW O   H1  H2  EPW O   H1  H2  EPW O   H1  H2  EPW O   H1  H2  EPW O   H1  
H2  EPW O   H1  H2  EPW O   H1  H2  EPW O   H1  H2  EPW O   H1  H2  EPW O   H1  
H2  EPW O   H1  H2  EPW O   H1  H2  EPW O   H1  H2  EPW O   H1  H2  EPW O   H1  
H2  EPW O   H1  H2  EPW O   H1  H2  EPW O   H1  H2  EPW O   H1  H2  EPW O   H1  
H2  EPW O   H1  H2  EPW O   H1  H2  EPW O   H1  H2  EPW O   H1  H2  EPW O   H1  
H2  EPW O   H1  H2  EPW O   H1  H2  EPW O   H1  H2  EPW O   H1  H2  EPW O   H1  
H2  EPW O   H1  H2  EPW O   H1  H2  EPW O   H1  H2  EPW O   H1  H2  EPW O   H1  
H2  EPW O   H1  H2  EPW O   H1  H2  EPW O   H1  H2  EPW O   H1  H2  EPW O   H1  
H2  EPW O   H1  H2  EPW O   H1  H2  EPW O   H1  H2  EPW O   H1  H2  EPW O   H1  
H2  EPW O   H1  H2  EPW O   H1  H2  EPW O   H1  H2  EPW O   H1  H2  EPW O   H1  
H2  EPW O   H1  H2  EPW O   H1  H2  EPW O   H1  H2  EPW O   H1  H2  EPW O   H1  
H2  EPW O   H1  H2  EPW O   H1  H2  EPW O   H1  H2  EPW O   H1  H2  EPW O   H1  
H2  EPW O   H1  H2  EPW O   H1  H2  EPW O   H1  H2  EPW O   H1  H2  EPW O   H1  
H2  EPW O   H1  H2  EPW O   H1  H2  EPW O   H1  H2  EPW O   H1  H2  EPW O   H1  
H2  EPW O   H1  H2  EPW O   H1  H2  EPW O   H1  H2  EPW O   H1  H2  EPW O   H1  
H2  EPW O   H1  H2  EPW O   H1  H2  EPW O   H1  H2  EPW O   H1  H2  EPW O   H1  
H2  EPW O   H1  H2  EPW O   H1  H2  EPW O   H1  H2  EPW O   H1  H2  EPW O   H1  
H2  EPW O   H1  H2  EPW O   H1  H2  EPW O   H1  H2  EPW O   H1  H2  EPW O   H1  
H2  EPW O   H1  H2  EPW O   H1  H2  EPW O   H1  H2  EPW O   H1  H2  EPW O   H1  
H2  EPW O   H1  H2  EPW O   H1  H2  EPW O   H1  H2  EPW O   H1  H2  EPW O   H1  
H2  EPW O   H1  H2  EPW O   H1  H2  EPW O   H1  H2  EPW O   H1  H2  EPW O   H1  
H2  EPW O   H1  H2  EPW O   H1  H2  EPW O   H1  H2  EPW O   H1  H2  EPW O   H1  
H2  EPW O   H1  H2  EPW O   H1  H2  EPW O   H1  H2  EPW O   H1  H2  EPW O   H1  
H2  EPW O   H1  H2  EPW O   H1  H2  EPW O   H1  H2  EPW O   H1  H2  EPW O   H1  
H2  EPW O   H1  H2  EPW O   H1  H2  EPW O   H1  H2  EPW O   H1  H2  EPW O   H1  
H2  EPW O   H1  H2  EPW O   H1  H2  EPW O   H1  H2  EPW O   H1  H2  EPW O   H1  
H2  EPW O   H1  H2  EPW O   H1  H2  EPW O   H1  H2  EPW O   H1  H2  EPW O   H1  
H2  EPW O   H1  H2  EPW O   H1  H2  EPW O   H1  H2  EPW O   H1  H2  EPW O   H1  
H2  EPW O   H1  H2  EPW O   H1  H2  EPW O   H1  H2  EPW O   H1  H2  EPW O   H1  
H2  EPW O   H1  H2  EPW O   H1  H2  EPW O   H1  H2  EPW O   H1  H2  EPW O   H1  
H2  EPW O   H1  H2  EPW O   H1  H2  EPW O   H1  H2  EPW O   H1  H2  EPW O   H1  
H2  EPW O   H1  H2  EPW O   H1  H2  EPW O   H1  H2  EPW O   H1  H2  EPW O   H1  
H2  EPW O   H1  H2  EPW O   H1  H2  EPW O   H1  H2  EPW O   H1  H2  EPW O   H1  
H2  EPW O   H1  H2  EPW O   H1  H2  EPW O   H1  H2  EPW O   H1  H2  EPW O   H1  
H2  EPW O   H1  H2  EPW O   H1  H2  EPW O   H1  H2  EPW O   H1  H2  EPW O   H1  
H2  EPW O   H1  H2  EPW O   H1  H2  EPW O   H1  H2  EPW O   H1  H2  EPW O   H1  
H2  EPW O   H1  H2  EPW O   H1  H2  EPW O   H1  H2  EPW O   H1  H2  EPW O   H1  
H2  EPW O   H1  H2  EPW O   H1  H2  EPW O   H1  H2  EPW O   H1  H2  EPW O   H1  
H2  EPW O   H1  H2  EPW O   H1  H2  EPW O   H1  H2  EPW O   H1  H2  EPW O   H1  
H2  EPW O   H1  H2  EPW O   H1  H2  EPW O   H1  H2  EPW O   H1  H2  EPW O   H1  
H2  EPW O   H1  H2  EPW O   H1  H2  EPW O   H1  H2  EPW O   H1  H2  EPW O   H1  
H2  EPW O   H1  H2  EPW O   H1  H2  EPW O   H1  H2  EPW O   H1  H2  EPW O   H1  
H2  EPW O   H1  H2  EPW O   H1  H2  EPW O   H1  H2  EPW O   H1  H2  EPW O   H1  
H2  EPW O   H1  H2  EPW O   H1  H2  EPW O   H1  H2  EPW O   H1  H2  EPW O   H1  
H2  EPW O   H1  H2  EPW O   H1  H2  EPW O   H1  H2  EPW O   H1  H2  EPW O   H1  
H2  EPW O   H1  H2  EPW O   H1  H2  EPW O   H1  H2  EPW O   H1  H2  EPW O   H1  
H2  EPW O   H1  H2  EPW O   H1  H2  EPW O   H1  H2  EPW O   H1  H2  EPW O   H1  
H2  EPW O   H1  H2  EPW O   H1  H2  EPW O   H1  H2  EPW O   H1  H2  EPW O   H1  
H2  EPW O   H1  H2  EPW O   H1  H2  EPW O   H1  H2  EPW O   H1  H2  EPW O   H1  
H2  EPW O   H1  H2  EPW O   H1  H2  EPW O   H1  H2  EPW O   H1  H2  EPW O   H1  
H2  EPW O   H1  H2  EPW O   H1  H2  EPW O   H1  H2  EPW O   H1  H2  EPW O   H1  
H2  EPW O   H1  H2  EPW O   H1  H2  EPW O   H1  H2  EPW O   H1  H2  EPW O   H1  
H2  EPW O   H1  H2  EPW O   H1  H2  EPW O   H1  H2  EPW O   H1  H2  EPW O   H1  
H2  EPW O   H1  H2  EPW O   H1  H2  EPW O   H1  H2  EPW O   H1  H2  EPW O   H1  
H2  EPW O   H1  H2  EPW O   H1  H2  EPW O   H1  H2  EPW O   H1  H2  EPW O   H1  
H2  EPW O   H1  H2  EPW O   H1  H2  EPW O   H1  H2  EPW O   H1  H2  EPW O   H1  
H2  EPW O   H1  H2  EPW O   H1  H2  EPW O   H1  H2  EPW O   H1  H2  EPW O   H1  
H2  EPW O   H1  H2  EPW O   H1  H2  EPW O   H1  H2  EPW O   H1  H2  EPW O   H1  
H2  EPW O   H1  H2  EPW O   H1  H2  EPW O   H1  H2  EPW O   H1  H2  EPW O   H1  
H2  EPW O   H1  H2  EPW O   H1  H2  EPW O   H1  H2  EPW O   H1  H2  EPW O   H1  
H2  EPW O   H1  H2  EPW O   H1  H2  EPW O   H1  H2  EPW O   H1  H2  EPW O   H1  
H2  EPW O   H1  H2  EPW O   H1  H2  EPW O   H1  H2  EPW O   H1  H2  EPW O   H1  
H2  EPW O   H1  H2  EPW O   H1  H2  EPW O   H1  H2  EPW O   H1  H2  EPW O   H1  
H2  EPW O   H1  H2  EPW O   H1  H2  EPW O   H1  H2  EPW O   H1  H2  EPW O   H1  
H2  EPW O   H1  H2  EPW O   H1  H2  EPW O   H1  H2  EPW O   H1  H2  EPW O   H1  
H2  EPW O   H1  H2  EPW O   H1  H2  EPW O   H1  H2  EPW O   H1  H2  EPW O   H1  
H2  EPW O   H1  H2  EPW O   H1  H2  EPW O   H1  H2  EPW O   H1  H2  EPW O   H1  
H2  EPW O   H1  H2  EPW O   H1  H2  EPW O   H1  H2  EPW O   H1  H2  EPW O   H1  
H2  EPW O   H1  H2  EPW O   H1  H2  EPW O   H1  H2  EPW O   H1  H2  EPW O   H1  
H2  EPW O   H1  H2  EPW O   H1  H2  EPW O   H1  H2  EPW O   H1  H2  EPW O   H1  
H2  EPW O   H1  H2  EPW O   H1  H2  EPW O   H1  H2  EPW O   H1  H2  EPW O   H1  
H2  EPW O   H1  H2  EPW O   H1  H2  EPW O   H1  H2  EPW O   H1  H2  EPW O   H1  
H2  EPW O   H1  H2  EPW O   H1  H2  EPW O   H1  H2  EPW O   H1  H2  EPW O   H1  
H2  EPW O   H1  H2  EPW O   H1  H2  EPW O   H1  H2  EPW O   H1  H2  EPW O   H1  
H2  EPW O   H1  H2  EPW O   H1  H2  EPW O   H1  H2  EPW O   H1  H2  EPW O   H1  
H2  EPW O   H1  H2  EPW O   H1  H2  EPW O   H1  H2  EPW O   H1  H2  EPW O   H1  
H2  EPW O   H1  H2  EPW O   H1  H2  EPW O   H1  H2  EPW O   H1  H2  EPW O   H1  
H2  EPW O   H1  H2  EPW O   H1  H2  EPW O   H1  H2  EPW O   H1  H2  EPW O   H1  
H2  EPW O   H1  H2  EPW O   H1  H2  EPW O   H1  H2  EPW O   H1  H2  EPW O   H1  
H2  EPW O   H1  H2  EPW O   H1  H2  EPW O   H1  H2  EPW O   H1  H2  EPW O   H1  
H2  EPW O   H1  H2  EPW O   H1  H2  EPW O   H1  H2  EPW O   H1  H2  EPW O   H1  
H2  EPW O   H1  H2  EPW O   H1  H2  EPW O   H1  H2  EPW O   H1  H2  EPW O   H1  
H2  EPW O   H1  H2  EPW O   H1  H2  EPW O   H1  H2  EPW O   H1  H2  EPW O   H1  
H2  EPW O   H1  H2  EPW O   H1  H2  EPW O   H1  H2  EPW O   H1  H2  EPW O   H1  
H2  EPW O   H1  H2  EPW O   H1  H2  EPW O   H1  H2  EPW O   H1  H2  EPW O   H1  
H2  EPW O   H1  H2  EPW O   H1  H2  EPW O   H1  H2  EPW O   H1  H2  EPW O   H1  
H2  EPW O   H1  H2  EPW O   H1  H2  EPW O   H1  H2  EPW O   H1  H2  EPW O   H1  
H2  EPW O   H1  H2  EPW O   H1  H2  EPW O   H1  H2  EPW O   H1  H2  EPW O   H1  
H2  EPW O   H1  H2  EPW O   H1  H2  EPW O   H1  H2  EPW O   H1  H2  EPW O   H1  
H2  EPW O   H1  H2  EPW O   H1  H2  EPW O   H1  H2  EPW O   H1  H2  EPW O   H1  
H2  EPW O   H1  H2  EPW O   H1  H2  EPW O   H1  H2  EPW O   H1  H2  EPW O   H1  
H2  EPW O   H1  H2  EPW O   H1  H2  EPW O   H1  H2  EPW O   H1  H2  EPW O   H1  
H2  EPW O   H1  H2  EPW O   H1  H2  EPW O   H1  H2  EPW O   H1  H2  EPW O   H1  
H2  EPW O   H1  H2  EPW O   H1  H2  EPW O   H1  H2  EPW O   H1  H2  EPW O   H1  
H2  EPW O   H1  H2  EPW O   H1  H2  EPW O   H1  H2  EPW O   H1  H2  EPW O   H1  
H2  EPW O   H1  H2  EPW O   H1  H2  EPW O   H1  H2  EPW O   H1  H2  EPW O   H1  
H2  EPW O   H1  H2  EPW O   H1  H2  EPW O   H1  H2  EPW O   H1  H2  EPW O   H1  
H2  EPW O   H1  H2  EPW O   H1  H2  EPW O   H1  H2  EPW O   H1  H2  EPW O   H1  
H2  EPW O   H1  H2  EPW O   H1  H2  EPW O   H1  H2  EPW O   H1  H2  EPW O   H1  
H2  EPW O   H1  H2  EPW O   H1  H2  EPW O   H1  H2  EPW O   H1  H2  EPW O   H1  
H2  EPW O   H1  H2  EPW O   H1  H2  EPW O   H1  H2  EPW O   H1  H2  EPW O   H1  
H2  EPW O   H1  H2  EPW O   H1  H2  EPW O   H1  H2  EPW O   H1  H2  EPW O   H1  
H2  EPW O   H1  H2  EPW O   H1  H2  EPW O   H1  H2  EPW O   H1  H2  EPW O   H1  
H2  EPW O   H1  H2  EPW O   H1  H2  EPW O   H1  H2  EPW O   H1  H2  EPW O   H1  
H2  EPW O   H1  H2  EPW O   H1  H2  EPW O   H1  H2  EPW O   H1  H2  EPW O   H1  
H2  EPW O   H1  H2  EPW O   H1  H2  EPW O   H1  H2  EPW O   H1  H2  EPW O   H1  
H2  EPW O   H1  H2  EPW O   H1  H2  EPW O   H1  H2  EPW O   H1  H2  EPW O   H1  
H2  EPW O   H1  H2  EPW O   H1  H2  EPW O   H1  H2  EPW O   H1  H2  EPW O   H1  
H2  EPW O   H1  H2  EPW O   H1  H2  EPW O   H1  H2  EPW O   H1  H2  EPW O   H1  
H2  EPW O   H1  H2  EPW O   H1  H2  EPW O   H1  H2  EPW O   H1  H2  EPW O   H1  
H2  EPW O   H1  H2  EPW O   H1  H2  EPW O   H1  H2  EPW O   H1  H2  EPW O   H1  
H2  EPW O   H1  H2  EPW O   H1  H2  EPW O   H1  H2  EPW O   H1  H2  EPW O   H1  
H2  EPW O   H1  H2  EPW O   H1  H2  EPW O   H1  H2  EPW O   H1  H2  EPW O   H1  
H2  EPW O   H1  H2  EPW O   H1  H2  EPW O   H1  H2  EPW O   H1  H2  EPW O   H1  
H2  EPW O   H1  H2  EPW O   H1  H2  EPW O   H1  H2  EPW O   H1  H2  EPW O   H1  
H2  EPW O   H1  H2  EPW O   H1  H2  EPW O   H1  H2  EPW O   H1  H2  EPW O   H1  
H2  EPW O   H1  H2  EPW O   H1  H2  EPW O   H1  H2  EPW O   H1  H2  EPW O   H1  
H2  EPW O   H1  H2  EPW O   H1  H2  EPW O   H1  H2  EPW O   H1  H2  EPW O   H1  
H2  EPW O   H1  H2  EPW O   H1  H2  EPW O   H1  H2  EPW O   H1  H2  EPW O   H1  
H2  EPW O   H1  H2  EPW O   H1  H2  EPW O   H1  H2  EPW O   H1  H2  EPW O   H1  
H2  EPW O   H1  H2  EPW O   H1  H2  EPW O   H1  H2  EPW O   H1  H2  EPW O   H1  
H2  EPW O   H1  H2  EPW O   H1  H2  EPW O   H1  H2  EPW O   H1  H2  EPW O   H1  
H2  EPW O   H1  H2  EPW O   H1  H2  EPW O   H1  H2  EPW O   H1  H2  EPW O   H1  
H2  EPW O   H1  H2  EPW O   H1  H2  EPW O   H1  H2  EPW O   H1  H2  EPW O   H1  
H2  EPW O   H1  H2  EPW O   H1  H2  EPW O   H1  H2  EPW O   H1  H2  EPW O   H1  
H2  EPW O   H1  H2  EPW O   H1  H2  EPW O   H1  H2  EPW O   H1  H2  EPW O   H1  
H2  EPW O   H1  H2  EPW O   H1  H2  EPW O   H1  H2  EPW O   H1  H2  EPW O   H1  
H2  EPW O   H1  H2  EPW O   H1  H2  EPW O   H1  H2  EPW O   H1  H2  EPW O   H1  
H2  EPW O   H1  H2  EPW O   H1  H2  EPW O   H1  H2  EPW O   H1  H2  EPW O   H1  
H2  EPW O   H1  H2  EPW O   H1  H2  EPW O   H1  H2  EPW O   H1  H2  EPW O   H1  
H2  EPW O   H1  H2  EPW O   H1  H2  EPW O   H1  H2  EPW O   H1  H2  EPW O   H1  
H2  EPW O   H1  H2  EPW O   H1  H2  EPW O   H1  H2  EPW O   H1  H2  EPW O   H1  
H2  EPW O   H1  H2  EPW O   H1  H2  EPW O   H1  H2  EPW O   H1  H2  EPW O   H1  
H2  EPW O   H1  H2  EPW O   H1  H2  EPW O   H1  H2  EPW O   H1  H2  EPW O   H1  
H2  EPW O   H1  H2  EPW O   H1  H2  EPW O   H1  H2  EPW O   H1  H2  EPW O   H1  
H2  EPW O   H1  H2  EPW O   H1  H2  EPW O   H1  H2  EPW O   H1  H2  EPW O   H1  
H2  EPW O   H1  H2  EPW O   H1  H2  EPW O   H1  H2  EPW O   H1  H2  EPW O   H1  
H2  EPW O   H1  H2  EPW O   H1  H2  EPW O   H1  H2  EPW O   H1  H2  EPW O   H1  
H2  EPW O   H1  H2  EPW O   H1  H2  EPW O   H1  H2  EPW O   H1  H2  EPW O   H1  
H2  EPW O   H1  H2  EPW O   H1  H2  EPW O   H1  H2  EPW O   H1  H2  EPW O   H1  
H2  EPW O   H1  H2  EPW O   H1  H2  EPW O   H1  H2  EPW O   H1  H2  EPW O   H1  
H2  EPW O   H1  H2  EPW O   H1  H2  EPW O   H1  H2  EPW O   H1  H2  EPW O   H1  
H2  EPW O   H1  H2  EPW O   H1  H2  EPW O   H1  H2  EPW O   H1  H2  EPW O   H1  
H2  EPW O   H1  H2  EPW O   H1  H2  EPW O   H1  H2  EPW O   H1  H2  EPW O   H1  
H2  EPW O   H1  H2  EPW O   H1  H2  EPW O   H1  H2  EPW O   H1  H2  EPW O   H1  
H2  EPW O   H1  H2  EPW O   H1  H2  EPW O   H1  H2  EPW O   H1  H2  EPW O   H1  
H2  EPW O   H1  H2  EPW O   H1  H2  EPW O   H1  H2  EPW O   H1  H2  EPW O   H1  
H2  EPW O   H1  H2  EPW O   H1  H2  EPW O   H1  H2  EPW O   H1  H2  EPW O   H1  
H2  EPW O   H1  H2  EPW O   H1  H2  EPW O   H1  H2  EPW O   H1  H2  EPW O   H1  
H2  EPW O   H1  H2  EPW O   H1  H2  EPW O   H1  H2  EPW O   H1  H2  EPW O   H1  
H2  EPW O   H1  H2  EPW O   H1  H2  EPW O   H1  H2  EPW O   H1  H2  EPW O   H1  
H2  EPW O   H1  H2  EPW O   H1  H2  EPW O   H1  H2  EPW O   H1  H2  EPW O   H1  
H2  EPW O   H1  H2  EPW O   H1  H2  EPW O   H1  H2  EPW O   H1  H2  EPW O   H1  
H2  EPW O   H1  H2  EPW O   H1  H2  EPW O   H1  H2  EPW O   H1  H2  EPW O   H1  
H2  EPW O   H1  H2  EPW O   H1  H2  EPW O   H1  H2  EPW O   H1  H2  EPW O   H1  
H2  EPW O   H1  H2  EPW O   H1  H2  EPW O   H1  H2  EPW O   H1  H2  EPW O   H1  
H2  EPW O   H1  H2  EPW O   H1  H2  EPW O   H1  H2  EPW O   H1  H2  EPW O   H1  
H2  EPW O   H1  H2  EPW O   H1  H2  EPW O   H1  H2  EPW O   H1  H2  EPW O   H1  
H2  EPW O   H1  H2  EPW O   H1  H2  EPW O   H1  H2  EPW O   H1  H2  EPW O   H1  
H2  EPW O   H1  H2  EPW O   H1  H2  EPW O   H1  H2  EPW O   H1  H2  EPW O   H1  
H2  EPW O   H1  H2  EPW O   H1  H2  EPW O   H1  H2  EPW O   H1  H2  EPW O   H1  
H2  EPW O   H1  H2  EPW O   H1  H2  EPW O   H1  H2  EPW O   H1  H2  EPW O   H1  
H2  EPW O   H1  H2  EPW O   H1  H2  EPW O   H1  H2  EPW O   H1  H2  EPW O   H1  
H2  EPW O   H1  H2  EPW O   H1  H2  EPW O   H1  H2  EPW O   H1  H2  EPW O   H1  
H2  EPW O   H1  H2  EPW O   H1  H2  EPW O   H1  H2  EPW O   H1  H2  EPW O   H1  
H2  EPW O   H1  H2  EPW O   H1  H2  EPW O   H1  H2  EPW O   H1  H2  EPW O   H1  
H2  EPW O   H1  H2  EPW O   H1  H2  EPW O   H1  H2  EPW O   H1  H2  EPW O   H1  
H2  EPW O   H1  H2  EPW O   H1  H2  EPW O   H1  H2  EPW O   H1  H2  EPW O   H1  
H2  EPW O   H1  H2  EPW O   H1  H2  EPW O   H1  H2  EPW O   H1  H2  EPW O   H1  
H2  EPW O   H1  H2  EPW O   H1  H2  EPW O   H1  H2  EPW O   H1  H2  EPW O   H1  
H2  EPW O   H1  H2  EPW O   H1  H2  EPW O   H1  H2  EPW O   H1  H2  EPW O   H1  
H2  EPW O   H1  H2  EPW O   H1  H2  EPW O   H1  H2  EPW O   H1  H2  EPW O   H1  
H2  EPW O   H1  H2  EPW O   H1  H2  EPW O   H1  H2  EPW O   H1  H2  EPW O   H1  
H2  EPW O   H1  H2  EPW O   H1  H2  EPW O   H1  H2  EPW O   H1  H2  EPW O   H1  
H2  EPW O   H1  H2  EPW O   H1  H2  EPW O   H1  H2  EPW O   H1  H2  EPW O   H1  
H2  EPW O   H1  H2  EPW O   H1  H2  EPW O   H1  H2  EPW O   H1  H2  EPW O   H1  
H2  EPW O   H1  H2  EPW O   H1  H2  EPW O   H1  H2  EPW O   H1  H2  EPW O   H1  
H2  EPW O   H1  H2  EPW O   H1  H2  EPW O   H1  H2  EPW O   H1  H2  EPW O   H1  
H2  EPW O   H1  H2  EPW O   H1  H2  EPW O   H1  H2  EPW O   H1  H2  EPW O   H1  
H2  EPW O   H1  H2  EPW O   H1  H2  EPW O   H1  H2  EPW O   H1  H2  EPW O   H1  
H2  EPW O   H1  H2  EPW O   H1  H2  EPW O   H1  H2  EPW O   H1  H2  EPW O   H1  
H2  EPW O   H1  H2  EPW O   H1  H2  EPW O   H1  H2  EPW O   H1  H2  EPW O   H1  
H2  EPW O   H1  H2  EPW O   H1  H2  EPW O   H1  H2  EPW O   H1  H2  EPW O   H1  
H2  EPW O   H1  H2  EPW O   H1  H2  EPW O   H1  H2  EPW O   H1  H2  EPW O   H1  
H2  EPW O   H1  H2  EPW O   H1  H2  EPW O   H1  H2  EPW O   H1  H2  EPW O   H1  
H2  EPW O   H1  H2  EPW O   H1  H2  EPW O   H1  H2  EPW O   H1  H2  EPW O   H1  
H2  EPW O   H1  H2  EPW O   H1  H2  EPW O   H1  H2  EPW O   H1  H2  EPW O   H1  
H2  EPW O   H1  H2  EPW O   H1  H2  EPW O   H1  H2  EPW O   H1  H2  EPW O   H1  
H2  EPW O   H1  H2  EPW O   H1  H2  EPW O   H1  H2  EPW O   H1  H2  EPW O   H1  
H2  EPW O   H1  H2  EPW O   H1  H2  EPW O   H1  H2  EPW O   H1  H2  EPW O   H1  
H2  EPW O   H1  H2  EPW O   H1  H2  EPW O   H1  H2  EPW O   H1  H2  EPW O   H1  
H2  EPW O   H1  H2  EPW O   H1  H2  EPW O   H1  H2  EPW O   H1  H2  EPW O   H1  
H2  EPW O   H1  H2  EPW O   H1  H2  EPW O   H1  H2  EPW O   H1  H2  EPW O   H1  
H2  EPW O   H1  H2  EPW O   H1  H2  EPW O   H1  H2  EPW O   H1  H2  EPW O   H1  
H2  EPW O   H1  H2  EPW O   H1  H2  EPW O   H1  H2  EPW O   H1  H2  EPW O   H1  
H2  EPW O   H1  H2  EPW O   H1  H2  EPW O   H1  H2  EPW O   H1  H2  EPW O   H1  
H2  EPW O   H1  H2  EPW O   H1  H2  EPW O   H1  H2  EPW O   H1  H2  EPW O   H1  
H2  EPW O   H1  H2  EPW O   H1  H2  EPW O   H1  H2  EPW O   H1  H2  EPW O   H1  
H2  EPW O   H1  H2  EPW O   H1  H2  EPW O   H1  H2  EPW O   H1  H2  EPW O   H1  
H2  EPW O   H1  H2  EPW O   H1  H2  EPW O   H1  H2  EPW O   H1  H2  EPW O   H1  
H2  EPW O   H1  H2  EPW O   H1  H2  EPW O   H1  H2  EPW O   H1  H2  EPW O   H1  
H2  EPW O   H1  H2  EPW O   H1  H2  EPW O   H1  H2  EPW O   H1  H2  EPW O   H1  
H2  EPW O   H1  H2  EPW O   H1  H2  EPW O   H1  H2  EPW O   H1  H2  EPW O   H1  
H2  EPW O   H1  H2  EPW O   H1  H2  EPW O   H1  H2  EPW O   H1  H2  EPW O   H1  
H2  EPW O   H1  H2  EPW O   H1  H2  EPW O   H1  H2  EPW O   H1  H2  EPW O   H1  
H2  EPW O   H1  H2  EPW O   H1  H2  EPW O   H1  H2  EPW O   H1  H2  EPW O   H1  
H2  EPW O   H1  H2  EPW O   H1  H2  EPW O   H1  H2  EPW O   H1  H2  EPW O   H1  
H2  EPW O   H1  H2  EPW O   H1  H2  EPW O   H1  H2  EPW O   H1  H2  EPW O   H1  
H2  EPW O   H1  H2  EPW O   H1  H2  EPW O   H1  H2  EPW O   H1  H2  EPW O   H1  
H2  EPW O   H1  H2  EPW O   H1  H2  EPW O   H1  H2  EPW O   H1  H2  EPW O   H1  
H2  EPW O   H1  H2  EPW O   H1  H2  EPW O   H1  H2  EPW O   H1  H2  EPW O   H1  
H2  EPW O   H1  H2  EPW O   H1  H2  EPW O   H1  H2  EPW O   H1  H2  EPW O   H1  
H2  EPW O   H1  H2  EPW O   H1  H2  EPW O   H1  H2  EPW O   H1  H2  EPW O   H1  
H2  EPW O   H1  H2  EPW O   H1  H2  EPW O   H1  H2  EPW O   H1  H2  EPW O   H1  
H2  EPW O   H1  H2  EPW O   H1  H2  EPW O   H1  H2  EPW O   H1  H2  EPW O   H1  
H2  EPW O   H1  H2  EPW O   H1  H2  EPW O   H1  H2  EPW O   H1  H2  EPW O   H1  
H2  EPW O   H1  H2  EPW O   H1  H2  EPW O   H1  H2  EPW O   H1  H2  EPW O   H1  
H2  EPW O   H1  H2  EPW O   H1  H2  EPW O   H1  H2  EPW O   H1  H2  EPW O   H1  
H2  EPW O   H1  H2  EPW O   H1  H2  EPW O   H1  H2  EPW O   H1  H2  EPW O   H1  
H2  EPW O   H1  H2  EPW O   H1  H2  EPW O   H1  H2  EPW O   H1  H2  EPW O   H1  
H2  EPW O   H1  H2  EPW O   H1  H2  EPW O   H1  H2  EPW O   H1  H2  EPW O   H1  
H2  EPW O   H1  H2  EPW O   H1  H2  EPW O   H1  H2  EPW O   H1  H2  EPW O   H1  
H2  EPW O   H1  H2  EPW O   H1  H2  EPW O   H1  H2  EPW O   H1  H2  EPW O   H1  
H2  EPW O   H1  H2  EPW O   H1  H2  EPW O   H1  H2  EPW O   H1  H2  EPW O   H1  
H2  EPW O   H1  H2  EPW O   H1  H2  EPW O   H1  H2  EPW O   H1  H2  EPW O   H1  
H2  EPW O   H1  H2  EPW O   H1  H2  EPW O   H1  H2  EPW O   H1  H2  EPW O   H1  
H2  EPW O   H1  H2  EPW O   H1  H2  EPW O   H1  H2  EPW O   H1  H2  EPW O   H1  
H2  EPW O   H1  H2  EPW O   H1  H2  EPW O   H1  H2  EPW O   H1  H2  EPW O   H1  
H2  EPW O   H1  H2  EPW O   H1  H2  EPW O   H1  H2  EPW O   H1  H2  EPW O   H1  
H2  EPW O   H1  H2  EPW O   H1  H2  EPW O   H1  H2  EPW O   H1  H2  EPW O   H1  
H2  EPW O   H1  H2  EPW O   H1  H2  EPW O   H1  H2  EPW O   H1  H2  EPW O   H1  
H2  EPW O   H1  H2  EPW O   H1  H2  EPW O   H1  H2  EPW O   H1  H2  EPW O   H1  
H2  EPW O   H1  H2  EPW O   H1  H2  EPW O   H1  H2  EPW O   H1  H2  EPW O   H1  
H2  EPW O   H1  H2  EPW O   H1  H2  EPW O   H1  H2  EPW O   H1  H2  EPW O   H1  
H2  EPW O   H1  H2  EPW O   H1  H2  EPW O   H1  H2  EPW O   H1  H2  EPW O   H1  
H2  EPW O   H1  H2  EPW O   H1  H2  EPW O   H1  H2  EPW O   H1  H2  EPW O   H1  
H2  EPW O   H1  H2  EPW O   H1  H2  EPW O   H1  H2  EPW O   H1  H2  EPW O   H1  
H2  EPW O   H1  H2  EPW O   H1  H2  EPW O   H1  H2  EPW O   H1  H2  EPW O   H1  
H2  EPW O   H1  H2  EPW O   H1  H2  EPW O   H1  H2  EPW O   H1  H2  EPW O   H1  
H2  EPW O   H1  H2  EPW O   H1  H2  EPW O   H1  H2  EPW O   H1  H2  EPW O   H1  
H2  EPW O   H1  H2  EPW O   H1  H2  EPW O   H1  H2  EPW O   H1  H2  EPW O   H1  
H2  EPW O   H1  H2  EPW O   H1  H2  EPW O   H1  H2  EPW O   H1  H2  EPW O   H1  
H2  EPW O   H1  H2  EPW O   H1  H2  EPW O   H1  H2  EPW O   H1  H2  EPW O   H1  
H2  EPW O   H1  H2  EPW O   H1  H2  EPW O   H1  H2  EPW O   H1  H2  EPW O   H1  
H2  EPW O   H1  H2  EPW O   H1  H2  EPW O   H1  H2  EPW O   H1  H2  EPW O   H1  
H2  EPW O   H1  H2  EPW O   H1  H2  EPW O   H1  H2  EPW O   H1  H2  EPW O   H1  
H2  EPW O   H1  H2  EPW O   H1  H2  EPW O   H1  H2  EPW O   H1  H2  EPW O   H1  
H2  EPW O   H1  H2  EPW O   H1  H2  EPW O   H1  H2  EPW O   H1  H2  EPW O   H1  
H2  EPW O   H1  H2  EPW O   H1  H2  EPW O   H1  H2  EPW O   H1  H2  EPW O   H1  
H2  EPW O   H1  H2  EPW O   H1  H2  EPW O   H1  H2  EPW O   H1  H2  EPW O   H1  
H2  EPW O   H1  H2  EPW O   H1  H2  EPW O   H1  H2  EPW O   H1  H2  EPW O   H1  
H2  EPW O   H1  H2  EPW O   H1  H2  EPW O   H1  H2  EPW O   H1  H2  EPW O   H1  
H2  EPW O   H1  H2  EPW O   H1  H2  EPW O   H1  H2  EPW O   H1  H2  EPW O   H1  
H2  EPW O   H1  H2  EPW O   H1  H2  EPW O   H1  H2  EPW O   H1  H2  EPW O   H1  
H2  EPW O   H1  H2  EPW O   H1  H2  EPW O   H1  H2  EPW O   H1  H2  EPW O   H1  
H2  EPW O   H1  H2  EPW O   H1  H2  EPW O   H1  H2  EPW O   H1  H2  EPW O   H1  
H2  EPW O   H1  H2  EPW O   H1  H2  EPW O   H1  H2  EPW O   H1  H2  EPW O   H1  
H2  EPW O   H1  H2  EPW O   H1  H2  EPW O   H1  H2  EPW O   H1  H2  EPW O   H1  
H2  EPW O   H1  H2  EPW O   H1  H2  EPW O   H1  H2  EPW O   H1  H2  EPW O   H1  
H2  EPW O   H1  H2  EPW O   H1  H2  EPW O   H1  H2  EPW O   H1  H2  EPW O   H1  
H2  EPW O   H1  H2  EPW O   H1  H2  EPW O   H1  H2  EPW O   H1  H2  EPW O   H1  
H2  EPW O   H1  H2  EPW O   H1  H2  EPW O   H1  H2  EPW O   H1  H2  EPW O   H1  
H2  EPW O   H1  H2  EPW O   H1  H2  EPW O   H1  H2  EPW O   H1  H2  EPW O   H1  
H2  EPW O   H1  H2  EPW O   H1  H2  EPW O   H1  H2  EPW O   H1  H2  EPW O   H1  
H2  EPW O   H1  H2  EPW O   H1  H2  EPW O   H1  H2  EPW O   H1  H2  EPW O   H1  
H2  EPW O   H1  H2  EPW O   H1  H2  EPW O   H1  H2  EPW O   H1  H2  EPW O   H1  
H2  EPW O   H1  H2  EPW O   H1  H2  EPW O   H1  H2  EPW O   H1  H2  EPW O   H1  
H2  EPW O   H1  H2  EPW O   H1  H2  EPW O   H1  H2  EPW O   H1  H2  EPW O   H1  
H2  EPW O   H1  H2  EPW O   H1  H2  EPW O   H1  H2  EPW O   H1  H2  EPW O   H1  
H2  EPW O   H1  H2  EPW O   H1  H2  EPW O   H1  H2  EPW O   H1  H2  EPW O   H1  
H2  EPW O   H1  H2  EPW O   H1  H2  EPW O   H1  H2  EPW O   H1  H2  EPW O   H1  
H2  EPW O   H1  H2  EPW O   H1  H2  EPW O   H1  H2  EPW O   H1  H2  EPW O   H1  
H2  EPW O   H1  H2  EPW O   H1  H2  EPW O   H1  H2  EPW O   H1  H2  EPW O   H1  
H2  EPW O   H1  H2  EPW O   H1  H2  EPW O   H1  H2  EPW O   H1  H2  EPW O   H1  
H2  EPW O   H1  H2  EPW O   H1  H2  EPW O   H1  H2  EPW O   H1  H2  EPW O   H1  
H2  EPW O   H1  H2  EPW O   H1  H2  EPW O   H1  H2  EPW O   H1  H2  EPW O   H1  
H2  EPW O   H1  H2  EPW O   H1  H2  EPW O   H1  H2  EPW O   H1  H2  EPW O   H1  
H2  EPW O   H1  H2  EPW O   H1  H2  EPW O   H1  H2  EPW O   H1  H2  EPW O   H1  
H2  EPW O   H1  H2  EPW O   H1  H2  EPW O   H1  H2  EPW O   H1  H2  EPW O   H1  
H2  EPW O   H1  H2  EPW O   H1  H2  EPW O   H1  H2  EPW O   H1  H2  EPW O   H1  
H2  EPW O   H1  H2  EPW O   H1  H2  EPW O   H1  H2  EPW O   H1  H2  EPW O   H1  
H2  EPW O   H1  H2  EPW O   H1  H2  EPW O   H1  H2  EPW O   H1  H2  EPW O   H1  
H2  EPW O   H1  H2  EPW O   H1  H2  EPW O   H1  H2  EPW O   H1  H2  EPW O   H1  
H2  EPW O   H1  H2  EPW O   H1  H2  EPW O   H1  H2  EPW O   H1  H2  EPW O   H1  
H2  EPW O   H1  H2  EPW O   H1  H2  EPW O   H1  H2  EPW O   H1  H2  EPW O   H1  
H2  EPW O   H1  H2  EPW O   H1  H2  EPW O   H1  H2  EPW O   H1  H2  EPW O   H1  
H2  EPW O   H1  H2  EPW O   H1  H2  EPW O   H1  H2  EPW O   H1  H2  EPW O   H1  
H2  EPW O   H1  H2  EPW O   H1  H2  EPW O   H1  H2  EPW O   H1  H2  EPW O   H1  
H2  EPW O   H1  H2  EPW O   H1  H2  EPW O   H1  H2  EPW O   H1  H2  EPW O   H1  
H2  EPW O   H1  H2  EPW O   H1  H2  EPW O   H1  H2  EPW O   H1  H2  EPW O   H1  
H2  EPW O   H1  H2  EPW O   H1  H2  EPW O   H1  H2  EPW O   H1  H2  EPW O   H1  
H2  EPW O   H1  H2  EPW O   H1  H2  EPW O   H1  H2  EPW O   H1  H2  EPW O   H1  
H2  EPW O   H1  H2  EPW O   H1  H2  EPW O   H1  H2  EPW O   H1  H2  EPW O   H1  
H2  EPW O   H1  H2  EPW O   H1  H2  EPW O   H1  H2  EPW O   H1  H2  EPW O   H1  
H2  EPW O   H1  H2  EPW O   H1  H2  EPW O   H1  H2  EPW O   H1  H2  EPW O   H1  
H2  EPW O   H1  H2  EPW O   H1  H2  EPW O   H1  H2  EPW O   H1  H2  EPW O   H1  
H2  EPW O   H1  H2  EPW O   H1  H2  EPW O   H1  H2  EPW O   H1  H2  EPW O   H1  
H2  EPW O   H1  H2  EPW O   H1  H2  EPW O   H1  H2  EPW O   H1  H2  EPW O   H1  
H2  EPW O   H1  H2  EPW O   H1  H2  EPW O   H1  H2  EPW O   H1  H2  EPW O   H1  
H2  EPW O   H1  H2  EPW O   H1  H2  EPW O   H1  H2  EPW O   H1  H2  EPW O   H1  
H2  EPW O   H1  H2  EPW O   H1  H2  EPW O   H1  H2  EPW O   H1  H2  EPW O   H1  
H2  EPW O   H1  H2  EPW O   H1  H2  EPW O   H1  H2  EPW O   H1  H2  EPW O   H1  
H2  EPW O   H1  H2  EPW O   H1  H2  EPW O   H1  H2  EPW O   H1  H2  EPW O   H1  
H2  EPW O   H1  H2  EPW O   H1  H2  EPW O   H1  H2  EPW O   H1  H2  EPW O   H1  
H2  EPW O   H1  H2  EPW O   H1  H2  EPW O   H1  H2  EPW O   H1  H2  EPW O   H1  
H2  EPW O   H1  H2  EPW O   H1  H2  EPW O   H1  H2  EPW O   H1  H2  EPW O   H1  
H2  EPW O   H1  H2  EPW O   H1  H2  EPW O   H1  H2  EPW O   H1  H2  EPW O   H1  
H2  EPW O   H1  H2  EPW O   H1  H2  EPW O   H1  H2  EPW O   H1  H2  EPW O   H1  
H2  EPW O   H1  H2  EPW O   H1  H2  EPW O   H1  H2  EPW O   H1  H2  EPW O   H1  
H2  EPW O   H1  H2  EPW O   H1  H2  EPW O   H1  H2  EPW O   H1  H2  EPW O   H1  
H2  EPW O   H1  H2  EPW O   H1  H2  EPW O   H1  H2  EPW O   H1  H2  EPW O   H1  
H2  EPW O   H1  H2  EPW O   H1  H2  EPW O   H1  H2  EPW O   H1  H2  EPW O   H1  
H2  EPW O   H1  H2  EPW O   H1  H2  EPW O   H1  H2  EPW O   H1  H2  EPW O   H1  
H2  EPW O   H1  H2  EPW O   H1  H2  EPW O   H1  H2  EPW O   H1  H2  EPW O   H1  
H2  EPW O   H1  H2  EPW O   H1  H2  EPW O   H1  H2  EPW O   H1  H2  EPW O   H1  
H2  EPW O   H1  H2  EPW O   H1  H2  EPW O   H1  H2  EPW O   H1  H2  EPW O   H1  
H2  EPW O   H1  H2  EPW O   H1  H2  EPW O   H1  H2  EPW O   H1  H2  EPW O   H1  
H2  EPW O   H1  H2  EPW O   H1  H2  EPW O   H1  H2  EPW O   H1  H2  EPW O   H1  
H2  EPW O   H1  H2  EPW O   H1  H2  EPW O   H1  H2  EPW O   H1  H2  EPW O   H1  
H2  EPW O   H1  H2  EPW O   H1  H2  EPW O   H1  H2  EPW O   H1  H2  EPW O   H1  
H2  EPW O   H1  H2  EPW O   H1  H2  EPW O   H1  H2  EPW O   H1  H2  EPW O   H1  
H2  EPW O   H1  H2  EPW O   H1  H2  EPW O   H1  H2  EPW O   H1  H2  EPW O   H1  
H2  EPW O   H1  H2  EPW O   H1  H2  EPW O   H1  H2  EPW O   H1  H2  EPW O   H1  
H2  EPW O   H1  H2  EPW O   H1  H2  EPW O   H1  H2  EPW O   H1  H2  EPW O   H1  
H2  EPW O   H1  H2  EPW O   H1  H2  EPW O   H1  H2  EPW O   H1  H2  EPW O   H1  
H2  EPW O   H1  H2  EPW O   H1  H2  EPW O   H1  H2  EPW O   H1  H2  EPW O   H1  
H2  EPW O   H1  H2  EPW O   H1  H2  EPW O   H1  H2  EPW O   H1  H2  EPW O   H1  
H2  EPW O   H1  H2  EPW O   H1  H2  EPW O   H1  H2  EPW O   H1  H2  EPW O   H1  
H2  EPW O   H1  H2  EPW O   H1  H2  EPW O   H1  H2  EPW O   H1  H2  EPW O   H1  
H2  EPW O   H1  H2  EPW O   H1  H2  EPW O   H1  H2  EPW O   H1  H2  EPW O   H1  
H2  EPW O   H1  H2  EPW O   H1  H2  EPW O   H1  H2  EPW O   H1  H2  EPW O   H1  
H2  EPW O   H1  H2  EPW O   H1  H2  EPW O   H1  H2  EPW O   H1  H2  EPW O   H1  
H2  EPW O   H1  H2  EPW O   H1  H2  EPW O   H1  H2  EPW O   H1  H2  EPW O   H1  
H2  EPW O   H1  H2  EPW O   H1  H2  EPW O   H1  H2  EPW O   H1  H2  EPW O   H1  
H2  EPW O   H1  H2  EPW O   H1  H2  EPW O   H1  H2  EPW O   H1  H2  EPW O   H1  
H2  EPW O   H1  H2  EPW O   H1  H2  EPW O   H1  H2  EPW O   H1  H2  EPW O   H1  
H2  EPW O   H1  H2  EPW O   H1  H2  EPW O   H1  H2  EPW O   H1  H2  EPW O   H1  
H2  EPW O   H1  H2  EPW O   H1  H2  EPW O   H1  H2  EPW O   H1  H2  EPW O   H1  
H2  EPW O   H1  H2  EPW O   H1  H2  EPW O   H1  H2  EPW O   H1  H2  EPW O   H1  
H2  EPW O   H1  H2  EPW O   H1  H2  EPW O   H1  H2  EPW O   H1  H2  EPW O   H1  
H2  EPW O   H1  H2  EPW O   H1  H2  EPW O   H1  H2  EPW O   H1  H2  EPW O   H1  
H2  EPW O   H1  H2  EPW O   H1  H2  EPW O   H1  H2  EPW O   H1  H2  EPW O   H1  
H2  EPW O   H1  H2  EPW O   H1  H2  EPW O   H1  H2  EPW O   H1  H2  EPW O   H1  
H2  EPW O   H1  H2  EPW O   H1  H2  EPW O   H1  H2  EPW O   H1  H2  EPW O   H1  
H2  EPW O   H1  H2  EPW O   H1  H2  EPW O   H1  H2  EPW O   H1  H2  EPW O   H1  
H2  EPW O   H1  H2  EPW O   H1  H2  EPW O   H1  H2  EPW O   H1  H2  EPW O   H1  
H2  EPW O   H1  H2  EPW O   H1  H2  EPW O   H1  H2  EPW O   H1  H2  EPW O   H1  
H2  EPW O   H1  H2  EPW O   H1  H2  EPW O   H1  H2  EPW O   H1  H2  EPW O   H1  
H2  EPW O   H1  H2  EPW O   H1  H2  EPW O   H1  H2  EPW O   H1  H2  EPW O   H1  
H2  EPW O   H1  H2  EPW O   H1  H2  EPW O   H1  H2  EPW O   H1  H2  EPW O   H1  
H2  EPW O   H1  H2  EPW O   H1  H2  EPW O   H1  H2  EPW O   H1  H2  EPW O   H1  
H2  EPW O   H1  H2  EPW O   H1  H2  EPW O   H1  H2  EPW O   H1  H2  EPW O   H1  
H2  EPW O   H1  H2  EPW O   H1  H2  EPW O   H1  H2  EPW O   H1  H2  EPW O   H1  
H2  EPW O   H1  H2  EPW O   H1  H2  EPW O   H1  H2  EPW O   H1  H2  EPW O   H1  
H2  EPW O   H1  H2  EPW O   H1  H2  EPW O   H1  H2  EPW O   H1  H2  EPW O   H1  
H2  EPW O   H1  H2  EPW O   H1  H2  EPW O   H1  H2  EPW O   H1  H2  EPW O   H1  
H2  EPW O   H1  H2  EPW O   H1  H2  EPW O   H1  H2  EPW O   H1  H2  EPW O   H1  
H2  EPW O   H1  H2  EPW O   H1  H2  EPW O   H1  H2  EPW O   H1  H2  EPW O   H1  
H2  EPW O   H1  H2  EPW O   H1  H2  EPW O   H1  H2  EPW O   H1  H2  EPW O   H1  
H2  EPW O   H1  H2  EPW O   H1  H2  EPW O   H1  H2  EPW O   H1  H2  EPW O   H1  
H2  EPW O   H1  H2  EPW O   H1  H2  EPW O   H1  H2  EPW O   H1  H2  EPW O   H1  
H2  EPW O   H1  H2  EPW O   H1  H2  EPW O   H1  H2  EPW O   H1  H2  EPW O   H1  
H2  EPW O   H1  H2  EPW O   H1  H2  EPW O   H1  H2  EPW O   H1  H2  EPW O   H1  
H2  EPW O   H1  H2  EPW O   H1  H2  EPW O   H1  H2  EPW O   H1  H2  EPW O   H1  
H2  EPW O   H1  H2  EPW O   H1  H2  EPW O   H1  H2  EPW O   H1  H2  EPW O   H1  
H2  EPW O   H1  H2  EPW O   H1  H2  EPW O   H1  H2  EPW O   H1  H2  EPW O   H1  
H2  EPW O   H1  H2  EPW O   H1  H2  EPW O   H1  H2  EPW O   H1  H2  EPW O   H1  
H2  EPW O   H1  H2  EPW O   H1  H2  EPW O   H1  H2  EPW O   H1  H2  EPW O   H1  
H2  EPW O   H1  H2  EPW O   H1  H2  EPW O   H1  H2  EPW O   H1  H2  EPW O   H1  
H2  EPW O   H1  H2  EPW O   H1  H2  EPW O   H1  H2  EPW O   H1  H2  EPW O   H1  
H2  EPW O   H1  H2  EPW O   H1  H2  EPW O   H1  H2  EPW O   H1  H2  EPW O   H1  
H2  EPW O   H1  H2  EPW O   H1  H2  EPW O   H1  H2  EPW O   H1  H2  EPW O   H1  
H2  EPW O   H1  H2  EPW O   H1  H2  EPW O   H1  H2  EPW O   H1  H2  EPW O   H1  
H2  EPW O   H1  H2  EPW O   H1  H2  EPW O   H1  H2  EPW O   H1  H2  EPW O   H1  
H2  EPW O   H1  H2  EPW O   H1  H2  EPW O   H1  H2  EPW O   H1  H2  EPW O   H1  
H2  EPW O   H1  H2  EPW O   H1  H2  EPW O   H1  H2  EPW O   H1  H2  EPW O   H1  
H2  EPW O   H1  H2  EPW O   H1  H2  EPW O   H1  H2  EPW O   H1  H2  EPW O   H1  
H2  EPW O   H1  H2  EPW O   H1  H2  EPW O   H1  H2  EPW O   H1  H2  EPW O   H1  
H2  EPW O   H1  H2  EPW O   H1  H2  EPW O   H1  H2  EPW O   H1  H2  EPW O   H1  
H2  EPW O   H1  H2  EPW O   H1  H2  EPW O   H1  H2  EPW O   H1  H2  EPW O   H1  
H2  EPW O   H1  H2  EPW O   H1  H2  EPW O   H1  H2  EPW O   H1  H2  EPW O   H1  
H2  EPW O   H1  H2  EPW O   H1  H2  EPW O   H1  H2  EPW O   H1  H2  EPW O   H1  
H2  EPW O   H1  H2  EPW O   H1  H2  EPW O   H1  H2  EPW O   H1  H2  EPW O   H1  
H2  EPW O   H1  H2  EPW O   H1  H2  EPW O   H1  H2  EPW O   H1  H2  EPW O   H1  
H2  EPW O   H1  H2  EPW O   H1  H2  EPW O   H1  H2  EPW O   H1  H2  EPW O   H1  
H2  EPW O   H1  H2  EPW O   H1  H2  EPW O   H1  H2  EPW O   H1  H2  EPW O   H1  
H2  EPW O   H1  H2  EPW O   H1  H2  EPW O   H1  H2  EPW O   H1  H2  EPW O   H1  
H2  EPW O   H1  H2  EPW O   H1  H2  EPW O   H1  H2  EPW O   H1  H2  EPW O   H1  
H2  EPW O   H1  H2  EPW O   H1  H2  EPW O   H1  H2  EPW O   H1  H2  EPW O   H1  
H2  EPW O   H1  H2  EPW O   H1  H2  EPW O   H1  H2  EPW O   H1  H2  EPW O   H1  
H2  EPW O   H1  H2  EPW O   H1  H2  EPW O   H1  H2  EPW O   H1  H2  EPW O   H1  
H2  EPW O   H1  H2  EPW O   H1  H2  EPW O   H1  H2  EPW O   H1  H2  EPW O   H1  
H2  EPW O   H1  H2  EPW O   H1  H2  EPW O   H1  H2  EPW O   H1  H2  EPW O   H1  
H2  EPW O   H1  H2  EPW O   H1  H2  EPW O   H1  H2  EPW O   H1  H2  EPW O   H1  
H2  EPW O   H1  H2  EPW O   H1  H2  EPW O   H1  H2  EPW O   H1  H2  EPW O   H1  
H2  EPW O   H1  H2  EPW O   H1  H2  EPW O   H1  H2  EPW O   H1  H2  EPW O   H1  
H2  EPW O   H1  H2  EPW O   H1  H2  EPW O   H1  H2  EPW O   H1  H2  EPW O   H1  
H2  EPW O   H1  H2  EPW O   H1  H2  EPW O   H1  H2  EPW O   H1  H2  EPW O   H1  
H2  EPW O   H1  H2  EPW O   H1  H2  EPW O   H1  H2  EPW O   H1  H2  EPW O   H1  
H2  EPW O   H1  H2  EPW O   H1  H2  EPW O   H1  H2  EPW O   H1  H2  EPW O   H1  
H2  EPW O   H1  H2  EPW O   H1  H2  EPW O   H1  H2  EPW O   H1  H2  EPW O   H1  
H2  EPW O   H1  H2  EPW O   H1  H2  EPW O   H1  H2  EPW O   H1  H2  EPW O   H1  
H2  EPW O   H1  H2  EPW O   H1  H2  EPW O   H1  H2  EPW O   H1  H2  EPW O   H1  
H2  EPW O   H1  H2  EPW O   H1  H2  EPW O   H1  H2  EPW O   H1  H2  EPW O   H1  
H2  EPW O   H1  H2  EPW O   H1  H2  EPW O   H1  H2  EPW O   H1  H2  EPW O   H1  
H2  EPW O   H1  H2  EPW O   H1  H2  EPW O   H1  H2  EPW O   H1  H2  EPW O   H1  
H2  EPW O   H1  H2  EPW O   H1  H2  EPW O   H1  H2  EPW O   H1  H2  EPW O   H1  
H2  EPW O   H1  H2  EPW O   H1  H2  EPW O   H1  H2  EPW O   H1  H2  EPW O   H1  
H2  EPW O   H1  H2  EPW O   H1  H2  EPW O   H1  H2  EPW O   H1  H2  EPW O   H1  
H2  EPW O   H1  H2  EPW O   H1  H2  EPW O   H1  H2  EPW O   H1  H2  EPW O   H1  
H2  EPW O   H1  H2  EPW O   H1  H2  EPW O   H1  H2  EPW O   H1  H2  EPW O   H1  
H2  EPW O   H1  H2  EPW O   H1  H2  EPW O   H1  H2  EPW O   H1  H2  EPW O   H1  
H2  EPW O   H1  H2  EPW O   H1  H2  EPW O   H1  H2  EPW O   H1  H2  EPW O   H1  
H2  EPW O   H1  H2  EPW O   H1  H2  EPW O   H1  H2  EPW O   H1  H2  EPW O   H1  
H2  EPW O   H1  H2  EPW O   H1  H2  EPW O   H1  H2  EPW O   H1  H2  EPW O   H1  
H2  EPW O   H1  H2  EPW O   H1  H2  EPW O   H1  H2  EPW O   H1  H2  EPW O   H1  
H2  EPW O   H1  H2  EPW O   H1  H2  EPW O   H1  H2  EPW O   H1  H2  EPW O   H1  
H2  EPW O   H1  H2  EPW O   H1  H2  EPW O   H1  H2  EPW O   H1  H2  EPW O   H1  
H2  EPW O   H1  H2  EPW O   H1  H2  EPW O   H1  H2  EPW O   H1  H2  EPW O   H1  
H2  EPW O   H1  H2  EPW O   H1  H2  EPW O   H1  H2  EPW O   H1  H2  EPW O   H1  
H2  EPW O   H1  H2  EPW O   H1  H2  EPW O   H1  H2  EPW O   H1  H2  EPW O   H1  
H2  EPW O   H1  H2  EPW O   H1  H2  EPW O   H1  H2  EPW O   H1  H2  EPW O   H1  
H2  EPW O   H1  H2  EPW O   H1  H2  EPW O   H1  H2  EPW O   H1  H2  EPW O   H1  
H2  EPW O   H1  H2  EPW O   H1  H2  EPW O   H1  H2  EPW O   H1  H2  EPW O   H1  
H2  EPW O   H1  H2  EPW O   H1  H2  EPW O   H1  H2  EPW O   H1  H2  EPW O   H1  
H2  EPW O   H1  H2  EPW O   H1  H2  EPW O   H1  H2  EPW O   H1  H2  EPW O   H1  
H2  EPW O   H1  H2  EPW O   H1  H2  EPW O   H1  H2  EPW O   H1  H2  EPW O   H1  
H2  EPW O   H1  H2  EPW O   H1  H2  EPW O   H1  H2  EPW O   H1  H2  EPW O   H1  
H2  EPW O   H1  H2  EPW O   H1  H2  EPW O   H1  H2  EPW O   H1  H2  EPW O   H1  
H2  EPW O   H1  H2  EPW O   H1  H2  EPW O   H1  H2  EPW O   H1  H2  EPW O   H1  
H2  EPW O   H1  H2  EPW O   H1  H2  EPW O   H1  H2  EPW O   H1  H2  EPW O   H1  
H2  EPW O   H1  H2  EPW O   H1  H2  EPW O   H1  H2  EPW O   H1  H2  EPW O   H1  
H2  EPW O   H1  H2  EPW O   H1  H2  EPW O   H1  H2  EPW O   H1  H2  EPW O   H1  
H2  EPW O   H1  H2  EPW O   H1  H2  EPW O   H1  H2  EPW O   H1  H2  EPW O   H1  
H2  EPW O   H1  H2  EPW O   H1  H2  EPW O   H1  H2  EPW O   H1  H2  EPW O   H1  
H2  EPW O   H1  H2  EPW O   H1  H2  EPW O   H1  H2  EPW O   H1  H2  EPW O   H1  
H2  EPW O   H1  H2  EPW O   H1  H2  EPW O   H1  H2  EPW O   H1  H2  EPW O   H1  
H2  EPW O   H1  H2  EPW O   H1  H2  EPW O   H1  H2  EPW O   H1  H2  EPW O   H1  
H2  EPW O   H1  H2  EPW O   H1  H2  EPW O   H1  H2  EPW O   H1  H2  EPW O   H1  
H2  EPW O   H1  H2  EPW O   H1  H2  EPW O   H1  H2  EPW O   H1  H2  EPW O   H1  
H2  EPW O   H1  H2  EPW O   H1  H2  EPW O   H1  H2  EPW O   H1  H2  EPW O   H1  
H2  EPW O   H1  H2  EPW O   H1  H2  EPW O   H1  H2  EPW O   H1  H2  EPW O   H1  
H2  EPW O   H1  H2  EPW O   H1  H2  EPW O   H1  H2  EPW O   H1  H2  EPW O   H1  
H2  EPW O   H1  H2  EPW O   H1  H2  EPW O   H1  H2  EPW O   H1  H2  EPW O   H1  
H2  EPW O   H1  H2  EPW O   H1  H2  EPW O   H1  H2  EPW O   H1  H2  EPW O   H1  
H2  EPW O   H1  H2  EPW O   H1  H2  EPW O   H1  H2  EPW O   H1  H2  EPW O   H1  
H2  EPW O   H1  H2  EPW O   H1  H2  EPW O   H1  H2  EPW O   H1  H2  EPW O   H1  
H2  EPW O   H1  H2  EPW O   H1  H2  EPW O   H1  H2  EPW O   H1  H2  EPW O   H1  
H2  EPW O   H1  H2  EPW O   H1  H2  EPW O   H1  H2  EPW O   H1  H2  EPW O   H1  
H2  EPW O   H1  H2  EPW O   H1  H2  EPW O   H1  H2  EPW O   H1  H2  EPW O   H1  
H2  EPW O   H1  H2  EPW O   H1  H2  EPW O   H1  H2  EPW O   H1  H2  EPW O   H1  
H2  EPW O   H1  H2  EPW O   H1  H2  EPW O   H1  H2  EPW O   H1  H2  EPW O   H1  
H2  EPW O   H1  H2  EPW O   H1  H2  EPW O   H1  H2  EPW O   H1  H2  EPW O   H1  
H2  EPW O   H1  H2  EPW O   H1  H2  EPW O   H1  H2  EPW O   H1  H2  EPW O   H1  
H2  EPW O   H1  H2  EPW O   H1  H2  EPW O   H1  H2  EPW O   H1  H2  EPW O   H1  
H2  EPW O   H1  H2  EPW O   H1  H2  EPW O   H1  H2  EPW O   H1  H2  EPW O   H1  
H2  EPW O   H1  H2  EPW O   H1  H2  EPW O   H1  H2  EPW O   H1  H2  EPW O   H1  
H2  EPW O   H1  H2  EPW O   H1  H2  EPW O   H1  H2  EPW O   H1  H2  EPW O   H1  
H2  EPW O   H1  H2  EPW O   H1  H2  EPW O   H1  H2  EPW O   H1  H2  EPW O   H1  
H2  EPW O   H1  H2  EPW O   H1  H2  EPW O   H1  H2  EPW O   H1  H2  EPW O   H1  
H2  EPW O   H1  H2  EPW O   H1  H2  EPW O   H1  H2  EPW O   H1  H2  EPW O   H1  
H2  EPW O   H1  H2  EPW O   H1  H2  EPW O   H1  H2  EPW O   H1  H2  EPW O   H1  
H2  EPW O   H1  H2  EPW O   H1  H2  EPW O   H1  H2  EPW O   H1  H2  EPW O   H1  
H2  EPW O   H1  H2  EPW O   H1  H2  EPW O   H1  H2  EPW O   H1  H2  EPW O   H1  
H2  EPW O   H1  H2  EPW O   H1  H2  EPW O   H1  H2  EPW O   H1  H2  EPW O   H1  
H2  EPW O   H1  H2  EPW O   H1  H2  EPW O   H1  H2  EPW O   H1  H2  EPW O   H1  
H2  EPW O   H1  H2  EPW O   H1  H2  EPW O   H1  H2  EPW O   H1  H2  EPW O   H1  
H2  EPW O   H1  H2  EPW O   H1  H2  EPW O   H1  H2  EPW O   H1  H2  EPW O   H1  
H2  EPW O   H1  H2  EPW O   H1  H2  EPW O   H1  H2  EPW O   H1  H2  EPW O   H1  
H2  EPW O   H1  H2  EPW O   H1  H2  EPW O   H1  H2  EPW O   H1  H2  EPW O   H1  
H2  EPW O   H1  H2  EPW O   H1  H2  EPW O   H1  H2  EPW O   H1  H2  EPW O   H1  
H2  EPW O   H1  H2  EPW O   H1  H2  EPW O   H1  H2  EPW O   H1  H2  EPW O   H1  
H2  EPW O   H1  H2  EPW O   H1  H2  EPW O   H1  H2  EPW O   H1  H2  EPW O   H1  
H2  EPW O   H1  H2  EPW O   H1  H2  EPW O   H1  H2  EPW O   H1  H2  EPW O   H1  
H2  EPW O   H1  H2  EPW O   H1  H2  EPW O   H1  H2  EPW O   H1  H2  EPW O   H1  
H2  EPW O   H1  H2  EPW O   H1  H2  EPW O   H1  H2  EPW O   H1  H2  EPW O   H1  
H2  EPW O   H1  H2  EPW O   H1  H2  EPW O   H1  H2  EPW O   H1  H2  EPW O   H1  
H2  EPW O   H1  H2  EPW O   H1  H2  EPW O   H1  H2  EPW O   H1  H2  EPW O   H1  
H2  EPW O   H1  H2  EPW O   H1  H2  EPW O   H1  H2  EPW O   H1  H2  EPW O   H1  
H2  EPW O   H1  H2  EPW O   H1  H2  EPW O   H1  H2  EPW O   H1  H2  EPW O   H1  
H2  EPW O   H1  H2  EPW O   H1  H2  EPW O   H1  H2  EPW O   H1  H2  EPW O   H1  
H2  EPW O   H1  H2  EPW O   H1  H2  EPW O   H1  H2  EPW O   H1  H2  EPW O   H1  
H2  EPW O   H1  H2  EPW O   H1  H2  EPW O   H1  H2  EPW O   H1  H2  EPW O   H1  
H2  EPW O   H1  H2  EPW O   H1  H2  EPW O   H1  H2  EPW O   H1  H2  EPW O   H1  
H2  EPW O   H1  H2  EPW O   H1  H2  EPW O   H1  H2  EPW O   H1  H2  EPW O   H1  
H2  EPW O   H1  H2  EPW O   H1  H2  EPW O   H1  H2  EPW O   H1  H2  EPW O   H1  
H2  EPW O   H1  H2  EPW O   H1  H2  EPW O   H1  H2  EPW O   H1  H2  EPW O   H1  
H2  EPW O   H1  H2  EPW O   H1  H2  EPW O   H1  H2  EPW O   H1  H2  EPW O   H1  
H2  EPW O   H1  H2  EPW O   H1  H2  EPW O   H1  H2  EPW O   H1  H2  EPW O   H1  
H2  EPW O   H1  H2  EPW O   H1  H2  EPW O   H1  H2  EPW O   H1  H2  EPW O   H1  
H2  EPW O   H1  H2  EPW O   H1  H2  EPW O   H1  H2  EPW O   H1  H2  EPW O   H1  
H2  EPW O   H1  H2  EPW O   H1  H2  EPW O   H1  H2  EPW O   H1  H2  EPW O   H1  
H2  EPW O   H1  H2  EPW O   H1  H2  EPW O   H1  H2  EPW O   H1  H2  EPW O   H1  
H2  EPW O   H1  H2  EPW O   H1  H2  EPW O   H1  H2  EPW O   H1  H2  EPW O   H1  
H2  EPW O   H1  H2  EPW O   H1  H2  EPW O   H1  H2  EPW O   H1  H2  EPW O   H1  
H2  EPW O   H1  H2  EPW O   H1  H2  EPW O   H1  H2  EPW O   H1  H2  EPW O   H1  
H2  EPW O   H1  H2  EPW O   H1  H2  EPW O   H1  H2  EPW O   H1  H2  EPW O   H1  
H2  EPW O   H1  H2  EPW O   H1  H2  EPW O   H1  H2  EPW O   H1  H2  EPW O   H1  
H2  EPW O   H1  H2  EPW O   H1  H2  EPW O   H1  H2  EPW O   H1  H2  EPW O   H1  
H2  EPW O   H1  H2  EPW O   H1  H2  EPW O   H1  H2  EPW O   H1  H2  EPW O   H1  
H2  EPW O   H1  H2  EPW O   H1  H2  EPW O   H1  H2  EPW O   H1  H2  EPW O   H1  
H2  EPW O   H1  H2  EPW O   H1  H2  EPW O   H1  H2  EPW O   H1  H2  EPW O   H1  
H2  EPW O   H1  H2  EPW O   H1  H2  EPW O   H1  H2  EPW O   H1  H2  EPW O   H1  
H2  EPW O   H1  H2  EPW O   H1  H2  EPW O   H1  H2  EPW O   H1  H2  EPW O   H1  
H2  EPW O   H1  H2  EPW O   H1  H2  EPW O   H1  H2  EPW O   H1  H2  EPW O   H1  
H2  EPW O   H1  H2  EPW O   H1  H2  EPW O   H1  H2  EPW O   H1  H2  EPW O   H1  
H2  EPW O   H1  H2  EPW O   H1  H2  EPW O   H1  H2  EPW O   H1  H2  EPW O   H1  
H2  EPW O   H1  H2  EPW O   H1  H2  EPW O   H1  H2  EPW O   H1  H2  EPW O   H1  
H2  EPW O   H1  H2  EPW O   H1  H2  EPW O   H1  H2  EPW O   H1  H2  EPW O   H1  
H2  EPW O   H1  H2  EPW O   H1  H2  EPW O   H1  H2  EPW O   H1  H2  EPW O   H1  
H2  EPW O   H1  H2  EPW O   H1  H2  EPW O   H1  H2  EPW O   H1  H2  EPW O   H1  
H2  EPW O   H1  H2  EPW O   H1  H2  EPW O   H1  H2  EPW O   H1  H2  EPW O   H1  
H2  EPW O   H1  H2  EPW O   H1  H2  EPW O   H1  H2  EPW O   H1  H2  EPW O   H1  
H2  EPW O   H1  H2  EPW O   H1  H2  EPW O   H1  H2  EPW O   H1  H2  EPW O   H1  
H2  EPW O   H1  H2  EPW O   H1  H2  EPW O   H1  H2  EPW O   H1  H2  EPW O   H1  
H2  EPW O   H1  H2  EPW O   H1  H2  EPW O   H1  H2  EPW O   H1  H2  EPW O   H1  
H2  EPW O   H1  H2  EPW O   H1  H2  EPW O   H1  H2  EPW O   H1  H2  EPW O   H1  
H2  EPW O   H1  H2  EPW O   H1  H2  EPW O   H1  H2  EPW O   H1  H2  EPW O   H1  
H2  EPW O   H1  H2  EPW O   H1  H2  EPW O   H1  H2  EPW O   H1  H2  EPW O   H1  
H2  EPW O   H1  H2  EPW O   H1  H2  EPW O   H1  H2  EPW O   H1  H2  EPW O   H1  
H2  EPW O   H1  H2  EPW O   H1  H2  EPW O   H1  H2  EPW O   H1  H2  EPW O   H1  
H2  EPW O   H1  H2  EPW O   H1  H2  EPW O   H1  H2  EPW O   H1  H2  EPW O   H1  
H2  EPW O   H1  H2  EPW O   H1  H2  EPW O   H1  H2  EPW O   H1  H2  EPW O   H1  
H2  EPW O   H1  H2  EPW O   H1  H2  EPW O   H1  H2  EPW O   H1  H2  EPW O   H1  
H2  EPW O   H1  H2  EPW O   H1  H2  EPW O   H1  H2  EPW O   H1  H2  EPW O   H1  
H2  EPW O   H1  H2  EPW O   H1  H2  EPW O   H1  H2  EPW O   H1  H2  EPW O   H1  
H2  EPW O   H1  H2  EPW O   H1  H2  EPW O   H1  H2  EPW O   H1  H2  EPW O   H1  
H2  EPW O   H1  H2  EPW O   H1  H2  EPW O   H1  H2  EPW O   H1  H2  EPW O   H1  
H2  EPW O   H1  H2  EPW O   H1  H2  EPW O   H1  H2  EPW O   H1  H2  EPW O   H1  
H2  EPW O   H1  H2  EPW O   H1  H2  EPW O   H1  H2  EPW O   H1  H2  EPW O   H1  
H2  EPW O   H1  H2  EPW O   H1  H2  EPW O   H1  H2  EPW O   H1  H2  EPW O   H1  
H2  EPW O   H1  H2  EPW O   H1  H2  EPW O   H1  H2  EPW O   H1  H2  EPW O   H1  
H2  EPW O   H1  H2  EPW O   H1  H2  EPW O   H1  H2  EPW O   H1  H2  EPW O   H1  
H2  EPW O   H1  H2  EPW O   H1  H2  EPW O   H1  H2  EPW O   H1  H2  EPW O   H1  
H2  EPW O   H1  H2  EPW O   H1  H2  EPW O   H1  H2  EPW O   H1  H2  EPW O   H1  
H2  EPW O   H1  H2  EPW O   H1  H2  EPW O   H1  H2  EPW O   H1  H2  EPW O   H1  
H2  EPW O   H1  H2  EPW O   H1  H2  EPW O   H1  H2  EPW O   H1  H2  EPW O   H1  
H2  EPW O   H1  H2  EPW O   H1  H2  EPW O   H1  H2  EPW O   H1  H2  EPW O   H1  
H2  EPW O   H1  H2  EPW O   H1  H2  EPW O   H1  H2  EPW O   H1  H2  EPW O   H1  
H2  EPW O   H1  H2  EPW O   H1  H2  EPW O   H1  H2  EPW O   H1  H2  EPW O   H1  
H2  EPW O   H1  H2  EPW O   H1  H2  EPW O   H1  H2  EPW O   H1  H2  EPW O   H1  
H2  EPW O   H1  H2  EPW O   H1  H2  EPW O   H1  H2  EPW O   H1  H2  EPW O   H1  
H2  EPW O   H1  H2  EPW O   H1  H2  EPW O   H1  H2  EPW O   H1  H2  EPW O   H1  
H2  EPW O   H1  H2  EPW O   H1  H2  EPW O   H1  H2  EPW O   H1  H2  EPW O   H1  
H2  EPW O   H1  H2  EPW O   H1  H2  EPW O   H1  H2  EPW O   H1  H2  EPW O   H1  
H2  EPW O   H1  H2  EPW O   H1  H2  EPW O   H1  H2  EPW O   H1  H2  EPW O   H1  
H2  EPW O   H1  H2  EPW O   H1  H2  EPW O   H1  H2  EPW O   H1  H2  EPW O   H1  
H2  EPW O   H1  H2  EPW O   H1  H2  EPW O   H1  H2  EPW O   H1  H2  EPW O   H1  
H2  EPW O   H1  H2  EPW O   H1  H2  EPW O   H1  H2  EPW O   H1  H2  EPW O   H1  
H2  EPW O   H1  H2  EPW O   H1  H2  EPW O   H1  H2  EPW O   H1  H2  EPW O   H1  
H2  EPW O   H1  H2  EPW O   H1  H2  EPW O   H1  H2  EPW 
%FLAG CHARGE                                                                    
%FORMAT(5E16.8)                                                                 
  7.82647785E+00 -1.13397373E+01  1.01680434E+00  1.23729417E+00  1.23729417E+00
  1.94067495E+00  2.13929802E+00 -6.46527204E+00  7.17958620E-01  3.65721561E+00
 -4.57379730E-01  3.65539338E+00  2.82992319E+00 -1.10664028E+01  9.38448450E-01
  1.27720101E+01 -1.64346924E+01  7.49847645E+00  7.49847645E+00 -1.38762815E+01
  1.07056013E+01  8.61914790E-01 -1.27501433E+01  5.56326819E+00  3.68454906E+00
  1.12067145E+00  1.22089410E+00  1.77120756E+00 -1.11866700E+01  7.62785478E+00
 -9.55941858E+00  2.12508463E+01 -1.41405048E+01 -1.41405048E+01 -9.09110547E+00
  1.01680434E+00  1.23729417E+00  1.23729417E+00  1.94067495E+00  2.13929802E+00
 -6.46527204E+00  3.48045930E-01  3.65539338E+00  8.96537160E-01  2.50374402E+00
  2.98845720E+00 -1.04031111E+01  3.17796912E+00  8.69203710E+00 -1.01990213E+01
 -8.72301501E+00  6.23931552E+00  1.39528151E+01 -1.76246086E+01  7.95221172E+00
  7.95221172E+00 -1.15219603E+01  2.22676506E+00  3.68454906E+00  1.12067145E+00
  1.22089410E+00  1.77120756E+00 -1.11866700E+01  7.62785478E+00 -9.55941858E+00
  2.12508463E+01 -1.41405048E+01 -1.41405048E+01 -9.09110547E+00  1.01680434E+00
  1.23729417E+00  1.23729417E+00  1.94067495E+00  2.13929802E+00 -6.46527204E+00
  1.20267180E-01  3.69730467E+00 -8.81959320E-01  9.65781900E-02  3.56792634E+00
 -9.50292945E+00  3.51325944E+00  1.49149526E+01 -1.73658519E+01  7.71532182E+00
  7.71532182E+00 -1.38197923E+01  1.37359697E+01 -1.13925820E+01  3.68454906E+00
  1.12067145E+00  1.22089410E+00  1.77120756E+00 -1.11866700E+01  7.62785478E+00
 -9.55941858E+00  2.12508463E+01 -1.41405048E+01 -1.41405048E+01 -9.09110547E+00
  1.01680434E+00  1.23729417E+00  1.23729417E+00  1.94067495E+00  2.13929802E+00
 -6.46527204E+00  3.48045930E-01  3.65539338E+00  8.96537160E-01  2.50374402E+00
  2.98845720E+00 -1.04031111E+01  3.17796912E+00  8.69203710E+00 -1.01990213E+01
 -8.72301501E+00  6.23931552E+00  1.39528151E+01 -1.76246086E+01  7.95221172E+00
  7.95221172E+00 -1.15219603E+01  2.22676506E+00  3.68454906E+00  1.12067145E+00
  1.22089410E+00  1.77120756E+00 -1.11866700E+01  7.62785478E+00 -9.55941858E+00
  2.12508463E+01 -1.41405048E+01 -1.41405048E+01 -9.09110547E+00  1.01680434E+00
  1.23729417E+00  1.23729417E+00  1.94067495E+00  2.13929802E+00 -6.46527204E+00
  1.20267180E-01  3.69730467E+00 -8.81959320E-01  9.65781900E-02  3.56792634E+00
 -9.50292945E+00  3.51325944E+00  1.49149526E+01 -1.73658519E+01  7.71532182E+00
  7.71532182E+00 -1.38197923E+01  1.37359697E+01 -1.13925820E+01  3.68454906E+00
  1.12067145E+00  1.22089410E+00  1.77120756E+00 -1.11866700E+01  7.62785478E+00
 -9.55941858E+00  2.12508463E+01 -1.41405048E+01 -1.41405048E+01 -9.09110547E+00
  1.01680434E+00  1.23729417E+00  1.23729417E+00  1.94067495E+00  2.13929802E+00
 -6.46527204E+00  1.22818302E+00  3.32374752E+00  7.61692140E-01 -2.05183098E+00
  3.98703924E+00 -6.62380605E+00  3.30005853E+00  1.08459130E+01 -1.04978670E+01
 -6.46709427E+00  5.74731342E+00  8.54079201E+00 -9.98035371E+00  3.68454906E+00
  1.12067145E+00  1.22089410E+00  1.77120756E+00 -1.11866700E+01  7.62785478E+00
 -9.55941858E+00  2.12508463E+01 -1.41405048E+01 -1.41405048E+01 -9.09110547E+00
  1.01680434E+00  1.23729417E+00  1.23729417E+00  1.94067495E+00  2.13929802E+00
 -6.46527204E+00  1.22818302E+00  3.32374752E+00  7.61692140E-01 -2.05183098E+00
  3.98703924E+00 -6.62380605E+00  3.30005853E+00  1.08459130E+01 -1.04978670E+01
 -6.46709427E+00  5.74731342E+00  8.54079201E+00 -9.98035371E+00  3.68454906E+00
  1.12067145E+00  1.22089410E+00  1.77120756E+00 -1.11866700E+01  7.62785478E+00
 -9.55941858E+00  2.12508463E+01 -1.41405048E+01 -1.41405048E+01 -9.09110547E+00
  1.01680434E+00  1.23729417E+00  1.23729417E+00  1.94067495E+00  2.13929802E+00
 -6.46527204E+00  1.22818302E+00  3.32374752E+00  7.61692140E-01 -2.05183098E+00
  3.98703924E+00 -6.62380605E+00  3.30005853E+00  1.08459130E+01 -1.04978670E+01
 -6.46709427E+00  5.74731342E+00  8.54079201E+00 -9.98035371E+00  3.68454906E+00
  1.12067145E+00  1.22089410E+00  1.77120756E+00 -1.11866700E+01  7.62785478E+00
 -9.55941858E+00  2.12508463E+01 -1.41405048E+01 -1.41405048E+01 -9.09110547E+00
  1.01680434E+00  1.23729417E+00  1.23729417E+00  1.94067495E+00  2.13929802E+00
 -6.46527204E+00  1.20267180E-01  3.69730467E+00 -8.81959320E-01  9.65781900E-02
  3.56792634E+00 -9.50292945E+00  3.51325944E+00  1.49149526E+01 -1.73658519E+01
  7.71532182E+00  7.71532182E+00 -1.38197923E+01  1.37359697E+01 -1.13925820E+01
  3.68454906E+00  1.12067145E+00  1.22089410E+00  1.77120756E+00 -1.11866700E+01
  7.62785478E+00 -9.55941858E+00  2.12508463E+01 -1.41405048E+01 -1.41405048E+01
 -9.09110547E+00  1.01680434E+00  1.23729417E+00  1.23729417E+00  1.94067495E+00
  2.13929802E+00 -6.46527204E+00  3.48045930E-01  3.65539338E+00  8.96537160E-01
  2.50374402E+00  2.98845720E+00 -1.04031111E+01  3.17796912E+00  8.69203710E+00
 -1.01990213E+01 -8.72301501E+00  6.23931552E+00  1.39528151E+01 -1.76246086E+01
  7.95221172E+00  7.95221172E+00 -1.15219603E+01  2.22676506E+00  3.68454906E+00
  1.12067145E+00  1.22089410E+00  1.77120756E+00 -1.11866700E+01  7.62785478E+00
 -9.55941858E+00  2.12508463E+01 -1.41405048E+01 -1.41405048E+01 -9.09110547E+00
  1.01680434E+00  1.23729417E+00  1.23729417E+00  1.94067495E+00  2.13929802E+00
 -6.46527204E+00  7.17958620E-01  3.65721561E+00 -4.57379730E-01  3.65539338E+00
  2.82992319E+00 -1.10664028E+01  9.38448450E-01  1.27720101E+01 -1.64346924E+01
  7.49847645E+00  7.49847645E+00 -1.38762815E+01  1.07056013E+01  8.61914790E-01
 -1.27501433E+01  5.56326819E+00  3.68454906E+00  1.12067145E+00  1.22089410E+00
  1.77120756E+00 -1.11866700E+01  7.62785478E+00 -9.55941858E+00  2.12508463E+01
 -1.41405048E+01 -1.41405048E+01 -9.09110547E+00  1.01680434E+00  1.23729417E+00
  1.23729417E+00  1.94067495E+00  2.13929802E+00 -6.46527204E+00  3.48045930E-01
  3.65539338E+00  8.96537160E-01  2.50374402E+00  2.98845720E+00 -1.04031111E+01
  3.17796912E+00  8.69203710E+00 -1.01990213E+01 -8.72301501E+00  6.23931552E+00
  1.39528151E+01 -1.76246086E+01  7.95221172E+00  7.95221172E+00 -1.15219603E+01
  2.22676506E+00  3.68454906E+00  1.12067145E+00  1.22089410E+00  1.77120756E+00
 -1.11866700E+01  7.62785478E+00 -9.55941858E+00  2.12508463E+01 -1.41405048E+01
 -1.41405048E+01 -9.09110547E+00  1.01680434E+00  1.23729417E+00  1.23729417E+00
  1.94067495E+00  2.13929802E+00 -6.46527204E+00  1.20267180E-01  3.69730467E+00
 -8.81959320E-01  9.65781900E-02  3.56792634E+00 -9.50292945E+00  3.51325944E+00
  1.49149526E+01 -1.73658519E+01  7.71532182E+00  7.71532182E+00 -1.38197923E+01
  1.37359697E+01 -1.13925820E+01  3.68454906E+00  1.12067145E+00  1.22089410E+00
  1.77120756E+00 -1.11866700E+01  7.62785478E+00 -9.55941858E+00  2.12508463E+01
 -1.41405048E+01 -1.41405048E+01 -9.09110547E+00  1.01680434E+00  1.23729417E+00
  1.23729417E+00  1.94067495E+00  2.13929802E+00 -6.46527204E+00  3.48045930E-01
  3.65539338E+00  8.96537160E-01  2.50374402E+00  2.98845720E+00 -1.04031111E+01
  3.17796912E+00  8.69203710E+00 -1.01990213E+01 -8.72301501E+00  6.23931552E+00
  1.39528151E+01 -1.76246086E+01  7.95221172E+00  7.95221172E+00 -1.15219603E+01
  2.22676506E+00  3.68454906E+00  1.12067145E+00  1.22089410E+00  1.77120756E+00
 -1.11866700E+01  7.62785478E+00 -9.55941858E+00  2.12508463E+01 -1.41405048E+01
 -1.41405048E+01 -9.09110547E+00  1.01680434E+00  1.23729417E+00  1.23729417E+00
  1.94067495E+00  2.13929802E+00 -6.46527204E+00  1.20267180E-01  3.69730467E+00
 -8.81959320E-01  9.65781900E-02  3.56792634E+00 -9.50292945E+00  3.51325944E+00
  1.49149526E+01 -1.73658519E+01  7.71532182E+00  7.71532182E+00 -1.38197923E+01
  1.37359697E+01 -1.13925820E+01  3.68454906E+00  1.12067145E+00  1.22089410E+00
  1.77120756E+00 -1.11866700E+01  7.62785478E+00 -9.55941858E+00  2.12508463E+01
 -1.41405048E+01 -1.41405048E+01 -9.09110547E+00  1.01680434E+00  1.23729417E+00
  1.23729417E+00  1.94067495E+00  2.13929802E+00 -6.46527204E+00  1.22818302E+00
  3.32374752E+00  7.61692140E-01 -2.05183098E+00  3.98703924E+00 -6.62380605E+00
  3.30005853E+00  1.08459130E+01 -1.04978670E+01 -6.46709427E+00  5.74731342E+00
  8.54079201E+00 -9.98035371E+00  3.68454906E+00  1.12067145E+00  1.22089410E+00
  1.77120756E+00 -1.11866700E+01  7.62785478E+00 -1.19192064E+01  7.97407848E+00
  3.64446000E+01  3.64446000E+01  3.64446000E+01  3.64446000E+01  3.64446000E+01
  3.64446000E+01  3.64446000E+01  3.64446000E+01  3.64446000E+01  3.64446000E+01
 -1.82223000E+01 -1.82223000E+01 -1.82223000E+01 -1.82223000E+01 -1.82223000E+01
 -1.82223000E+01 -1.82223000E+01 -1.82223000E+01 -1.82223000E+01 -1.82223000E+01
  0.00000000E+00  9.55249411E+00  9.55249411E+00 -1.91049882E+01  0.00000000E+00
  9.55249411E+00  9.55249411E+00 -1.91049882E+01  0.00000000E+00  9.55249411E+00
  9.55249411E+00 -1.91049882E+01  0.00000000E+00  9.55249411E+00  9.55249411E+00
 -1.91049882E+01  0.00000000E+00  9.55249411E+00  9.55249411E+00 -1.91049882E+01
  0.00000000E+00  9.55249411E+00  9.55249411E+00 -1.91049882E+01  0.00000000E+00
  9.55249411E+00  9.55249411E+00 -1.91049882E+01  0.00000000E+00  9.55249411E+00
  9.55249411E+00 -1.91049882E+01  0.00000000E+00  9.55249411E+00  9.55249411E+00
 -1.91049882E+01  0.00000000E+00  9.55249411E+00  9.55249411E+00 -1.91049882E+01
  0.00000000E+00  9.55249411E+00  9.55249411E+00 -1.91049882E+01  0.00000000E+00
  9.55249411E+00  9.55249411E+00 -1.91049882E+01  0.00000000E+00  9.55249411E+00
  9.55249411E+00 -1.91049882E+01  0.00000000E+00  9.55249411E+00  9.55249411E+00
 -1.91049882E+01  0.00000000E+00  9.55249411E+00  9.55249411E+00 -1.91049882E+01
  0.00000000E+00  9.55249411E+00  9.55249411E+00 -1.91049882E+01  0.00000000E+00
  9.55249411E+00  9.55249411E+00 -1.91049882E+01  0.00000000E+00  9.55249411E+00
  9.55249411E+00 -1.91049882E+01  0.00000000E+00  9.55249411E+00  9.55249411E+00
 -1.91049882E+01  0.00000000E+00  9.55249411E+00  9.55249411E+00 -1.91049882E+01
  0.00000000E+00  9.55249411E+00  9.55249411E+00 -1.91049882E+01  0.00000000E+00
  9.55249411E+00  9.55249411E+00 -1.91049882E+01  0.00000000E+00  9.55249411E+00
  9.55249411E+00 -1.91049882E+01  0.00000000E+00  9.55249411E+00  9.55249411E+00
 -1.91049882E+01  0.00000000E+00  9.55249411E+00  9.55249411E+00 -1.91049882E+01
  0.00000000E+00  9.55249411E+00  9.55249411E+00 -1.91049882E+01  0.00000000E+00
  9.55249411E+00  9.55249411E+00 -1.91049882E+01  0.00000000E+00  9.55249411E+00
  9.55249411E+00 -1.91049882E+01  0.00000000E+00  9.55249411E+00  9.55249411E+00
 -1.91049882E+01  0.00000000E+00  9.55249411E+00  9.55249411E+00 -1.91049882E+01
  0.00000000E+00  9.55249411E+00  9.55249411E+00 -1.91049882E+01  0.00000000E+00
  9.55249411E+00  9.55249411E+00 -1.91049882E+01  0.00000000E+00  9.55249411E+00
  9.55249411E+00 -1.91049882E+01  0.00000000E+00  9.55249411E+00  9.55249411E+00
 -1.91049882E+01  0.00000000E+00  9.55249411E+00  9.55249411E+00 -1.91049882E+01
  0.00000000E+00  9.55249411E+00  9.55249411E+00 -1.91049882E+01  0.00000000E+00
  9.55249411E+00  9.55249411E+00 -1.91049882E+01  0.00000000E+00  9.55249411E+00
  9.55249411E+00 -1.91049882E+01  0.00000000E+00  9.55249411E+00  9.55249411E+00
 -1.91049882E+01  0.00000000E+00  9.55249411E+00  9.55249411E+00 -1.91049882E+01
  0.00000000E+00  9.55249411E+00  9.55249411E+00 -1.91049882E+01  0.00000000E+00
  9.55249411E+00  9.55249411E+00 -1.91049882E+01  0.00000000E+00  9.55249411E+00
  9.55249411E+00 -1.91049882E+01  0.00000000E+00  9.55249411E+00  9.55249411E+00
 -1.91049882E+01  0.00000000E+00  9.55249411E+00  9.55249411E+00 -1.91049882E+01
  0.00000000E+00  9.55249411E+00  9.55249411E+00 -1.91049882E+01  0.00000000E+00
  9.55249411E+00  9.55249411E+00 -1.91049882E+01  0.00000000E+00  9.55249411E+00
  9.55249411E+00 -1.91049882E+01  0.00000000E+00  9.55249411E+00  9.55249411E+00
 -1.91049882E+01  0.00000000E+00  9.55249411E+00  9.55249411E+00 -1.91049882E+01
  0.00000000E+00  9.55249411E+00  9.55249411E+00 -1.91049882E+01  0.00000000E+00
  9.55249411E+00  9.55249411E+00 -1.91049882E+01  0.00000000E+00  9.55249411E+00
  9.55249411E+00 -1.91049882E+01  0.00000000E+00  9.55249411E+00  9.55249411E+00
 -1.91049882E+01  0.00000000E+00  9.55249411E+00  9.55249411E+00 -1.91049882E+01
  0.00000000E+00  9.55249411E+00  9.55249411E+00 -1.91049882E+01  0.00000000E+00
  9.55249411E+00  9.55249411E+00 -1.91049882E+01  0.00000000E+00  9.55249411E+00
  9.55249411E+00 -1.91049882E+01  0.00000000E+00  9.55249411E+00  9.55249411E+00
 -1.91049882E+01  0.00000000E+00  9.55249411E+00  9.55249411E+00 -1.91049882E+01
  0.00000000E+00  9.55249411E+00  9.55249411E+00 -1.91049882E+01  0.00000000E+00
  9.55249411E+00  9.55249411E+00 -1.91049882E+01  0.00000000E+00  9.55249411E+00
  9.55249411E+00 -1.91049882E+01  0.00000000E+00  9.55249411E+00  9.55249411E+00
 -1.91049882E+01  0.00000000E+00  9.55249411E+00  9.55249411E+00 -1.91049882E+01
  0.00000000E+00  9.55249411E+00  9.55249411E+00 -1.91049882E+01  0.00000000E+00
  9.55249411E+00  9.55249411E+00 -1.91049882E+01  0.00000000E+00  9.55249411E+00
  9.55249411E+00 -1.91049882E+01  0.00000000E+00  9.55249411E+00  9.55249411E+00
 -1.91049882E+01  0.00000000E+00  9.55249411E+00  9.55249411E+00 -1.91049882E+01
  0.00000000E+00  9.55249411E+00  9.55249411E+00 -1.91049882E+01  0.00000000E+00
  9.55249411E+00  9.55249411E+00 -1.91049882E+01  0.00000000E+00  9.55249411E+00
  9.55249411E+00 -1.91049882E+01  0.00000000E+00  9.55249411E+00  9.55249411E+00
 -1.91049882E+01  0.00000000E+00  9.55249411E+00  9.55249411E+00 -1.91049882E+01
  0.00000000E+00  9.55249411E+00  9.55249411E+00 -1.91049882E+01  0.00000000E+00
  9.55249411E+00  9.55249411E+00 -1.91049882E+01  0.00000000E+00  9.55249411E+00
  9.55249411E+00 -1.91049882E+01  0.00000000E+00  9.55249411E+00  9.55249411E+00
 -1.91049882E+01  0.00000000E+00  9.55249411E+00  9.55249411E+00 -1.91049882E+01
  0.00000000E+00  9.55249411E+00  9.55249411E+00 -1.91049882E+01  0.00000000E+00
  9.55249411E+00  9.55249411E+00 -1.91049882E+01  0.00000000E+00  9.55249411E+00
  9.55249411E+00 -1.91049882E+01  0.00000000E+00  9.55249411E+00  9.55249411E+00
 -1.91049882E+01  0.00000000E+00  9.55249411E+00  9.55249411E+00 -1.91049882E+01
  0.00000000E+00  9.55249411E+00  9.55249411E+00 -1.91049882E+01  0.00000000E+00
  9.55249411E+00  9.55249411E+00 -1.91049882E+01  0.00000000E+00  9.55249411E+00
  9.55249411E+00 -1.91049882E+01  0.00000000E+00  9.55249411E+00  9.55249411E+00
 -1.91049882E+01  0.00000000E+00  9.55249411E+00  9.55249411E+00 -1.91049882E+01
  0.00000000E+00  9.55249411E+00  9.55249411E+00 -1.91049882E+01  0.00000000E+00
  9.55249411E+00  9.55249411E+00 -1.91049882E+01  0.00000000E+00  9.55249411E+00
  9.55249411E+00 -1.91049882E+01  0.00000000E+00  9.55249411E+00  9.55249411E+00
 -1.91049882E+01  0.00000000E+00  9.55249411E+00  9.55249411E+00 -1.91049882E+01
  0.00000000E+00  9.55249411E+00  9.55249411E+00 -1.91049882E+01  0.00000000E+00
  9.55249411E+00  9.55249411E+00 -1.91049882E+01  0.00000000E+00  9.55249411E+00
  9.55249411E+00 -1.91049882E+01  0.00000000E+00  9.55249411E+00  9.55249411E+00
 -1.91049882E+01  0.00000000E+00  9.55249411E+00  9.55249411E+00 -1.91049882E+01
  0.00000000E+00  9.55249411E+00  9.55249411E+00 -1.91049882E+01  0.00000000E+00
  9.55249411E+00  9.55249411E+00 -1.91049882E+01  0.00000000E+00  9.55249411E+00
  9.55249411E+00 -1.91049882E+01  0.00000000E+00  9.55249411E+00  9.55249411E+00
 -1.91049882E+01  0.00000000E+00  9.55249411E+00  9.55249411E+00 -1.91049882E+01
  0.00000000E+00  9.55249411E+00  9.55249411E+00 -1.91049882E+01  0.00000000E+00
  9.55249411E+00  9.55249411E+00 -1.91049882E+01  0.00000000E+00  9.55249411E+00
  9.55249411E+00 -1.91049882E+01  0.00000000E+00  9.55249411E+00  9.55249411E+00
 -1.91049882E+01  0.00000000E+00  9.55249411E+00  9.55249411E+00 -1.91049882E+01
  0.00000000E+00  9.55249411E+00  9.55249411E+00 -1.91049882E+01  0.00000000E+00
  9.55249411E+00  9.55249411E+00 -1.91049882E+01  0.00000000E+00  9.55249411E+00
  9.55249411E+00 -1.91049882E+01  0.00000000E+00  9.55249411E+00  9.55249411E+00
 -1.91049882E+01  0.00000000E+00  9.55249411E+00  9.55249411E+00 -1.91049882E+01
  0.00000000E+00  9.55249411E+00  9.55249411E+00 -1.91049882E+01  0.00000000E+00
  9.55249411E+00  9.55249411E+00 -1.91049882E+01  0.00000000E+00  9.55249411E+00
  9.55249411E+00 -1.91049882E+01  0.00000000E+00  9.55249411E+00  9.55249411E+00
 -1.91049882E+01  0.00000000E+00  9.55249411E+00  9.55249411E+00 -1.91049882E+01
  0.00000000E+00  9.55249411E+00  9.55249411E+00 -1.91049882E+01  0.00000000E+00
  9.55249411E+00  9.55249411E+00 -1.91049882E+01  0.00000000E+00  9.55249411E+00
  9.55249411E+00 -1.91049882E+01  0.00000000E+00  9.55249411E+00  9.55249411E+00
 -1.91049882E+01  0.00000000E+00  9.55249411E+00  9.55249411E+00 -1.91049882E+01
  0.00000000E+00  9.55249411E+00  9.55249411E+00 -1.91049882E+01  0.00000000E+00
  9.55249411E+00  9.55249411E+00 -1.91049882E+01  0.00000000E+00  9.55249411E+00
  9.55249411E+00 -1.91049882E+01  0.00000000E+00  9.55249411E+00  9.55249411E+00
 -1.91049882E+01  0.00000000E+00  9.55249411E+00  9.55249411E+00 -1.91049882E+01
  0.00000000E+00  9.55249411E+00  9.55249411E+00 -1.91049882E+01  0.00000000E+00
  9.55249411E+00  9.55249411E+00 -1.91049882E+01  0.00000000E+00  9.55249411E+00
  9.55249411E+00 -1.91049882E+01  0.00000000E+00  9.55249411E+00  9.55249411E+00
 -1.91049882E+01  0.00000000E+00  9.55249411E+00  9.55249411E+00 -1.91049882E+01
  0.00000000E+00  9.55249411E+00  9.55249411E+00 -1.91049882E+01  0.00000000E+00
  9.55249411E+00  9.55249411E+00 -1.91049882E+01  0.00000000E+00  9.55249411E+00
  9.55249411E+00 -1.91049882E+01  0.00000000E+00  9.55249411E+00  9.55249411E+00
 -1.91049882E+01  0.00000000E+00  9.55249411E+00  9.55249411E+00 -1.91049882E+01
  0.00000000E+00  9.55249411E+00  9.55249411E+00 -1.91049882E+01  0.00000000E+00
  9.55249411E+00  9.55249411E+00 -1.91049882E+01  0.00000000E+00  9.55249411E+00
  9.55249411E+00 -1.91049882E+01  0.00000000E+00  9.55249411E+00  9.55249411E+00
 -1.91049882E+01  0.00000000E+00  9.55249411E+00  9.55249411E+00 -1.91049882E+01
  0.00000000E+00  9.55249411E+00  9.55249411E+00 -1.91049882E+01  0.00000000E+00
  9.55249411E+00  9.55249411E+00 -1.91049882E+01  0.00000000E+00  9.55249411E+00
  9.55249411E+00 -1.91049882E+01  0.00000000E+00  9.55249411E+00  9.55249411E+00
 -1.91049882E+01  0.00000000E+00  9.55249411E+00  9.55249411E+00 -1.91049882E+01
  0.00000000E+00  9.55249411E+00  9.55249411E+00 -1.91049882E+01  0.00000000E+00
  9.55249411E+00  9.55249411E+00 -1.91049882E+01  0.00000000E+00  9.55249411E+00
  9.55249411E+00 -1.91049882E+01  0.00000000E+00  9.55249411E+00  9.55249411E+00
 -1.91049882E+01  0.00000000E+00  9.55249411E+00  9.55249411E+00 -1.91049882E+01
  0.00000000E+00  9.55249411E+00  9.55249411E+00 -1.91049882E+01  0.00000000E+00
  9.55249411E+00  9.55249411E+00 -1.91049882E+01  0.00000000E+00  9.55249411E+00
  9.55249411E+00 -1.91049882E+01  0.00000000E+00  9.55249411E+00  9.55249411E+00
 -1.91049882E+01  0.00000000E+00  9.55249411E+00  9.55249411E+00 -1.91049882E+01
  0.00000000E+00  9.55249411E+00  9.55249411E+00 -1.91049882E+01  0.00000000E+00
  9.55249411E+00  9.55249411E+00 -1.91049882E+01  0.00000000E+00  9.55249411E+00
  9.55249411E+00 -1.91049882E+01  0.00000000E+00  9.55249411E+00  9.55249411E+00
 -1.91049882E+01  0.00000000E+00  9.55249411E+00  9.55249411E+00 -1.91049882E+01
  0.00000000E+00  9.55249411E+00  9.55249411E+00 -1.91049882E+01  0.00000000E+00
  9.55249411E+00  9.55249411E+00 -1.91049882E+01  0.00000000E+00  9.55249411E+00
  9.55249411E+00 -1.91049882E+01  0.00000000E+00  9.55249411E+00  9.55249411E+00
 -1.91049882E+01  0.00000000E+00  9.55249411E+00  9.55249411E+00 -1.91049882E+01
  0.00000000E+00  9.55249411E+00  9.55249411E+00 -1.91049882E+01  0.00000000E+00
  9.55249411E+00  9.55249411E+00 -1.91049882E+01  0.00000000E+00  9.55249411E+00
  9.55249411E+00 -1.91049882E+01  0.00000000E+00  9.55249411E+00  9.55249411E+00
 -1.91049882E+01  0.00000000E+00  9.55249411E+00  9.55249411E+00 -1.91049882E+01
  0.00000000E+00  9.55249411E+00  9.55249411E+00 -1.91049882E+01  0.00000000E+00
  9.55249411E+00  9.55249411E+00 -1.91049882E+01  0.00000000E+00  9.55249411E+00
  9.55249411E+00 -1.91049882E+01  0.00000000E+00  9.55249411E+00  9.55249411E+00
 -1.91049882E+01  0.00000000E+00  9.55249411E+00  9.55249411E+00 -1.91049882E+01
  0.00000000E+00  9.55249411E+00  9.55249411E+00 -1.91049882E+01  0.00000000E+00
  9.55249411E+00  9.55249411E+00 -1.91049882E+01  0.00000000E+00  9.55249411E+00
  9.55249411E+00 -1.91049882E+01  0.00000000E+00  9.55249411E+00  9.55249411E+00
 -1.91049882E+01  0.00000000E+00  9.55249411E+00  9.55249411E+00 -1.91049882E+01
  0.00000000E+00  9.55249411E+00  9.55249411E+00 -1.91049882E+01  0.00000000E+00
  9.55249411E+00  9.55249411E+00 -1.91049882E+01  0.00000000E+00  9.55249411E+00
  9.55249411E+00 -1.91049882E+01  0.00000000E+00  9.55249411E+00  9.55249411E+00
 -1.91049882E+01  0.00000000E+00  9.55249411E+00  9.55249411E+00 -1.91049882E+01
  0.00000000E+00  9.55249411E+00  9.55249411E+00 -1.91049882E+01  0.00000000E+00
  9.55249411E+00  9.55249411E+00 -1.91049882E+01  0.00000000E+00  9.55249411E+00
  9.55249411E+00 -1.91049882E+01  0.00000000E+00  9.55249411E+00  9.55249411E+00
 -1.91049882E+01  0.00000000E+00  9.55249411E+00  9.55249411E+00 -1.91049882E+01
  0.00000000E+00  9.55249411E+00  9.55249411E+00 -1.91049882E+01  0.00000000E+00
  9.55249411E+00  9.55249411E+00 -1.91049882E+01  0.00000000E+00  9.55249411E+00
  9.55249411E+00 -1.91049882E+01  0.00000000E+00  9.55249411E+00  9.55249411E+00
 -1.91049882E+01  0.00000000E+00  9.55249411E+00  9.55249411E+00 -1.91049882E+01
  0.00000000E+00  9.55249411E+00  9.55249411E+00 -1.91049882E+01  0.00000000E+00
  9.55249411E+00  9.55249411E+00 -1.91049882E+01  0.00000000E+00  9.55249411E+00
  9.55249411E+00 -1.91049882E+01  0.00000000E+00  9.55249411E+00  9.55249411E+00
 -1.91049882E+01  0.00000000E+00  9.55249411E+00  9.55249411E+00 -1.91049882E+01
  0.00000000E+00  9.55249411E+00  9.55249411E+00 -1.91049882E+01  0.00000000E+00
  9.55249411E+00  9.55249411E+00 -1.91049882E+01  0.00000000E+00  9.55249411E+00
  9.55249411E+00 -1.91049882E+01  0.00000000E+00  9.55249411E+00  9.55249411E+00
 -1.91049882E+01  0.00000000E+00  9.55249411E+00  9.55249411E+00 -1.91049882E+01
  0.00000000E+00  9.55249411E+00  9.55249411E+00 -1.91049882E+01  0.00000000E+00
  9.55249411E+00  9.55249411E+00 -1.91049882E+01  0.00000000E+00  9.55249411E+00
  9.55249411E+00 -1.91049882E+01  0.00000000E+00  9.55249411E+00  9.55249411E+00
 -1.91049882E+01  0.00000000E+00  9.55249411E+00  9.55249411E+00 -1.91049882E+01
  0.00000000E+00  9.55249411E+00  9.55249411E+00 -1.91049882E+01  0.00000000E+00
  9.55249411E+00  9.55249411E+00 -1.91049882E+01  0.00000000E+00  9.55249411E+00
  9.55249411E+00 -1.91049882E+01  0.00000000E+00  9.55249411E+00  9.55249411E+00
 -1.91049882E+01  0.00000000E+00  9.55249411E+00  9.55249411E+00 -1.91049882E+01
  0.00000000E+00  9.55249411E+00  9.55249411E+00 -1.91049882E+01  0.00000000E+00
  9.55249411E+00  9.55249411E+00 -1.91049882E+01  0.00000000E+00  9.55249411E+00
  9.55249411E+00 -1.91049882E+01  0.00000000E+00  9.55249411E+00  9.55249411E+00
 -1.91049882E+01  0.00000000E+00  9.55249411E+00  9.55249411E+00 -1.91049882E+01
  0.00000000E+00  9.55249411E+00  9.55249411E+00 -1.91049882E+01  0.00000000E+00
  9.55249411E+00  9.55249411E+00 -1.91049882E+01  0.00000000E+00  9.55249411E+00
  9.55249411E+00 -1.91049882E+01  0.00000000E+00  9.55249411E+00  9.55249411E+00
 -1.91049882E+01  0.00000000E+00  9.55249411E+00  9.55249411E+00 -1.91049882E+01
  0.00000000E+00  9.55249411E+00  9.55249411E+00 -1.91049882E+01  0.00000000E+00
  9.55249411E+00  9.55249411E+00 -1.91049882E+01  0.00000000E+00  9.55249411E+00
  9.55249411E+00 -1.91049882E+01  0.00000000E+00  9.55249411E+00  9.55249411E+00
 -1.91049882E+01  0.00000000E+00  9.55249411E+00  9.55249411E+00 -1.91049882E+01
  0.00000000E+00  9.55249411E+00  9.55249411E+00 -1.91049882E+01  0.00000000E+00
  9.55249411E+00  9.55249411E+00 -1.91049882E+01  0.00000000E+00  9.55249411E+00
  9.55249411E+00 -1.91049882E+01  0.00000000E+00  9.55249411E+00  9.55249411E+00
 -1.91049882E+01  0.00000000E+00  9.55249411E+00  9.55249411E+00 -1.91049882E+01
  0.00000000E+00  9.55249411E+00  9.55249411E+00 -1.91049882E+01  0.00000000E+00
  9.55249411E+00  9.55249411E+00 -1.91049882E+01  0.00000000E+00  9.55249411E+00
  9.55249411E+00 -1.91049882E+01  0.00000000E+00  9.55249411E+00  9.55249411E+00
 -1.91049882E+01  0.00000000E+00  9.55249411E+00  9.55249411E+00 -1.91049882E+01
  0.00000000E+00  9.55249411E+00  9.55249411E+00 -1.91049882E+01  0.00000000E+00
  9.55249411E+00  9.55249411E+00 -1.91049882E+01  0.00000000E+00  9.55249411E+00
  9.55249411E+00 -1.91049882E+01  0.00000000E+00  9.55249411E+00  9.55249411E+00
 -1.91049882E+01  0.00000000E+00  9.55249411E+00  9.55249411E+00 -1.91049882E+01
  0.00000000E+00  9.55249411E+00  9.55249411E+00 -1.91049882E+01  0.00000000E+00
  9.55249411E+00  9.55249411E+00 -1.91049882E+01  0.00000000E+00  9.55249411E+00
  9.55249411E+00 -1.91049882E+01  0.00000000E+00  9.55249411E+00  9.55249411E+00
 -1.91049882E+01  0.00000000E+00  9.55249411E+00  9.55249411E+00 -1.91049882E+01
  0.00000000E+00  9.55249411E+00  9.55249411E+00 -1.91049882E+01  0.00000000E+00
  9.55249411E+00  9.55249411E+00 -1.91049882E+01  0.00000000E+00  9.55249411E+00
  9.55249411E+00 -1.91049882E+01  0.00000000E+00  9.55249411E+00  9.55249411E+00
 -1.91049882E+01  0.00000000E+00  9.55249411E+00  9.55249411E+00 -1.91049882E+01
  0.00000000E+00  9.55249411E+00  9.55249411E+00 -1.91049882E+01  0.00000000E+00
  9.55249411E+00  9.55249411E+00 -1.91049882E+01  0.00000000E+00  9.55249411E+00
  9.55249411E+00 -1.91049882E+01  0.00000000E+00  9.55249411E+00  9.55249411E+00
 -1.91049882E+01  0.00000000E+00  9.55249411E+00  9.55249411E+00 -1.91049882E+01
  0.00000000E+00  9.55249411E+00  9.55249411E+00 -1.91049882E+01  0.00000000E+00
  9.55249411E+00  9.55249411E+00 -1.91049882E+01  0.00000000E+00  9.55249411E+00
  9.55249411E+00 -1.91049882E+01  0.00000000E+00  9.55249411E+00  9.55249411E+00
 -1.91049882E+01  0.00000000E+00  9.55249411E+00  9.55249411E+00 -1.91049882E+01
  0.00000000E+00  9.55249411E+00  9.55249411E+00 -1.91049882E+01  0.00000000E+00
  9.55249411E+00  9.55249411E+00 -1.91049882E+01  0.00000000E+00  9.55249411E+00
  9.55249411E+00 -1.91049882E+01  0.00000000E+00  9.55249411E+00  9.55249411E+00
 -1.91049882E+01  0.00000000E+00  9.55249411E+00  9.55249411E+00 -1.91049882E+01
  0.00000000E+00  9.55249411E+00  9.55249411E+00 -1.91049882E+01  0.00000000E+00
  9.55249411E+00  9.55249411E+00 -1.91049882E+01  0.00000000E+00  9.55249411E+00
  9.55249411E+00 -1.91049882E+01  0.00000000E+00  9.55249411E+00  9.55249411E+00
 -1.91049882E+01  0.00000000E+00  9.55249411E+00  9.55249411E+00 -1.91049882E+01
  0.00000000E+00  9.55249411E+00  9.55249411E+00 -1.91049882E+01  0.00000000E+00
  9.55249411E+00  9.55249411E+00 -1.91049882E+01  0.00000000E+00  9.55249411E+00
  9.55249411E+00 -1.91049882E+01  0.00000000E+00  9.55249411E+00  9.55249411E+00
 -1.91049882E+01  0.00000000E+00  9.55249411E+00  9.55249411E+00 -1.91049882E+01
  0.00000000E+00  9.55249411E+00  9.55249411E+00 -1.91049882E+01  0.00000000E+00
  9.55249411E+00  9.55249411E+00 -1.91049882E+01  0.00000000E+00  9.55249411E+00
  9.55249411E+00 -1.91049882E+01  0.00000000E+00  9.55249411E+00  9.55249411E+00
 -1.91049882E+01  0.00000000E+00  9.55249411E+00  9.55249411E+00 -1.91049882E+01
  0.00000000E+00  9.55249411E+00  9.55249411E+00 -1.91049882E+01  0.00000000E+00
  9.55249411E+00  9.55249411E+00 -1.91049882E+01  0.00000000E+00  9.55249411E+00
  9.55249411E+00 -1.91049882E+01  0.00000000E+00  9.55249411E+00  9.55249411E+00
 -1.91049882E+01  0.00000000E+00  9.55249411E+00  9.55249411E+00 -1.91049882E+01
  0.00000000E+00  9.55249411E+00  9.55249411E+00 -1.91049882E+01  0.00000000E+00
  9.55249411E+00  9.55249411E+00 -1.91049882E+01  0.00000000E+00  9.55249411E+00
  9.55249411E+00 -1.91049882E+01  0.00000000E+00  9.55249411E+00  9.55249411E+00
 -1.91049882E+01  0.00000000E+00  9.55249411E+00  9.55249411E+00 -1.91049882E+01
  0.00000000E+00  9.55249411E+00  9.55249411E+00 -1.91049882E+01  0.00000000E+00
  9.55249411E+00  9.55249411E+00 -1.91049882E+01  0.00000000E+00  9.55249411E+00
  9.55249411E+00 -1.91049882E+01  0.00000000E+00  9.55249411E+00  9.55249411E+00
 -1.91049882E+01  0.00000000E+00  9.55249411E+00  9.55249411E+00 -1.91049882E+01
  0.00000000E+00  9.55249411E+00  9.55249411E+00 -1.91049882E+01  0.00000000E+00
  9.55249411E+00  9.55249411E+00 -1.91049882E+01  0.00000000E+00  9.55249411E+00
  9.55249411E+00 -1.91049882E+01  0.00000000E+00  9.55249411E+00  9.55249411E+00
 -1.91049882E+01  0.00000000E+00  9.55249411E+00  9.55249411E+00 -1.91049882E+01
  0.00000000E+00  9.55249411E+00  9.55249411E+00 -1.91049882E+01  0.00000000E+00
  9.55249411E+00  9.55249411E+00 -1.91049882E+01  0.00000000E+00  9.55249411E+00
  9.55249411E+00 -1.91049882E+01  0.00000000E+00  9.55249411E+00  9.55249411E+00
 -1.91049882E+01  0.00000000E+00  9.55249411E+00  9.55249411E+00 -1.91049882E+01
  0.00000000E+00  9.55249411E+00  9.55249411E+00 -1.91049882E+01  0.00000000E+00
  9.55249411E+00  9.55249411E+00 -1.91049882E+01  0.00000000E+00  9.55249411E+00
  9.55249411E+00 -1.91049882E+01  0.00000000E+00  9.55249411E+00  9.55249411E+00
 -1.91049882E+01  0.00000000E+00  9.55249411E+00  9.55249411E+00 -1.91049882E+01
  0.00000000E+00  9.55249411E+00  9.55249411E+00 -1.91049882E+01  0.00000000E+00
  9.55249411E+00  9.55249411E+00 -1.91049882E+01  0.00000000E+00  9.55249411E+00
  9.55249411E+00 -1.91049882E+01  0.00000000E+00  9.55249411E+00  9.55249411E+00
 -1.91049882E+01  0.00000000E+00  9.55249411E+00  9.55249411E+00 -1.91049882E+01
  0.00000000E+00  9.55249411E+00  9.55249411E+00 -1.91049882E+01  0.00000000E+00
  9.55249411E+00  9.55249411E+00 -1.91049882E+01  0.00000000E+00  9.55249411E+00
  9.55249411E+00 -1.91049882E+01  0.00000000E+00  9.55249411E+00  9.55249411E+00
 -1.91049882E+01  0.00000000E+00  9.55249411E+00  9.55249411E+00 -1.91049882E+01
  0.00000000E+00  9.55249411E+00  9.55249411E+00 -1.91049882E+01  0.00000000E+00
  9.55249411E+00  9.55249411E+00 -1.91049882E+01  0.00000000E+00  9.55249411E+00
  9.55249411E+00 -1.91049882E+01  0.00000000E+00  9.55249411E+00  9.55249411E+00
 -1.91049882E+01  0.00000000E+00  9.55249411E+00  9.55249411E+00 -1.91049882E+01
  0.00000000E+00  9.55249411E+00  9.55249411E+00 -1.91049882E+01  0.00000000E+00
  9.55249411E+00  9.55249411E+00 -1.91049882E+01  0.00000000E+00  9.55249411E+00
  9.55249411E+00 -1.91049882E+01  0.00000000E+00  9.55249411E+00  9.55249411E+00
 -1.91049882E+01  0.00000000E+00  9.55249411E+00  9.55249411E+00 -1.91049882E+01
  0.00000000E+00  9.55249411E+00  9.55249411E+00 -1.91049882E+01  0.00000000E+00
  9.55249411E+00  9.55249411E+00 -1.91049882E+01  0.00000000E+00  9.55249411E+00
  9.55249411E+00 -1.91049882E+01  0.00000000E+00  9.55249411E+00  9.55249411E+00
 -1.91049882E+01  0.00000000E+00  9.55249411E+00  9.55249411E+00 -1.91049882E+01
  0.00000000E+00  9.55249411E+00  9.55249411E+00 -1.91049882E+01  0.00000000E+00
  9.55249411E+00  9.55249411E+00 -1.91049882E+01  0.00000000E+00  9.55249411E+00
  9.55249411E+00 -1.91049882E+01  0.00000000E+00  9.55249411E+00  9.55249411E+00
 -1.91049882E+01  0.00000000E+00  9.55249411E+00  9.55249411E+00 -1.91049882E+01
  0.00000000E+00  9.55249411E+00  9.55249411E+00 -1.91049882E+01  0.00000000E+00
  9.55249411E+00  9.55249411E+00 -1.91049882E+01  0.00000000E+00  9.55249411E+00
  9.55249411E+00 -1.91049882E+01  0.00000000E+00  9.55249411E+00  9.55249411E+00
 -1.91049882E+01  0.00000000E+00  9.55249411E+00  9.55249411E+00 -1.91049882E+01
  0.00000000E+00  9.55249411E+00  9.55249411E+00 -1.91049882E+01  0.00000000E+00
  9.55249411E+00  9.55249411E+00 -1.91049882E+01  0.00000000E+00  9.55249411E+00
  9.55249411E+00 -1.91049882E+01  0.00000000E+00  9.55249411E+00  9.55249411E+00
 -1.91049882E+01  0.00000000E+00  9.55249411E+00  9.55249411E+00 -1.91049882E+01
  0.00000000E+00  9.55249411E+00  9.55249411E+00 -1.91049882E+01  0.00000000E+00
  9.55249411E+00  9.55249411E+00 -1.91049882E+01  0.00000000E+00  9.55249411E+00
  9.55249411E+00 -1.91049882E+01  0.00000000E+00  9.55249411E+00  9.55249411E+00
 -1.91049882E+01  0.00000000E+00  9.55249411E+00  9.55249411E+00 -1.91049882E+01
  0.00000000E+00  9.55249411E+00  9.55249411E+00 -1.91049882E+01  0.00000000E+00
  9.55249411E+00  9.55249411E+00 -1.91049882E+01  0.00000000E+00  9.55249411E+00
  9.55249411E+00 -1.91049882E+01  0.00000000E+00  9.55249411E+00  9.55249411E+00
 -1.91049882E+01  0.00000000E+00  9.55249411E+00  9.55249411E+00 -1.91049882E+01
  0.00000000E+00  9.55249411E+00  9.55249411E+00 -1.91049882E+01  0.00000000E+00
  9.55249411E+00  9.55249411E+00 -1.91049882E+01  0.00000000E+00  9.55249411E+00
  9.55249411E+00 -1.91049882E+01  0.00000000E+00  9.55249411E+00  9.55249411E+00
 -1.91049882E+01  0.00000000E+00  9.55249411E+00  9.55249411E+00 -1.91049882E+01
  0.00000000E+00  9.55249411E+00  9.55249411E+00 -1.91049882E+01  0.00000000E+00
  9.55249411E+00  9.55249411E+00 -1.91049882E+01  0.00000000E+00  9.55249411E+00
  9.55249411E+00 -1.91049882E+01  0.00000000E+00  9.55249411E+00  9.55249411E+00
 -1.91049882E+01  0.00000000E+00  9.55249411E+00  9.55249411E+00 -1.91049882E+01
  0.00000000E+00  9.55249411E+00  9.55249411E+00 -1.91049882E+01  0.00000000E+00
  9.55249411E+00  9.55249411E+00 -1.91049882E+01  0.00000000E+00  9.55249411E+00
  9.55249411E+00 -1.91049882E+01  0.00000000E+00  9.55249411E+00  9.55249411E+00
 -1.91049882E+01  0.00000000E+00  9.55249411E+00  9.55249411E+00 -1.91049882E+01
  0.00000000E+00  9.55249411E+00  9.55249411E+00 -1.91049882E+01  0.00000000E+00
  9.55249411E+00  9.55249411E+00 -1.91049882E+01  0.00000000E+00  9.55249411E+00
  9.55249411E+00 -1.91049882E+01  0.00000000E+00  9.55249411E+00  9.55249411E+00
 -1.91049882E+01  0.00000000E+00  9.55249411E+00  9.55249411E+00 -1.91049882E+01
  0.00000000E+00  9.55249411E+00  9.55249411E+00 -1.91049882E+01  0.00000000E+00
  9.55249411E+00  9.55249411E+00 -1.91049882E+01  0.00000000E+00  9.55249411E+00
  9.55249411E+00 -1.91049882E+01  0.00000000E+00  9.55249411E+00  9.55249411E+00
 -1.91049882E+01  0.00000000E+00  9.55249411E+00  9.55249411E+00 -1.91049882E+01
  0.00000000E+00  9.55249411E+00  9.55249411E+00 -1.91049882E+01  0.00000000E+00
  9.55249411E+00  9.55249411E+00 -1.91049882E+01  0.00000000E+00  9.55249411E+00
  9.55249411E+00 -1.91049882E+01  0.00000000E+00  9.55249411E+00  9.55249411E+00
 -1.91049882E+01  0.00000000E+00  9.55249411E+00  9.55249411E+00 -1.91049882E+01
  0.00000000E+00  9.55249411E+00  9.55249411E+00 -1.91049882E+01  0.00000000E+00
  9.55249411E+00  9.55249411E+00 -1.91049882E+01  0.00000000E+00  9.55249411E+00
  9.55249411E+00 -1.91049882E+01  0.00000000E+00  9.55249411E+00  9.55249411E+00
 -1.91049882E+01  0.00000000E+00  9.55249411E+00  9.55249411E+00 -1.91049882E+01
  0.00000000E+00  9.55249411E+00  9.55249411E+00 -1.91049882E+01  0.00000000E+00
  9.55249411E+00  9.55249411E+00 -1.91049882E+01  0.00000000E+00  9.55249411E+00
  9.55249411E+00 -1.91049882E+01  0.00000000E+00  9.55249411E+00  9.55249411E+00
 -1.91049882E+01  0.00000000E+00  9.55249411E+00  9.55249411E+00 -1.91049882E+01
  0.00000000E+00  9.55249411E+00  9.55249411E+00 -1.91049882E+01  0.00000000E+00
  9.55249411E+00  9.55249411E+00 -1.91049882E+01  0.00000000E+00  9.55249411E+00
  9.55249411E+00 -1.91049882E+01  0.00000000E+00  9.55249411E+00  9.55249411E+00
 -1.91049882E+01  0.00000000E+00  9.55249411E+00  9.55249411E+00 -1.91049882E+01
  0.00000000E+00  9.55249411E+00  9.55249411E+00 -1.91049882E+01  0.00000000E+00
  9.55249411E+00  9.55249411E+00 -1.91049882E+01  0.00000000E+00  9.55249411E+00
  9.55249411E+00 -1.91049882E+01  0.00000000E+00  9.55249411E+00  9.55249411E+00
 -1.91049882E+01  0.00000000E+00  9.55249411E+00  9.55249411E+00 -1.91049882E+01
  0.00000000E+00  9.55249411E+00  9.55249411E+00 -1.91049882E+01  0.00000000E+00
  9.55249411E+00  9.55249411E+00 -1.91049882E+01  0.00000000E+00  9.55249411E+00
  9.55249411E+00 -1.91049882E+01  0.00000000E+00  9.55249411E+00  9.55249411E+00
 -1.91049882E+01  0.00000000E+00  9.55249411E+00  9.55249411E+00 -1.91049882E+01
  0.00000000E+00  9.55249411E+00  9.55249411E+00 -1.91049882E+01  0.00000000E+00
  9.55249411E+00  9.55249411E+00 -1.91049882E+01  0.00000000E+00  9.55249411E+00
  9.55249411E+00 -1.91049882E+01  0.00000000E+00  9.55249411E+00  9.55249411E+00
 -1.91049882E+01  0.00000000E+00  9.55249411E+00  9.55249411E+00 -1.91049882E+01
  0.00000000E+00  9.55249411E+00  9.55249411E+00 -1.91049882E+01  0.00000000E+00
  9.55249411E+00  9.55249411E+00 -1.91049882E+01  0.00000000E+00  9.55249411E+00
  9.55249411E+00 -1.91049882E+01  0.00000000E+00  9.55249411E+00  9.55249411E+00
 -1.91049882E+01  0.00000000E+00  9.55249411E+00  9.55249411E+00 -1.91049882E+01
  0.00000000E+00  9.55249411E+00  9.55249411E+00 -1.91049882E+01  0.00000000E+00
  9.55249411E+00  9.55249411E+00 -1.91049882E+01  0.00000000E+00  9.55249411E+00
  9.55249411E+00 -1.91049882E+01  0.00000000E+00  9.55249411E+00  9.55249411E+00
 -1.91049882E+01  0.00000000E+00  9.55249411E+00  9.55249411E+00 -1.91049882E+01
  0.00000000E+00  9.55249411E+00  9.55249411E+00 -1.91049882E+01  0.00000000E+00
  9.55249411E+00  9.55249411E+00 -1.91049882E+01  0.00000000E+00  9.55249411E+00
  9.55249411E+00 -1.91049882E+01  0.00000000E+00  9.55249411E+00  9.55249411E+00
 -1.91049882E+01  0.00000000E+00  9.55249411E+00  9.55249411E+00 -1.91049882E+01
  0.00000000E+00  9.55249411E+00  9.55249411E+00 -1.91049882E+01  0.00000000E+00
  9.55249411E+00  9.55249411E+00 -1.91049882E+01  0.00000000E+00  9.55249411E+00
  9.55249411E+00 -1.91049882E+01  0.00000000E+00  9.55249411E+00  9.55249411E+00
 -1.91049882E+01  0.00000000E+00  9.55249411E+00  9.55249411E+00 -1.91049882E+01
  0.00000000E+00  9.55249411E+00  9.55249411E+00 -1.91049882E+01  0.00000000E+00
  9.55249411E+00  9.55249411E+00 -1.91049882E+01  0.00000000E+00  9.55249411E+00
  9.55249411E+00 -1.91049882E+01  0.00000000E+00  9.55249411E+00  9.55249411E+00
 -1.91049882E+01  0.00000000E+00  9.55249411E+00  9.55249411E+00 -1.91049882E+01
  0.00000000E+00  9.55249411E+00  9.55249411E+00 -1.91049882E+01  0.00000000E+00
  9.55249411E+00  9.55249411E+00 -1.91049882E+01  0.00000000E+00  9.55249411E+00
  9.55249411E+00 -1.91049882E+01  0.00000000E+00  9.55249411E+00  9.55249411E+00
 -1.91049882E+01  0.00000000E+00  9.55249411E+00  9.55249411E+00 -1.91049882E+01
  0.00000000E+00  9.55249411E+00  9.55249411E+00 -1.91049882E+01  0.00000000E+00
  9.55249411E+00  9.55249411E+00 -1.91049882E+01  0.00000000E+00  9.55249411E+00
  9.55249411E+00 -1.91049882E+01  0.00000000E+00  9.55249411E+00  9.55249411E+00
 -1.91049882E+01  0.00000000E+00  9.55249411E+00  9.55249411E+00 -1.91049882E+01
  0.00000000E+00  9.55249411E+00  9.55249411E+00 -1.91049882E+01  0.00000000E+00
  9.55249411E+00  9.55249411E+00 -1.91049882E+01  0.00000000E+00  9.55249411E+00
  9.55249411E+00 -1.91049882E+01  0.00000000E+00  9.55249411E+00  9.55249411E+00
 -1.91049882E+01  0.00000000E+00  9.55249411E+00  9.55249411E+00 -1.91049882E+01
  0.00000000E+00  9.55249411E+00  9.55249411E+00 -1.91049882E+01  0.00000000E+00
  9.55249411E+00  9.55249411E+00 -1.91049882E+01  0.00000000E+00  9.55249411E+00
  9.55249411E+00 -1.91049882E+01  0.00000000E+00  9.55249411E+00  9.55249411E+00
 -1.91049882E+01  0.00000000E+00  9.55249411E+00  9.55249411E+00 -1.91049882E+01
  0.00000000E+00  9.55249411E+00  9.55249411E+00 -1.91049882E+01  0.00000000E+00
  9.55249411E+00  9.55249411E+00 -1.91049882E+01  0.00000000E+00  9.55249411E+00
  9.55249411E+00 -1.91049882E+01  0.00000000E+00  9.55249411E+00  9.55249411E+00
 -1.91049882E+01  0.00000000E+00  9.55249411E+00  9.55249411E+00 -1.91049882E+01
  0.00000000E+00  9.55249411E+00  9.55249411E+00 -1.91049882E+01  0.00000000E+00
  9.55249411E+00  9.55249411E+00 -1.91049882E+01  0.00000000E+00  9.55249411E+00
  9.55249411E+00 -1.91049882E+01  0.00000000E+00  9.55249411E+00  9.55249411E+00
 -1.91049882E+01  0.00000000E+00  9.55249411E+00  9.55249411E+00 -1.91049882E+01
  0.00000000E+00  9.55249411E+00  9.55249411E+00 -1.91049882E+01  0.00000000E+00
  9.55249411E+00  9.55249411E+00 -1.91049882E+01  0.00000000E+00  9.55249411E+00
  9.55249411E+00 -1.91049882E+01  0.00000000E+00  9.55249411E+00  9.55249411E+00
 -1.91049882E+01  0.00000000E+00  9.55249411E+00  9.55249411E+00 -1.91049882E+01
  0.00000000E+00  9.55249411E+00  9.55249411E+00 -1.91049882E+01  0.00000000E+00
  9.55249411E+00  9.55249411E+00 -1.91049882E+01  0.00000000E+00  9.55249411E+00
  9.55249411E+00 -1.91049882E+01  0.00000000E+00  9.55249411E+00  9.55249411E+00
 -1.91049882E+01  0.00000000E+00  9.55249411E+00  9.55249411E+00 -1.91049882E+01
  0.00000000E+00  9.55249411E+00  9.55249411E+00 -1.91049882E+01  0.00000000E+00
  9.55249411E+00  9.55249411E+00 -1.91049882E+01  0.00000000E+00  9.55249411E+00
  9.55249411E+00 -1.91049882E+01  0.00000000E+00  9.55249411E+00  9.55249411E+00
 -1.91049882E+01  0.00000000E+00  9.55249411E+00  9.55249411E+00 -1.91049882E+01
  0.00000000E+00  9.55249411E+00  9.55249411E+00 -1.91049882E+01  0.00000000E+00
  9.55249411E+00  9.55249411E+00 -1.91049882E+01  0.00000000E+00  9.55249411E+00
  9.55249411E+00 -1.91049882E+01  0.00000000E+00  9.55249411E+00  9.55249411E+00
 -1.91049882E+01  0.00000000E+00  9.55249411E+00  9.55249411E+00 -1.91049882E+01
  0.00000000E+00  9.55249411E+00  9.55249411E+00 -1.91049882E+01  0.00000000E+00
  9.55249411E+00  9.55249411E+00 -1.91049882E+01  0.00000000E+00  9.55249411E+00
  9.55249411E+00 -1.91049882E+01  0.00000000E+00  9.55249411E+00  9.55249411E+00
 -1.91049882E+01  0.00000000E+00  9.55249411E+00  9.55249411E+00 -1.91049882E+01
  0.00000000E+00  9.55249411E+00  9.55249411E+00 -1.91049882E+01  0.00000000E+00
  9.55249411E+00  9.55249411E+00 -1.91049882E+01  0.00000000E+00  9.55249411E+00
  9.55249411E+00 -1.91049882E+01  0.00000000E+00  9.55249411E+00  9.55249411E+00
 -1.91049882E+01  0.00000000E+00  9.55249411E+00  9.55249411E+00 -1.91049882E+01
  0.00000000E+00  9.55249411E+00  9.55249411E+00 -1.91049882E+01  0.00000000E+00
  9.55249411E+00  9.55249411E+00 -1.91049882E+01  0.00000000E+00  9.55249411E+00
  9.55249411E+00 -1.91049882E+01  0.00000000E+00  9.55249411E+00  9.55249411E+00
 -1.91049882E+01  0.00000000E+00  9.55249411E+00  9.55249411E+00 -1.91049882E+01
  0.00000000E+00  9.55249411E+00  9.55249411E+00 -1.91049882E+01  0.00000000E+00
  9.55249411E+00  9.55249411E+00 -1.91049882E+01  0.00000000E+00  9.55249411E+00
  9.55249411E+00 -1.91049882E+01  0.00000000E+00  9.55249411E+00  9.55249411E+00
 -1.91049882E+01  0.00000000E+00  9.55249411E+00  9.55249411E+00 -1.91049882E+01
  0.00000000E+00  9.55249411E+00  9.55249411E+00 -1.91049882E+01  0.00000000E+00
  9.55249411E+00  9.55249411E+00 -1.91049882E+01  0.00000000E+00  9.55249411E+00
  9.55249411E+00 -1.91049882E+01  0.00000000E+00  9.55249411E+00  9.55249411E+00
 -1.91049882E+01  0.00000000E+00  9.55249411E+00  9.55249411E+00 -1.91049882E+01
  0.00000000E+00  9.55249411E+00  9.55249411E+00 -1.91049882E+01  0.00000000E+00
  9.55249411E+00  9.55249411E+00 -1.91049882E+01  0.00000000E+00  9.55249411E+00
  9.55249411E+00 -1.91049882E+01  0.00000000E+00  9.55249411E+00  9.55249411E+00
 -1.91049882E+01  0.00000000E+00  9.55249411E+00  9.55249411E+00 -1.91049882E+01
  0.00000000E+00  9.55249411E+00  9.55249411E+00 -1.91049882E+01  0.00000000E+00
  9.55249411E+00  9.55249411E+00 -1.91049882E+01  0.00000000E+00  9.55249411E+00
  9.55249411E+00 -1.91049882E+01  0.00000000E+00  9.55249411E+00  9.55249411E+00
 -1.91049882E+01  0.00000000E+00  9.55249411E+00  9.55249411E+00 -1.91049882E+01
  0.00000000E+00  9.55249411E+00  9.55249411E+00 -1.91049882E+01  0.00000000E+00
  9.55249411E+00  9.55249411E+00 -1.91049882E+01  0.00000000E+00  9.55249411E+00
  9.55249411E+00 -1.91049882E+01  0.00000000E+00  9.55249411E+00  9.55249411E+00
 -1.91049882E+01  0.00000000E+00  9.55249411E+00  9.55249411E+00 -1.91049882E+01
  0.00000000E+00  9.55249411E+00  9.55249411E+00 -1.91049882E+01  0.00000000E+00
  9.55249411E+00  9.55249411E+00 -1.91049882E+01  0.00000000E+00  9.55249411E+00
  9.55249411E+00 -1.91049882E+01  0.00000000E+00  9.55249411E+00  9.55249411E+00
 -1.91049882E+01  0.00000000E+00  9.55249411E+00  9.55249411E+00 -1.91049882E+01
  0.00000000E+00  9.55249411E+00  9.55249411E+00 -1.91049882E+01  0.00000000E+00
  9.55249411E+00  9.55249411E+00 -1.91049882E+01  0.00000000E+00  9.55249411E+00
  9.55249411E+00 -1.91049882E+01  0.00000000E+00  9.55249411E+00  9.55249411E+00
 -1.91049882E+01  0.00000000E+00  9.55249411E+00  9.55249411E+00 -1.91049882E+01
  0.00000000E+00  9.55249411E+00  9.55249411E+00 -1.91049882E+01  0.00000000E+00
  9.55249411E+00  9.55249411E+00 -1.91049882E+01  0.00000000E+00  9.55249411E+00
  9.55249411E+00 -1.91049882E+01  0.00000000E+00  9.55249411E+00  9.55249411E+00
 -1.91049882E+01  0.00000000E+00  9.55249411E+00  9.55249411E+00 -1.91049882E+01
  0.00000000E+00  9.55249411E+00  9.55249411E+00 -1.91049882E+01  0.00000000E+00
  9.55249411E+00  9.55249411E+00 -1.91049882E+01  0.00000000E+00  9.55249411E+00
  9.55249411E+00 -1.91049882E+01  0.00000000E+00  9.55249411E+00  9.55249411E+00
 -1.91049882E+01  0.00000000E+00  9.55249411E+00  9.55249411E+00 -1.91049882E+01
  0.00000000E+00  9.55249411E+00  9.55249411E+00 -1.91049882E+01  0.00000000E+00
  9.55249411E+00  9.55249411E+00 -1.91049882E+01  0.00000000E+00  9.55249411E+00
  9.55249411E+00 -1.91049882E+01  0.00000000E+00  9.55249411E+00  9.55249411E+00
 -1.91049882E+01  0.00000000E+00  9.55249411E+00  9.55249411E+00 -1.91049882E+01
  0.00000000E+00  9.55249411E+00  9.55249411E+00 -1.91049882E+01  0.00000000E+00
  9.55249411E+00  9.55249411E+00 -1.91049882E+01  0.00000000E+00  9.55249411E+00
  9.55249411E+00 -1.91049882E+01  0.00000000E+00  9.55249411E+00  9.55249411E+00
 -1.91049882E+01  0.00000000E+00  9.55249411E+00  9.55249411E+00 -1.91049882E+01
  0.00000000E+00  9.55249411E+00  9.55249411E+00 -1.91049882E+01  0.00000000E+00
  9.55249411E+00  9.55249411E+00 -1.91049882E+01  0.00000000E+00  9.55249411E+00
  9.55249411E+00 -1.91049882E+01  0.00000000E+00  9.55249411E+00  9.55249411E+00
 -1.91049882E+01  0.00000000E+00  9.55249411E+00  9.55249411E+00 -1.91049882E+01
  0.00000000E+00  9.55249411E+00  9.55249411E+00 -1.91049882E+01  0.00000000E+00
  9.55249411E+00  9.55249411E+00 -1.91049882E+01  0.00000000E+00  9.55249411E+00
  9.55249411E+00 -1.91049882E+01  0.00000000E+00  9.55249411E+00  9.55249411E+00
 -1.91049882E+01  0.00000000E+00  9.55249411E+00  9.55249411E+00 -1.91049882E+01
  0.00000000E+00  9.55249411E+00  9.55249411E+00 -1.91049882E+01  0.00000000E+00
  9.55249411E+00  9.55249411E+00 -1.91049882E+01  0.00000000E+00  9.55249411E+00
  9.55249411E+00 -1.91049882E+01  0.00000000E+00  9.55249411E+00  9.55249411E+00
 -1.91049882E+01  0.00000000E+00  9.55249411E+00  9.55249411E+00 -1.91049882E+01
  0.00000000E+00  9.55249411E+00  9.55249411E+00 -1.91049882E+01  0.00000000E+00
  9.55249411E+00  9.55249411E+00 -1.91049882E+01  0.00000000E+00  9.55249411E+00
  9.55249411E+00 -1.91049882E+01  0.00000000E+00  9.55249411E+00  9.55249411E+00
 -1.91049882E+01  0.00000000E+00  9.55249411E+00  9.55249411E+00 -1.91049882E+01
  0.00000000E+00  9.55249411E+00  9.55249411E+00 -1.91049882E+01  0.00000000E+00
  9.55249411E+00  9.55249411E+00 -1.91049882E+01  0.00000000E+00  9.55249411E+00
  9.55249411E+00 -1.91049882E+01  0.00000000E+00  9.55249411E+00  9.55249411E+00
 -1.91049882E+01  0.00000000E+00  9.55249411E+00  9.55249411E+00 -1.91049882E+01
  0.00000000E+00  9.55249411E+00  9.55249411E+00 -1.91049882E+01  0.00000000E+00
  9.55249411E+00  9.55249411E+00 -1.91049882E+01  0.00000000E+00  9.55249411E+00
  9.55249411E+00 -1.91049882E+01  0.00000000E+00  9.55249411E+00  9.55249411E+00
 -1.91049882E+01  0.00000000E+00  9.55249411E+00  9.55249411E+00 -1.91049882E+01
  0.00000000E+00  9.55249411E+00  9.55249411E+00 -1.91049882E+01  0.00000000E+00
  9.55249411E+00  9.55249411E+00 -1.91049882E+01  0.00000000E+00  9.55249411E+00
  9.55249411E+00 -1.91049882E+01  0.00000000E+00  9.55249411E+00  9.55249411E+00
 -1.91049882E+01  0.00000000E+00  9.55249411E+00  9.55249411E+00 -1.91049882E+01
  0.00000000E+00  9.55249411E+00  9.55249411E+00 -1.91049882E+01  0.00000000E+00
  9.55249411E+00  9.55249411E+00 -1.91049882E+01  0.00000000E+00  9.55249411E+00
  9.55249411E+00 -1.91049882E+01  0.00000000E+00  9.55249411E+00  9.55249411E+00
 -1.91049882E+01  0.00000000E+00  9.55249411E+00  9.55249411E+00 -1.91049882E+01
  0.00000000E+00  9.55249411E+00  9.55249411E+00 -1.91049882E+01  0.00000000E+00
  9.55249411E+00  9.55249411E+00 -1.91049882E+01  0.00000000E+00  9.55249411E+00
  9.55249411E+00 -1.91049882E+01  0.00000000E+00  9.55249411E+00  9.55249411E+00
 -1.91049882E+01  0.00000000E+00  9.55249411E+00  9.55249411E+00 -1.91049882E+01
  0.00000000E+00  9.55249411E+00  9.55249411E+00 -1.91049882E+01  0.00000000E+00
  9.55249411E+00  9.55249411E+00 -1.91049882E+01  0.00000000E+00  9.55249411E+00
  9.55249411E+00 -1.91049882E+01  0.00000000E+00  9.55249411E+00  9.55249411E+00
 -1.91049882E+01  0.00000000E+00  9.55249411E+00  9.55249411E+00 -1.91049882E+01
  0.00000000E+00  9.55249411E+00  9.55249411E+00 -1.91049882E+01  0.00000000E+00
  9.55249411E+00  9.55249411E+00 -1.91049882E+01  0.00000000E+00  9.55249411E+00
  9.55249411E+00 -1.91049882E+01  0.00000000E+00  9.55249411E+00  9.55249411E+00
 -1.91049882E+01  0.00000000E+00  9.55249411E+00  9.55249411E+00 -1.91049882E+01
  0.00000000E+00  9.55249411E+00  9.55249411E+00 -1.91049882E+01  0.00000000E+00
  9.55249411E+00  9.55249411E+00 -1.91049882E+01  0.00000000E+00  9.55249411E+00
  9.55249411E+00 -1.91049882E+01  0.00000000E+00  9.55249411E+00  9.55249411E+00
 -1.91049882E+01  0.00000000E+00  9.55249411E+00  9.55249411E+00 -1.91049882E+01
  0.00000000E+00  9.55249411E+00  9.55249411E+00 -1.91049882E+01  0.00000000E+00
  9.55249411E+00  9.55249411E+00 -1.91049882E+01  0.00000000E+00  9.55249411E+00
  9.55249411E+00 -1.91049882E+01  0.00000000E+00  9.55249411E+00  9.55249411E+00
 -1.91049882E+01  0.00000000E+00  9.55249411E+00  9.55249411E+00 -1.91049882E+01
  0.00000000E+00  9.55249411E+00  9.55249411E+00 -1.91049882E+01  0.00000000E+00
  9.55249411E+00  9.55249411E+00 -1.91049882E+01  0.00000000E+00  9.55249411E+00
  9.55249411E+00 -1.91049882E+01  0.00000000E+00  9.55249411E+00  9.55249411E+00
 -1.91049882E+01  0.00000000E+00  9.55249411E+00  9.55249411E+00 -1.91049882E+01
  0.00000000E+00  9.55249411E+00  9.55249411E+00 -1.91049882E+01  0.00000000E+00
  9.55249411E+00  9.55249411E+00 -1.91049882E+01  0.00000000E+00  9.55249411E+00
  9.55249411E+00 -1.91049882E+01  0.00000000E+00  9.55249411E+00  9.55249411E+00
 -1.91049882E+01  0.00000000E+00  9.55249411E+00  9.55249411E+00 -1.91049882E+01
  0.00000000E+00  9.55249411E+00  9.55249411E+00 -1.91049882E+01  0.00000000E+00
  9.55249411E+00  9.55249411E+00 -1.91049882E+01  0.00000000E+00  9.55249411E+00
  9.55249411E+00 -1.91049882E+01  0.00000000E+00  9.55249411E+00  9.55249411E+00
 -1.91049882E+01  0.00000000E+00  9.55249411E+00  9.55249411E+00 -1.91049882E+01
  0.00000000E+00  9.55249411E+00  9.55249411E+00 -1.91049882E+01  0.00000000E+00
  9.55249411E+00  9.55249411E+00 -1.91049882E+01  0.00000000E+00  9.55249411E+00
  9.55249411E+00 -1.91049882E+01  0.00000000E+00  9.55249411E+00  9.55249411E+00
 -1.91049882E+01  0.00000000E+00  9.55249411E+00  9.55249411E+00 -1.91049882E+01
  0.00000000E+00  9.55249411E+00  9.55249411E+00 -1.91049882E+01  0.00000000E+00
  9.55249411E+00  9.55249411E+00 -1.91049882E+01  0.00000000E+00  9.55249411E+00
  9.55249411E+00 -1.91049882E+01  0.00000000E+00  9.55249411E+00  9.55249411E+00
 -1.91049882E+01  0.00000000E+00  9.55249411E+00  9.55249411E+00 -1.91049882E+01
  0.00000000E+00  9.55249411E+00  9.55249411E+00 -1.91049882E+01  0.00000000E+00
  9.55249411E+00  9.55249411E+00 -1.91049882E+01  0.00000000E+00  9.55249411E+00
  9.55249411E+00 -1.91049882E+01  0.00000000E+00  9.55249411E+00  9.55249411E+00
 -1.91049882E+01  0.00000000E+00  9.55249411E+00  9.55249411E+00 -1.91049882E+01
  0.00000000E+00  9.55249411E+00  9.55249411E+00 -1.91049882E+01  0.00000000E+00
  9.55249411E+00  9.55249411E+00 -1.91049882E+01  0.00000000E+00  9.55249411E+00
  9.55249411E+00 -1.91049882E+01  0.00000000E+00  9.55249411E+00  9.55249411E+00
 -1.91049882E+01  0.00000000E+00  9.55249411E+00  9.55249411E+00 -1.91049882E+01
  0.00000000E+00  9.55249411E+00  9.55249411E+00 -1.91049882E+01  0.00000000E+00
  9.55249411E+00  9.55249411E+00 -1.91049882E+01  0.00000000E+00  9.55249411E+00
  9.55249411E+00 -1.91049882E+01  0.00000000E+00  9.55249411E+00  9.55249411E+00
 -1.91049882E+01  0.00000000E+00  9.55249411E+00  9.55249411E+00 -1.91049882E+01
  0.00000000E+00  9.55249411E+00  9.55249411E+00 -1.91049882E+01  0.00000000E+00
  9.55249411E+00  9.55249411E+00 -1.91049882E+01  0.00000000E+00  9.55249411E+00
  9.55249411E+00 -1.91049882E+01  0.00000000E+00  9.55249411E+00  9.55249411E+00
 -1.91049882E+01  0.00000000E+00  9.55249411E+00  9.55249411E+00 -1.91049882E+01
  0.00000000E+00  9.55249411E+00  9.55249411E+00 -1.91049882E+01  0.00000000E+00
  9.55249411E+00  9.55249411E+00 -1.91049882E+01  0.00000000E+00  9.55249411E+00
  9.55249411E+00 -1.91049882E+01  0.00000000E+00  9.55249411E+00  9.55249411E+00
 -1.91049882E+01  0.00000000E+00  9.55249411E+00  9.55249411E+00 -1.91049882E+01
  0.00000000E+00  9.55249411E+00  9.55249411E+00 -1.91049882E+01  0.00000000E+00
  9.55249411E+00  9.55249411E+00 -1.91049882E+01  0.00000000E+00  9.55249411E+00
  9.55249411E+00 -1.91049882E+01  0.00000000E+00  9.55249411E+00  9.55249411E+00
 -1.91049882E+01  0.00000000E+00  9.55249411E+00  9.55249411E+00 -1.91049882E+01
  0.00000000E+00  9.55249411E+00  9.55249411E+00 -1.91049882E+01  0.00000000E+00
  9.55249411E+00  9.55249411E+00 -1.91049882E+01  0.00000000E+00  9.55249411E+00
  9.55249411E+00 -1.91049882E+01  0.00000000E+00  9.55249411E+00  9.55249411E+00
 -1.91049882E+01  0.00000000E+00  9.55249411E+00  9.55249411E+00 -1.91049882E+01
  0.00000000E+00  9.55249411E+00  9.55249411E+00 -1.91049882E+01  0.00000000E+00
  9.55249411E+00  9.55249411E+00 -1.91049882E+01  0.00000000E+00  9.55249411E+00
  9.55249411E+00 -1.91049882E+01  0.00000000E+00  9.55249411E+00  9.55249411E+00
 -1.91049882E+01  0.00000000E+00  9.55249411E+00  9.55249411E+00 -1.91049882E+01
  0.00000000E+00  9.55249411E+00  9.55249411E+00 -1.91049882E+01  0.00000000E+00
  9.55249411E+00  9.55249411E+00 -1.91049882E+01  0.00000000E+00  9.55249411E+00
  9.55249411E+00 -1.91049882E+01  0.00000000E+00  9.55249411E+00  9.55249411E+00
 -1.91049882E+01  0.00000000E+00  9.55249411E+00  9.55249411E+00 -1.91049882E+01
  0.00000000E+00  9.55249411E+00  9.55249411E+00 -1.91049882E+01  0.00000000E+00
  9.55249411E+00  9.55249411E+00 -1.91049882E+01  0.00000000E+00  9.55249411E+00
  9.55249411E+00 -1.91049882E+01  0.00000000E+00  9.55249411E+00  9.55249411E+00
 -1.91049882E+01  0.00000000E+00  9.55249411E+00  9.55249411E+00 -1.91049882E+01
  0.00000000E+00  9.55249411E+00  9.55249411E+00 -1.91049882E+01  0.00000000E+00
  9.55249411E+00  9.55249411E+00 -1.91049882E+01  0.00000000E+00  9.55249411E+00
  9.55249411E+00 -1.91049882E+01  0.00000000E+00  9.55249411E+00  9.55249411E+00
 -1.91049882E+01  0.00000000E+00  9.55249411E+00  9.55249411E+00 -1.91049882E+01
  0.00000000E+00  9.55249411E+00  9.55249411E+00 -1.91049882E+01  0.00000000E+00
  9.55249411E+00  9.55249411E+00 -1.91049882E+01  0.00000000E+00  9.55249411E+00
  9.55249411E+00 -1.91049882E+01  0.00000000E+00  9.55249411E+00  9.55249411E+00
 -1.91049882E+01  0.00000000E+00  9.55249411E+00  9.55249411E+00 -1.91049882E+01
  0.00000000E+00  9.55249411E+00  9.55249411E+00 -1.91049882E+01  0.00000000E+00
  9.55249411E+00  9.55249411E+00 -1.91049882E+01  0.00000000E+00  9.55249411E+00
  9.55249411E+00 -1.91049882E+01  0.00000000E+00  9.55249411E+00  9.55249411E+00
 -1.91049882E+01  0.00000000E+00  9.55249411E+00  9.55249411E+00 -1.91049882E+01
  0.00000000E+00  9.55249411E+00  9.55249411E+00 -1.91049882E+01  0.00000000E+00
  9.55249411E+00  9.55249411E+00 -1.91049882E+01  0.00000000E+00  9.55249411E+00
  9.55249411E+00 -1.91049882E+01  0.00000000E+00  9.55249411E+00  9.55249411E+00
 -1.91049882E+01  0.00000000E+00  9.55249411E+00  9.55249411E+00 -1.91049882E+01
  0.00000000E+00  9.55249411E+00  9.55249411E+00 -1.91049882E+01  0.00000000E+00
  9.55249411E+00  9.55249411E+00 -1.91049882E+01  0.00000000E+00  9.55249411E+00
  9.55249411E+00 -1.91049882E+01  0.00000000E+00  9.55249411E+00  9.55249411E+00
 -1.91049882E+01  0.00000000E+00  9.55249411E+00  9.55249411E+00 -1.91049882E+01
  0.00000000E+00  9.55249411E+00  9.55249411E+00 -1.91049882E+01  0.00000000E+00
  9.55249411E+00  9.55249411E+00 -1.91049882E+01  0.00000000E+00  9.55249411E+00
  9.55249411E+00 -1.91049882E+01  0.00000000E+00  9.55249411E+00  9.55249411E+00
 -1.91049882E+01  0.00000000E+00  9.55249411E+00  9.55249411E+00 -1.91049882E+01
  0.00000000E+00  9.55249411E+00  9.55249411E+00 -1.91049882E+01  0.00000000E+00
  9.55249411E+00  9.55249411E+00 -1.91049882E+01  0.00000000E+00  9.55249411E+00
  9.55249411E+00 -1.91049882E+01  0.00000000E+00  9.55249411E+00  9.55249411E+00
 -1.91049882E+01  0.00000000E+00  9.55249411E+00  9.55249411E+00 -1.91049882E+01
  0.00000000E+00  9.55249411E+00  9.55249411E+00 -1.91049882E+01  0.00000000E+00
  9.55249411E+00  9.55249411E+00 -1.91049882E+01  0.00000000E+00  9.55249411E+00
  9.55249411E+00 -1.91049882E+01  0.00000000E+00  9.55249411E+00  9.55249411E+00
 -1.91049882E+01  0.00000000E+00  9.55249411E+00  9.55249411E+00 -1.91049882E+01
  0.00000000E+00  9.55249411E+00  9.55249411E+00 -1.91049882E+01  0.00000000E+00
  9.55249411E+00  9.55249411E+00 -1.91049882E+01  0.00000000E+00  9.55249411E+00
  9.55249411E+00 -1.91049882E+01  0.00000000E+00  9.55249411E+00  9.55249411E+00
 -1.91049882E+01  0.00000000E+00  9.55249411E+00  9.55249411E+00 -1.91049882E+01
  0.00000000E+00  9.55249411E+00  9.55249411E+00 -1.91049882E+01  0.00000000E+00
  9.55249411E+00  9.55249411E+00 -1.91049882E+01  0.00000000E+00  9.55249411E+00
  9.55249411E+00 -1.91049882E+01  0.00000000E+00  9.55249411E+00  9.55249411E+00
 -1.91049882E+01  0.00000000E+00  9.55249411E+00  9.55249411E+00 -1.91049882E+01
  0.00000000E+00  9.55249411E+00  9.55249411E+00 -1.91049882E+01  0.00000000E+00
  9.55249411E+00  9.55249411E+00 -1.91049882E+01  0.00000000E+00  9.55249411E+00
  9.55249411E+00 -1.91049882E+01  0.00000000E+00  9.55249411E+00  9.55249411E+00
 -1.91049882E+01  0.00000000E+00  9.55249411E+00  9.55249411E+00 -1.91049882E+01
  0.00000000E+00  9.55249411E+00  9.55249411E+00 -1.91049882E+01  0.00000000E+00
  9.55249411E+00  9.55249411E+00 -1.91049882E+01  0.00000000E+00  9.55249411E+00
  9.55249411E+00 -1.91049882E+01  0.00000000E+00  9.55249411E+00  9.55249411E+00
 -1.91049882E+01  0.00000000E+00  9.55249411E+00  9.55249411E+00 -1.91049882E+01
  0.00000000E+00  9.55249411E+00  9.55249411E+00 -1.91049882E+01  0.00000000E+00
  9.55249411E+00  9.55249411E+00 -1.91049882E+01  0.00000000E+00  9.55249411E+00
  9.55249411E+00 -1.91049882E+01  0.00000000E+00  9.55249411E+00  9.55249411E+00
 -1.91049882E+01  0.00000000E+00  9.55249411E+00  9.55249411E+00 -1.91049882E+01
  0.00000000E+00  9.55249411E+00  9.55249411E+00 -1.91049882E+01  0.00000000E+00
  9.55249411E+00  9.55249411E+00 -1.91049882E+01  0.00000000E+00  9.55249411E+00
  9.55249411E+00 -1.91049882E+01  0.00000000E+00  9.55249411E+00  9.55249411E+00
 -1.91049882E+01  0.00000000E+00  9.55249411E+00  9.55249411E+00 -1.91049882E+01
  0.00000000E+00  9.55249411E+00  9.55249411E+00 -1.91049882E+01  0.00000000E+00
  9.55249411E+00  9.55249411E+00 -1.91049882E+01  0.00000000E+00  9.55249411E+00
  9.55249411E+00 -1.91049882E+01  0.00000000E+00  9.55249411E+00  9.55249411E+00
 -1.91049882E+01  0.00000000E+00  9.55249411E+00  9.55249411E+00 -1.91049882E+01
  0.00000000E+00  9.55249411E+00  9.55249411E+00 -1.91049882E+01  0.00000000E+00
  9.55249411E+00  9.55249411E+00 -1.91049882E+01  0.00000000E+00  9.55249411E+00
  9.55249411E+00 -1.91049882E+01  0.00000000E+00  9.55249411E+00  9.55249411E+00
 -1.91049882E+01  0.00000000E+00  9.55249411E+00  9.55249411E+00 -1.91049882E+01
  0.00000000E+00  9.55249411E+00  9.55249411E+00 -1.91049882E+01  0.00000000E+00
  9.55249411E+00  9.55249411E+00 -1.91049882E+01  0.00000000E+00  9.55249411E+00
  9.55249411E+00 -1.91049882E+01  0.00000000E+00  9.55249411E+00  9.55249411E+00
 -1.91049882E+01  0.00000000E+00  9.55249411E+00  9.55249411E+00 -1.91049882E+01
  0.00000000E+00  9.55249411E+00  9.55249411E+00 -1.91049882E+01  0.00000000E+00
  9.55249411E+00  9.55249411E+00 -1.91049882E+01  0.00000000E+00  9.55249411E+00
  9.55249411E+00 -1.91049882E+01  0.00000000E+00  9.55249411E+00  9.55249411E+00
 -1.91049882E+01  0.00000000E+00  9.55249411E+00  9.55249411E+00 -1.91049882E+01
  0.00000000E+00  9.55249411E+00  9.55249411E+00 -1.91049882E+01  0.00000000E+00
  9.55249411E+00  9.55249411E+00 -1.91049882E+01  0.00000000E+00  9.55249411E+00
  9.55249411E+00 -1.91049882E+01  0.00000000E+00  9.55249411E+00  9.55249411E+00
 -1.91049882E+01  0.00000000E+00  9.55249411E+00  9.55249411E+00 -1.91049882E+01
  0.00000000E+00  9.55249411E+00  9.55249411E+00 -1.91049882E+01  0.00000000E+00
  9.55249411E+00  9.55249411E+00 -1.91049882E+01  0.00000000E+00  9.55249411E+00
  9.55249411E+00 -1.91049882E+01  0.00000000E+00  9.55249411E+00  9.55249411E+00
 -1.91049882E+01  0.00000000E+00  9.55249411E+00  9.55249411E+00 -1.91049882E+01
  0.00000000E+00  9.55249411E+00  9.55249411E+00 -1.91049882E+01  0.00000000E+00
  9.55249411E+00  9.55249411E+00 -1.91049882E+01  0.00000000E+00  9.55249411E+00
  9.55249411E+00 -1.91049882E+01  0.00000000E+00  9.55249411E+00  9.55249411E+00
 -1.91049882E+01  0.00000000E+00  9.55249411E+00  9.55249411E+00 -1.91049882E+01
  0.00000000E+00  9.55249411E+00  9.55249411E+00 -1.91049882E+01  0.00000000E+00
  9.55249411E+00  9.55249411E+00 -1.91049882E+01  0.00000000E+00  9.55249411E+00
  9.55249411E+00 -1.91049882E+01  0.00000000E+00  9.55249411E+00  9.55249411E+00
 -1.91049882E+01  0.00000000E+00  9.55249411E+00  9.55249411E+00 -1.91049882E+01
  0.00000000E+00  9.55249411E+00  9.55249411E+00 -1.91049882E+01  0.00000000E+00
  9.55249411E+00  9.55249411E+00 -1.91049882E+01  0.00000000E+00  9.55249411E+00
  9.55249411E+00 -1.91049882E+01  0.00000000E+00  9.55249411E+00  9.55249411E+00
 -1.91049882E+01  0.00000000E+00  9.55249411E+00  9.55249411E+00 -1.91049882E+01
  0.00000000E+00  9.55249411E+00  9.55249411E+00 -1.91049882E+01  0.00000000E+00
  9.55249411E+00  9.55249411E+00 -1.91049882E+01  0.00000000E+00  9.55249411E+00
  9.55249411E+00 -1.91049882E+01  0.00000000E+00  9.55249411E+00  9.55249411E+00
 -1.91049882E+01  0.00000000E+00  9.55249411E+00  9.55249411E+00 -1.91049882E+01
  0.00000000E+00  9.55249411E+00  9.55249411E+00 -1.91049882E+01  0.00000000E+00
  9.55249411E+00  9.55249411E+00 -1.91049882E+01  0.00000000E+00  9.55249411E+00
  9.55249411E+00 -1.91049882E+01  0.00000000E+00  9.55249411E+00  9.55249411E+00
 -1.91049882E+01  0.00000000E+00  9.55249411E+00  9.55249411E+00 -1.91049882E+01
  0.00000000E+00  9.55249411E+00  9.55249411E+00 -1.91049882E+01  0.00000000E+00
  9.55249411E+00  9.55249411E+00 -1.91049882E+01  0.00000000E+00  9.55249411E+00
  9.55249411E+00 -1.91049882E+01  0.00000000E+00  9.55249411E+00  9.55249411E+00
 -1.91049882E+01  0.00000000E+00  9.55249411E+00  9.55249411E+00 -1.91049882E+01
  0.00000000E+00  9.55249411E+00  9.55249411E+00 -1.91049882E+01  0.00000000E+00
  9.55249411E+00  9.55249411E+00 -1.91049882E+01  0.00000000E+00  9.55249411E+00
  9.55249411E+00 -1.91049882E+01  0.00000000E+00  9.55249411E+00  9.55249411E+00
 -1.91049882E+01  0.00000000E+00  9.55249411E+00  9.55249411E+00 -1.91049882E+01
  0.00000000E+00  9.55249411E+00  9.55249411E+00 -1.91049882E+01  0.00000000E+00
  9.55249411E+00  9.55249411E+00 -1.91049882E+01  0.00000000E+00  9.55249411E+00
  9.55249411E+00 -1.91049882E+01  0.00000000E+00  9.55249411E+00  9.55249411E+00
 -1.91049882E+01  0.00000000E+00  9.55249411E+00  9.55249411E+00 -1.91049882E+01
  0.00000000E+00  9.55249411E+00  9.55249411E+00 -1.91049882E+01  0.00000000E+00
  9.55249411E+00  9.55249411E+00 -1.91049882E+01  0.00000000E+00  9.55249411E+00
  9.55249411E+00 -1.91049882E+01  0.00000000E+00  9.55249411E+00  9.55249411E+00
 -1.91049882E+01  0.00000000E+00  9.55249411E+00  9.55249411E+00 -1.91049882E+01
  0.00000000E+00  9.55249411E+00  9.55249411E+00 -1.91049882E+01  0.00000000E+00
  9.55249411E+00  9.55249411E+00 -1.91049882E+01  0.00000000E+00  9.55249411E+00
  9.55249411E+00 -1.91049882E+01  0.00000000E+00  9.55249411E+00  9.55249411E+00
 -1.91049882E+01  0.00000000E+00  9.55249411E+00  9.55249411E+00 -1.91049882E+01
  0.00000000E+00  9.55249411E+00  9.55249411E+00 -1.91049882E+01  0.00000000E+00
  9.55249411E+00  9.55249411E+00 -1.91049882E+01  0.00000000E+00  9.55249411E+00
  9.55249411E+00 -1.91049882E+01  0.00000000E+00  9.55249411E+00  9.55249411E+00
 -1.91049882E+01  0.00000000E+00  9.55249411E+00  9.55249411E+00 -1.91049882E+01
  0.00000000E+00  9.55249411E+00  9.55249411E+00 -1.91049882E+01  0.00000000E+00
  9.55249411E+00  9.55249411E+00 -1.91049882E+01  0.00000000E+00  9.55249411E+00
  9.55249411E+00 -1.91049882E+01  0.00000000E+00  9.55249411E+00  9.55249411E+00
 -1.91049882E+01  0.00000000E+00  9.55249411E+00  9.55249411E+00 -1.91049882E+01
  0.00000000E+00  9.55249411E+00  9.55249411E+00 -1.91049882E+01  0.00000000E+00
  9.55249411E+00  9.55249411E+00 -1.91049882E+01  0.00000000E+00  9.55249411E+00
  9.55249411E+00 -1.91049882E+01  0.00000000E+00  9.55249411E+00  9.55249411E+00
 -1.91049882E+01  0.00000000E+00  9.55249411E+00  9.55249411E+00 -1.91049882E+01
  0.00000000E+00  9.55249411E+00  9.55249411E+00 -1.91049882E+01  0.00000000E+00
  9.55249411E+00  9.55249411E+00 -1.91049882E+01  0.00000000E+00  9.55249411E+00
  9.55249411E+00 -1.91049882E+01  0.00000000E+00  9.55249411E+00  9.55249411E+00
 -1.91049882E+01  0.00000000E+00  9.55249411E+00  9.55249411E+00 -1.91049882E+01
  0.00000000E+00  9.55249411E+00  9.55249411E+00 -1.91049882E+01  0.00000000E+00
  9.55249411E+00  9.55249411E+00 -1.91049882E+01  0.00000000E+00  9.55249411E+00
  9.55249411E+00 -1.91049882E+01  0.00000000E+00  9.55249411E+00  9.55249411E+00
 -1.91049882E+01  0.00000000E+00  9.55249411E+00  9.55249411E+00 -1.91049882E+01
  0.00000000E+00  9.55249411E+00  9.55249411E+00 -1.91049882E+01  0.00000000E+00
  9.55249411E+00  9.55249411E+00 -1.91049882E+01  0.00000000E+00  9.55249411E+00
  9.55249411E+00 -1.91049882E+01  0.00000000E+00  9.55249411E+00  9.55249411E+00
 -1.91049882E+01  0.00000000E+00  9.55249411E+00  9.55249411E+00 -1.91049882E+01
  0.00000000E+00  9.55249411E+00  9.55249411E+00 -1.91049882E+01  0.00000000E+00
  9.55249411E+00  9.55249411E+00 -1.91049882E+01  0.00000000E+00  9.55249411E+00
  9.55249411E+00 -1.91049882E+01  0.00000000E+00  9.55249411E+00  9.55249411E+00
 -1.91049882E+01  0.00000000E+00  9.55249411E+00  9.55249411E+00 -1.91049882E+01
  0.00000000E+00  9.55249411E+00  9.55249411E+00 -1.91049882E+01  0.00000000E+00
  9.55249411E+00  9.55249411E+00 -1.91049882E+01  0.00000000E+00  9.55249411E+00
  9.55249411E+00 -1.91049882E+01  0.00000000E+00  9.55249411E+00  9.55249411E+00
 -1.91049882E+01  0.00000000E+00  9.55249411E+00  9.55249411E+00 -1.91049882E+01
  0.00000000E+00  9.55249411E+00  9.55249411E+00 -1.91049882E+01  0.00000000E+00
  9.55249411E+00  9.55249411E+00 -1.91049882E+01  0.00000000E+00  9.55249411E+00
  9.55249411E+00 -1.91049882E+01  0.00000000E+00  9.55249411E+00  9.55249411E+00
 -1.91049882E+01  0.00000000E+00  9.55249411E+00  9.55249411E+00 -1.91049882E+01
  0.00000000E+00  9.55249411E+00  9.55249411E+00 -1.91049882E+01  0.00000000E+00
  9.55249411E+00  9.55249411E+00 -1.91049882E+01  0.00000000E+00  9.55249411E+00
  9.55249411E+00 -1.91049882E+01  0.00000000E+00  9.55249411E+00  9.55249411E+00
 -1.91049882E+01  0.00000000E+00  9.55249411E+00  9.55249411E+00 -1.91049882E+01
  0.00000000E+00  9.55249411E+00  9.55249411E+00 -1.91049882E+01  0.00000000E+00
  9.55249411E+00  9.55249411E+00 -1.91049882E+01  0.00000000E+00  9.55249411E+00
  9.55249411E+00 -1.91049882E+01  0.00000000E+00  9.55249411E+00  9.55249411E+00
 -1.91049882E+01  0.00000000E+00  9.55249411E+00  9.55249411E+00 -1.91049882E+01
  0.00000000E+00  9.55249411E+00  9.55249411E+00 -1.91049882E+01  0.00000000E+00
  9.55249411E+00  9.55249411E+00 -1.91049882E+01  0.00000000E+00  9.55249411E+00
  9.55249411E+00 -1.91049882E+01  0.00000000E+00  9.55249411E+00  9.55249411E+00
 -1.91049882E+01  0.00000000E+00  9.55249411E+00  9.55249411E+00 -1.91049882E+01
  0.00000000E+00  9.55249411E+00  9.55249411E+00 -1.91049882E+01  0.00000000E+00
  9.55249411E+00  9.55249411E+00 -1.91049882E+01  0.00000000E+00  9.55249411E+00
  9.55249411E+00 -1.91049882E+01  0.00000000E+00  9.55249411E+00  9.55249411E+00
 -1.91049882E+01  0.00000000E+00  9.55249411E+00  9.55249411E+00 -1.91049882E+01
  0.00000000E+00  9.55249411E+00  9.55249411E+00 -1.91049882E+01  0.00000000E+00
  9.55249411E+00  9.55249411E+00 -1.91049882E+01  0.00000000E+00  9.55249411E+00
  9.55249411E+00 -1.91049882E+01  0.00000000E+00  9.55249411E+00  9.55249411E+00
 -1.91049882E+01  0.00000000E+00  9.55249411E+00  9.55249411E+00 -1.91049882E+01
  0.00000000E+00  9.55249411E+00  9.55249411E+00 -1.91049882E+01  0.00000000E+00
  9.55249411E+00  9.55249411E+00 -1.91049882E+01  0.00000000E+00  9.55249411E+00
  9.55249411E+00 -1.91049882E+01  0.00000000E+00  9.55249411E+00  9.55249411E+00
 -1.91049882E+01  0.00000000E+00  9.55249411E+00  9.55249411E+00 -1.91049882E+01
  0.00000000E+00  9.55249411E+00  9.55249411E+00 -1.91049882E+01  0.00000000E+00
  9.55249411E+00  9.55249411E+00 -1.91049882E+01  0.00000000E+00  9.55249411E+00
  9.55249411E+00 -1.91049882E+01  0.00000000E+00  9.55249411E+00  9.55249411E+00
 -1.91049882E+01  0.00000000E+00  9.55249411E+00  9.55249411E+00 -1.91049882E+01
  0.00000000E+00  9.55249411E+00  9.55249411E+00 -1.91049882E+01  0.00000000E+00
  9.55249411E+00  9.55249411E+00 -1.91049882E+01  0.00000000E+00  9.55249411E+00
  9.55249411E+00 -1.91049882E+01  0.00000000E+00  9.55249411E+00  9.55249411E+00
 -1.91049882E+01  0.00000000E+00  9.55249411E+00  9.55249411E+00 -1.91049882E+01
  0.00000000E+00  9.55249411E+00  9.55249411E+00 -1.91049882E+01  0.00000000E+00
  9.55249411E+00  9.55249411E+00 -1.91049882E+01  0.00000000E+00  9.55249411E+00
  9.55249411E+00 -1.91049882E+01  0.00000000E+00  9.55249411E+00  9.55249411E+00
 -1.91049882E+01  0.00000000E+00  9.55249411E+00  9.55249411E+00 -1.91049882E+01
  0.00000000E+00  9.55249411E+00  9.55249411E+00 -1.91049882E+01  0.00000000E+00
  9.55249411E+00  9.55249411E+00 -1.91049882E+01  0.00000000E+00  9.55249411E+00
  9.55249411E+00 -1.91049882E+01  0.00000000E+00  9.55249411E+00  9.55249411E+00
 -1.91049882E+01  0.00000000E+00  9.55249411E+00  9.55249411E+00 -1.91049882E+01
  0.00000000E+00  9.55249411E+00  9.55249411E+00 -1.91049882E+01  0.00000000E+00
  9.55249411E+00  9.55249411E+00 -1.91049882E+01  0.00000000E+00  9.55249411E+00
  9.55249411E+00 -1.91049882E+01  0.00000000E+00  9.55249411E+00  9.55249411E+00
 -1.91049882E+01  0.00000000E+00  9.55249411E+00  9.55249411E+00 -1.91049882E+01
  0.00000000E+00  9.55249411E+00  9.55249411E+00 -1.91049882E+01  0.00000000E+00
  9.55249411E+00  9.55249411E+00 -1.91049882E+01  0.00000000E+00  9.55249411E+00
  9.55249411E+00 -1.91049882E+01  0.00000000E+00  9.55249411E+00  9.55249411E+00
 -1.91049882E+01  0.00000000E+00  9.55249411E+00  9.55249411E+00 -1.91049882E+01
  0.00000000E+00  9.55249411E+00  9.55249411E+00 -1.91049882E+01  0.00000000E+00
  9.55249411E+00  9.55249411E+00 -1.91049882E+01  0.00000000E+00  9.55249411E+00
  9.55249411E+00 -1.91049882E+01  0.00000000E+00  9.55249411E+00  9.55249411E+00
 -1.91049882E+01  0.00000000E+00  9.55249411E+00  9.55249411E+00 -1.91049882E+01
  0.00000000E+00  9.55249411E+00  9.55249411E+00 -1.91049882E+01  0.00000000E+00
  9.55249411E+00  9.55249411E+00 -1.91049882E+01  0.00000000E+00  9.55249411E+00
  9.55249411E+00 -1.91049882E+01  0.00000000E+00  9.55249411E+00  9.55249411E+00
 -1.91049882E+01  0.00000000E+00  9.55249411E+00  9.55249411E+00 -1.91049882E+01
  0.00000000E+00  9.55249411E+00  9.55249411E+00 -1.91049882E+01  0.00000000E+00
  9.55249411E+00  9.55249411E+00 -1.91049882E+01  0.00000000E+00  9.55249411E+00
  9.55249411E+00 -1.91049882E+01  0.00000000E+00  9.55249411E+00  9.55249411E+00
 -1.91049882E+01  0.00000000E+00  9.55249411E+00  9.55249411E+00 -1.91049882E+01
  0.00000000E+00  9.55249411E+00  9.55249411E+00 -1.91049882E+01  0.00000000E+00
  9.55249411E+00  9.55249411E+00 -1.91049882E+01  0.00000000E+00  9.55249411E+00
  9.55249411E+00 -1.91049882E+01  0.00000000E+00  9.55249411E+00  9.55249411E+00
 -1.91049882E+01  0.00000000E+00  9.55249411E+00  9.55249411E+00 -1.91049882E+01
  0.00000000E+00  9.55249411E+00  9.55249411E+00 -1.91049882E+01  0.00000000E+00
  9.55249411E+00  9.55249411E+00 -1.91049882E+01  0.00000000E+00  9.55249411E+00
  9.55249411E+00 -1.91049882E+01  0.00000000E+00  9.55249411E+00  9.55249411E+00
 -1.91049882E+01  0.00000000E+00  9.55249411E+00  9.55249411E+00 -1.91049882E+01
  0.00000000E+00  9.55249411E+00  9.55249411E+00 -1.91049882E+01  0.00000000E+00
  9.55249411E+00  9.55249411E+00 -1.91049882E+01  0.00000000E+00  9.55249411E+00
  9.55249411E+00 -1.91049882E+01  0.00000000E+00  9.55249411E+00  9.55249411E+00
 -1.91049882E+01  0.00000000E+00  9.55249411E+00  9.55249411E+00 -1.91049882E+01
  0.00000000E+00  9.55249411E+00  9.55249411E+00 -1.91049882E+01  0.00000000E+00
  9.55249411E+00  9.55249411E+00 -1.91049882E+01  0.00000000E+00  9.55249411E+00
  9.55249411E+00 -1.91049882E+01  0.00000000E+00  9.55249411E+00  9.55249411E+00
 -1.91049882E+01  0.00000000E+00  9.55249411E+00  9.55249411E+00 -1.91049882E+01
  0.00000000E+00  9.55249411E+00  9.55249411E+00 -1.91049882E+01  0.00000000E+00
  9.55249411E+00  9.55249411E+00 -1.91049882E+01  0.00000000E+00  9.55249411E+00
  9.55249411E+00 -1.91049882E+01  0.00000000E+00  9.55249411E+00  9.55249411E+00
 -1.91049882E+01  0.00000000E+00  9.55249411E+00  9.55249411E+00 -1.91049882E+01
  0.00000000E+00  9.55249411E+00  9.55249411E+00 -1.91049882E+01  0.00000000E+00
  9.55249411E+00  9.55249411E+00 -1.91049882E+01  0.00000000E+00  9.55249411E+00
  9.55249411E+00 -1.91049882E+01  0.00000000E+00  9.55249411E+00  9.55249411E+00
 -1.91049882E+01  0.00000000E+00  9.55249411E+00  9.55249411E+00 -1.91049882E+01
  0.00000000E+00  9.55249411E+00  9.55249411E+00 -1.91049882E+01  0.00000000E+00
  9.55249411E+00  9.55249411E+00 -1.91049882E+01  0.00000000E+00  9.55249411E+00
  9.55249411E+00 -1.91049882E+01  0.00000000E+00  9.55249411E+00  9.55249411E+00
 -1.91049882E+01  0.00000000E+00  9.55249411E+00  9.55249411E+00 -1.91049882E+01
  0.00000000E+00  9.55249411E+00  9.55249411E+00 -1.91049882E+01  0.00000000E+00
  9.55249411E+00  9.55249411E+00 -1.91049882E+01  0.00000000E+00  9.55249411E+00
  9.55249411E+00 -1.91049882E+01  0.00000000E+00  9.55249411E+00  9.55249411E+00
 -1.91049882E+01  0.00000000E+00  9.55249411E+00  9.55249411E+00 -1.91049882E+01
  0.00000000E+00  9.55249411E+00  9.55249411E+00 -1.91049882E+01  0.00000000E+00
  9.55249411E+00  9.55249411E+00 -1.91049882E+01  0.00000000E+00  9.55249411E+00
  9.55249411E+00 -1.91049882E+01  0.00000000E+00  9.55249411E+00  9.55249411E+00
 -1.91049882E+01  0.00000000E+00  9.55249411E+00  9.55249411E+00 -1.91049882E+01
  0.00000000E+00  9.55249411E+00  9.55249411E+00 -1.91049882E+01  0.00000000E+00
  9.55249411E+00  9.55249411E+00 -1.91049882E+01  0.00000000E+00  9.55249411E+00
  9.55249411E+00 -1.91049882E+01  0.00000000E+00  9.55249411E+00  9.55249411E+00
 -1.91049882E+01  0.00000000E+00  9.55249411E+00  9.55249411E+00 -1.91049882E+01
  0.00000000E+00  9.55249411E+00  9.55249411E+00 -1.91049882E+01  0.00000000E+00
  9.55249411E+00  9.55249411E+00 -1.91049882E+01  0.00000000E+00  9.55249411E+00
  9.55249411E+00 -1.91049882E+01  0.00000000E+00  9.55249411E+00  9.55249411E+00
 -1.91049882E+01  0.00000000E+00  9.55249411E+00  9.55249411E+00 -1.91049882E+01
  0.00000000E+00  9.55249411E+00  9.55249411E+00 -1.91049882E+01  0.00000000E+00
  9.55249411E+00  9.55249411E+00 -1.91049882E+01  0.00000000E+00  9.55249411E+00
  9.55249411E+00 -1.91049882E+01  0.00000000E+00  9.55249411E+00  9.55249411E+00
 -1.91049882E+01  0.00000000E+00  9.55249411E+00  9.55249411E+00 -1.91049882E+01
  0.00000000E+00  9.55249411E+00  9.55249411E+00 -1.91049882E+01  0.00000000E+00
  9.55249411E+00  9.55249411E+00 -1.91049882E+01  0.00000000E+00  9.55249411E+00
  9.55249411E+00 -1.91049882E+01  0.00000000E+00  9.55249411E+00  9.55249411E+00
 -1.91049882E+01  0.00000000E+00  9.55249411E+00  9.55249411E+00 -1.91049882E+01
  0.00000000E+00  9.55249411E+00  9.55249411E+00 -1.91049882E+01  0.00000000E+00
  9.55249411E+00  9.55249411E+00 -1.91049882E+01  0.00000000E+00  9.55249411E+00
  9.55249411E+00 -1.91049882E+01  0.00000000E+00  9.55249411E+00  9.55249411E+00
 -1.91049882E+01  0.00000000E+00  9.55249411E+00  9.55249411E+00 -1.91049882E+01
  0.00000000E+00  9.55249411E+00  9.55249411E+00 -1.91049882E+01  0.00000000E+00
  9.55249411E+00  9.55249411E+00 -1.91049882E+01  0.00000000E+00  9.55249411E+00
  9.55249411E+00 -1.91049882E+01  0.00000000E+00  9.55249411E+00  9.55249411E+00
 -1.91049882E+01  0.00000000E+00  9.55249411E+00  9.55249411E+00 -1.91049882E+01
  0.00000000E+00  9.55249411E+00  9.55249411E+00 -1.91049882E+01  0.00000000E+00
  9.55249411E+00  9.55249411E+00 -1.91049882E+01  0.00000000E+00  9.55249411E+00
  9.55249411E+00 -1.91049882E+01  0.00000000E+00  9.55249411E+00  9.55249411E+00
 -1.91049882E+01  0.00000000E+00  9.55249411E+00  9.55249411E+00 -1.91049882E+01
  0.00000000E+00  9.55249411E+00  9.55249411E+00 -1.91049882E+01  0.00000000E+00
  9.55249411E+00  9.55249411E+00 -1.91049882E+01  0.00000000E+00  9.55249411E+00
  9.55249411E+00 -1.91049882E+01  0.00000000E+00  9.55249411E+00  9.55249411E+00
 -1.91049882E+01  0.00000000E+00  9.55249411E+00  9.55249411E+00 -1.91049882E+01
  0.00000000E+00  9.55249411E+00  9.55249411E+00 -1.91049882E+01  0.00000000E+00
  9.55249411E+00  9.55249411E+00 -1.91049882E+01  0.00000000E+00  9.55249411E+00
  9.55249411E+00 -1.91049882E+01  0.00000000E+00  9.55249411E+00  9.55249411E+00
 -1.91049882E+01  0.00000000E+00  9.55249411E+00  9.55249411E+00 -1.91049882E+01
  0.00000000E+00  9.55249411E+00  9.55249411E+00 -1.91049882E+01  0.00000000E+00
  9.55249411E+00  9.55249411E+00 -1.91049882E+01  0.00000000E+00  9.55249411E+00
  9.55249411E+00 -1.91049882E+01  0.00000000E+00  9.55249411E+00  9.55249411E+00
 -1.91049882E+01  0.00000000E+00  9.55249411E+00  9.55249411E+00 -1.91049882E+01
  0.00000000E+00  9.55249411E+00  9.55249411E+00 -1.91049882E+01  0.00000000E+00
  9.55249411E+00  9.55249411E+00 -1.91049882E+01  0.00000000E+00  9.55249411E+00
  9.55249411E+00 -1.91049882E+01  0.00000000E+00  9.55249411E+00  9.55249411E+00
 -1.91049882E+01  0.00000000E+00  9.55249411E+00  9.55249411E+00 -1.91049882E+01
  0.00000000E+00  9.55249411E+00  9.55249411E+00 -1.91049882E+01  0.00000000E+00
  9.55249411E+00  9.55249411E+00 -1.91049882E+01  0.00000000E+00  9.55249411E+00
  9.55249411E+00 -1.91049882E+01  0.00000000E+00  9.55249411E+00  9.55249411E+00
 -1.91049882E+01  0.00000000E+00  9.55249411E+00  9.55249411E+00 -1.91049882E+01
  0.00000000E+00  9.55249411E+00  9.55249411E+00 -1.91049882E+01  0.00000000E+00
  9.55249411E+00  9.55249411E+00 -1.91049882E+01  0.00000000E+00  9.55249411E+00
  9.55249411E+00 -1.91049882E+01  0.00000000E+00  9.55249411E+00  9.55249411E+00
 -1.91049882E+01  0.00000000E+00  9.55249411E+00  9.55249411E+00 -1.91049882E+01
  0.00000000E+00  9.55249411E+00  9.55249411E+00 -1.91049882E+01  0.00000000E+00
  9.55249411E+00  9.55249411E+00 -1.91049882E+01  0.00000000E+00  9.55249411E+00
  9.55249411E+00 -1.91049882E+01  0.00000000E+00  9.55249411E+00  9.55249411E+00
 -1.91049882E+01  0.00000000E+00  9.55249411E+00  9.55249411E+00 -1.91049882E+01
  0.00000000E+00  9.55249411E+00  9.55249411E+00 -1.91049882E+01  0.00000000E+00
  9.55249411E+00  9.55249411E+00 -1.91049882E+01  0.00000000E+00  9.55249411E+00
  9.55249411E+00 -1.91049882E+01  0.00000000E+00  9.55249411E+00  9.55249411E+00
 -1.91049882E+01  0.00000000E+00  9.55249411E+00  9.55249411E+00 -1.91049882E+01
  0.00000000E+00  9.55249411E+00  9.55249411E+00 -1.91049882E+01  0.00000000E+00
  9.55249411E+00  9.55249411E+00 -1.91049882E+01  0.00000000E+00  9.55249411E+00
  9.55249411E+00 -1.91049882E+01  0.00000000E+00  9.55249411E+00  9.55249411E+00
 -1.91049882E+01  0.00000000E+00  9.55249411E+00  9.55249411E+00 -1.91049882E+01
  0.00000000E+00  9.55249411E+00  9.55249411E+00 -1.91049882E+01  0.00000000E+00
  9.55249411E+00  9.55249411E+00 -1.91049882E+01  0.00000000E+00  9.55249411E+00
  9.55249411E+00 -1.91049882E+01  0.00000000E+00  9.55249411E+00  9.55249411E+00
 -1.91049882E+01  0.00000000E+00  9.55249411E+00  9.55249411E+00 -1.91049882E+01
  0.00000000E+00  9.55249411E+00  9.55249411E+00 -1.91049882E+01  0.00000000E+00
  9.55249411E+00  9.55249411E+00 -1.91049882E+01  0.00000000E+00  9.55249411E+00
  9.55249411E+00 -1.91049882E+01  0.00000000E+00  9.55249411E+00  9.55249411E+00
 -1.91049882E+01  0.00000000E+00  9.55249411E+00  9.55249411E+00 -1.91049882E+01
  0.00000000E+00  9.55249411E+00  9.55249411E+00 -1.91049882E+01  0.00000000E+00
  9.55249411E+00  9.55249411E+00 -1.91049882E+01  0.00000000E+00  9.55249411E+00
  9.55249411E+00 -1.91049882E+01  0.00000000E+00  9.55249411E+00  9.55249411E+00
 -1.91049882E+01  0.00000000E+00  9.55249411E+00  9.55249411E+00 -1.91049882E+01
  0.00000000E+00  9.55249411E+00  9.55249411E+00 -1.91049882E+01  0.00000000E+00
  9.55249411E+00  9.55249411E+00 -1.91049882E+01  0.00000000E+00  9.55249411E+00
  9.55249411E+00 -1.91049882E+01  0.00000000E+00  9.55249411E+00  9.55249411E+00
 -1.91049882E+01  0.00000000E+00  9.55249411E+00  9.55249411E+00 -1.91049882E+01
  0.00000000E+00  9.55249411E+00  9.55249411E+00 -1.91049882E+01  0.00000000E+00
  9.55249411E+00  9.55249411E+00 -1.91049882E+01  0.00000000E+00  9.55249411E+00
  9.55249411E+00 -1.91049882E+01  0.00000000E+00  9.55249411E+00  9.55249411E+00
 -1.91049882E+01  0.00000000E+00  9.55249411E+00  9.55249411E+00 -1.91049882E+01
  0.00000000E+00  9.55249411E+00  9.55249411E+00 -1.91049882E+01  0.00000000E+00
  9.55249411E+00  9.55249411E+00 -1.91049882E+01  0.00000000E+00  9.55249411E+00
  9.55249411E+00 -1.91049882E+01  0.00000000E+00  9.55249411E+00  9.55249411E+00
 -1.91049882E+01  0.00000000E+00  9.55249411E+00  9.55249411E+00 -1.91049882E+01
  0.00000000E+00  9.55249411E+00  9.55249411E+00 -1.91049882E+01  0.00000000E+00
  9.55249411E+00  9.55249411E+00 -1.91049882E+01  0.00000000E+00  9.55249411E+00
  9.55249411E+00 -1.91049882E+01  0.00000000E+00  9.55249411E+00  9.55249411E+00
 -1.91049882E+01  0.00000000E+00  9.55249411E+00  9.55249411E+00 -1.91049882E+01
  0.00000000E+00  9.55249411E+00  9.55249411E+00 -1.91049882E+01  0.00000000E+00
  9.55249411E+00  9.55249411E+00 -1.91049882E+01  0.00000000E+00  9.55249411E+00
  9.55249411E+00 -1.91049882E+01  0.00000000E+00  9.55249411E+00  9.55249411E+00
 -1.91049882E+01  0.00000000E+00  9.55249411E+00  9.55249411E+00 -1.91049882E+01
  0.00000000E+00  9.55249411E+00  9.55249411E+00 -1.91049882E+01  0.00000000E+00
  9.55249411E+00  9.55249411E+00 -1.91049882E+01  0.00000000E+00  9.55249411E+00
  9.55249411E+00 -1.91049882E+01  0.00000000E+00  9.55249411E+00  9.55249411E+00
 -1.91049882E+01  0.00000000E+00  9.55249411E+00  9.55249411E+00 -1.91049882E+01
  0.00000000E+00  9.55249411E+00  9.55249411E+00 -1.91049882E+01  0.00000000E+00
  9.55249411E+00  9.55249411E+00 -1.91049882E+01  0.00000000E+00  9.55249411E+00
  9.55249411E+00 -1.91049882E+01  0.00000000E+00  9.55249411E+00  9.55249411E+00
 -1.91049882E+01  0.00000000E+00  9.55249411E+00  9.55249411E+00 -1.91049882E+01
  0.00000000E+00  9.55249411E+00  9.55249411E+00 -1.91049882E+01  0.00000000E+00
  9.55249411E+00  9.55249411E+00 -1.91049882E+01  0.00000000E+00  9.55249411E+00
  9.55249411E+00 -1.91049882E+01  0.00000000E+00  9.55249411E+00  9.55249411E+00
 -1.91049882E+01  0.00000000E+00  9.55249411E+00  9.55249411E+00 -1.91049882E+01
  0.00000000E+00  9.55249411E+00  9.55249411E+00 -1.91049882E+01  0.00000000E+00
  9.55249411E+00  9.55249411E+00 -1.91049882E+01  0.00000000E+00  9.55249411E+00
  9.55249411E+00 -1.91049882E+01  0.00000000E+00  9.55249411E+00  9.55249411E+00
 -1.91049882E+01  0.00000000E+00  9.55249411E+00  9.55249411E+00 -1.91049882E+01
  0.00000000E+00  9.55249411E+00  9.55249411E+00 -1.91049882E+01  0.00000000E+00
  9.55249411E+00  9.55249411E+00 -1.91049882E+01  0.00000000E+00  9.55249411E+00
  9.55249411E+00 -1.91049882E+01  0.00000000E+00  9.55249411E+00  9.55249411E+00
 -1.91049882E+01  0.00000000E+00  9.55249411E+00  9.55249411E+00 -1.91049882E+01
  0.00000000E+00  9.55249411E+00  9.55249411E+00 -1.91049882E+01  0.00000000E+00
  9.55249411E+00  9.55249411E+00 -1.91049882E+01  0.00000000E+00  9.55249411E+00
  9.55249411E+00 -1.91049882E+01  0.00000000E+00  9.55249411E+00  9.55249411E+00
 -1.91049882E+01  0.00000000E+00  9.55249411E+00  9.55249411E+00 -1.91049882E+01
  0.00000000E+00  9.55249411E+00  9.55249411E+00 -1.91049882E+01  0.00000000E+00
  9.55249411E+00  9.55249411E+00 -1.91049882E+01  0.00000000E+00  9.55249411E+00
  9.55249411E+00 -1.91049882E+01  0.00000000E+00  9.55249411E+00  9.55249411E+00
 -1.91049882E+01  0.00000000E+00  9.55249411E+00  9.55249411E+00 -1.91049882E+01
  0.00000000E+00  9.55249411E+00  9.55249411E+00 -1.91049882E+01  0.00000000E+00
  9.55249411E+00  9.55249411E+00 -1.91049882E+01  0.00000000E+00  9.55249411E+00
  9.55249411E+00 -1.91049882E+01  0.00000000E+00  9.55249411E+00  9.55249411E+00
 -1.91049882E+01  0.00000000E+00  9.55249411E+00  9.55249411E+00 -1.91049882E+01
  0.00000000E+00  9.55249411E+00  9.55249411E+00 -1.91049882E+01  0.00000000E+00
  9.55249411E+00  9.55249411E+00 -1.91049882E+01  0.00000000E+00  9.55249411E+00
  9.55249411E+00 -1.91049882E+01  0.00000000E+00  9.55249411E+00  9.55249411E+00
 -1.91049882E+01  0.00000000E+00  9.55249411E+00  9.55249411E+00 -1.91049882E+01
  0.00000000E+00  9.55249411E+00  9.55249411E+00 -1.91049882E+01  0.00000000E+00
  9.55249411E+00  9.55249411E+00 -1.91049882E+01  0.00000000E+00  9.55249411E+00
  9.55249411E+00 -1.91049882E+01  0.00000000E+00  9.55249411E+00  9.55249411E+00
 -1.91049882E+01  0.00000000E+00  9.55249411E+00  9.55249411E+00 -1.91049882E+01
  0.00000000E+00  9.55249411E+00  9.55249411E+00 -1.91049882E+01  0.00000000E+00
  9.55249411E+00  9.55249411E+00 -1.91049882E+01  0.00000000E+00  9.55249411E+00
  9.55249411E+00 -1.91049882E+01  0.00000000E+00  9.55249411E+00  9.55249411E+00
 -1.91049882E+01  0.00000000E+00  9.55249411E+00  9.55249411E+00 -1.91049882E+01
  0.00000000E+00  9.55249411E+00  9.55249411E+00 -1.91049882E+01  0.00000000E+00
  9.55249411E+00  9.55249411E+00 -1.91049882E+01  0.00000000E+00  9.55249411E+00
  9.55249411E+00 -1.91049882E+01  0.00000000E+00  9.55249411E+00  9.55249411E+00
 -1.91049882E+01  0.00000000E+00  9.55249411E+00  9.55249411E+00 -1.91049882E+01
  0.00000000E+00  9.55249411E+00  9.55249411E+00 -1.91049882E+01  0.00000000E+00
  9.55249411E+00  9.55249411E+00 -1.91049882E+01  0.00000000E+00  9.55249411E+00
  9.55249411E+00 -1.91049882E+01  0.00000000E+00  9.55249411E+00  9.55249411E+00
 -1.91049882E+01  0.00000000E+00  9.55249411E+00  9.55249411E+00 -1.91049882E+01
  0.00000000E+00  9.55249411E+00  9.55249411E+00 -1.91049882E+01  0.00000000E+00
  9.55249411E+00  9.55249411E+00 -1.91049882E+01  0.00000000E+00  9.55249411E+00
  9.55249411E+00 -1.91049882E+01  0.00000000E+00  9.55249411E+00  9.55249411E+00
 -1.91049882E+01  0.00000000E+00  9.55249411E+00  9.55249411E+00 -1.91049882E+01
  0.00000000E+00  9.55249411E+00  9.55249411E+00 -1.91049882E+01  0.00000000E+00
  9.55249411E+00  9.55249411E+00 -1.91049882E+01  0.00000000E+00  9.55249411E+00
  9.55249411E+00 -1.91049882E+01  0.00000000E+00  9.55249411E+00  9.55249411E+00
 -1.91049882E+01  0.00000000E+00  9.55249411E+00  9.55249411E+00 -1.91049882E+01
  0.00000000E+00  9.55249411E+00  9.55249411E+00 -1.91049882E+01  0.00000000E+00
  9.55249411E+00  9.55249411E+00 -1.91049882E+01  0.00000000E+00  9.55249411E+00
  9.55249411E+00 -1.91049882E+01  0.00000000E+00  9.55249411E+00  9.55249411E+00
 -1.91049882E+01  0.00000000E+00  9.55249411E+00  9.55249411E+00 -1.91049882E+01
  0.00000000E+00  9.55249411E+00  9.55249411E+00 -1.91049882E+01  0.00000000E+00
  9.55249411E+00  9.55249411E+00 -1.91049882E+01  0.00000000E+00  9.55249411E+00
  9.55249411E+00 -1.91049882E+01  0.00000000E+00  9.55249411E+00  9.55249411E+00
 -1.91049882E+01  0.00000000E+00  9.55249411E+00  9.55249411E+00 -1.91049882E+01
  0.00000000E+00  9.55249411E+00  9.55249411E+00 -1.91049882E+01  0.00000000E+00
  9.55249411E+00  9.55249411E+00 -1.91049882E+01  0.00000000E+00  9.55249411E+00
  9.55249411E+00 -1.91049882E+01  0.00000000E+00  9.55249411E+00  9.55249411E+00
 -1.91049882E+01  0.00000000E+00  9.55249411E+00  9.55249411E+00 -1.91049882E+01
  0.00000000E+00  9.55249411E+00  9.55249411E+00 -1.91049882E+01  0.00000000E+00
  9.55249411E+00  9.55249411E+00 -1.91049882E+01  0.00000000E+00  9.55249411E+00
  9.55249411E+00 -1.91049882E+01  0.00000000E+00  9.55249411E+00  9.55249411E+00
 -1.91049882E+01  0.00000000E+00  9.55249411E+00  9.55249411E+00 -1.91049882E+01
  0.00000000E+00  9.55249411E+00  9.55249411E+00 -1.91049882E+01  0.00000000E+00
  9.55249411E+00  9.55249411E+00 -1.91049882E+01  0.00000000E+00  9.55249411E+00
  9.55249411E+00 -1.91049882E+01  0.00000000E+00  9.55249411E+00  9.55249411E+00
 -1.91049882E+01  0.00000000E+00  9.55249411E+00  9.55249411E+00 -1.91049882E+01
  0.00000000E+00  9.55249411E+00  9.55249411E+00 -1.91049882E+01  0.00000000E+00
  9.55249411E+00  9.55249411E+00 -1.91049882E+01  0.00000000E+00  9.55249411E+00
  9.55249411E+00 -1.91049882E+01  0.00000000E+00  9.55249411E+00  9.55249411E+00
 -1.91049882E+01  0.00000000E+00  9.55249411E+00  9.55249411E+00 -1.91049882E+01
  0.00000000E+00  9.55249411E+00  9.55249411E+00 -1.91049882E+01  0.00000000E+00
  9.55249411E+00  9.55249411E+00 -1.91049882E+01  0.00000000E+00  9.55249411E+00
  9.55249411E+00 -1.91049882E+01  0.00000000E+00  9.55249411E+00  9.55249411E+00
 -1.91049882E+01  0.00000000E+00  9.55249411E+00  9.55249411E+00 -1.91049882E+01
  0.00000000E+00  9.55249411E+00  9.55249411E+00 -1.91049882E+01  0.00000000E+00
  9.55249411E+00  9.55249411E+00 -1.91049882E+01  0.00000000E+00  9.55249411E+00
  9.55249411E+00 -1.91049882E+01  0.00000000E+00  9.55249411E+00  9.55249411E+00
 -1.91049882E+01  0.00000000E+00  9.55249411E+00  9.55249411E+00 -1.91049882E+01
  0.00000000E+00  9.55249411E+00  9.55249411E+00 -1.91049882E+01  0.00000000E+00
  9.55249411E+00  9.55249411E+00 -1.91049882E+01  0.00000000E+00  9.55249411E+00
  9.55249411E+00 -1.91049882E+01  0.00000000E+00  9.55249411E+00  9.55249411E+00
 -1.91049882E+01  0.00000000E+00  9.55249411E+00  9.55249411E+00 -1.91049882E+01
  0.00000000E+00  9.55249411E+00  9.55249411E+00 -1.91049882E+01  0.00000000E+00
  9.55249411E+00  9.55249411E+00 -1.91049882E+01  0.00000000E+00  9.55249411E+00
  9.55249411E+00 -1.91049882E+01  0.00000000E+00  9.55249411E+00  9.55249411E+00
 -1.91049882E+01  0.00000000E+00  9.55249411E+00  9.55249411E+00 -1.91049882E+01
  0.00000000E+00  9.55249411E+00  9.55249411E+00 -1.91049882E+01  0.00000000E+00
  9.55249411E+00  9.55249411E+00 -1.91049882E+01  0.00000000E+00  9.55249411E+00
  9.55249411E+00 -1.91049882E+01  0.00000000E+00  9.55249411E+00  9.55249411E+00
 -1.91049882E+01  0.00000000E+00  9.55249411E+00  9.55249411E+00 -1.91049882E+01
  0.00000000E+00  9.55249411E+00  9.55249411E+00 -1.91049882E+01  0.00000000E+00
  9.55249411E+00  9.55249411E+00 -1.91049882E+01  0.00000000E+00  9.55249411E+00
  9.55249411E+00 -1.91049882E+01  0.00000000E+00  9.55249411E+00  9.55249411E+00
 -1.91049882E+01  0.00000000E+00  9.55249411E+00  9.55249411E+00 -1.91049882E+01
  0.00000000E+00  9.55249411E+00  9.55249411E+00 -1.91049882E+01  0.00000000E+00
  9.55249411E+00  9.55249411E+00 -1.91049882E+01  0.00000000E+00  9.55249411E+00
  9.55249411E+00 -1.91049882E+01  0.00000000E+00  9.55249411E+00  9.55249411E+00
 -1.91049882E+01  0.00000000E+00  9.55249411E+00  9.55249411E+00 -1.91049882E+01
  0.00000000E+00  9.55249411E+00  9.55249411E+00 -1.91049882E+01  0.00000000E+00
  9.55249411E+00  9.55249411E+00 -1.91049882E+01  0.00000000E+00  9.55249411E+00
  9.55249411E+00 -1.91049882E+01  0.00000000E+00  9.55249411E+00  9.55249411E+00
 -1.91049882E+01  0.00000000E+00  9.55249411E+00  9.55249411E+00 -1.91049882E+01
  0.00000000E+00  9.55249411E+00  9.55249411E+00 -1.91049882E+01  0.00000000E+00
  9.55249411E+00  9.55249411E+00 -1.91049882E+01  0.00000000E+00  9.55249411E+00
  9.55249411E+00 -1.91049882E+01  0.00000000E+00  9.55249411E+00  9.55249411E+00
 -1.91049882E+01  0.00000000E+00  9.55249411E+00  9.55249411E+00 -1.91049882E+01
  0.00000000E+00  9.55249411E+00  9.55249411E+00 -1.91049882E+01  0.00000000E+00
  9.55249411E+00  9.55249411E+00 -1.91049882E+01  0.00000000E+00  9.55249411E+00
  9.55249411E+00 -1.91049882E+01  0.00000000E+00  9.55249411E+00  9.55249411E+00
 -1.91049882E+01  0.00000000E+00  9.55249411E+00  9.55249411E+00 -1.91049882E+01
  0.00000000E+00  9.55249411E+00  9.55249411E+00 -1.91049882E+01  0.00000000E+00
  9.55249411E+00  9.55249411E+00 -1.91049882E+01  0.00000000E+00  9.55249411E+00
  9.55249411E+00 -1.91049882E+01  0.00000000E+00  9.55249411E+00  9.55249411E+00
 -1.91049882E+01  0.00000000E+00  9.55249411E+00  9.55249411E+00 -1.91049882E+01
  0.00000000E+00  9.55249411E+00  9.55249411E+00 -1.91049882E+01  0.00000000E+00
  9.55249411E+00  9.55249411E+00 -1.91049882E+01  0.00000000E+00  9.55249411E+00
  9.55249411E+00 -1.91049882E+01  0.00000000E+00  9.55249411E+00  9.55249411E+00
 -1.91049882E+01  0.00000000E+00  9.55249411E+00  9.55249411E+00 -1.91049882E+01
  0.00000000E+00  9.55249411E+00  9.55249411E+00 -1.91049882E+01  0.00000000E+00
  9.55249411E+00  9.55249411E+00 -1.91049882E+01  0.00000000E+00  9.55249411E+00
  9.55249411E+00 -1.91049882E+01  0.00000000E+00  9.55249411E+00  9.55249411E+00
 -1.91049882E+01  0.00000000E+00  9.55249411E+00  9.55249411E+00 -1.91049882E+01
  0.00000000E+00  9.55249411E+00  9.55249411E+00 -1.91049882E+01  0.00000000E+00
  9.55249411E+00  9.55249411E+00 -1.91049882E+01  0.00000000E+00  9.55249411E+00
  9.55249411E+00 -1.91049882E+01  0.00000000E+00  9.55249411E+00  9.55249411E+00
 -1.91049882E+01  0.00000000E+00  9.55249411E+00  9.55249411E+00 -1.91049882E+01
  0.00000000E+00  9.55249411E+00  9.55249411E+00 -1.91049882E+01  0.00000000E+00
  9.55249411E+00  9.55249411E+00 -1.91049882E+01  0.00000000E+00  9.55249411E+00
  9.55249411E+00 -1.91049882E+01  0.00000000E+00  9.55249411E+00  9.55249411E+00
 -1.91049882E+01  0.00000000E+00  9.55249411E+00  9.55249411E+00 -1.91049882E+01
  0.00000000E+00  9.55249411E+00  9.55249411E+00 -1.91049882E+01  0.00000000E+00
  9.55249411E+00  9.55249411E+00 -1.91049882E+01  0.00000000E+00  9.55249411E+00
  9.55249411E+00 -1.91049882E+01  0.00000000E+00  9.55249411E+00  9.55249411E+00
 -1.91049882E+01  0.00000000E+00  9.55249411E+00  9.55249411E+00 -1.91049882E+01
  0.00000000E+00  9.55249411E+00  9.55249411E+00 -1.91049882E+01  0.00000000E+00
  9.55249411E+00  9.55249411E+00 -1.91049882E+01  0.00000000E+00  9.55249411E+00
  9.55249411E+00 -1.91049882E+01  0.00000000E+00  9.55249411E+00  9.55249411E+00
 -1.91049882E+01  0.00000000E+00  9.55249411E+00  9.55249411E+00 -1.91049882E+01
  0.00000000E+00  9.55249411E+00  9.55249411E+00 -1.91049882E+01  0.00000000E+00
  9.55249411E+00  9.55249411E+00 -1.91049882E+01  0.00000000E+00  9.55249411E+00
  9.55249411E+00 -1.91049882E+01  0.00000000E+00  9.55249411E+00  9.55249411E+00
 -1.91049882E+01  0.00000000E+00  9.55249411E+00  9.55249411E+00 -1.91049882E+01
  0.00000000E+00  9.55249411E+00  9.55249411E+00 -1.91049882E+01  0.00000000E+00
  9.55249411E+00  9.55249411E+00 -1.91049882E+01  0.00000000E+00  9.55249411E+00
  9.55249411E+00 -1.91049882E+01  0.00000000E+00  9.55249411E+00  9.55249411E+00
 -1.91049882E+01  0.00000000E+00  9.55249411E+00  9.55249411E+00 -1.91049882E+01
  0.00000000E+00  9.55249411E+00  9.55249411E+00 -1.91049882E+01  0.00000000E+00
  9.55249411E+00  9.55249411E+00 -1.91049882E+01  0.00000000E+00  9.55249411E+00
  9.55249411E+00 -1.91049882E+01  0.00000000E+00  9.55249411E+00  9.55249411E+00
 -1.91049882E+01  0.00000000E+00  9.55249411E+00  9.55249411E+00 -1.91049882E+01
  0.00000000E+00  9.55249411E+00  9.55249411E+00 -1.91049882E+01  0.00000000E+00
  9.55249411E+00  9.55249411E+00 -1.91049882E+01  0.00000000E+00  9.55249411E+00
  9.55249411E+00 -1.91049882E+01  0.00000000E+00  9.55249411E+00  9.55249411E+00
 -1.91049882E+01  0.00000000E+00  9.55249411E+00  9.55249411E+00 -1.91049882E+01
  0.00000000E+00  9.55249411E+00  9.55249411E+00 -1.91049882E+01  0.00000000E+00
  9.55249411E+00  9.55249411E+00 -1.91049882E+01  0.00000000E+00  9.55249411E+00
  9.55249411E+00 -1.91049882E+01  0.00000000E+00  9.55249411E+00  9.55249411E+00
 -1.91049882E+01  0.00000000E+00  9.55249411E+00  9.55249411E+00 -1.91049882E+01
  0.00000000E+00  9.55249411E+00  9.55249411E+00 -1.91049882E+01  0.00000000E+00
  9.55249411E+00  9.55249411E+00 -1.91049882E+01  0.00000000E+00  9.55249411E+00
  9.55249411E+00 -1.91049882E+01  0.00000000E+00  9.55249411E+00  9.55249411E+00
 -1.91049882E+01  0.00000000E+00  9.55249411E+00  9.55249411E+00 -1.91049882E+01
  0.00000000E+00  9.55249411E+00  9.55249411E+00 -1.91049882E+01  0.00000000E+00
  9.55249411E+00  9.55249411E+00 -1.91049882E+01  0.00000000E+00  9.55249411E+00
  9.55249411E+00 -1.91049882E+01  0.00000000E+00  9.55249411E+00  9.55249411E+00
 -1.91049882E+01  0.00000000E+00  9.55249411E+00  9.55249411E+00 -1.91049882E+01
  0.00000000E+00  9.55249411E+00  9.55249411E+00 -1.91049882E+01  0.00000000E+00
  9.55249411E+00  9.55249411E+00 -1.91049882E+01  0.00000000E+00  9.55249411E+00
  9.55249411E+00 -1.91049882E+01  0.00000000E+00  9.55249411E+00  9.55249411E+00
 -1.91049882E+01  0.00000000E+00  9.55249411E+00  9.55249411E+00 -1.91049882E+01
  0.00000000E+00  9.55249411E+00  9.55249411E+00 -1.91049882E+01  0.00000000E+00
  9.55249411E+00  9.55249411E+00 -1.91049882E+01  0.00000000E+00  9.55249411E+00
  9.55249411E+00 -1.91049882E+01  0.00000000E+00  9.55249411E+00  9.55249411E+00
 -1.91049882E+01  0.00000000E+00  9.55249411E+00  9.55249411E+00 -1.91049882E+01
  0.00000000E+00  9.55249411E+00  9.55249411E+00 -1.91049882E+01  0.00000000E+00
  9.55249411E+00  9.55249411E+00 -1.91049882E+01  0.00000000E+00  9.55249411E+00
  9.55249411E+00 -1.91049882E+01  0.00000000E+00  9.55249411E+00  9.55249411E+00
 -1.91049882E+01  0.00000000E+00  9.55249411E+00  9.55249411E+00 -1.91049882E+01
  0.00000000E+00  9.55249411E+00  9.55249411E+00 -1.91049882E+01  0.00000000E+00
  9.55249411E+00  9.55249411E+00 -1.91049882E+01  0.00000000E+00  9.55249411E+00
  9.55249411E+00 -1.91049882E+01  0.00000000E+00  9.55249411E+00  9.55249411E+00
 -1.91049882E+01  0.00000000E+00  9.55249411E+00  9.55249411E+00 -1.91049882E+01
  0.00000000E+00  9.55249411E+00  9.55249411E+00 -1.91049882E+01  0.00000000E+00
  9.55249411E+00  9.55249411E+00 -1.91049882E+01  0.00000000E+00  9.55249411E+00
  9.55249411E+00 -1.91049882E+01  0.00000000E+00  9.55249411E+00  9.55249411E+00
 -1.91049882E+01  0.00000000E+00  9.55249411E+00  9.55249411E+00 -1.91049882E+01
  0.00000000E+00  9.55249411E+00  9.55249411E+00 -1.91049882E+01  0.00000000E+00
  9.55249411E+00  9.55249411E+00 -1.91049882E+01  0.00000000E+00  9.55249411E+00
  9.55249411E+00 -1.91049882E+01  0.00000000E+00  9.55249411E+00  9.55249411E+00
 -1.91049882E+01  0.00000000E+00  9.55249411E+00  9.55249411E+00 -1.91049882E+01
  0.00000000E+00  9.55249411E+00  9.55249411E+00 -1.91049882E+01  0.00000000E+00
  9.55249411E+00  9.55249411E+00 -1.91049882E+01  0.00000000E+00  9.55249411E+00
  9.55249411E+00 -1.91049882E+01  0.00000000E+00  9.55249411E+00  9.55249411E+00
 -1.91049882E+01  0.00000000E+00  9.55249411E+00  9.55249411E+00 -1.91049882E+01
  0.00000000E+00  9.55249411E+00  9.55249411E+00 -1.91049882E+01  0.00000000E+00
  9.55249411E+00  9.55249411E+00 -1.91049882E+01  0.00000000E+00  9.55249411E+00
  9.55249411E+00 -1.91049882E+01  0.00000000E+00  9.55249411E+00  9.55249411E+00
 -1.91049882E+01  0.00000000E+00  9.55249411E+00  9.55249411E+00 -1.91049882E+01
  0.00000000E+00  9.55249411E+00  9.55249411E+00 -1.91049882E+01  0.00000000E+00
  9.55249411E+00  9.55249411E+00 -1.91049882E+01  0.00000000E+00  9.55249411E+00
  9.55249411E+00 -1.91049882E+01  0.00000000E+00  9.55249411E+00  9.55249411E+00
 -1.91049882E+01  0.00000000E+00  9.55249411E+00  9.55249411E+00 -1.91049882E+01
  0.00000000E+00  9.55249411E+00  9.55249411E+00 -1.91049882E+01  0.00000000E+00
  9.55249411E+00  9.55249411E+00 -1.91049882E+01  0.00000000E+00  9.55249411E+00
  9.55249411E+00 -1.91049882E+01  0.00000000E+00  9.55249411E+00  9.55249411E+00
 -1.91049882E+01  0.00000000E+00  9.55249411E+00  9.55249411E+00 -1.91049882E+01
  0.00000000E+00  9.55249411E+00  9.55249411E+00 -1.91049882E+01  0.00000000E+00
  9.55249411E+00  9.55249411E+00 -1.91049882E+01  0.00000000E+00  9.55249411E+00
  9.55249411E+00 -1.91049882E+01  0.00000000E+00  9.55249411E+00  9.55249411E+00
 -1.91049882E+01  0.00000000E+00  9.55249411E+00  9.55249411E+00 -1.91049882E+01
  0.00000000E+00  9.55249411E+00  9.55249411E+00 -1.91049882E+01  0.00000000E+00
  9.55249411E+00  9.55249411E+00 -1.91049882E+01  0.00000000E+00  9.55249411E+00
  9.55249411E+00 -1.91049882E+01  0.00000000E+00  9.55249411E+00  9.55249411E+00
 -1.91049882E+01  0.00000000E+00  9.55249411E+00  9.55249411E+00 -1.91049882E+01
  0.00000000E+00  9.55249411E+00  9.55249411E+00 -1.91049882E+01  0.00000000E+00
  9.55249411E+00  9.55249411E+00 -1.91049882E+01  0.00000000E+00  9.55249411E+00
  9.55249411E+00 -1.91049882E+01  0.00000000E+00  9.55249411E+00  9.55249411E+00
 -1.91049882E+01  0.00000000E+00  9.55249411E+00  9.55249411E+00 -1.91049882E+01
  0.00000000E+00  9.55249411E+00  9.55249411E+00 -1.91049882E+01  0.00000000E+00
  9.55249411E+00  9.55249411E+00 -1.91049882E+01  0.00000000E+00  9.55249411E+00
  9.55249411E+00 -1.91049882E+01  0.00000000E+00  9.55249411E+00  9.55249411E+00
 -1.91049882E+01  0.00000000E+00  9.55249411E+00  9.55249411E+00 -1.91049882E+01
  0.00000000E+00  9.55249411E+00  9.55249411E+00 -1.91049882E+01  0.00000000E+00
  9.55249411E+00  9.55249411E+00 -1.91049882E+01  0.00000000E+00  9.55249411E+00
  9.55249411E+00 -1.91049882E+01  0.00000000E+00  9.55249411E+00  9.55249411E+00
 -1.91049882E+01  0.00000000E+00  9.55249411E+00  9.55249411E+00 -1.91049882E+01
  0.00000000E+00  9.55249411E+00  9.55249411E+00 -1.91049882E+01  0.00000000E+00
  9.55249411E+00  9.55249411E+00 -1.91049882E+01  0.00000000E+00  9.55249411E+00
  9.55249411E+00 -1.91049882E+01  0.00000000E+00  9.55249411E+00  9.55249411E+00
 -1.91049882E+01  0.00000000E+00  9.55249411E+00  9.55249411E+00 -1.91049882E+01
  0.00000000E+00  9.55249411E+00  9.55249411E+00 -1.91049882E+01  0.00000000E+00
  9.55249411E+00  9.55249411E+00 -1.91049882E+01  0.00000000E+00  9.55249411E+00
  9.55249411E+00 -1.91049882E+01  0.00000000E+00  9.55249411E+00  9.55249411E+00
 -1.91049882E+01  0.00000000E+00  9.55249411E+00  9.55249411E+00 -1.91049882E+01
  0.00000000E+00  9.55249411E+00  9.55249411E+00 -1.91049882E+01  0.00000000E+00
  9.55249411E+00  9.55249411E+00 -1.91049882E+01  0.00000000E+00  9.55249411E+00
  9.55249411E+00 -1.91049882E+01  0.00000000E+00  9.55249411E+00  9.55249411E+00
 -1.91049882E+01  0.00000000E+00  9.55249411E+00  9.55249411E+00 -1.91049882E+01
  0.00000000E+00  9.55249411E+00  9.55249411E+00 -1.91049882E+01  0.00000000E+00
  9.55249411E+00  9.55249411E+00 -1.91049882E+01  0.00000000E+00  9.55249411E+00
  9.55249411E+00 -1.91049882E+01  0.00000000E+00  9.55249411E+00  9.55249411E+00
 -1.91049882E+01  0.00000000E+00  9.55249411E+00  9.55249411E+00 -1.91049882E+01
  0.00000000E+00  9.55249411E+00  9.55249411E+00 -1.91049882E+01  0.00000000E+00
  9.55249411E+00  9.55249411E+00 -1.91049882E+01  0.00000000E+00  9.55249411E+00
  9.55249411E+00 -1.91049882E+01  0.00000000E+00  9.55249411E+00  9.55249411E+00
 -1.91049882E+01  0.00000000E+00  9.55249411E+00  9.55249411E+00 -1.91049882E+01
  0.00000000E+00  9.55249411E+00  9.55249411E+00 -1.91049882E+01  0.00000000E+00
  9.55249411E+00  9.55249411E+00 -1.91049882E+01  0.00000000E+00  9.55249411E+00
  9.55249411E+00 -1.91049882E+01  0.00000000E+00  9.55249411E+00  9.55249411E+00
 -1.91049882E+01  0.00000000E+00  9.55249411E+00  9.55249411E+00 -1.91049882E+01
  0.00000000E+00  9.55249411E+00  9.55249411E+00 -1.91049882E+01  0.00000000E+00
  9.55249411E+00  9.55249411E+00 -1.91049882E+01  0.00000000E+00  9.55249411E+00
  9.55249411E+00 -1.91049882E+01  0.00000000E+00  9.55249411E+00  9.55249411E+00
 -1.91049882E+01  0.00000000E+00  9.55249411E+00  9.55249411E+00 -1.91049882E+01
  0.00000000E+00  9.55249411E+00  9.55249411E+00 -1.91049882E+01  0.00000000E+00
  9.55249411E+00  9.55249411E+00 -1.91049882E+01  0.00000000E+00  9.55249411E+00
  9.55249411E+00 -1.91049882E+01  0.00000000E+00  9.55249411E+00  9.55249411E+00
 -1.91049882E+01  0.00000000E+00  9.55249411E+00  9.55249411E+00 -1.91049882E+01
  0.00000000E+00  9.55249411E+00  9.55249411E+00 -1.91049882E+01  0.00000000E+00
  9.55249411E+00  9.55249411E+00 -1.91049882E+01  0.00000000E+00  9.55249411E+00
  9.55249411E+00 -1.91049882E+01  0.00000000E+00  9.55249411E+00  9.55249411E+00
 -1.91049882E+01  0.00000000E+00  9.55249411E+00  9.55249411E+00 -1.91049882E+01
  0.00000000E+00  9.55249411E+00  9.55249411E+00 -1.91049882E+01  0.00000000E+00
  9.55249411E+00  9.55249411E+00 -1.91049882E+01  0.00000000E+00  9.55249411E+00
  9.55249411E+00 -1.91049882E+01  0.00000000E+00  9.55249411E+00  9.55249411E+00
 -1.91049882E+01  0.00000000E+00  9.55249411E+00  9.55249411E+00 -1.91049882E+01
  0.00000000E+00  9.55249411E+00  9.55249411E+00 -1.91049882E+01  0.00000000E+00
  9.55249411E+00  9.55249411E+00 -1.91049882E+01  0.00000000E+00  9.55249411E+00
  9.55249411E+00 -1.91049882E+01  0.00000000E+00  9.55249411E+00  9.55249411E+00
 -1.91049882E+01  0.00000000E+00  9.55249411E+00  9.55249411E+00 -1.91049882E+01
  0.00000000E+00  9.55249411E+00  9.55249411E+00 -1.91049882E+01  0.00000000E+00
  9.55249411E+00  9.55249411E+00 -1.91049882E+01  0.00000000E+00  9.55249411E+00
  9.55249411E+00 -1.91049882E+01  0.00000000E+00  9.55249411E+00  9.55249411E+00
 -1.91049882E+01  0.00000000E+00  9.55249411E+00  9.55249411E+00 -1.91049882E+01
  0.00000000E+00  9.55249411E+00  9.55249411E+00 -1.91049882E+01  0.00000000E+00
  9.55249411E+00  9.55249411E+00 -1.91049882E+01  0.00000000E+00  9.55249411E+00
  9.55249411E+00 -1.91049882E+01  0.00000000E+00  9.55249411E+00  9.55249411E+00
 -1.91049882E+01  0.00000000E+00  9.55249411E+00  9.55249411E+00 -1.91049882E+01
  0.00000000E+00  9.55249411E+00  9.55249411E+00 -1.91049882E+01  0.00000000E+00
  9.55249411E+00  9.55249411E+00 -1.91049882E+01  0.00000000E+00  9.55249411E+00
  9.55249411E+00 -1.91049882E+01  0.00000000E+00  9.55249411E+00  9.55249411E+00
 -1.91049882E+01  0.00000000E+00  9.55249411E+00  9.55249411E+00 -1.91049882E+01
  0.00000000E+00  9.55249411E+00  9.55249411E+00 -1.91049882E+01  0.00000000E+00
  9.55249411E+00  9.55249411E+00 -1.91049882E+01  0.00000000E+00  9.55249411E+00
  9.55249411E+00 -1.91049882E+01  0.00000000E+00  9.55249411E+00  9.55249411E+00
 -1.91049882E+01  0.00000000E+00  9.55249411E+00  9.55249411E+00 -1.91049882E+01
  0.00000000E+00  9.55249411E+00  9.55249411E+00 -1.91049882E+01  0.00000000E+00
  9.55249411E+00  9.55249411E+00 -1.91049882E+01  0.00000000E+00  9.55249411E+00
  9.55249411E+00 -1.91049882E+01  0.00000000E+00  9.55249411E+00  9.55249411E+00
 -1.91049882E+01  0.00000000E+00  9.55249411E+00  9.55249411E+00 -1.91049882E+01
  0.00000000E+00  9.55249411E+00  9.55249411E+00 -1.91049882E+01  0.00000000E+00
  9.55249411E+00  9.55249411E+00 -1.91049882E+01  0.00000000E+00  9.55249411E+00
  9.55249411E+00 -1.91049882E+01  0.00000000E+00  9.55249411E+00  9.55249411E+00
 -1.91049882E+01  0.00000000E+00  9.55249411E+00  9.55249411E+00 -1.91049882E+01
  0.00000000E+00  9.55249411E+00  9.55249411E+00 -1.91049882E+01  0.00000000E+00
  9.55249411E+00  9.55249411E+00 -1.91049882E+01  0.00000000E+00  9.55249411E+00
  9.55249411E+00 -1.91049882E+01  0.00000000E+00  9.55249411E+00  9.55249411E+00
 -1.91049882E+01  0.00000000E+00  9.55249411E+00  9.55249411E+00 -1.91049882E+01
  0.00000000E+00  9.55249411E+00  9.55249411E+00 -1.91049882E+01  0.00000000E+00
  9.55249411E+00  9.55249411E+00 -1.91049882E+01  0.00000000E+00  9.55249411E+00
  9.55249411E+00 -1.91049882E+01  0.00000000E+00  9.55249411E+00  9.55249411E+00
 -1.91049882E+01  0.00000000E+00  9.55249411E+00  9.55249411E+00 -1.91049882E+01
  0.00000000E+00  9.55249411E+00  9.55249411E+00 -1.91049882E+01  0.00000000E+00
  9.55249411E+00  9.55249411E+00 -1.91049882E+01  0.00000000E+00  9.55249411E+00
  9.55249411E+00 -1.91049882E+01  0.00000000E+00  9.55249411E+00  9.55249411E+00
 -1.91049882E+01  0.00000000E+00  9.55249411E+00  9.55249411E+00 -1.91049882E+01
  0.00000000E+00  9.55249411E+00  9.55249411E+00 -1.91049882E+01  0.00000000E+00
  9.55249411E+00  9.55249411E+00 -1.91049882E+01  0.00000000E+00  9.55249411E+00
  9.55249411E+00 -1.91049882E+01  0.00000000E+00  9.55249411E+00  9.55249411E+00
 -1.91049882E+01  0.00000000E+00  9.55249411E+00  9.55249411E+00 -1.91049882E+01
  0.00000000E+00  9.55249411E+00  9.55249411E+00 -1.91049882E+01  0.00000000E+00
  9.55249411E+00  9.55249411E+00 -1.91049882E+01  0.00000000E+00  9.55249411E+00
  9.55249411E+00 -1.91049882E+01  0.00000000E+00  9.55249411E+00  9.55249411E+00
 -1.91049882E+01  0.00000000E+00  9.55249411E+00  9.55249411E+00 -1.91049882E+01
  0.00000000E+00  9.55249411E+00  9.55249411E+00 -1.91049882E+01  0.00000000E+00
  9.55249411E+00  9.55249411E+00 -1.91049882E+01  0.00000000E+00  9.55249411E+00
  9.55249411E+00 -1.91049882E+01  0.00000000E+00  9.55249411E+00  9.55249411E+00
 -1.91049882E+01  0.00000000E+00  9.55249411E+00  9.55249411E+00 -1.91049882E+01
  0.00000000E+00  9.55249411E+00  9.55249411E+00 -1.91049882E+01  0.00000000E+00
  9.55249411E+00  9.55249411E+00 -1.91049882E+01  0.00000000E+00  9.55249411E+00
  9.55249411E+00 -1.91049882E+01  0.00000000E+00  9.55249411E+00  9.55249411E+00
 -1.91049882E+01  0.00000000E+00  9.55249411E+00  9.55249411E+00 -1.91049882E+01
  0.00000000E+00  9.55249411E+00  9.55249411E+00 -1.91049882E+01  0.00000000E+00
  9.55249411E+00  9.55249411E+00 -1.91049882E+01  0.00000000E+00  9.55249411E+00
  9.55249411E+00 -1.91049882E+01  0.00000000E+00  9.55249411E+00  9.55249411E+00
 -1.91049882E+01  0.00000000E+00  9.55249411E+00  9.55249411E+00 -1.91049882E+01
  0.00000000E+00  9.55249411E+00  9.55249411E+00 -1.91049882E+01  0.00000000E+00
  9.55249411E+00  9.55249411E+00 -1.91049882E+01  0.00000000E+00  9.55249411E+00
  9.55249411E+00 -1.91049882E+01  0.00000000E+00  9.55249411E+00  9.55249411E+00
 -1.91049882E+01  0.00000000E+00  9.55249411E+00  9.55249411E+00 -1.91049882E+01
  0.00000000E+00  9.55249411E+00  9.55249411E+00 -1.91049882E+01  0.00000000E+00
  9.55249411E+00  9.55249411E+00 -1.91049882E+01  0.00000000E+00  9.55249411E+00
  9.55249411E+00 -1.91049882E+01  0.00000000E+00  9.55249411E+00  9.55249411E+00
 -1.91049882E+01  0.00000000E+00  9.55249411E+00  9.55249411E+00 -1.91049882E+01
  0.00000000E+00  9.55249411E+00  9.55249411E+00 -1.91049882E+01  0.00000000E+00
  9.55249411E+00  9.55249411E+00 -1.91049882E+01  0.00000000E+00  9.55249411E+00
  9.55249411E+00 -1.91049882E+01  0.00000000E+00  9.55249411E+00  9.55249411E+00
 -1.91049882E+01  0.00000000E+00  9.55249411E+00  9.55249411E+00 -1.91049882E+01
  0.00000000E+00  9.55249411E+00  9.55249411E+00 -1.91049882E+01  0.00000000E+00
  9.55249411E+00  9.55249411E+00 -1.91049882E+01  0.00000000E+00  9.55249411E+00
  9.55249411E+00 -1.91049882E+01  0.00000000E+00  9.55249411E+00  9.55249411E+00
 -1.91049882E+01  0.00000000E+00  9.55249411E+00  9.55249411E+00 -1.91049882E+01
  0.00000000E+00  9.55249411E+00  9.55249411E+00 -1.91049882E+01  0.00000000E+00
  9.55249411E+00  9.55249411E+00 -1.91049882E+01  0.00000000E+00  9.55249411E+00
  9.55249411E+00 -1.91049882E+01  0.00000000E+00  9.55249411E+00  9.55249411E+00
 -1.91049882E+01  0.00000000E+00  9.55249411E+00  9.55249411E+00 -1.91049882E+01
  0.00000000E+00  9.55249411E+00  9.55249411E+00 -1.91049882E+01  0.00000000E+00
  9.55249411E+00  9.55249411E+00 -1.91049882E+01  0.00000000E+00  9.55249411E+00
  9.55249411E+00 -1.91049882E+01  0.00000000E+00  9.55249411E+00  9.55249411E+00
 -1.91049882E+01  0.00000000E+00  9.55249411E+00  9.55249411E+00 -1.91049882E+01
  0.00000000E+00  9.55249411E+00  9.55249411E+00 -1.91049882E+01  0.00000000E+00
  9.55249411E+00  9.55249411E+00 -1.91049882E+01  0.00000000E+00  9.55249411E+00
  9.55249411E+00 -1.91049882E+01  0.00000000E+00  9.55249411E+00  9.55249411E+00
 -1.91049882E+01  0.00000000E+00  9.55249411E+00  9.55249411E+00 -1.91049882E+01
  0.00000000E+00  9.55249411E+00  9.55249411E+00 -1.91049882E+01  0.00000000E+00
  9.55249411E+00  9.55249411E+00 -1.91049882E+01  0.00000000E+00  9.55249411E+00
  9.55249411E+00 -1.91049882E+01  0.00000000E+00  9.55249411E+00  9.55249411E+00
 -1.91049882E+01  0.00000000E+00  9.55249411E+00  9.55249411E+00 -1.91049882E+01
  0.00000000E+00  9.55249411E+00  9.55249411E+00 -1.91049882E+01  0.00000000E+00
  9.55249411E+00  9.55249411E+00 -1.91049882E+01  0.00000000E+00  9.55249411E+00
  9.55249411E+00 -1.91049882E+01  0.00000000E+00  9.55249411E+00  9.55249411E+00
 -1.91049882E+01  0.00000000E+00  9.55249411E+00  9.55249411E+00 -1.91049882E+01
  0.00000000E+00  9.55249411E+00  9.55249411E+00 -1.91049882E+01  0.00000000E+00
  9.55249411E+00  9.55249411E+00 -1.91049882E+01  0.00000000E+00  9.55249411E+00
  9.55249411E+00 -1.91049882E+01  0.00000000E+00  9.55249411E+00  9.55249411E+00
 -1.91049882E+01  0.00000000E+00  9.55249411E+00  9.55249411E+00 -1.91049882E+01
  0.00000000E+00  9.55249411E+00  9.55249411E+00 -1.91049882E+01  0.00000000E+00
  9.55249411E+00  9.55249411E+00 -1.91049882E+01  0.00000000E+00  9.55249411E+00
  9.55249411E+00 -1.91049882E+01  0.00000000E+00  9.55249411E+00  9.55249411E+00
 -1.91049882E+01  0.00000000E+00  9.55249411E+00  9.55249411E+00 -1.91049882E+01
  0.00000000E+00  9.55249411E+00  9.55249411E+00 -1.91049882E+01  0.00000000E+00
  9.55249411E+00  9.55249411E+00 -1.91049882E+01  0.00000000E+00  9.55249411E+00
  9.55249411E+00 -1.91049882E+01  0.00000000E+00  9.55249411E+00  9.55249411E+00
 -1.91049882E+01  0.00000000E+00  9.55249411E+00  9.55249411E+00 -1.91049882E+01
  0.00000000E+00  9.55249411E+00  9.55249411E+00 -1.91049882E+01  0.00000000E+00
  9.55249411E+00  9.55249411E+00 -1.91049882E+01  0.00000000E+00  9.55249411E+00
  9.55249411E+00 -1.91049882E+01  0.00000000E+00  9.55249411E+00  9.55249411E+00
 -1.91049882E+01  0.00000000E+00  9.55249411E+00  9.55249411E+00 -1.91049882E+01
  0.00000000E+00  9.55249411E+00  9.55249411E+00 -1.91049882E+01  0.00000000E+00
  9.55249411E+00  9.55249411E+00 -1.91049882E+01  0.00000000E+00  9.55249411E+00
  9.55249411E+00 -1.91049882E+01  0.00000000E+00  9.55249411E+00  9.55249411E+00
 -1.91049882E+01  0.00000000E+00  9.55249411E+00  9.55249411E+00 -1.91049882E+01
  0.00000000E+00  9.55249411E+00  9.55249411E+00 -1.91049882E+01  0.00000000E+00
  9.55249411E+00  9.55249411E+00 -1.91049882E+01  0.00000000E+00  9.55249411E+00
  9.55249411E+00 -1.91049882E+01  0.00000000E+00  9.55249411E+00  9.55249411E+00
 -1.91049882E+01  0.00000000E+00  9.55249411E+00  9.55249411E+00 -1.91049882E+01
  0.00000000E+00  9.55249411E+00  9.55249411E+00 -1.91049882E+01  0.00000000E+00
  9.55249411E+00  9.55249411E+00 -1.91049882E+01  0.00000000E+00  9.55249411E+00
  9.55249411E+00 -1.91049882E+01  0.00000000E+00  9.55249411E+00  9.55249411E+00
 -1.91049882E+01  0.00000000E+00  9.55249411E+00  9.55249411E+00 -1.91049882E+01
  0.00000000E+00  9.55249411E+00  9.55249411E+00 -1.91049882E+01  0.00000000E+00
  9.55249411E+00  9.55249411E+00 -1.91049882E+01  0.00000000E+00  9.55249411E+00
  9.55249411E+00 -1.91049882E+01  0.00000000E+00  9.55249411E+00  9.55249411E+00
 -1.91049882E+01  0.00000000E+00  9.55249411E+00  9.55249411E+00 -1.91049882E+01
  0.00000000E+00  9.55249411E+00  9.55249411E+00 -1.91049882E+01  0.00000000E+00
  9.55249411E+00  9.55249411E+00 -1.91049882E+01  0.00000000E+00  9.55249411E+00
  9.55249411E+00 -1.91049882E+01  0.00000000E+00  9.55249411E+00  9.55249411E+00
 -1.91049882E+01  0.00000000E+00  9.55249411E+00  9.55249411E+00 -1.91049882E+01
  0.00000000E+00  9.55249411E+00  9.55249411E+00 -1.91049882E+01  0.00000000E+00
  9.55249411E+00  9.55249411E+00 -1.91049882E+01  0.00000000E+00  9.55249411E+00
  9.55249411E+00 -1.91049882E+01  0.00000000E+00  9.55249411E+00  9.55249411E+00
 -1.91049882E+01  0.00000000E+00  9.55249411E+00  9.55249411E+00 -1.91049882E+01
  0.00000000E+00  9.55249411E+00  9.55249411E+00 -1.91049882E+01  0.00000000E+00
  9.55249411E+00  9.55249411E+00 -1.91049882E+01  0.00000000E+00  9.55249411E+00
  9.55249411E+00 -1.91049882E+01  0.00000000E+00  9.55249411E+00  9.55249411E+00
 -1.91049882E+01  0.00000000E+00  9.55249411E+00  9.55249411E+00 -1.91049882E+01
  0.00000000E+00  9.55249411E+00  9.55249411E+00 -1.91049882E+01  0.00000000E+00
  9.55249411E+00  9.55249411E+00 -1.91049882E+01  0.00000000E+00  9.55249411E+00
  9.55249411E+00 -1.91049882E+01  0.00000000E+00  9.55249411E+00  9.55249411E+00
 -1.91049882E+01  0.00000000E+00  9.55249411E+00  9.55249411E+00 -1.91049882E+01
  0.00000000E+00  9.55249411E+00  9.55249411E+00 -1.91049882E+01  0.00000000E+00
  9.55249411E+00  9.55249411E+00 -1.91049882E+01  0.00000000E+00  9.55249411E+00
  9.55249411E+00 -1.91049882E+01  0.00000000E+00  9.55249411E+00  9.55249411E+00
 -1.91049882E+01  0.00000000E+00  9.55249411E+00  9.55249411E+00 -1.91049882E+01
  0.00000000E+00  9.55249411E+00  9.55249411E+00 -1.91049882E+01  0.00000000E+00
  9.55249411E+00  9.55249411E+00 -1.91049882E+01  0.00000000E+00  9.55249411E+00
  9.55249411E+00 -1.91049882E+01  0.00000000E+00  9.55249411E+00  9.55249411E+00
 -1.91049882E+01  0.00000000E+00  9.55249411E+00  9.55249411E+00 -1.91049882E+01
  0.00000000E+00  9.55249411E+00  9.55249411E+00 -1.91049882E+01  0.00000000E+00
  9.55249411E+00  9.55249411E+00 -1.91049882E+01  0.00000000E+00  9.55249411E+00
  9.55249411E+00 -1.91049882E+01  0.00000000E+00  9.55249411E+00  9.55249411E+00
 -1.91049882E+01  0.00000000E+00  9.55249411E+00  9.55249411E+00 -1.91049882E+01
  0.00000000E+00  9.55249411E+00  9.55249411E+00 -1.91049882E+01  0.00000000E+00
  9.55249411E+00  9.55249411E+00 -1.91049882E+01  0.00000000E+00  9.55249411E+00
  9.55249411E+00 -1.91049882E+01  0.00000000E+00  9.55249411E+00  9.55249411E+00
 -1.91049882E+01  0.00000000E+00  9.55249411E+00  9.55249411E+00 -1.91049882E+01
  0.00000000E+00  9.55249411E+00  9.55249411E+00 -1.91049882E+01  0.00000000E+00
  9.55249411E+00  9.55249411E+00 -1.91049882E+01  0.00000000E+00  9.55249411E+00
  9.55249411E+00 -1.91049882E+01  0.00000000E+00  9.55249411E+00  9.55249411E+00
 -1.91049882E+01  0.00000000E+00  9.55249411E+00  9.55249411E+00 -1.91049882E+01
  0.00000000E+00  9.55249411E+00  9.55249411E+00 -1.91049882E+01  0.00000000E+00
  9.55249411E+00  9.55249411E+00 -1.91049882E+01  0.00000000E+00  9.55249411E+00
  9.55249411E+00 -1.91049882E+01  0.00000000E+00  9.55249411E+00  9.55249411E+00
 -1.91049882E+01  0.00000000E+00  9.55249411E+00  9.55249411E+00 -1.91049882E+01
  0.00000000E+00  9.55249411E+00  9.55249411E+00 -1.91049882E+01  0.00000000E+00
  9.55249411E+00  9.55249411E+00 -1.91049882E+01  0.00000000E+00  9.55249411E+00
  9.55249411E+00 -1.91049882E+01  0.00000000E+00  9.55249411E+00  9.55249411E+00
 -1.91049882E+01  0.00000000E+00  9.55249411E+00  9.55249411E+00 -1.91049882E+01
  0.00000000E+00  9.55249411E+00  9.55249411E+00 -1.91049882E+01  0.00000000E+00
  9.55249411E+00  9.55249411E+00 -1.91049882E+01  0.00000000E+00  9.55249411E+00
  9.55249411E+00 -1.91049882E+01  0.00000000E+00  9.55249411E+00  9.55249411E+00
 -1.91049882E+01  0.00000000E+00  9.55249411E+00  9.55249411E+00 -1.91049882E+01
  0.00000000E+00  9.55249411E+00  9.55249411E+00 -1.91049882E+01  0.00000000E+00
  9.55249411E+00  9.55249411E+00 -1.91049882E+01  0.00000000E+00  9.55249411E+00
  9.55249411E+00 -1.91049882E+01  0.00000000E+00  9.55249411E+00  9.55249411E+00
 -1.91049882E+01  0.00000000E+00  9.55249411E+00  9.55249411E+00 -1.91049882E+01
  0.00000000E+00  9.55249411E+00  9.55249411E+00 -1.91049882E+01  0.00000000E+00
  9.55249411E+00  9.55249411E+00 -1.91049882E+01  0.00000000E+00  9.55249411E+00
  9.55249411E+00 -1.91049882E+01  0.00000000E+00  9.55249411E+00  9.55249411E+00
 -1.91049882E+01  0.00000000E+00  9.55249411E+00  9.55249411E+00 -1.91049882E+01
  0.00000000E+00  9.55249411E+00  9.55249411E+00 -1.91049882E+01  0.00000000E+00
  9.55249411E+00  9.55249411E+00 -1.91049882E+01  0.00000000E+00  9.55249411E+00
  9.55249411E+00 -1.91049882E+01  0.00000000E+00  9.55249411E+00  9.55249411E+00
 -1.91049882E+01  0.00000000E+00  9.55249411E+00  9.55249411E+00 -1.91049882E+01
  0.00000000E+00  9.55249411E+00  9.55249411E+00 -1.91049882E+01  0.00000000E+00
  9.55249411E+00  9.55249411E+00 -1.91049882E+01  0.00000000E+00  9.55249411E+00
  9.55249411E+00 -1.91049882E+01  0.00000000E+00  9.55249411E+00  9.55249411E+00
 -1.91049882E+01  0.00000000E+00  9.55249411E+00  9.55249411E+00 -1.91049882E+01
  0.00000000E+00  9.55249411E+00  9.55249411E+00 -1.91049882E+01  0.00000000E+00
  9.55249411E+00  9.55249411E+00 -1.91049882E+01  0.00000000E+00  9.55249411E+00
  9.55249411E+00 -1.91049882E+01  0.00000000E+00  9.55249411E+00  9.55249411E+00
 -1.91049882E+01  0.00000000E+00  9.55249411E+00  9.55249411E+00 -1.91049882E+01
  0.00000000E+00  9.55249411E+00  9.55249411E+00 -1.91049882E+01  0.00000000E+00
  9.55249411E+00  9.55249411E+00 -1.91049882E+01  0.00000000E+00  9.55249411E+00
  9.55249411E+00 -1.91049882E+01  0.00000000E+00  9.55249411E+00  9.55249411E+00
 -1.91049882E+01  0.00000000E+00  9.55249411E+00  9.55249411E+00 -1.91049882E+01
  0.00000000E+00  9.55249411E+00  9.55249411E+00 -1.91049882E+01  0.00000000E+00
  9.55249411E+00  9.55249411E+00 -1.91049882E+01  0.00000000E+00  9.55249411E+00
  9.55249411E+00 -1.91049882E+01  0.00000000E+00  9.55249411E+00  9.55249411E+00
 -1.91049882E+01  0.00000000E+00  9.55249411E+00  9.55249411E+00 -1.91049882E+01
  0.00000000E+00  9.55249411E+00  9.55249411E+00 -1.91049882E+01  0.00000000E+00
  9.55249411E+00  9.55249411E+00 -1.91049882E+01  0.00000000E+00  9.55249411E+00
  9.55249411E+00 -1.91049882E+01  0.00000000E+00  9.55249411E+00  9.55249411E+00
 -1.91049882E+01  0.00000000E+00  9.55249411E+00  9.55249411E+00 -1.91049882E+01
  0.00000000E+00  9.55249411E+00  9.55249411E+00 -1.91049882E+01  0.00000000E+00
  9.55249411E+00  9.55249411E+00 -1.91049882E+01  0.00000000E+00  9.55249411E+00
  9.55249411E+00 -1.91049882E+01  0.00000000E+00  9.55249411E+00  9.55249411E+00
 -1.91049882E+01  0.00000000E+00  9.55249411E+00  9.55249411E+00 -1.91049882E+01
  0.00000000E+00  9.55249411E+00  9.55249411E+00 -1.91049882E+01  0.00000000E+00
  9.55249411E+00  9.55249411E+00 -1.91049882E+01  0.00000000E+00  9.55249411E+00
  9.55249411E+00 -1.91049882E+01  0.00000000E+00  9.55249411E+00  9.55249411E+00
 -1.91049882E+01  0.00000000E+00  9.55249411E+00  9.55249411E+00 -1.91049882E+01
  0.00000000E+00  9.55249411E+00  9.55249411E+00 -1.91049882E+01  0.00000000E+00
  9.55249411E+00  9.55249411E+00 -1.91049882E+01  0.00000000E+00  9.55249411E+00
  9.55249411E+00 -1.91049882E+01  0.00000000E+00  9.55249411E+00  9.55249411E+00
 -1.91049882E+01  0.00000000E+00  9.55249411E+00  9.55249411E+00 -1.91049882E+01
  0.00000000E+00  9.55249411E+00  9.55249411E+00 -1.91049882E+01  0.00000000E+00
  9.55249411E+00  9.55249411E+00 -1.91049882E+01  0.00000000E+00  9.55249411E+00
  9.55249411E+00 -1.91049882E+01  0.00000000E+00  9.55249411E+00  9.55249411E+00
 -1.91049882E+01  0.00000000E+00  9.55249411E+00  9.55249411E+00 -1.91049882E+01
  0.00000000E+00  9.55249411E+00  9.55249411E+00 -1.91049882E+01  0.00000000E+00
  9.55249411E+00  9.55249411E+00 -1.91049882E+01  0.00000000E+00  9.55249411E+00
  9.55249411E+00 -1.91049882E+01  0.00000000E+00  9.55249411E+00  9.55249411E+00
 -1.91049882E+01  0.00000000E+00  9.55249411E+00  9.55249411E+00 -1.91049882E+01
  0.00000000E+00  9.55249411E+00  9.55249411E+00 -1.91049882E+01  0.00000000E+00
  9.55249411E+00  9.55249411E+00 -1.91049882E+01  0.00000000E+00  9.55249411E+00
  9.55249411E+00 -1.91049882E+01  0.00000000E+00  9.55249411E+00  9.55249411E+00
 -1.91049882E+01  0.00000000E+00  9.55249411E+00  9.55249411E+00 -1.91049882E+01
  0.00000000E+00  9.55249411E+00  9.55249411E+00 -1.91049882E+01  0.00000000E+00
  9.55249411E+00  9.55249411E+00 -1.91049882E+01  0.00000000E+00  9.55249411E+00
  9.55249411E+00 -1.91049882E+01  0.00000000E+00  9.55249411E+00  9.55249411E+00
 -1.91049882E+01  0.00000000E+00  9.55249411E+00  9.55249411E+00 -1.91049882E+01
  0.00000000E+00  9.55249411E+00  9.55249411E+00 -1.91049882E+01  0.00000000E+00
  9.55249411E+00  9.55249411E+00 -1.91049882E+01  0.00000000E+00  9.55249411E+00
  9.55249411E+00 -1.91049882E+01  0.00000000E+00  9.55249411E+00  9.55249411E+00
 -1.91049882E+01  0.00000000E+00  9.55249411E+00  9.55249411E+00 -1.91049882E+01
  0.00000000E+00  9.55249411E+00  9.55249411E+00 -1.91049882E+01  0.00000000E+00
  9.55249411E+00  9.55249411E+00 -1.91049882E+01  0.00000000E+00  9.55249411E+00
  9.55249411E+00 -1.91049882E+01  0.00000000E+00  9.55249411E+00  9.55249411E+00
 -1.91049882E+01  0.00000000E+00  9.55249411E+00  9.55249411E+00 -1.91049882E+01
  0.00000000E+00  9.55249411E+00  9.55249411E+00 -1.91049882E+01  0.00000000E+00
  9.55249411E+00  9.55249411E+00 -1.91049882E+01  0.00000000E+00  9.55249411E+00
  9.55249411E+00 -1.91049882E+01  0.00000000E+00  9.55249411E+00  9.55249411E+00
 -1.91049882E+01  0.00000000E+00  9.55249411E+00  9.55249411E+00 -1.91049882E+01
  0.00000000E+00  9.55249411E+00  9.55249411E+00 -1.91049882E+01  0.00000000E+00
  9.55249411E+00  9.55249411E+00 -1.91049882E+01  0.00000000E+00  9.55249411E+00
  9.55249411E+00 -1.91049882E+01  0.00000000E+00  9.55249411E+00  9.55249411E+00
 -1.91049882E+01  0.00000000E+00  9.55249411E+00  9.55249411E+00 -1.91049882E+01
  0.00000000E+00  9.55249411E+00  9.55249411E+00 -1.91049882E+01  0.00000000E+00
  9.55249411E+00  9.55249411E+00 -1.91049882E+01  0.00000000E+00  9.55249411E+00
  9.55249411E+00 -1.91049882E+01  0.00000000E+00  9.55249411E+00  9.55249411E+00
 -1.91049882E+01  0.00000000E+00  9.55249411E+00  9.55249411E+00 -1.91049882E+01
  0.00000000E+00  9.55249411E+00  9.55249411E+00 -1.91049882E+01  0.00000000E+00
  9.55249411E+00  9.55249411E+00 -1.91049882E+01  0.00000000E+00  9.55249411E+00
  9.55249411E+00 -1.91049882E+01  0.00000000E+00  9.55249411E+00  9.55249411E+00
 -1.91049882E+01  0.00000000E+00  9.55249411E+00  9.55249411E+00 -1.91049882E+01
  0.00000000E+00  9.55249411E+00  9.55249411E+00 -1.91049882E+01  0.00000000E+00
  9.55249411E+00  9.55249411E+00 -1.91049882E+01  0.00000000E+00  9.55249411E+00
  9.55249411E+00 -1.91049882E+01  0.00000000E+00  9.55249411E+00  9.55249411E+00
 -1.91049882E+01  0.00000000E+00  9.55249411E+00  9.55249411E+00 -1.91049882E+01
  0.00000000E+00  9.55249411E+00  9.55249411E+00 -1.91049882E+01  0.00000000E+00
  9.55249411E+00  9.55249411E+00 -1.91049882E+01  0.00000000E+00  9.55249411E+00
  9.55249411E+00 -1.91049882E+01  0.00000000E+00  9.55249411E+00  9.55249411E+00
 -1.91049882E+01  0.00000000E+00  9.55249411E+00  9.55249411E+00 -1.91049882E+01
  0.00000000E+00  9.55249411E+00  9.55249411E+00 -1.91049882E+01  0.00000000E+00
  9.55249411E+00  9.55249411E+00 -1.91049882E+01  0.00000000E+00  9.55249411E+00
  9.55249411E+00 -1.91049882E+01  0.00000000E+00  9.55249411E+00  9.55249411E+00
 -1.91049882E+01  0.00000000E+00  9.55249411E+00  9.55249411E+00 -1.91049882E+01
  0.00000000E+00  9.55249411E+00  9.55249411E+00 -1.91049882E+01  0.00000000E+00
  9.55249411E+00  9.55249411E+00 -1.91049882E+01  0.00000000E+00  9.55249411E+00
  9.55249411E+00 -1.91049882E+01  0.00000000E+00  9.55249411E+00  9.55249411E+00
 -1.91049882E+01  0.00000000E+00  9.55249411E+00  9.55249411E+00 -1.91049882E+01
  0.00000000E+00  9.55249411E+00  9.55249411E+00 -1.91049882E+01  0.00000000E+00
  9.55249411E+00  9.55249411E+00 -1.91049882E+01  0.00000000E+00  9.55249411E+00
  9.55249411E+00 -1.91049882E+01  0.00000000E+00  9.55249411E+00  9.55249411E+00
 -1.91049882E+01  0.00000000E+00  9.55249411E+00  9.55249411E+00 -1.91049882E+01
  0.00000000E+00  9.55249411E+00  9.55249411E+00 -1.91049882E+01  0.00000000E+00
  9.55249411E+00  9.55249411E+00 -1.91049882E+01  0.00000000E+00  9.55249411E+00
  9.55249411E+00 -1.91049882E+01  0.00000000E+00  9.55249411E+00  9.55249411E+00
 -1.91049882E+01  0.00000000E+00  9.55249411E+00  9.55249411E+00 -1.91049882E+01
  0.00000000E+00  9.55249411E+00  9.55249411E+00 -1.91049882E+01  0.00000000E+00
  9.55249411E+00  9.55249411E+00 -1.91049882E+01  0.00000000E+00  9.55249411E+00
  9.55249411E+00 -1.91049882E+01  0.00000000E+00  9.55249411E+00  9.55249411E+00
 -1.91049882E+01  0.00000000E+00  9.55249411E+00  9.55249411E+00 -1.91049882E+01
  0.00000000E+00  9.55249411E+00  9.55249411E+00 -1.91049882E+01  0.00000000E+00
  9.55249411E+00  9.55249411E+00 -1.91049882E+01  0.00000000E+00  9.55249411E+00
  9.55249411E+00 -1.91049882E+01  0.00000000E+00  9.55249411E+00  9.55249411E+00
 -1.91049882E+01  0.00000000E+00  9.55249411E+00  9.55249411E+00 -1.91049882E+01
  0.00000000E+00  9.55249411E+00  9.55249411E+00 -1.91049882E+01  0.00000000E+00
  9.55249411E+00  9.55249411E+00 -1.91049882E+01  0.00000000E+00  9.55249411E+00
  9.55249411E+00 -1.91049882E+01  0.00000000E+00  9.55249411E+00  9.55249411E+00
 -1.91049882E+01  0.00000000E+00  9.55249411E+00  9.55249411E+00 -1.91049882E+01
  0.00000000E+00  9.55249411E+00  9.55249411E+00 -1.91049882E+01  0.00000000E+00
  9.55249411E+00  9.55249411E+00 -1.91049882E+01  0.00000000E+00  9.55249411E+00
  9.55249411E+00 -1.91049882E+01  0.00000000E+00  9.55249411E+00  9.55249411E+00
 -1.91049882E+01  0.00000000E+00  9.55249411E+00  9.55249411E+00 -1.91049882E+01
  0.00000000E+00  9.55249411E+00  9.55249411E+00 -1.91049882E+01  0.00000000E+00
  9.55249411E+00  9.55249411E+00 -1.91049882E+01  0.00000000E+00  9.55249411E+00
  9.55249411E+00 -1.91049882E+01  0.00000000E+00  9.55249411E+00  9.55249411E+00
 -1.91049882E+01  0.00000000E+00  9.55249411E+00  9.55249411E+00 -1.91049882E+01
  0.00000000E+00  9.55249411E+00  9.55249411E+00 -1.91049882E+01  0.00000000E+00
  9.55249411E+00  9.55249411E+00 -1.91049882E+01  0.00000000E+00  9.55249411E+00
  9.55249411E+00 -1.91049882E+01  0.00000000E+00  9.55249411E+00  9.55249411E+00
 -1.91049882E+01  0.00000000E+00  9.55249411E+00  9.55249411E+00 -1.91049882E+01
  0.00000000E+00  9.55249411E+00  9.55249411E+00 -1.91049882E+01  0.00000000E+00
  9.55249411E+00  9.55249411E+00 -1.91049882E+01  0.00000000E+00  9.55249411E+00
  9.55249411E+00 -1.91049882E+01  0.00000000E+00  9.55249411E+00  9.55249411E+00
 -1.91049882E+01  0.00000000E+00  9.55249411E+00  9.55249411E+00 -1.91049882E+01
  0.00000000E+00  9.55249411E+00  9.55249411E+00 -1.91049882E+01  0.00000000E+00
  9.55249411E+00  9.55249411E+00 -1.91049882E+01  0.00000000E+00  9.55249411E+00
  9.55249411E+00 -1.91049882E+01  0.00000000E+00  9.55249411E+00  9.55249411E+00
 -1.91049882E+01  0.00000000E+00  9.55249411E+00  9.55249411E+00 -1.91049882E+01
  0.00000000E+00  9.55249411E+00  9.55249411E+00 -1.91049882E+01  0.00000000E+00
  9.55249411E+00  9.55249411E+00 -1.91049882E+01  0.00000000E+00  9.55249411E+00
  9.55249411E+00 -1.91049882E+01  0.00000000E+00  9.55249411E+00  9.55249411E+00
 -1.91049882E+01  0.00000000E+00  9.55249411E+00  9.55249411E+00 -1.91049882E+01
  0.00000000E+00  9.55249411E+00  9.55249411E+00 -1.91049882E+01  0.00000000E+00
  9.55249411E+00  9.55249411E+00 -1.91049882E+01  0.00000000E+00  9.55249411E+00
  9.55249411E+00 -1.91049882E+01  0.00000000E+00  9.55249411E+00  9.55249411E+00
 -1.91049882E+01  0.00000000E+00  9.55249411E+00  9.55249411E+00 -1.91049882E+01
  0.00000000E+00  9.55249411E+00  9.55249411E+00 -1.91049882E+01  0.00000000E+00
  9.55249411E+00  9.55249411E+00 -1.91049882E+01  0.00000000E+00  9.55249411E+00
  9.55249411E+00 -1.91049882E+01  0.00000000E+00  9.55249411E+00  9.55249411E+00
 -1.91049882E+01  0.00000000E+00  9.55249411E+00  9.55249411E+00 -1.91049882E+01
  0.00000000E+00  9.55249411E+00  9.55249411E+00 -1.91049882E+01  0.00000000E+00
  9.55249411E+00  9.55249411E+00 -1.91049882E+01  0.00000000E+00  9.55249411E+00
  9.55249411E+00 -1.91049882E+01  0.00000000E+00  9.55249411E+00  9.55249411E+00
 -1.91049882E+01  0.00000000E+00  9.55249411E+00  9.55249411E+00 -1.91049882E+01
  0.00000000E+00  9.55249411E+00  9.55249411E+00 -1.91049882E+01  0.00000000E+00
  9.55249411E+00  9.55249411E+00 -1.91049882E+01  0.00000000E+00  9.55249411E+00
  9.55249411E+00 -1.91049882E+01  0.00000000E+00  9.55249411E+00  9.55249411E+00
 -1.91049882E+01  0.00000000E+00  9.55249411E+00  9.55249411E+00 -1.91049882E+01
  0.00000000E+00  9.55249411E+00  9.55249411E+00 -1.91049882E+01  0.00000000E+00
  9.55249411E+00  9.55249411E+00 -1.91049882E+01  0.00000000E+00  9.55249411E+00
  9.55249411E+00 -1.91049882E+01  0.00000000E+00  9.55249411E+00  9.55249411E+00
 -1.91049882E+01  0.00000000E+00  9.55249411E+00  9.55249411E+00 -1.91049882E+01
  0.00000000E+00  9.55249411E+00  9.55249411E+00 -1.91049882E+01  0.00000000E+00
  9.55249411E+00  9.55249411E+00 -1.91049882E+01  0.00000000E+00  9.55249411E+00
  9.55249411E+00 -1.91049882E+01  0.00000000E+00  9.55249411E+00  9.55249411E+00
 -1.91049882E+01  0.00000000E+00  9.55249411E+00  9.55249411E+00 -1.91049882E+01
  0.00000000E+00  9.55249411E+00  9.55249411E+00 -1.91049882E+01  0.00000000E+00
  9.55249411E+00  9.55249411E+00 -1.91049882E+01  0.00000000E+00  9.55249411E+00
  9.55249411E+00 -1.91049882E+01  0.00000000E+00  9.55249411E+00  9.55249411E+00
 -1.91049882E+01  0.00000000E+00  9.55249411E+00  9.55249411E+00 -1.91049882E+01
  0.00000000E+00  9.55249411E+00  9.55249411E+00 -1.91049882E+01  0.00000000E+00
  9.55249411E+00  9.55249411E+00 -1.91049882E+01  0.00000000E+00  9.55249411E+00
  9.55249411E+00 -1.91049882E+01  0.00000000E+00  9.55249411E+00  9.55249411E+00
 -1.91049882E+01  0.00000000E+00  9.55249411E+00  9.55249411E+00 -1.91049882E+01
  0.00000000E+00  9.55249411E+00  9.55249411E+00 -1.91049882E+01  0.00000000E+00
  9.55249411E+00  9.55249411E+00 -1.91049882E+01  0.00000000E+00  9.55249411E+00
  9.55249411E+00 -1.91049882E+01  0.00000000E+00  9.55249411E+00  9.55249411E+00
 -1.91049882E+01  0.00000000E+00  9.55249411E+00  9.55249411E+00 -1.91049882E+01
  0.00000000E+00  9.55249411E+00  9.55249411E+00 -1.91049882E+01  0.00000000E+00
  9.55249411E+00  9.55249411E+00 -1.91049882E+01  0.00000000E+00  9.55249411E+00
  9.55249411E+00 -1.91049882E+01  0.00000000E+00  9.55249411E+00  9.55249411E+00
 -1.91049882E+01  0.00000000E+00  9.55249411E+00  9.55249411E+00 -1.91049882E+01
  0.00000000E+00  9.55249411E+00  9.55249411E+00 -1.91049882E+01  0.00000000E+00
  9.55249411E+00  9.55249411E+00 -1.91049882E+01  0.00000000E+00  9.55249411E+00
  9.55249411E+00 -1.91049882E+01  0.00000000E+00  9.55249411E+00  9.55249411E+00
 -1.91049882E+01  0.00000000E+00  9.55249411E+00  9.55249411E+00 -1.91049882E+01
  0.00000000E+00  9.55249411E+00  9.55249411E+00 -1.91049882E+01  0.00000000E+00
  9.55249411E+00  9.55249411E+00 -1.91049882E+01  0.00000000E+00  9.55249411E+00
  9.55249411E+00 -1.91049882E+01  0.00000000E+00  9.55249411E+00  9.55249411E+00
 -1.91049882E+01  0.00000000E+00  9.55249411E+00  9.55249411E+00 -1.91049882E+01
  0.00000000E+00  9.55249411E+00  9.55249411E+00 -1.91049882E+01  0.00000000E+00
  9.55249411E+00  9.55249411E+00 -1.91049882E+01  0.00000000E+00  9.55249411E+00
  9.55249411E+00 -1.91049882E+01  0.00000000E+00  9.55249411E+00  9.55249411E+00
 -1.91049882E+01  0.00000000E+00  9.55249411E+00  9.55249411E+00 -1.91049882E+01
  0.00000000E+00  9.55249411E+00  9.55249411E+00 -1.91049882E+01  0.00000000E+00
  9.55249411E+00  9.55249411E+00 -1.91049882E+01  0.00000000E+00  9.55249411E+00
  9.55249411E+00 -1.91049882E+01  0.00000000E+00  9.55249411E+00  9.55249411E+00
 -1.91049882E+01  0.00000000E+00  9.55249411E+00  9.55249411E+00 -1.91049882E+01
  0.00000000E+00  9.55249411E+00  9.55249411E+00 -1.91049882E+01  0.00000000E+00
  9.55249411E+00  9.55249411E+00 -1.91049882E+01  0.00000000E+00  9.55249411E+00
  9.55249411E+00 -1.91049882E+01  0.00000000E+00  9.55249411E+00  9.55249411E+00
 -1.91049882E+01  0.00000000E+00  9.55249411E+00  9.55249411E+00 -1.91049882E+01
  0.00000000E+00  9.55249411E+00  9.55249411E+00 -1.91049882E+01  0.00000000E+00
  9.55249411E+00  9.55249411E+00 -1.91049882E+01  0.00000000E+00  9.55249411E+00
  9.55249411E+00 -1.91049882E+01  0.00000000E+00  9.55249411E+00  9.55249411E+00
 -1.91049882E+01  0.00000000E+00  9.55249411E+00  9.55249411E+00 -1.91049882E+01
  0.00000000E+00  9.55249411E+00  9.55249411E+00 -1.91049882E+01  0.00000000E+00
  9.55249411E+00  9.55249411E+00 -1.91049882E+01  0.00000000E+00  9.55249411E+00
  9.55249411E+00 -1.91049882E+01  0.00000000E+00  9.55249411E+00  9.55249411E+00
 -1.91049882E+01  0.00000000E+00  9.55249411E+00  9.55249411E+00 -1.91049882E+01
  0.00000000E+00  9.55249411E+00  9.55249411E+00 -1.91049882E+01  0.00000000E+00
  9.55249411E+00  9.55249411E+00 -1.91049882E+01  0.00000000E+00  9.55249411E+00
  9.55249411E+00 -1.91049882E+01  0.00000000E+00  9.55249411E+00  9.55249411E+00
 -1.91049882E+01  0.00000000E+00  9.55249411E+00  9.55249411E+00 -1.91049882E+01
  0.00000000E+00  9.55249411E+00  9.55249411E+00 -1.91049882E+01  0.00000000E+00
  9.55249411E+00  9.55249411E+00 -1.91049882E+01  0.00000000E+00  9.55249411E+00
  9.55249411E+00 -1.91049882E+01  0.00000000E+00  9.55249411E+00  9.55249411E+00
 -1.91049882E+01  0.00000000E+00  9.55249411E+00  9.55249411E+00 -1.91049882E+01
  0.00000000E+00  9.55249411E+00  9.55249411E+00 -1.91049882E+01  0.00000000E+00
  9.55249411E+00  9.55249411E+00 -1.91049882E+01  0.00000000E+00  9.55249411E+00
  9.55249411E+00 -1.91049882E+01  0.00000000E+00  9.55249411E+00  9.55249411E+00
 -1.91049882E+01  0.00000000E+00  9.55249411E+00  9.55249411E+00 -1.91049882E+01
  0.00000000E+00  9.55249411E+00  9.55249411E+00 -1.91049882E+01  0.00000000E+00
  9.55249411E+00  9.55249411E+00 -1.91049882E+01  0.00000000E+00  9.55249411E+00
  9.55249411E+00 -1.91049882E+01  0.00000000E+00  9.55249411E+00  9.55249411E+00
 -1.91049882E+01  0.00000000E+00  9.55249411E+00  9.55249411E+00 -1.91049882E+01
  0.00000000E+00  9.55249411E+00  9.55249411E+00 -1.91049882E+01  0.00000000E+00
  9.55249411E+00  9.55249411E+00 -1.91049882E+01  0.00000000E+00  9.55249411E+00
  9.55249411E+00 -1.91049882E+01  0.00000000E+00  9.55249411E+00  9.55249411E+00
 -1.91049882E+01  0.00000000E+00  9.55249411E+00  9.55249411E+00 -1.91049882E+01
  0.00000000E+00  9.55249411E+00  9.55249411E+00 -1.91049882E+01  0.00000000E+00
  9.55249411E+00  9.55249411E+00 -1.91049882E+01  0.00000000E+00  9.55249411E+00
  9.55249411E+00 -1.91049882E+01  0.00000000E+00  9.55249411E+00  9.55249411E+00
 -1.91049882E+01  0.00000000E+00  9.55249411E+00  9.55249411E+00 -1.91049882E+01
  0.00000000E+00  9.55249411E+00  9.55249411E+00 -1.91049882E+01  0.00000000E+00
  9.55249411E+00  9.55249411E+00 -1.91049882E+01  0.00000000E+00  9.55249411E+00
  9.55249411E+00 -1.91049882E+01  0.00000000E+00  9.55249411E+00  9.55249411E+00
 -1.91049882E+01  0.00000000E+00  9.55249411E+00  9.55249411E+00 -1.91049882E+01
  0.00000000E+00  9.55249411E+00  9.55249411E+00 -1.91049882E+01  0.00000000E+00
  9.55249411E+00  9.55249411E+00 -1.91049882E+01  0.00000000E+00  9.55249411E+00
  9.55249411E+00 -1.91049882E+01  0.00000000E+00  9.55249411E+00  9.55249411E+00
 -1.91049882E+01  0.00000000E+00  9.55249411E+00  9.55249411E+00 -1.91049882E+01
  0.00000000E+00  9.55249411E+00  9.55249411E+00 -1.91049882E+01  0.00000000E+00
  9.55249411E+00  9.55249411E+00 -1.91049882E+01  0.00000000E+00  9.55249411E+00
  9.55249411E+00 -1.91049882E+01  0.00000000E+00  9.55249411E+00  9.55249411E+00
 -1.91049882E+01  0.00000000E+00  9.55249411E+00  9.55249411E+00 -1.91049882E+01
  0.00000000E+00  9.55249411E+00  9.55249411E+00 -1.91049882E+01  0.00000000E+00
  9.55249411E+00  9.55249411E+00 -1.91049882E+01  0.00000000E+00  9.55249411E+00
  9.55249411E+00 -1.91049882E+01  0.00000000E+00  9.55249411E+00  9.55249411E+00
 -1.91049882E+01  0.00000000E+00  9.55249411E+00  9.55249411E+00 -1.91049882E+01
  0.00000000E+00  9.55249411E+00  9.55249411E+00 -1.91049882E+01  0.00000000E+00
  9.55249411E+00  9.55249411E+00 -1.91049882E+01  0.00000000E+00  9.55249411E+00
  9.55249411E+00 -1.91049882E+01  0.00000000E+00  9.55249411E+00  9.55249411E+00
 -1.91049882E+01  0.00000000E+00  9.55249411E+00  9.55249411E+00 -1.91049882E+01
  0.00000000E+00  9.55249411E+00  9.55249411E+00 -1.91049882E+01  0.00000000E+00
  9.55249411E+00  9.55249411E+00 -1.91049882E+01  0.00000000E+00  9.55249411E+00
  9.55249411E+00 -1.91049882E+01  0.00000000E+00  9.55249411E+00  9.55249411E+00
 -1.91049882E+01  0.00000000E+00  9.55249411E+00  9.55249411E+00 -1.91049882E+01
  0.00000000E+00  9.55249411E+00  9.55249411E+00 -1.91049882E+01  0.00000000E+00
  9.55249411E+00  9.55249411E+00 -1.91049882E+01  0.00000000E+00  9.55249411E+00
  9.55249411E+00 -1.91049882E+01  0.00000000E+00  9.55249411E+00  9.55249411E+00
 -1.91049882E+01  0.00000000E+00  9.55249411E+00  9.55249411E+00 -1.91049882E+01
  0.00000000E+00  9.55249411E+00  9.55249411E+00 -1.91049882E+01  0.00000000E+00
  9.55249411E+00  9.55249411E+00 -1.91049882E+01  0.00000000E+00  9.55249411E+00
  9.55249411E+00 -1.91049882E+01  0.00000000E+00  9.55249411E+00  9.55249411E+00
 -1.91049882E+01  0.00000000E+00  9.55249411E+00  9.55249411E+00 -1.91049882E+01
  0.00000000E+00  9.55249411E+00  9.55249411E+00 -1.91049882E+01  0.00000000E+00
  9.55249411E+00  9.55249411E+00 -1.91049882E+01  0.00000000E+00  9.55249411E+00
  9.55249411E+00 -1.91049882E+01  0.00000000E+00  9.55249411E+00  9.55249411E+00
 -1.91049882E+01  0.00000000E+00  9.55249411E+00  9.55249411E+00 -1.91049882E+01
  0.00000000E+00  9.55249411E+00  9.55249411E+00 -1.91049882E+01  0.00000000E+00
  9.55249411E+00  9.55249411E+00 -1.91049882E+01  0.00000000E+00  9.55249411E+00
  9.55249411E+00 -1.91049882E+01  0.00000000E+00  9.55249411E+00  9.55249411E+00
 -1.91049882E+01  0.00000000E+00  9.55249411E+00  9.55249411E+00 -1.91049882E+01
  0.00000000E+00  9.55249411E+00  9.55249411E+00 -1.91049882E+01  0.00000000E+00
  9.55249411E+00  9.55249411E+00 -1.91049882E+01  0.00000000E+00  9.55249411E+00
  9.55249411E+00 -1.91049882E+01  0.00000000E+00  9.55249411E+00  9.55249411E+00
 -1.91049882E+01  0.00000000E+00  9.55249411E+00  9.55249411E+00 -1.91049882E+01
  0.00000000E+00  9.55249411E+00  9.55249411E+00 -1.91049882E+01  0.00000000E+00
  9.55249411E+00  9.55249411E+00 -1.91049882E+01  0.00000000E+00  9.55249411E+00
  9.55249411E+00 -1.91049882E+01  0.00000000E+00  9.55249411E+00  9.55249411E+00
 -1.91049882E+01  0.00000000E+00  9.55249411E+00  9.55249411E+00 -1.91049882E+01
  0.00000000E+00  9.55249411E+00  9.55249411E+00 -1.91049882E+01  0.00000000E+00
  9.55249411E+00  9.55249411E+00 -1.91049882E+01  0.00000000E+00  9.55249411E+00
  9.55249411E+00 -1.91049882E+01  0.00000000E+00  9.55249411E+00  9.55249411E+00
 -1.91049882E+01  0.00000000E+00  9.55249411E+00  9.55249411E+00 -1.91049882E+01
  0.00000000E+00  9.55249411E+00  9.55249411E+00 -1.91049882E+01  0.00000000E+00
  9.55249411E+00  9.55249411E+00 -1.91049882E+01  0.00000000E+00  9.55249411E+00
  9.55249411E+00 -1.91049882E+01  0.00000000E+00  9.55249411E+00  9.55249411E+00
 -1.91049882E+01  0.00000000E+00  9.55249411E+00  9.55249411E+00 -1.91049882E+01
  0.00000000E+00  9.55249411E+00  9.55249411E+00 -1.91049882E+01  0.00000000E+00
  9.55249411E+00  9.55249411E+00 -1.91049882E+01  0.00000000E+00  9.55249411E+00
  9.55249411E+00 -1.91049882E+01  0.00000000E+00  9.55249411E+00  9.55249411E+00
 -1.91049882E+01  0.00000000E+00  9.55249411E+00  9.55249411E+00 -1.91049882E+01
  0.00000000E+00  9.55249411E+00  9.55249411E+00 -1.91049882E+01  0.00000000E+00
  9.55249411E+00  9.55249411E+00 -1.91049882E+01  0.00000000E+00  9.55249411E+00
  9.55249411E+00 -1.91049882E+01  0.00000000E+00  9.55249411E+00  9.55249411E+00
 -1.91049882E+01  0.00000000E+00  9.55249411E+00  9.55249411E+00 -1.91049882E+01
  0.00000000E+00  9.55249411E+00  9.55249411E+00 -1.91049882E+01  0.00000000E+00
  9.55249411E+00  9.55249411E+00 -1.91049882E+01  0.00000000E+00  9.55249411E+00
  9.55249411E+00 -1.91049882E+01  0.00000000E+00  9.55249411E+00  9.55249411E+00
 -1.91049882E+01  0.00000000E+00  9.55249411E+00  9.55249411E+00 -1.91049882E+01
  0.00000000E+00  9.55249411E+00  9.55249411E+00 -1.91049882E+01  0.00000000E+00
  9.55249411E+00  9.55249411E+00 -1.91049882E+01  0.00000000E+00  9.55249411E+00
  9.55249411E+00 -1.91049882E+01  0.00000000E+00  9.55249411E+00  9.55249411E+00
 -1.91049882E+01  0.00000000E+00  9.55249411E+00  9.55249411E+00 -1.91049882E+01
  0.00000000E+00  9.55249411E+00  9.55249411E+00 -1.91049882E+01  0.00000000E+00
  9.55249411E+00  9.55249411E+00 -1.91049882E+01  0.00000000E+00  9.55249411E+00
  9.55249411E+00 -1.91049882E+01  0.00000000E+00  9.55249411E+00  9.55249411E+00
 -1.91049882E+01  0.00000000E+00  9.55249411E+00  9.55249411E+00 -1.91049882E+01
  0.00000000E+00  9.55249411E+00  9.55249411E+00 -1.91049882E+01  0.00000000E+00
  9.55249411E+00  9.55249411E+00 -1.91049882E+01  0.00000000E+00  9.55249411E+00
  9.55249411E+00 -1.91049882E+01  0.00000000E+00  9.55249411E+00  9.55249411E+00
 -1.91049882E+01  0.00000000E+00  9.55249411E+00  9.55249411E+00 -1.91049882E+01
  0.00000000E+00  9.55249411E+00  9.55249411E+00 -1.91049882E+01  0.00000000E+00
  9.55249411E+00  9.55249411E+00 -1.91049882E+01  0.00000000E+00  9.55249411E+00
  9.55249411E+00 -1.91049882E+01  0.00000000E+00  9.55249411E+00  9.55249411E+00
 -1.91049882E+01  0.00000000E+00  9.55249411E+00  9.55249411E+00 -1.91049882E+01
  0.00000000E+00  9.55249411E+00  9.55249411E+00 -1.91049882E+01  0.00000000E+00
  9.55249411E+00  9.55249411E+00 -1.91049882E+01  0.00000000E+00  9.55249411E+00
  9.55249411E+00 -1.91049882E+01  0.00000000E+00  9.55249411E+00  9.55249411E+00
 -1.91049882E+01  0.00000000E+00  9.55249411E+00  9.55249411E+00 -1.91049882E+01
  0.00000000E+00  9.55249411E+00  9.55249411E+00 -1.91049882E+01  0.00000000E+00
  9.55249411E+00  9.55249411E+00 -1.91049882E+01  0.00000000E+00  9.55249411E+00
  9.55249411E+00 -1.91049882E+01  0.00000000E+00  9.55249411E+00  9.55249411E+00
 -1.91049882E+01  0.00000000E+00  9.55249411E+00  9.55249411E+00 -1.91049882E+01
  0.00000000E+00  9.55249411E+00  9.55249411E+00 -1.91049882E+01  0.00000000E+00
  9.55249411E+00  9.55249411E+00 -1.91049882E+01  0.00000000E+00  9.55249411E+00
  9.55249411E+00 -1.91049882E+01  0.00000000E+00  9.55249411E+00  9.55249411E+00
 -1.91049882E+01  0.00000000E+00  9.55249411E+00  9.55249411E+00 -1.91049882E+01
  0.00000000E+00  9.55249411E+00  9.55249411E+00 -1.91049882E+01  0.00000000E+00
  9.55249411E+00  9.55249411E+00 -1.91049882E+01  0.00000000E+00  9.55249411E+00
  9.55249411E+00 -1.91049882E+01  0.00000000E+00  9.55249411E+00  9.55249411E+00
 -1.91049882E+01  0.00000000E+00  9.55249411E+00  9.55249411E+00 -1.91049882E+01
  0.00000000E+00  9.55249411E+00  9.55249411E+00 -1.91049882E+01  0.00000000E+00
  9.55249411E+00  9.55249411E+00 -1.91049882E+01  0.00000000E+00  9.55249411E+00
  9.55249411E+00 -1.91049882E+01  0.00000000E+00  9.55249411E+00  9.55249411E+00
 -1.91049882E+01  0.00000000E+00  9.55249411E+00  9.55249411E+00 -1.91049882E+01
  0.00000000E+00  9.55249411E+00  9.55249411E+00 -1.91049882E+01  0.00000000E+00
  9.55249411E+00  9.55249411E+00 -1.91049882E+01  0.00000000E+00  9.55249411E+00
  9.55249411E+00 -1.91049882E+01  0.00000000E+00  9.55249411E+00  9.55249411E+00
 -1.91049882E+01  0.00000000E+00  9.55249411E+00  9.55249411E+00 -1.91049882E+01
  0.00000000E+00  9.55249411E+00  9.55249411E+00 -1.91049882E+01  0.00000000E+00
  9.55249411E+00  9.55249411E+00 -1.91049882E+01  0.00000000E+00  9.55249411E+00
  9.55249411E+00 -1.91049882E+01  0.00000000E+00  9.55249411E+00  9.55249411E+00
 -1.91049882E+01  0.00000000E+00  9.55249411E+00  9.55249411E+00 -1.91049882E+01
  0.00000000E+00  9.55249411E+00  9.55249411E+00 -1.91049882E+01  0.00000000E+00
  9.55249411E+00  9.55249411E+00 -1.91049882E+01  0.00000000E+00  9.55249411E+00
  9.55249411E+00 -1.91049882E+01  0.00000000E+00  9.55249411E+00  9.55249411E+00
 -1.91049882E+01  0.00000000E+00  9.55249411E+00  9.55249411E+00 -1.91049882E+01
  0.00000000E+00  9.55249411E+00  9.55249411E+00 -1.91049882E+01  0.00000000E+00
  9.55249411E+00  9.55249411E+00 -1.91049882E+01  0.00000000E+00  9.55249411E+00
  9.55249411E+00 -1.91049882E+01  0.00000000E+00  9.55249411E+00  9.55249411E+00
 -1.91049882E+01  0.00000000E+00  9.55249411E+00  9.55249411E+00 -1.91049882E+01
  0.00000000E+00  9.55249411E+00  9.55249411E+00 -1.91049882E+01  0.00000000E+00
  9.55249411E+00  9.55249411E+00 -1.91049882E+01  0.00000000E+00  9.55249411E+00
  9.55249411E+00 -1.91049882E+01  0.00000000E+00  9.55249411E+00  9.55249411E+00
 -1.91049882E+01  0.00000000E+00  9.55249411E+00  9.55249411E+00 -1.91049882E+01
  0.00000000E+00  9.55249411E+00  9.55249411E+00 -1.91049882E+01  0.00000000E+00
  9.55249411E+00  9.55249411E+00 -1.91049882E+01  0.00000000E+00  9.55249411E+00
  9.55249411E+00 -1.91049882E+01  0.00000000E+00  9.55249411E+00  9.55249411E+00
 -1.91049882E+01  0.00000000E+00  9.55249411E+00  9.55249411E+00 -1.91049882E+01
  0.00000000E+00  9.55249411E+00  9.55249411E+00 -1.91049882E+01  0.00000000E+00
  9.55249411E+00  9.55249411E+00 -1.91049882E+01  0.00000000E+00  9.55249411E+00
  9.55249411E+00 -1.91049882E+01  0.00000000E+00  9.55249411E+00  9.55249411E+00
 -1.91049882E+01  0.00000000E+00  9.55249411E+00  9.55249411E+00 -1.91049882E+01
  0.00000000E+00  9.55249411E+00  9.55249411E+00 -1.91049882E+01  0.00000000E+00
  9.55249411E+00  9.55249411E+00 -1.91049882E+01  0.00000000E+00  9.55249411E+00
  9.55249411E+00 -1.91049882E+01  0.00000000E+00  9.55249411E+00  9.55249411E+00
 -1.91049882E+01  0.00000000E+00  9.55249411E+00  9.55249411E+00 -1.91049882E+01
  0.00000000E+00  9.55249411E+00  9.55249411E+00 -1.91049882E+01  0.00000000E+00
  9.55249411E+00  9.55249411E+00 -1.91049882E+01  0.00000000E+00  9.55249411E+00
  9.55249411E+00 -1.91049882E+01  0.00000000E+00  9.55249411E+00  9.55249411E+00
 -1.91049882E+01  0.00000000E+00  9.55249411E+00  9.55249411E+00 -1.91049882E+01
  0.00000000E+00  9.55249411E+00  9.55249411E+00 -1.91049882E+01  0.00000000E+00
  9.55249411E+00  9.55249411E+00 -1.91049882E+01  0.00000000E+00  9.55249411E+00
  9.55249411E+00 -1.91049882E+01  0.00000000E+00  9.55249411E+00  9.55249411E+00
 -1.91049882E+01  0.00000000E+00  9.55249411E+00  9.55249411E+00 -1.91049882E+01
  0.00000000E+00  9.55249411E+00  9.55249411E+00 -1.91049882E+01  0.00000000E+00
  9.55249411E+00  9.55249411E+00 -1.91049882E+01  0.00000000E+00  9.55249411E+00
  9.55249411E+00 -1.91049882E+01  0.00000000E+00  9.55249411E+00  9.55249411E+00
 -1.91049882E+01  0.00000000E+00  9.55249411E+00  9.55249411E+00 -1.91049882E+01
  0.00000000E+00  9.55249411E+00  9.55249411E+00 -1.91049882E+01  0.00000000E+00
  9.55249411E+00  9.55249411E+00 -1.91049882E+01  0.00000000E+00  9.55249411E+00
  9.55249411E+00 -1.91049882E+01  0.00000000E+00  9.55249411E+00  9.55249411E+00
 -1.91049882E+01  0.00000000E+00  9.55249411E+00  9.55249411E+00 -1.91049882E+01
  0.00000000E+00  9.55249411E+00  9.55249411E+00 -1.91049882E+01  0.00000000E+00
  9.55249411E+00  9.55249411E+00 -1.91049882E+01  0.00000000E+00  9.55249411E+00
  9.55249411E+00 -1.91049882E+01  0.00000000E+00  9.55249411E+00  9.55249411E+00
 -1.91049882E+01  0.00000000E+00  9.55249411E+00  9.55249411E+00 -1.91049882E+01
  0.00000000E+00  9.55249411E+00  9.55249411E+00 -1.91049882E+01  0.00000000E+00
  9.55249411E+00  9.55249411E+00 -1.91049882E+01  0.00000000E+00  9.55249411E+00
  9.55249411E+00 -1.91049882E+01  0.00000000E+00  9.55249411E+00  9.55249411E+00
 -1.91049882E+01  0.00000000E+00  9.55249411E+00  9.55249411E+00 -1.91049882E+01
  0.00000000E+00  9.55249411E+00  9.55249411E+00 -1.91049882E+01  0.00000000E+00
  9.55249411E+00  9.55249411E+00 -1.91049882E+01  0.00000000E+00  9.55249411E+00
  9.55249411E+00 -1.91049882E+01  0.00000000E+00  9.55249411E+00  9.55249411E+00
 -1.91049882E+01  0.00000000E+00  9.55249411E+00  9.55249411E+00 -1.91049882E+01
  0.00000000E+00  9.55249411E+00  9.55249411E+00 -1.91049882E+01  0.00000000E+00
  9.55249411E+00  9.55249411E+00 -1.91049882E+01  0.00000000E+00  9.55249411E+00
  9.55249411E+00 -1.91049882E+01  0.00000000E+00  9.55249411E+00  9.55249411E+00
 -1.91049882E+01  0.00000000E+00  9.55249411E+00  9.55249411E+00 -1.91049882E+01
  0.00000000E+00  9.55249411E+00  9.55249411E+00 -1.91049882E+01  0.00000000E+00
  9.55249411E+00  9.55249411E+00 -1.91049882E+01  0.00000000E+00  9.55249411E+00
  9.55249411E+00 -1.91049882E+01  0.00000000E+00  9.55249411E+00  9.55249411E+00
 -1.91049882E+01  0.00000000E+00  9.55249411E+00  9.55249411E+00 -1.91049882E+01
  0.00000000E+00  9.55249411E+00  9.55249411E+00 -1.91049882E+01  0.00000000E+00
  9.55249411E+00  9.55249411E+00 -1.91049882E+01  0.00000000E+00  9.55249411E+00
  9.55249411E+00 -1.91049882E+01  0.00000000E+00  9.55249411E+00  9.55249411E+00
 -1.91049882E+01  0.00000000E+00  9.55249411E+00  9.55249411E+00 -1.91049882E+01
  0.00000000E+00  9.55249411E+00  9.55249411E+00 -1.91049882E+01  0.00000000E+00
  9.55249411E+00  9.55249411E+00 -1.91049882E+01  0.00000000E+00  9.55249411E+00
  9.55249411E+00 -1.91049882E+01  0.00000000E+00  9.55249411E+00  9.55249411E+00
 -1.91049882E+01  0.00000000E+00  9.55249411E+00  9.55249411E+00 -1.91049882E+01
  0.00000000E+00  9.55249411E+00  9.55249411E+00 -1.91049882E+01  0.00000000E+00
  9.55249411E+00  9.55249411E+00 -1.91049882E+01  0.00000000E+00  9.55249411E+00
  9.55249411E+00 -1.91049882E+01  0.00000000E+00  9.55249411E+00  9.55249411E+00
 -1.91049882E+01  0.00000000E+00  9.55249411E+00  9.55249411E+00 -1.91049882E+01
  0.00000000E+00  9.55249411E+00  9.55249411E+00 -1.91049882E+01  0.00000000E+00
  9.55249411E+00  9.55249411E+00 -1.91049882E+01  0.00000000E+00  9.55249411E+00
  9.55249411E+00 -1.91049882E+01  0.00000000E+00  9.55249411E+00  9.55249411E+00
 -1.91049882E+01  0.00000000E+00  9.55249411E+00  9.55249411E+00 -1.91049882E+01
  0.00000000E+00  9.55249411E+00  9.55249411E+00 -1.91049882E+01  0.00000000E+00
  9.55249411E+00  9.55249411E+00 -1.91049882E+01  0.00000000E+00  9.55249411E+00
  9.55249411E+00 -1.91049882E+01  0.00000000E+00  9.55249411E+00  9.55249411E+00
 -1.91049882E+01  0.00000000E+00  9.55249411E+00  9.55249411E+00 -1.91049882E+01
  0.00000000E+00  9.55249411E+00  9.55249411E+00 -1.91049882E+01  0.00000000E+00
  9.55249411E+00  9.55249411E+00 -1.91049882E+01  0.00000000E+00  9.55249411E+00
  9.55249411E+00 -1.91049882E+01  0.00000000E+00  9.55249411E+00  9.55249411E+00
 -1.91049882E+01  0.00000000E+00  9.55249411E+00  9.55249411E+00 -1.91049882E+01
  0.00000000E+00  9.55249411E+00  9.55249411E+00 -1.91049882E+01  0.00000000E+00
  9.55249411E+00  9.55249411E+00 -1.91049882E+01  0.00000000E+00  9.55249411E+00
  9.55249411E+00 -1.91049882E+01  0.00000000E+00  9.55249411E+00  9.55249411E+00
 -1.91049882E+01  0.00000000E+00  9.55249411E+00  9.55249411E+00 -1.91049882E+01
  0.00000000E+00  9.55249411E+00  9.55249411E+00 -1.91049882E+01  0.00000000E+00
  9.55249411E+00  9.55249411E+00 -1.91049882E+01  0.00000000E+00  9.55249411E+00
  9.55249411E+00 -1.91049882E+01  0.00000000E+00  9.55249411E+00  9.55249411E+00
 -1.91049882E+01  0.00000000E+00  9.55249411E+00  9.55249411E+00 -1.91049882E+01
  0.00000000E+00  9.55249411E+00  9.55249411E+00 -1.91049882E+01  0.00000000E+00
  9.55249411E+00  9.55249411E+00 -1.91049882E+01  0.00000000E+00  9.55249411E+00
  9.55249411E+00 -1.91049882E+01  0.00000000E+00  9.55249411E+00  9.55249411E+00
 -1.91049882E+01  0.00000000E+00  9.55249411E+00  9.55249411E+00 -1.91049882E+01
  0.00000000E+00  9.55249411E+00  9.55249411E+00 -1.91049882E+01  0.00000000E+00
  9.55249411E+00  9.55249411E+00 -1.91049882E+01  0.00000000E+00  9.55249411E+00
  9.55249411E+00 -1.91049882E+01  0.00000000E+00  9.55249411E+00  9.55249411E+00
 -1.91049882E+01  0.00000000E+00  9.55249411E+00  9.55249411E+00 -1.91049882E+01
  0.00000000E+00  9.55249411E+00  9.55249411E+00 -1.91049882E+01  0.00000000E+00
  9.55249411E+00  9.55249411E+00 -1.91049882E+01  0.00000000E+00  9.55249411E+00
  9.55249411E+00 -1.91049882E+01  0.00000000E+00  9.55249411E+00  9.55249411E+00
 -1.91049882E+01  0.00000000E+00  9.55249411E+00  9.55249411E+00 -1.91049882E+01
  0.00000000E+00  9.55249411E+00  9.55249411E+00 -1.91049882E+01  0.00000000E+00
  9.55249411E+00  9.55249411E+00 -1.91049882E+01  0.00000000E+00  9.55249411E+00
  9.55249411E+00 -1.91049882E+01  0.00000000E+00  9.55249411E+00  9.55249411E+00
 -1.91049882E+01  0.00000000E+00  9.55249411E+00  9.55249411E+00 -1.91049882E+01
  0.00000000E+00  9.55249411E+00  9.55249411E+00 -1.91049882E+01  0.00000000E+00
  9.55249411E+00  9.55249411E+00 -1.91049882E+01  0.00000000E+00  9.55249411E+00
  9.55249411E+00 -1.91049882E+01  0.00000000E+00  9.55249411E+00  9.55249411E+00
 -1.91049882E+01  0.00000000E+00  9.55249411E+00  9.55249411E+00 -1.91049882E+01
  0.00000000E+00  9.55249411E+00  9.55249411E+00 -1.91049882E+01  0.00000000E+00
  9.55249411E+00  9.55249411E+00 -1.91049882E+01  0.00000000E+00  9.55249411E+00
  9.55249411E+00 -1.91049882E+01  0.00000000E+00  9.55249411E+00  9.55249411E+00
 -1.91049882E+01  0.00000000E+00  9.55249411E+00  9.55249411E+00 -1.91049882E+01
  0.00000000E+00  9.55249411E+00  9.55249411E+00 -1.91049882E+01  0.00000000E+00
  9.55249411E+00  9.55249411E+00 -1.91049882E+01  0.00000000E+00  9.55249411E+00
  9.55249411E+00 -1.91049882E+01  0.00000000E+00  9.55249411E+00  9.55249411E+00
 -1.91049882E+01  0.00000000E+00  9.55249411E+00  9.55249411E+00 -1.91049882E+01
  0.00000000E+00  9.55249411E+00  9.55249411E+00 -1.91049882E+01  0.00000000E+00
  9.55249411E+00  9.55249411E+00 -1.91049882E+01  0.00000000E+00  9.55249411E+00
  9.55249411E+00 -1.91049882E+01  0.00000000E+00  9.55249411E+00  9.55249411E+00
 -1.91049882E+01  0.00000000E+00  9.55249411E+00  9.55249411E+00 -1.91049882E+01
  0.00000000E+00  9.55249411E+00  9.55249411E+00 -1.91049882E+01  0.00000000E+00
  9.55249411E+00  9.55249411E+00 -1.91049882E+01  0.00000000E+00  9.55249411E+00
  9.55249411E+00 -1.91049882E+01  0.00000000E+00  9.55249411E+00  9.55249411E+00
 -1.91049882E+01  0.00000000E+00  9.55249411E+00  9.55249411E+00 -1.91049882E+01
  0.00000000E+00  9.55249411E+00  9.55249411E+00 -1.91049882E+01  0.00000000E+00
  9.55249411E+00  9.55249411E+00 -1.91049882E+01  0.00000000E+00  9.55249411E+00
  9.55249411E+00 -1.91049882E+01  0.00000000E+00  9.55249411E+00  9.55249411E+00
 -1.91049882E+01  0.00000000E+00  9.55249411E+00  9.55249411E+00 -1.91049882E+01
  0.00000000E+00  9.55249411E+00  9.55249411E+00 -1.91049882E+01  0.00000000E+00
  9.55249411E+00  9.55249411E+00 -1.91049882E+01  0.00000000E+00  9.55249411E+00
  9.55249411E+00 -1.91049882E+01  0.00000000E+00  9.55249411E+00  9.55249411E+00
 -1.91049882E+01  0.00000000E+00  9.55249411E+00  9.55249411E+00 -1.91049882E+01
  0.00000000E+00  9.55249411E+00  9.55249411E+00 -1.91049882E+01  0.00000000E+00
  9.55249411E+00  9.55249411E+00 -1.91049882E+01  0.00000000E+00  9.55249411E+00
  9.55249411E+00 -1.91049882E+01  0.00000000E+00  9.55249411E+00  9.55249411E+00
 -1.91049882E+01  0.00000000E+00  9.55249411E+00  9.55249411E+00 -1.91049882E+01
  0.00000000E+00  9.55249411E+00  9.55249411E+00 -1.91049882E+01  0.00000000E+00
  9.55249411E+00  9.55249411E+00 -1.91049882E+01  0.00000000E+00  9.55249411E+00
  9.55249411E+00 -1.91049882E+01  0.00000000E+00  9.55249411E+00  9.55249411E+00
 -1.91049882E+01  0.00000000E+00  9.55249411E+00  9.55249411E+00 -1.91049882E+01
  0.00000000E+00  9.55249411E+00  9.55249411E+00 -1.91049882E+01  0.00000000E+00
  9.55249411E+00  9.55249411E+00 -1.91049882E+01  0.00000000E+00  9.55249411E+00
  9.55249411E+00 -1.91049882E+01  0.00000000E+00  9.55249411E+00  9.55249411E+00
 -1.91049882E+01  0.00000000E+00  9.55249411E+00  9.55249411E+00 -1.91049882E+01
  0.00000000E+00  9.55249411E+00  9.55249411E+00 -1.91049882E+01  0.00000000E+00
  9.55249411E+00  9.55249411E+00 -1.91049882E+01  0.00000000E+00  9.55249411E+00
  9.55249411E+00 -1.91049882E+01  0.00000000E+00  9.55249411E+00  9.55249411E+00
 -1.91049882E+01  0.00000000E+00  9.55249411E+00  9.55249411E+00 -1.91049882E+01
  0.00000000E+00  9.55249411E+00  9.55249411E+00 -1.91049882E+01  0.00000000E+00
  9.55249411E+00  9.55249411E+00 -1.91049882E+01  0.00000000E+00  9.55249411E+00
  9.55249411E+00 -1.91049882E+01  0.00000000E+00  9.55249411E+00  9.55249411E+00
 -1.91049882E+01  0.00000000E+00  9.55249411E+00  9.55249411E+00 -1.91049882E+01
  0.00000000E+00  9.55249411E+00  9.55249411E+00 -1.91049882E+01  0.00000000E+00
  9.55249411E+00  9.55249411E+00 -1.91049882E+01  0.00000000E+00  9.55249411E+00
  9.55249411E+00 -1.91049882E+01  0.00000000E+00  9.55249411E+00  9.55249411E+00
 -1.91049882E+01  0.00000000E+00  9.55249411E+00  9.55249411E+00 -1.91049882E+01
  0.00000000E+00  9.55249411E+00  9.55249411E+00 -1.91049882E+01  0.00000000E+00
  9.55249411E+00  9.55249411E+00 -1.91049882E+01  0.00000000E+00  9.55249411E+00
  9.55249411E+00 -1.91049882E+01  0.00000000E+00  9.55249411E+00  9.55249411E+00
 -1.91049882E+01  0.00000000E+00  9.55249411E+00  9.55249411E+00 -1.91049882E+01
  0.00000000E+00  9.55249411E+00  9.55249411E+00 -1.91049882E+01  0.00000000E+00
  9.55249411E+00  9.55249411E+00 -1.91049882E+01  0.00000000E+00  9.55249411E+00
  9.55249411E+00 -1.91049882E+01  0.00000000E+00  9.55249411E+00  9.55249411E+00
 -1.91049882E+01  0.00000000E+00  9.55249411E+00  9.55249411E+00 -1.91049882E+01
  0.00000000E+00  9.55249411E+00  9.55249411E+00 -1.91049882E+01  0.00000000E+00
  9.55249411E+00  9.55249411E+00 -1.91049882E+01  0.00000000E+00  9.55249411E+00
  9.55249411E+00 -1.91049882E+01  0.00000000E+00  9.55249411E+00  9.55249411E+00
 -1.91049882E+01  0.00000000E+00  9.55249411E+00  9.55249411E+00 -1.91049882E+01
  0.00000000E+00  9.55249411E+00  9.55249411E+00 -1.91049882E+01  0.00000000E+00
  9.55249411E+00  9.55249411E+00 -1.91049882E+01  0.00000000E+00  9.55249411E+00
  9.55249411E+00 -1.91049882E+01  0.00000000E+00  9.55249411E+00  9.55249411E+00
 -1.91049882E+01  0.00000000E+00  9.55249411E+00  9.55249411E+00 -1.91049882E+01
  0.00000000E+00  9.55249411E+00  9.55249411E+00 -1.91049882E+01  0.00000000E+00
  9.55249411E+00  9.55249411E+00 -1.91049882E+01  0.00000000E+00  9.55249411E+00
  9.55249411E+00 -1.91049882E+01  0.00000000E+00  9.55249411E+00  9.55249411E+00
 -1.91049882E+01  0.00000000E+00  9.55249411E+00  9.55249411E+00 -1.91049882E+01
  0.00000000E+00  9.55249411E+00  9.55249411E+00 -1.91049882E+01  0.00000000E+00
  9.55249411E+00  9.55249411E+00 -1.91049882E+01  0.00000000E+00  9.55249411E+00
  9.55249411E+00 -1.91049882E+01  0.00000000E+00  9.55249411E+00  9.55249411E+00
 -1.91049882E+01  0.00000000E+00  9.55249411E+00  9.55249411E+00 -1.91049882E+01
  0.00000000E+00  9.55249411E+00  9.55249411E+00 -1.91049882E+01  0.00000000E+00
  9.55249411E+00  9.55249411E+00 -1.91049882E+01  0.00000000E+00  9.55249411E+00
  9.55249411E+00 -1.91049882E+01  0.00000000E+00  9.55249411E+00  9.55249411E+00
 -1.91049882E+01  0.00000000E+00  9.55249411E+00  9.55249411E+00 -1.91049882E+01
  0.00000000E+00  9.55249411E+00  9.55249411E+00 -1.91049882E+01  0.00000000E+00
  9.55249411E+00  9.55249411E+00 -1.91049882E+01  0.00000000E+00  9.55249411E+00
  9.55249411E+00 -1.91049882E+01  0.00000000E+00  9.55249411E+00  9.55249411E+00
 -1.91049882E+01  0.00000000E+00  9.55249411E+00  9.55249411E+00 -1.91049882E+01
  0.00000000E+00  9.55249411E+00  9.55249411E+00 -1.91049882E+01  0.00000000E+00
  9.55249411E+00  9.55249411E+00 -1.91049882E+01  0.00000000E+00  9.55249411E+00
  9.55249411E+00 -1.91049882E+01  0.00000000E+00  9.55249411E+00  9.55249411E+00
 -1.91049882E+01  0.00000000E+00  9.55249411E+00  9.55249411E+00 -1.91049882E+01
  0.00000000E+00  9.55249411E+00  9.55249411E+00 -1.91049882E+01  0.00000000E+00
  9.55249411E+00  9.55249411E+00 -1.91049882E+01  0.00000000E+00  9.55249411E+00
  9.55249411E+00 -1.91049882E+01  0.00000000E+00  9.55249411E+00  9.55249411E+00
 -1.91049882E+01  0.00000000E+00  9.55249411E+00  9.55249411E+00 -1.91049882E+01
  0.00000000E+00  9.55249411E+00  9.55249411E+00 -1.91049882E+01  0.00000000E+00
  9.55249411E+00  9.55249411E+00 -1.91049882E+01  0.00000000E+00  9.55249411E+00
  9.55249411E+00 -1.91049882E+01  0.00000000E+00  9.55249411E+00  9.55249411E+00
 -1.91049882E+01  0.00000000E+00  9.55249411E+00  9.55249411E+00 -1.91049882E+01
  0.00000000E+00  9.55249411E+00  9.55249411E+00 -1.91049882E+01  0.00000000E+00
  9.55249411E+00  9.55249411E+00 -1.91049882E+01  0.00000000E+00  9.55249411E+00
  9.55249411E+00 -1.91049882E+01  0.00000000E+00  9.55249411E+00  9.55249411E+00
 -1.91049882E+01  0.00000000E+00  9.55249411E+00  9.55249411E+00 -1.91049882E+01
  0.00000000E+00  9.55249411E+00  9.55249411E+00 -1.91049882E+01  0.00000000E+00
  9.55249411E+00  9.55249411E+00 -1.91049882E+01  0.00000000E+00  9.55249411E+00
  9.55249411E+00 -1.91049882E+01  0.00000000E+00  9.55249411E+00  9.55249411E+00
 -1.91049882E+01  0.00000000E+00  9.55249411E+00  9.55249411E+00 -1.91049882E+01
  0.00000000E+00  9.55249411E+00  9.55249411E+00 -1.91049882E+01  0.00000000E+00
  9.55249411E+00  9.55249411E+00 -1.91049882E+01  0.00000000E+00  9.55249411E+00
  9.55249411E+00 -1.91049882E+01  0.00000000E+00  9.55249411E+00  9.55249411E+00
 -1.91049882E+01  0.00000000E+00  9.55249411E+00  9.55249411E+00 -1.91049882E+01
  0.00000000E+00  9.55249411E+00  9.55249411E+00 -1.91049882E+01  0.00000000E+00
  9.55249411E+00  9.55249411E+00 -1.91049882E+01  0.00000000E+00  9.55249411E+00
  9.55249411E+00 -1.91049882E+01  0.00000000E+00  9.55249411E+00  9.55249411E+00
 -1.91049882E+01  0.00000000E+00  9.55249411E+00  9.55249411E+00 -1.91049882E+01
  0.00000000E+00  9.55249411E+00  9.55249411E+00 -1.91049882E+01  0.00000000E+00
  9.55249411E+00  9.55249411E+00 -1.91049882E+01  0.00000000E+00  9.55249411E+00
  9.55249411E+00 -1.91049882E+01  0.00000000E+00  9.55249411E+00  9.55249411E+00
 -1.91049882E+01  0.00000000E+00  9.55249411E+00  9.55249411E+00 -1.91049882E+01
  0.00000000E+00  9.55249411E+00  9.55249411E+00 -1.91049882E+01  0.00000000E+00
  9.55249411E+00  9.55249411E+00 -1.91049882E+01  0.00000000E+00  9.55249411E+00
  9.55249411E+00 -1.91049882E+01  0.00000000E+00  9.55249411E+00  9.55249411E+00
 -1.91049882E+01  0.00000000E+00  9.55249411E+00  9.55249411E+00 -1.91049882E+01
  0.00000000E+00  9.55249411E+00  9.55249411E+00 -1.91049882E+01  0.00000000E+00
  9.55249411E+00  9.55249411E+00 -1.91049882E+01  0.00000000E+00  9.55249411E+00
  9.55249411E+00 -1.91049882E+01  0.00000000E+00  9.55249411E+00  9.55249411E+00
 -1.91049882E+01  0.00000000E+00  9.55249411E+00  9.55249411E+00 -1.91049882E+01
  0.00000000E+00  9.55249411E+00  9.55249411E+00 -1.91049882E+01  0.00000000E+00
  9.55249411E+00  9.55249411E+00 -1.91049882E+01  0.00000000E+00  9.55249411E+00
  9.55249411E+00 -1.91049882E+01  0.00000000E+00  9.55249411E+00  9.55249411E+00
 -1.91049882E+01  0.00000000E+00  9.55249411E+00  9.55249411E+00 -1.91049882E+01
  0.00000000E+00  9.55249411E+00  9.55249411E+00 -1.91049882E+01  0.00000000E+00
  9.55249411E+00  9.55249411E+00 -1.91049882E+01  0.00000000E+00  9.55249411E+00
  9.55249411E+00 -1.91049882E+01  0.00000000E+00  9.55249411E+00  9.55249411E+00
 -1.91049882E+01  0.00000000E+00  9.55249411E+00  9.55249411E+00 -1.91049882E+01
  0.00000000E+00  9.55249411E+00  9.55249411E+00 -1.91049882E+01  0.00000000E+00
  9.55249411E+00  9.55249411E+00 -1.91049882E+01  0.00000000E+00  9.55249411E+00
  9.55249411E+00 -1.91049882E+01  0.00000000E+00  9.55249411E+00  9.55249411E+00
 -1.91049882E+01  0.00000000E+00  9.55249411E+00  9.55249411E+00 -1.91049882E+01
  0.00000000E+00  9.55249411E+00  9.55249411E+00 -1.91049882E+01  0.00000000E+00
  9.55249411E+00  9.55249411E+00 -1.91049882E+01  0.00000000E+00  9.55249411E+00
  9.55249411E+00 -1.91049882E+01  0.00000000E+00  9.55249411E+00  9.55249411E+00
 -1.91049882E+01  0.00000000E+00  9.55249411E+00  9.55249411E+00 -1.91049882E+01
  0.00000000E+00  9.55249411E+00  9.55249411E+00 -1.91049882E+01  0.00000000E+00
  9.55249411E+00  9.55249411E+00 -1.91049882E+01  0.00000000E+00  9.55249411E+00
  9.55249411E+00 -1.91049882E+01  0.00000000E+00  9.55249411E+00  9.55249411E+00
 -1.91049882E+01  0.00000000E+00  9.55249411E+00  9.55249411E+00 -1.91049882E+01
  0.00000000E+00  9.55249411E+00  9.55249411E+00 -1.91049882E+01  0.00000000E+00
  9.55249411E+00  9.55249411E+00 -1.91049882E+01  0.00000000E+00  9.55249411E+00
  9.55249411E+00 -1.91049882E+01  0.00000000E+00  9.55249411E+00  9.55249411E+00
 -1.91049882E+01  0.00000000E+00  9.55249411E+00  9.55249411E+00 -1.91049882E+01
  0.00000000E+00  9.55249411E+00  9.55249411E+00 -1.91049882E+01  0.00000000E+00
  9.55249411E+00  9.55249411E+00 -1.91049882E+01  0.00000000E+00  9.55249411E+00
  9.55249411E+00 -1.91049882E+01  0.00000000E+00  9.55249411E+00  9.55249411E+00
 -1.91049882E+01  0.00000000E+00  9.55249411E+00  9.55249411E+00 -1.91049882E+01
  0.00000000E+00  9.55249411E+00  9.55249411E+00 -1.91049882E+01  0.00000000E+00
  9.55249411E+00  9.55249411E+00 -1.91049882E+01  0.00000000E+00  9.55249411E+00
  9.55249411E+00 -1.91049882E+01  0.00000000E+00  9.55249411E+00  9.55249411E+00
 -1.91049882E+01  0.00000000E+00  9.55249411E+00  9.55249411E+00 -1.91049882E+01
  0.00000000E+00  9.55249411E+00  9.55249411E+00 -1.91049882E+01  0.00000000E+00
  9.55249411E+00  9.55249411E+00 -1.91049882E+01  0.00000000E+00  9.55249411E+00
  9.55249411E+00 -1.91049882E+01  0.00000000E+00  9.55249411E+00  9.55249411E+00
 -1.91049882E+01  0.00000000E+00  9.55249411E+00  9.55249411E+00 -1.91049882E+01
  0.00000000E+00  9.55249411E+00  9.55249411E+00 -1.91049882E+01  0.00000000E+00
  9.55249411E+00  9.55249411E+00 -1.91049882E+01  0.00000000E+00  9.55249411E+00
  9.55249411E+00 -1.91049882E+01  0.00000000E+00  9.55249411E+00  9.55249411E+00
 -1.91049882E+01  0.00000000E+00  9.55249411E+00  9.55249411E+00 -1.91049882E+01
  0.00000000E+00  9.55249411E+00  9.55249411E+00 -1.91049882E+01  0.00000000E+00
  9.55249411E+00  9.55249411E+00 -1.91049882E+01  0.00000000E+00  9.55249411E+00
  9.55249411E+00 -1.91049882E+01  0.00000000E+00  9.55249411E+00  9.55249411E+00
 -1.91049882E+01  0.00000000E+00  9.55249411E+00  9.55249411E+00 -1.91049882E+01
  0.00000000E+00  9.55249411E+00  9.55249411E+00 -1.91049882E+01  0.00000000E+00
  9.55249411E+00  9.55249411E+00 -1.91049882E+01  0.00000000E+00  9.55249411E+00
  9.55249411E+00 -1.91049882E+01  0.00000000E+00  9.55249411E+00  9.55249411E+00
 -1.91049882E+01  0.00000000E+00  9.55249411E+00  9.55249411E+00 -1.91049882E+01
  0.00000000E+00  9.55249411E+00  9.55249411E+00 -1.91049882E+01  0.00000000E+00
  9.55249411E+00  9.55249411E+00 -1.91049882E+01  0.00000000E+00  9.55249411E+00
  9.55249411E+00 -1.91049882E+01  0.00000000E+00  9.55249411E+00  9.55249411E+00
 -1.91049882E+01  0.00000000E+00  9.55249411E+00  9.55249411E+00 -1.91049882E+01
  0.00000000E+00  9.55249411E+00  9.55249411E+00 -1.91049882E+01  0.00000000E+00
  9.55249411E+00  9.55249411E+00 -1.91049882E+01  0.00000000E+00  9.55249411E+00
  9.55249411E+00 -1.91049882E+01  0.00000000E+00  9.55249411E+00  9.55249411E+00
 -1.91049882E+01  0.00000000E+00  9.55249411E+00  9.55249411E+00 -1.91049882E+01
  0.00000000E+00  9.55249411E+00  9.55249411E+00 -1.91049882E+01  0.00000000E+00
  9.55249411E+00  9.55249411E+00 -1.91049882E+01  0.00000000E+00  9.55249411E+00
  9.55249411E+00 -1.91049882E+01  0.00000000E+00  9.55249411E+00  9.55249411E+00
 -1.91049882E+01  0.00000000E+00  9.55249411E+00  9.55249411E+00 -1.91049882E+01
  0.00000000E+00  9.55249411E+00  9.55249411E+00 -1.91049882E+01  0.00000000E+00
  9.55249411E+00  9.55249411E+00 -1.91049882E+01  0.00000000E+00  9.55249411E+00
  9.55249411E+00 -1.91049882E+01  0.00000000E+00  9.55249411E+00  9.55249411E+00
 -1.91049882E+01  0.00000000E+00  9.55249411E+00  9.55249411E+00 -1.91049882E+01
  0.00000000E+00  9.55249411E+00  9.55249411E+00 -1.91049882E+01  0.00000000E+00
  9.55249411E+00  9.55249411E+00 -1.91049882E+01  0.00000000E+00  9.55249411E+00
  9.55249411E+00 -1.91049882E+01  0.00000000E+00  9.55249411E+00  9.55249411E+00
 -1.91049882E+01  0.00000000E+00  9.55249411E+00  9.55249411E+00 -1.91049882E+01
  0.00000000E+00  9.55249411E+00  9.55249411E+00 -1.91049882E+01  0.00000000E+00
  9.55249411E+00  9.55249411E+00 -1.91049882E+01  0.00000000E+00  9.55249411E+00
  9.55249411E+00 -1.91049882E+01  0.00000000E+00  9.55249411E+00  9.55249411E+00
 -1.91049882E+01  0.00000000E+00  9.55249411E+00  9.55249411E+00 -1.91049882E+01
  0.00000000E+00  9.55249411E+00  9.55249411E+00 -1.91049882E+01  0.00000000E+00
  9.55249411E+00  9.55249411E+00 -1.91049882E+01  0.00000000E+00  9.55249411E+00
  9.55249411E+00 -1.91049882E+01  0.00000000E+00  9.55249411E+00  9.55249411E+00
 -1.91049882E+01  0.00000000E+00  9.55249411E+00  9.55249411E+00 -1.91049882E+01
  0.00000000E+00  9.55249411E+00  9.55249411E+00 -1.91049882E+01  0.00000000E+00
  9.55249411E+00  9.55249411E+00 -1.91049882E+01  0.00000000E+00  9.55249411E+00
  9.55249411E+00 -1.91049882E+01  0.00000000E+00  9.55249411E+00  9.55249411E+00
 -1.91049882E+01  0.00000000E+00  9.55249411E+00  9.55249411E+00 -1.91049882E+01
  0.00000000E+00  9.55249411E+00  9.55249411E+00 -1.91049882E+01  0.00000000E+00
  9.55249411E+00  9.55249411E+00 -1.91049882E+01  0.00000000E+00  9.55249411E+00
  9.55249411E+00 -1.91049882E+01  0.00000000E+00  9.55249411E+00  9.55249411E+00
 -1.91049882E+01  0.00000000E+00  9.55249411E+00  9.55249411E+00 -1.91049882E+01
  0.00000000E+00  9.55249411E+00  9.55249411E+00 -1.91049882E+01  0.00000000E+00
  9.55249411E+00  9.55249411E+00 -1.91049882E+01  0.00000000E+00  9.55249411E+00
  9.55249411E+00 -1.91049882E+01  0.00000000E+00  9.55249411E+00  9.55249411E+00
 -1.91049882E+01  0.00000000E+00  9.55249411E+00  9.55249411E+00 -1.91049882E+01
  0.00000000E+00  9.55249411E+00  9.55249411E+00 -1.91049882E+01  0.00000000E+00
  9.55249411E+00  9.55249411E+00 -1.91049882E+01  0.00000000E+00  9.55249411E+00
  9.55249411E+00 -1.91049882E+01  0.00000000E+00  9.55249411E+00  9.55249411E+00
 -1.91049882E+01  0.00000000E+00  9.55249411E+00  9.55249411E+00 -1.91049882E+01
  0.00000000E+00  9.55249411E+00  9.55249411E+00 -1.91049882E+01  0.00000000E+00
  9.55249411E+00  9.55249411E+00 -1.91049882E+01  0.00000000E+00  9.55249411E+00
  9.55249411E+00 -1.91049882E+01  0.00000000E+00  9.55249411E+00  9.55249411E+00
 -1.91049882E+01  0.00000000E+00  9.55249411E+00  9.55249411E+00 -1.91049882E+01
  0.00000000E+00  9.55249411E+00  9.55249411E+00 -1.91049882E+01  0.00000000E+00
  9.55249411E+00  9.55249411E+00 -1.91049882E+01  0.00000000E+00  9.55249411E+00
  9.55249411E+00 -1.91049882E+01  0.00000000E+00  9.55249411E+00  9.55249411E+00
 -1.91049882E+01  0.00000000E+00  9.55249411E+00  9.55249411E+00 -1.91049882E+01
  0.00000000E+00  9.55249411E+00  9.55249411E+00 -1.91049882E+01  0.00000000E+00
  9.55249411E+00  9.55249411E+00 -1.91049882E+01  0.00000000E+00  9.55249411E+00
  9.55249411E+00 -1.91049882E+01  0.00000000E+00  9.55249411E+00  9.55249411E+00
 -1.91049882E+01  0.00000000E+00  9.55249411E+00  9.55249411E+00 -1.91049882E+01
  0.00000000E+00  9.55249411E+00  9.55249411E+00 -1.91049882E+01  0.00000000E+00
  9.55249411E+00  9.55249411E+00 -1.91049882E+01  0.00000000E+00  9.55249411E+00
  9.55249411E+00 -1.91049882E+01  0.00000000E+00  9.55249411E+00  9.55249411E+00
 -1.91049882E+01  0.00000000E+00  9.55249411E+00  9.55249411E+00 -1.91049882E+01
  0.00000000E+00  9.55249411E+00  9.55249411E+00 -1.91049882E+01  0.00000000E+00
  9.55249411E+00  9.55249411E+00 -1.91049882E+01  0.00000000E+00  9.55249411E+00
  9.55249411E+00 -1.91049882E+01  0.00000000E+00  9.55249411E+00  9.55249411E+00
 -1.91049882E+01  0.00000000E+00  9.55249411E+00  9.55249411E+00 -1.91049882E+01
  0.00000000E+00  9.55249411E+00  9.55249411E+00 -1.91049882E+01  0.00000000E+00
  9.55249411E+00  9.55249411E+00 -1.91049882E+01  0.00000000E+00  9.55249411E+00
  9.55249411E+00 -1.91049882E+01  0.00000000E+00  9.55249411E+00  9.55249411E+00
 -1.91049882E+01  0.00000000E+00  9.55249411E+00  9.55249411E+00 -1.91049882E+01
  0.00000000E+00  9.55249411E+00  9.55249411E+00 -1.91049882E+01  0.00000000E+00
  9.55249411E+00  9.55249411E+00 -1.91049882E+01  0.00000000E+00  9.55249411E+00
  9.55249411E+00 -1.91049882E+01  0.00000000E+00  9.55249411E+00  9.55249411E+00
 -1.91049882E+01  0.00000000E+00  9.55249411E+00  9.55249411E+00 -1.91049882E+01
  0.00000000E+00  9.55249411E+00  9.55249411E+00 -1.91049882E+01  0.00000000E+00
  9.55249411E+00  9.55249411E+00 -1.91049882E+01  0.00000000E+00  9.55249411E+00
  9.55249411E+00 -1.91049882E+01  0.00000000E+00  9.55249411E+00  9.55249411E+00
 -1.91049882E+01  0.00000000E+00  9.55249411E+00  9.55249411E+00 -1.91049882E+01
  0.00000000E+00  9.55249411E+00  9.55249411E+00 -1.91049882E+01  0.00000000E+00
  9.55249411E+00  9.55249411E+00 -1.91049882E+01  0.00000000E+00  9.55249411E+00
  9.55249411E+00 -1.91049882E+01  0.00000000E+00  9.55249411E+00  9.55249411E+00
 -1.91049882E+01  0.00000000E+00  9.55249411E+00  9.55249411E+00 -1.91049882E+01
  0.00000000E+00  9.55249411E+00  9.55249411E+00 -1.91049882E+01  0.00000000E+00
  9.55249411E+00  9.55249411E+00 -1.91049882E+01  0.00000000E+00  9.55249411E+00
  9.55249411E+00 -1.91049882E+01  0.00000000E+00  9.55249411E+00  9.55249411E+00
 -1.91049882E+01  0.00000000E+00  9.55249411E+00  9.55249411E+00 -1.91049882E+01
  0.00000000E+00  9.55249411E+00  9.55249411E+00 -1.91049882E+01  0.00000000E+00
  9.55249411E+00  9.55249411E+00 -1.91049882E+01  0.00000000E+00  9.55249411E+00
  9.55249411E+00 -1.91049882E+01  0.00000000E+00  9.55249411E+00  9.55249411E+00
 -1.91049882E+01  0.00000000E+00  9.55249411E+00  9.55249411E+00 -1.91049882E+01
  0.00000000E+00  9.55249411E+00  9.55249411E+00 -1.91049882E+01  0.00000000E+00
  9.55249411E+00  9.55249411E+00 -1.91049882E+01  0.00000000E+00  9.55249411E+00
  9.55249411E+00 -1.91049882E+01  0.00000000E+00  9.55249411E+00  9.55249411E+00
 -1.91049882E+01  0.00000000E+00  9.55249411E+00  9.55249411E+00 -1.91049882E+01
  0.00000000E+00  9.55249411E+00  9.55249411E+00 -1.91049882E+01  0.00000000E+00
  9.55249411E+00  9.55249411E+00 -1.91049882E+01  0.00000000E+00  9.55249411E+00
  9.55249411E+00 -1.91049882E+01  0.00000000E+00  9.55249411E+00  9.55249411E+00
 -1.91049882E+01  0.00000000E+00  9.55249411E+00  9.55249411E+00 -1.91049882E+01
  0.00000000E+00  9.55249411E+00  9.55249411E+00 -1.91049882E+01  0.00000000E+00
  9.55249411E+00  9.55249411E+00 -1.91049882E+01  0.00000000E+00  9.55249411E+00
  9.55249411E+00 -1.91049882E+01  0.00000000E+00  9.55249411E+00  9.55249411E+00
 -1.91049882E+01  0.00000000E+00  9.55249411E+00  9.55249411E+00 -1.91049882E+01
  0.00000000E+00  9.55249411E+00  9.55249411E+00 -1.91049882E+01  0.00000000E+00
  9.55249411E+00  9.55249411E+00 -1.91049882E+01  0.00000000E+00  9.55249411E+00
  9.55249411E+00 -1.91049882E+01  0.00000000E+00  9.55249411E+00  9.55249411E+00
 -1.91049882E+01  0.00000000E+00  9.55249411E+00  9.55249411E+00 -1.91049882E+01
  0.00000000E+00  9.55249411E+00  9.55249411E+00 -1.91049882E+01  0.00000000E+00
  9.55249411E+00  9.55249411E+00 -1.91049882E+01  0.00000000E+00  9.55249411E+00
  9.55249411E+00 -1.91049882E+01  0.00000000E+00  9.55249411E+00  9.55249411E+00
 -1.91049882E+01  0.00000000E+00  9.55249411E+00  9.55249411E+00 -1.91049882E+01
  0.00000000E+00  9.55249411E+00  9.55249411E+00 -1.91049882E+01  0.00000000E+00
  9.55249411E+00  9.55249411E+00 -1.91049882E+01  0.00000000E+00  9.55249411E+00
  9.55249411E+00 -1.91049882E+01  0.00000000E+00  9.55249411E+00  9.55249411E+00
 -1.91049882E+01  0.00000000E+00  9.55249411E+00  9.55249411E+00 -1.91049882E+01
  0.00000000E+00  9.55249411E+00  9.55249411E+00 -1.91049882E+01  0.00000000E+00
  9.55249411E+00  9.55249411E+00 -1.91049882E+01  0.00000000E+00  9.55249411E+00
  9.55249411E+00 -1.91049882E+01  0.00000000E+00  9.55249411E+00  9.55249411E+00
 -1.91049882E+01  0.00000000E+00  9.55249411E+00  9.55249411E+00 -1.91049882E+01
  0.00000000E+00  9.55249411E+00  9.55249411E+00 -1.91049882E+01  0.00000000E+00
  9.55249411E+00  9.55249411E+00 -1.91049882E+01  0.00000000E+00  9.55249411E+00
  9.55249411E+00 -1.91049882E+01  0.00000000E+00  9.55249411E+00  9.55249411E+00
 -1.91049882E+01  0.00000000E+00  9.55249411E+00  9.55249411E+00 -1.91049882E+01
  0.00000000E+00  9.55249411E+00  9.55249411E+00 -1.91049882E+01  0.00000000E+00
  9.55249411E+00  9.55249411E+00 -1.91049882E+01  0.00000000E+00  9.55249411E+00
  9.55249411E+00 -1.91049882E+01  0.00000000E+00  9.55249411E+00  9.55249411E+00
 -1.91049882E+01  0.00000000E+00  9.55249411E+00  9.55249411E+00 -1.91049882E+01
  0.00000000E+00  9.55249411E+00  9.55249411E+00 -1.91049882E+01  0.00000000E+00
  9.55249411E+00  9.55249411E+00 -1.91049882E+01  0.00000000E+00  9.55249411E+00
  9.55249411E+00 -1.91049882E+01  0.00000000E+00  9.55249411E+00  9.55249411E+00
 -1.91049882E+01  0.00000000E+00  9.55249411E+00  9.55249411E+00 -1.91049882E+01
  0.00000000E+00  9.55249411E+00  9.55249411E+00 -1.91049882E+01  0.00000000E+00
  9.55249411E+00  9.55249411E+00 -1.91049882E+01  0.00000000E+00  9.55249411E+00
  9.55249411E+00 -1.91049882E+01  0.00000000E+00  9.55249411E+00  9.55249411E+00
 -1.91049882E+01  0.00000000E+00  9.55249411E+00  9.55249411E+00 -1.91049882E+01
  0.00000000E+00  9.55249411E+00  9.55249411E+00 -1.91049882E+01  0.00000000E+00
  9.55249411E+00  9.55249411E+00 -1.91049882E+01  0.00000000E+00  9.55249411E+00
  9.55249411E+00 -1.91049882E+01  0.00000000E+00  9.55249411E+00  9.55249411E+00
 -1.91049882E+01  0.00000000E+00  9.55249411E+00  9.55249411E+00 -1.91049882E+01
  0.00000000E+00  9.55249411E+00  9.55249411E+00 -1.91049882E+01  0.00000000E+00
  9.55249411E+00  9.55249411E+00 -1.91049882E+01  0.00000000E+00  9.55249411E+00
  9.55249411E+00 -1.91049882E+01  0.00000000E+00  9.55249411E+00  9.55249411E+00
 -1.91049882E+01  0.00000000E+00  9.55249411E+00  9.55249411E+00 -1.91049882E+01
  0.00000000E+00  9.55249411E+00  9.55249411E+00 -1.91049882E+01  0.00000000E+00
  9.55249411E+00  9.55249411E+00 -1.91049882E+01  0.00000000E+00  9.55249411E+00
  9.55249411E+00 -1.91049882E+01  0.00000000E+00  9.55249411E+00  9.55249411E+00
 -1.91049882E+01  0.00000000E+00  9.55249411E+00  9.55249411E+00 -1.91049882E+01
  0.00000000E+00  9.55249411E+00  9.55249411E+00 -1.91049882E+01  0.00000000E+00
  9.55249411E+00  9.55249411E+00 -1.91049882E+01  0.00000000E+00  9.55249411E+00
  9.55249411E+00 -1.91049882E+01  0.00000000E+00  9.55249411E+00  9.55249411E+00
 -1.91049882E+01  0.00000000E+00  9.55249411E+00  9.55249411E+00 -1.91049882E+01
  0.00000000E+00  9.55249411E+00  9.55249411E+00 -1.91049882E+01  0.00000000E+00
  9.55249411E+00  9.55249411E+00 -1.91049882E+01  0.00000000E+00  9.55249411E+00
  9.55249411E+00 -1.91049882E+01  0.00000000E+00  9.55249411E+00  9.55249411E+00
 -1.91049882E+01  0.00000000E+00  9.55249411E+00  9.55249411E+00 -1.91049882E+01
  0.00000000E+00  9.55249411E+00  9.55249411E+00 -1.91049882E+01  0.00000000E+00
  9.55249411E+00  9.55249411E+00 -1.91049882E+01  0.00000000E+00  9.55249411E+00
  9.55249411E+00 -1.91049882E+01  0.00000000E+00  9.55249411E+00  9.55249411E+00
 -1.91049882E+01  0.00000000E+00  9.55249411E+00  9.55249411E+00 -1.91049882E+01
  0.00000000E+00  9.55249411E+00  9.55249411E+00 -1.91049882E+01  0.00000000E+00
  9.55249411E+00  9.55249411E+00 -1.91049882E+01  0.00000000E+00  9.55249411E+00
  9.55249411E+00 -1.91049882E+01  0.00000000E+00  9.55249411E+00  9.55249411E+00
 -1.91049882E+01  0.00000000E+00  9.55249411E+00  9.55249411E+00 -1.91049882E+01
  0.00000000E+00  9.55249411E+00  9.55249411E+00 -1.91049882E+01  0.00000000E+00
  9.55249411E+00  9.55249411E+00 -1.91049882E+01  0.00000000E+00  9.55249411E+00
  9.55249411E+00 -1.91049882E+01  0.00000000E+00  9.55249411E+00  9.55249411E+00
 -1.91049882E+01  0.00000000E+00  9.55249411E+00  9.55249411E+00 -1.91049882E+01
  0.00000000E+00  9.55249411E+00  9.55249411E+00 -1.91049882E+01  0.00000000E+00
  9.55249411E+00  9.55249411E+00 -1.91049882E+01  0.00000000E+00  9.55249411E+00
  9.55249411E+00 -1.91049882E+01  0.00000000E+00  9.55249411E+00  9.55249411E+00
 -1.91049882E+01  0.00000000E+00  9.55249411E+00  9.55249411E+00 -1.91049882E+01
  0.00000000E+00  9.55249411E+00  9.55249411E+00 -1.91049882E+01  0.00000000E+00
  9.55249411E+00  9.55249411E+00 -1.91049882E+01  0.00000000E+00  9.55249411E+00
  9.55249411E+00 -1.91049882E+01  0.00000000E+00  9.55249411E+00  9.55249411E+00
 -1.91049882E+01  0.00000000E+00  9.55249411E+00  9.55249411E+00 -1.91049882E+01
  0.00000000E+00  9.55249411E+00  9.55249411E+00 -1.91049882E+01  0.00000000E+00
  9.55249411E+00  9.55249411E+00 -1.91049882E+01  0.00000000E+00  9.55249411E+00
  9.55249411E+00 -1.91049882E+01  0.00000000E+00  9.55249411E+00  9.55249411E+00
 -1.91049882E+01  0.00000000E+00  9.55249411E+00  9.55249411E+00 -1.91049882E+01
  0.00000000E+00  9.55249411E+00  9.55249411E+00 -1.91049882E+01  0.00000000E+00
  9.55249411E+00  9.55249411E+00 -1.91049882E+01  0.00000000E+00  9.55249411E+00
  9.55249411E+00 -1.91049882E+01  0.00000000E+00  9.55249411E+00  9.55249411E+00
 -1.91049882E+01  0.00000000E+00  9.55249411E+00  9.55249411E+00 -1.91049882E+01
  0.00000000E+00  9.55249411E+00  9.55249411E+00 -1.91049882E+01  0.00000000E+00
  9.55249411E+00  9.55249411E+00 -1.91049882E+01  0.00000000E+00  9.55249411E+00
  9.55249411E+00 -1.91049882E+01  0.00000000E+00  9.55249411E+00  9.55249411E+00
 -1.91049882E+01  0.00000000E+00  9.55249411E+00  9.55249411E+00 -1.91049882E+01
  0.00000000E+00  9.55249411E+00  9.55249411E+00 -1.91049882E+01  0.00000000E+00
  9.55249411E+00  9.55249411E+00 -1.91049882E+01  0.00000000E+00  9.55249411E+00
  9.55249411E+00 -1.91049882E+01  0.00000000E+00  9.55249411E+00  9.55249411E+00
 -1.91049882E+01  0.00000000E+00  9.55249411E+00  9.55249411E+00 -1.91049882E+01
  0.00000000E+00  9.55249411E+00  9.55249411E+00 -1.91049882E+01  0.00000000E+00
  9.55249411E+00  9.55249411E+00 -1.91049882E+01  0.00000000E+00  9.55249411E+00
  9.55249411E+00 -1.91049882E+01  0.00000000E+00  9.55249411E+00  9.55249411E+00
 -1.91049882E+01  0.00000000E+00  9.55249411E+00  9.55249411E+00 -1.91049882E+01
  0.00000000E+00  9.55249411E+00  9.55249411E+00 -1.91049882E+01  0.00000000E+00
  9.55249411E+00  9.55249411E+00 -1.91049882E+01  0.00000000E+00  9.55249411E+00
  9.55249411E+00 -1.91049882E+01  0.00000000E+00  9.55249411E+00  9.55249411E+00
 -1.91049882E+01  0.00000000E+00  9.55249411E+00  9.55249411E+00 -1.91049882E+01
  0.00000000E+00  9.55249411E+00  9.55249411E+00 -1.91049882E+01  0.00000000E+00
  9.55249411E+00  9.55249411E+00 -1.91049882E+01  0.00000000E+00  9.55249411E+00
  9.55249411E+00 -1.91049882E+01  0.00000000E+00  9.55249411E+00  9.55249411E+00
 -1.91049882E+01  0.00000000E+00  9.55249411E+00  9.55249411E+00 -1.91049882E+01
  0.00000000E+00  9.55249411E+00  9.55249411E+00 -1.91049882E+01  0.00000000E+00
  9.55249411E+00  9.55249411E+00 -1.91049882E+01  0.00000000E+00  9.55249411E+00
  9.55249411E+00 -1.91049882E+01  0.00000000E+00  9.55249411E+00  9.55249411E+00
 -1.91049882E+01  0.00000000E+00  9.55249411E+00  9.55249411E+00 -1.91049882E+01
  0.00000000E+00  9.55249411E+00  9.55249411E+00 -1.91049882E+01  0.00000000E+00
  9.55249411E+00  9.55249411E+00 -1.91049882E+01  0.00000000E+00  9.55249411E+00
  9.55249411E+00 -1.91049882E+01  0.00000000E+00  9.55249411E+00  9.55249411E+00
 -1.91049882E+01  0.00000000E+00  9.55249411E+00  9.55249411E+00 -1.91049882E+01
  0.00000000E+00  9.55249411E+00  9.55249411E+00 -1.91049882E+01  0.00000000E+00
  9.55249411E+00  9.55249411E+00 -1.91049882E+01  0.00000000E+00  9.55249411E+00
  9.55249411E+00 -1.91049882E+01  0.00000000E+00  9.55249411E+00  9.55249411E+00
 -1.91049882E+01  0.00000000E+00  9.55249411E+00  9.55249411E+00 -1.91049882E+01
  0.00000000E+00  9.55249411E+00  9.55249411E+00 -1.91049882E+01  0.00000000E+00
  9.55249411E+00  9.55249411E+00 -1.91049882E+01  0.00000000E+00  9.55249411E+00
  9.55249411E+00 -1.91049882E+01  0.00000000E+00  9.55249411E+00  9.55249411E+00
 -1.91049882E+01  0.00000000E+00  9.55249411E+00  9.55249411E+00 -1.91049882E+01
  0.00000000E+00  9.55249411E+00  9.55249411E+00 -1.91049882E+01  0.00000000E+00
  9.55249411E+00  9.55249411E+00 -1.91049882E+01  0.00000000E+00  9.55249411E+00
  9.55249411E+00 -1.91049882E+01  0.00000000E+00  9.55249411E+00  9.55249411E+00
 -1.91049882E+01  0.00000000E+00  9.55249411E+00  9.55249411E+00 -1.91049882E+01
  0.00000000E+00  9.55249411E+00  9.55249411E+00 -1.91049882E+01  0.00000000E+00
  9.55249411E+00  9.55249411E+00 -1.91049882E+01  0.00000000E+00  9.55249411E+00
  9.55249411E+00 -1.91049882E+01  0.00000000E+00  9.55249411E+00  9.55249411E+00
 -1.91049882E+01  0.00000000E+00  9.55249411E+00  9.55249411E+00 -1.91049882E+01
  0.00000000E+00  9.55249411E+00  9.55249411E+00 -1.91049882E+01  0.00000000E+00
  9.55249411E+00  9.55249411E+00 -1.91049882E+01  0.00000000E+00  9.55249411E+00
  9.55249411E+00 -1.91049882E+01  0.00000000E+00  9.55249411E+00  9.55249411E+00
 -1.91049882E+01  0.00000000E+00  9.55249411E+00  9.55249411E+00 -1.91049882E+01
  0.00000000E+00  9.55249411E+00  9.55249411E+00 -1.91049882E+01  0.00000000E+00
  9.55249411E+00  9.55249411E+00 -1.91049882E+01  0.00000000E+00  9.55249411E+00
  9.55249411E+00 -1.91049882E+01  0.00000000E+00  9.55249411E+00  9.55249411E+00
 -1.91049882E+01  0.00000000E+00  9.55249411E+00  9.55249411E+00 -1.91049882E+01
  0.00000000E+00  9.55249411E+00  9.55249411E+00 -1.91049882E+01  0.00000000E+00
  9.55249411E+00  9.55249411E+00 -1.91049882E+01  0.00000000E+00  9.55249411E+00
  9.55249411E+00 -1.91049882E+01  0.00000000E+00  9.55249411E+00  9.55249411E+00
 -1.91049882E+01  0.00000000E+00  9.55249411E+00  9.55249411E+00 -1.91049882E+01
  0.00000000E+00  9.55249411E+00  9.55249411E+00 -1.91049882E+01  0.00000000E+00
  9.55249411E+00  9.55249411E+00 -1.91049882E+01  0.00000000E+00  9.55249411E+00
  9.55249411E+00 -1.91049882E+01  0.00000000E+00  9.55249411E+00  9.55249411E+00
 -1.91049882E+01  0.00000000E+00  9.55249411E+00  9.55249411E+00 -1.91049882E+01
  0.00000000E+00  9.55249411E+00  9.55249411E+00 -1.91049882E+01  0.00000000E+00
  9.55249411E+00  9.55249411E+00 -1.91049882E+01  0.00000000E+00  9.55249411E+00
  9.55249411E+00 -1.91049882E+01  0.00000000E+00  9.55249411E+00  9.55249411E+00
 -1.91049882E+01  0.00000000E+00  9.55249411E+00  9.55249411E+00 -1.91049882E+01
  0.00000000E+00  9.55249411E+00  9.55249411E+00 -1.91049882E+01  0.00000000E+00
  9.55249411E+00  9.55249411E+00 -1.91049882E+01  0.00000000E+00  9.55249411E+00
  9.55249411E+00 -1.91049882E+01  0.00000000E+00  9.55249411E+00  9.55249411E+00
 -1.91049882E+01  0.00000000E+00  9.55249411E+00  9.55249411E+00 -1.91049882E+01
  0.00000000E+00  9.55249411E+00  9.55249411E+00 -1.91049882E+01  0.00000000E+00
  9.55249411E+00  9.55249411E+00 -1.91049882E+01  0.00000000E+00  9.55249411E+00
  9.55249411E+00 -1.91049882E+01  0.00000000E+00  9.55249411E+00  9.55249411E+00
 -1.91049882E+01  0.00000000E+00  9.55249411E+00  9.55249411E+00 -1.91049882E+01
  0.00000000E+00  9.55249411E+00  9.55249411E+00 -1.91049882E+01  0.00000000E+00
  9.55249411E+00  9.55249411E+00 -1.91049882E+01  0.00000000E+00  9.55249411E+00
  9.55249411E+00 -1.91049882E+01  0.00000000E+00  9.55249411E+00  9.55249411E+00
 -1.91049882E+01  0.00000000E+00  9.55249411E+00  9.55249411E+00 -1.91049882E+01
  0.00000000E+00  9.55249411E+00  9.55249411E+00 -1.91049882E+01  0.00000000E+00
  9.55249411E+00  9.55249411E+00 -1.91049882E+01  0.00000000E+00  9.55249411E+00
  9.55249411E+00 -1.91049882E+01  0.00000000E+00  9.55249411E+00  9.55249411E+00
 -1.91049882E+01  0.00000000E+00  9.55249411E+00  9.55249411E+00 -1.91049882E+01
  0.00000000E+00  9.55249411E+00  9.55249411E+00 -1.91049882E+01  0.00000000E+00
  9.55249411E+00  9.55249411E+00 -1.91049882E+01  0.00000000E+00  9.55249411E+00
  9.55249411E+00 -1.91049882E+01  0.00000000E+00  9.55249411E+00  9.55249411E+00
 -1.91049882E+01  0.00000000E+00  9.55249411E+00  9.55249411E+00 -1.91049882E+01
  0.00000000E+00  9.55249411E+00  9.55249411E+00 -1.91049882E+01  0.00000000E+00
  9.55249411E+00  9.55249411E+00 -1.91049882E+01  0.00000000E+00  9.55249411E+00
  9.55249411E+00 -1.91049882E+01  0.00000000E+00  9.55249411E+00  9.55249411E+00
 -1.91049882E+01  0.00000000E+00  9.55249411E+00  9.55249411E+00 -1.91049882E+01
  0.00000000E+00  9.55249411E+00  9.55249411E+00 -1.91049882E+01  0.00000000E+00
  9.55249411E+00  9.55249411E+00 -1.91049882E+01  0.00000000E+00  9.55249411E+00
  9.55249411E+00 -1.91049882E+01  0.00000000E+00  9.55249411E+00  9.55249411E+00
 -1.91049882E+01  0.00000000E+00  9.55249411E+00  9.55249411E+00 -1.91049882E+01
  0.00000000E+00  9.55249411E+00  9.55249411E+00 -1.91049882E+01  0.00000000E+00
  9.55249411E+00  9.55249411E+00 -1.91049882E+01  0.00000000E+00  9.55249411E+00
  9.55249411E+00 -1.91049882E+01  0.00000000E+00  9.55249411E+00  9.55249411E+00
 -1.91049882E+01  0.00000000E+00  9.55249411E+00  9.55249411E+00 -1.91049882E+01
  0.00000000E+00  9.55249411E+00  9.55249411E+00 -1.91049882E+01  0.00000000E+00
  9.55249411E+00  9.55249411E+00 -1.91049882E+01  0.00000000E+00  9.55249411E+00
  9.55249411E+00 -1.91049882E+01  0.00000000E+00  9.55249411E+00  9.55249411E+00
 -1.91049882E+01  0.00000000E+00  9.55249411E+00  9.55249411E+00 -1.91049882E+01
  0.00000000E+00  9.55249411E+00  9.55249411E+00 -1.91049882E+01  0.00000000E+00
  9.55249411E+00  9.55249411E+00 -1.91049882E+01  0.00000000E+00  9.55249411E+00
  9.55249411E+00 -1.91049882E+01  0.00000000E+00  9.55249411E+00  9.55249411E+00
 -1.91049882E+01  0.00000000E+00  9.55249411E+00  9.55249411E+00 -1.91049882E+01
  0.00000000E+00  9.55249411E+00  9.55249411E+00 -1.91049882E+01  0.00000000E+00
  9.55249411E+00  9.55249411E+00 -1.91049882E+01  0.00000000E+00  9.55249411E+00
  9.55249411E+00 -1.91049882E+01  0.00000000E+00  9.55249411E+00  9.55249411E+00
 -1.91049882E+01  0.00000000E+00  9.55249411E+00  9.55249411E+00 -1.91049882E+01
  0.00000000E+00  9.55249411E+00  9.55249411E+00 -1.91049882E+01  0.00000000E+00
  9.55249411E+00  9.55249411E+00 -1.91049882E+01  0.00000000E+00  9.55249411E+00
  9.55249411E+00 -1.91049882E+01  0.00000000E+00  9.55249411E+00  9.55249411E+00
 -1.91049882E+01  0.00000000E+00  9.55249411E+00  9.55249411E+00 -1.91049882E+01
  0.00000000E+00  9.55249411E+00  9.55249411E+00 -1.91049882E+01  0.00000000E+00
  9.55249411E+00  9.55249411E+00 -1.91049882E+01  0.00000000E+00  9.55249411E+00
  9.55249411E+00 -1.91049882E+01  0.00000000E+00  9.55249411E+00  9.55249411E+00
 -1.91049882E+01  0.00000000E+00  9.55249411E+00  9.55249411E+00 -1.91049882E+01
  0.00000000E+00  9.55249411E+00  9.55249411E+00 -1.91049882E+01  0.00000000E+00
  9.55249411E+00  9.55249411E+00 -1.91049882E+01  0.00000000E+00  9.55249411E+00
  9.55249411E+00 -1.91049882E+01  0.00000000E+00  9.55249411E+00  9.55249411E+00
 -1.91049882E+01  0.00000000E+00  9.55249411E+00  9.55249411E+00 -1.91049882E+01
  0.00000000E+00  9.55249411E+00  9.55249411E+00 -1.91049882E+01  0.00000000E+00
  9.55249411E+00  9.55249411E+00 -1.91049882E+01  0.00000000E+00  9.55249411E+00
  9.55249411E+00 -1.91049882E+01  0.00000000E+00  9.55249411E+00  9.55249411E+00
 -1.91049882E+01  0.00000000E+00  9.55249411E+00  9.55249411E+00 -1.91049882E+01
  0.00000000E+00  9.55249411E+00  9.55249411E+00 -1.91049882E+01  0.00000000E+00
  9.55249411E+00  9.55249411E+00 -1.91049882E+01  0.00000000E+00  9.55249411E+00
  9.55249411E+00 -1.91049882E+01  0.00000000E+00  9.55249411E+00  9.55249411E+00
 -1.91049882E+01  0.00000000E+00  9.55249411E+00  9.55249411E+00 -1.91049882E+01
  0.00000000E+00  9.55249411E+00  9.55249411E+00 -1.91049882E+01  0.00000000E+00
  9.55249411E+00  9.55249411E+00 -1.91049882E+01  0.00000000E+00  9.55249411E+00
  9.55249411E+00 -1.91049882E+01  0.00000000E+00  9.55249411E+00  9.55249411E+00
 -1.91049882E+01  0.00000000E+00  9.55249411E+00  9.55249411E+00 -1.91049882E+01
  0.00000000E+00  9.55249411E+00  9.55249411E+00 -1.91049882E+01  0.00000000E+00
  9.55249411E+00  9.55249411E+00 -1.91049882E+01  0.00000000E+00  9.55249411E+00
  9.55249411E+00 -1.91049882E+01  0.00000000E+00  9.55249411E+00  9.55249411E+00
 -1.91049882E+01  0.00000000E+00  9.55249411E+00  9.55249411E+00 -1.91049882E+01
  0.00000000E+00  9.55249411E+00  9.55249411E+00 -1.91049882E+01  0.00000000E+00
  9.55249411E+00  9.55249411E+00 -1.91049882E+01  0.00000000E+00  9.55249411E+00
  9.55249411E+00 -1.91049882E+01  0.00000000E+00  9.55249411E+00  9.55249411E+00
 -1.91049882E+01  0.00000000E+00  9.55249411E+00  9.55249411E+00 -1.91049882E+01
  0.00000000E+00  9.55249411E+00  9.55249411E+00 -1.91049882E+01  0.00000000E+00
  9.55249411E+00  9.55249411E+00 -1.91049882E+01  0.00000000E+00  9.55249411E+00
  9.55249411E+00 -1.91049882E+01  0.00000000E+00  9.55249411E+00  9.55249411E+00
 -1.91049882E+01  0.00000000E+00  9.55249411E+00  9.55249411E+00 -1.91049882E+01
  0.00000000E+00  9.55249411E+00  9.55249411E+00 -1.91049882E+01  0.00000000E+00
  9.55249411E+00  9.55249411E+00 -1.91049882E+01  0.00000000E+00  9.55249411E+00
  9.55249411E+00 -1.91049882E+01  0.00000000E+00  9.55249411E+00  9.55249411E+00
 -1.91049882E+01  0.00000000E+00  9.55249411E+00  9.55249411E+00 -1.91049882E+01
  0.00000000E+00  9.55249411E+00  9.55249411E+00 -1.91049882E+01  0.00000000E+00
  9.55249411E+00  9.55249411E+00 -1.91049882E+01  0.00000000E+00  9.55249411E+00
  9.55249411E+00 -1.91049882E+01  0.00000000E+00  9.55249411E+00  9.55249411E+00
 -1.91049882E+01  0.00000000E+00  9.55249411E+00  9.55249411E+00 -1.91049882E+01
  0.00000000E+00  9.55249411E+00  9.55249411E+00 -1.91049882E+01  0.00000000E+00
  9.55249411E+00  9.55249411E+00 -1.91049882E+01  0.00000000E+00  9.55249411E+00
  9.55249411E+00 -1.91049882E+01  0.00000000E+00  9.55249411E+00  9.55249411E+00
 -1.91049882E+01  0.00000000E+00  9.55249411E+00  9.55249411E+00 -1.91049882E+01
  0.00000000E+00  9.55249411E+00  9.55249411E+00 -1.91049882E+01  0.00000000E+00
  9.55249411E+00  9.55249411E+00 -1.91049882E+01  0.00000000E+00  9.55249411E+00
  9.55249411E+00 -1.91049882E+01  0.00000000E+00  9.55249411E+00  9.55249411E+00
 -1.91049882E+01  0.00000000E+00  9.55249411E+00  9.55249411E+00 -1.91049882E+01
  0.00000000E+00  9.55249411E+00  9.55249411E+00 -1.91049882E+01  0.00000000E+00
  9.55249411E+00  9.55249411E+00 -1.91049882E+01  0.00000000E+00  9.55249411E+00
  9.55249411E+00 -1.91049882E+01  0.00000000E+00  9.55249411E+00  9.55249411E+00
 -1.91049882E+01  0.00000000E+00  9.55249411E+00  9.55249411E+00 -1.91049882E+01
  0.00000000E+00  9.55249411E+00  9.55249411E+00 -1.91049882E+01  0.00000000E+00
  9.55249411E+00  9.55249411E+00 -1.91049882E+01  0.00000000E+00  9.55249411E+00
  9.55249411E+00 -1.91049882E+01  0.00000000E+00  9.55249411E+00  9.55249411E+00
 -1.91049882E+01  0.00000000E+00  9.55249411E+00  9.55249411E+00 -1.91049882E+01
  0.00000000E+00  9.55249411E+00  9.55249411E+00 -1.91049882E+01  0.00000000E+00
  9.55249411E+00  9.55249411E+00 -1.91049882E+01  0.00000000E+00  9.55249411E+00
  9.55249411E+00 -1.91049882E+01  0.00000000E+00  9.55249411E+00  9.55249411E+00
 -1.91049882E+01  0.00000000E+00  9.55249411E+00  9.55249411E+00 -1.91049882E+01
  0.00000000E+00  9.55249411E+00  9.55249411E+00 -1.91049882E+01  0.00000000E+00
  9.55249411E+00  9.55249411E+00 -1.91049882E+01  0.00000000E+00  9.55249411E+00
  9.55249411E+00 -1.91049882E+01  0.00000000E+00  9.55249411E+00  9.55249411E+00
 -1.91049882E+01  0.00000000E+00  9.55249411E+00  9.55249411E+00 -1.91049882E+01
  0.00000000E+00  9.55249411E+00  9.55249411E+00 -1.91049882E+01  0.00000000E+00
  9.55249411E+00  9.55249411E+00 -1.91049882E+01  0.00000000E+00  9.55249411E+00
  9.55249411E+00 -1.91049882E+01  0.00000000E+00  9.55249411E+00  9.55249411E+00
 -1.91049882E+01  0.00000000E+00  9.55249411E+00  9.55249411E+00 -1.91049882E+01
  0.00000000E+00  9.55249411E+00  9.55249411E+00 -1.91049882E+01  0.00000000E+00
  9.55249411E+00  9.55249411E+00 -1.91049882E+01  0.00000000E+00  9.55249411E+00
  9.55249411E+00 -1.91049882E+01  0.00000000E+00  9.55249411E+00  9.55249411E+00
 -1.91049882E+01  0.00000000E+00  9.55249411E+00  9.55249411E+00 -1.91049882E+01
  0.00000000E+00  9.55249411E+00  9.55249411E+00 -1.91049882E+01  0.00000000E+00
  9.55249411E+00  9.55249411E+00 -1.91049882E+01  0.00000000E+00  9.55249411E+00
  9.55249411E+00 -1.91049882E+01  0.00000000E+00  9.55249411E+00  9.55249411E+00
 -1.91049882E+01  0.00000000E+00  9.55249411E+00  9.55249411E+00 -1.91049882E+01
  0.00000000E+00  9.55249411E+00  9.55249411E+00 -1.91049882E+01  0.00000000E+00
  9.55249411E+00  9.55249411E+00 -1.91049882E+01  0.00000000E+00  9.55249411E+00
  9.55249411E+00 -1.91049882E+01  0.00000000E+00  9.55249411E+00  9.55249411E+00
 -1.91049882E+01  0.00000000E+00  9.55249411E+00  9.55249411E+00 -1.91049882E+01
  0.00000000E+00  9.55249411E+00  9.55249411E+00 -1.91049882E+01  0.00000000E+00
  9.55249411E+00  9.55249411E+00 -1.91049882E+01  0.00000000E+00  9.55249411E+00
  9.55249411E+00 -1.91049882E+01  0.00000000E+00  9.55249411E+00  9.55249411E+00
 -1.91049882E+01  0.00000000E+00  9.55249411E+00  9.55249411E+00 -1.91049882E+01
  0.00000000E+00  9.55249411E+00  9.55249411E+00 -1.91049882E+01  0.00000000E+00
  9.55249411E+00  9.55249411E+00 -1.91049882E+01  0.00000000E+00  9.55249411E+00
  9.55249411E+00 -1.91049882E+01  0.00000000E+00  9.55249411E+00  9.55249411E+00
 -1.91049882E+01  0.00000000E+00  9.55249411E+00  9.55249411E+00 -1.91049882E+01
  0.00000000E+00  9.55249411E+00  9.55249411E+00 -1.91049882E+01  0.00000000E+00
  9.55249411E+00  9.55249411E+00 -1.91049882E+01  0.00000000E+00  9.55249411E+00
  9.55249411E+00 -1.91049882E+01  0.00000000E+00  9.55249411E+00  9.55249411E+00
 -1.91049882E+01  0.00000000E+00  9.55249411E+00  9.55249411E+00 -1.91049882E+01
  0.00000000E+00  9.55249411E+00  9.55249411E+00 -1.91049882E+01  0.00000000E+00
  9.55249411E+00  9.55249411E+00 -1.91049882E+01  0.00000000E+00  9.55249411E+00
  9.55249411E+00 -1.91049882E+01  0.00000000E+00  9.55249411E+00  9.55249411E+00
 -1.91049882E+01  0.00000000E+00  9.55249411E+00  9.55249411E+00 -1.91049882E+01
  0.00000000E+00  9.55249411E+00  9.55249411E+00 -1.91049882E+01  0.00000000E+00
  9.55249411E+00  9.55249411E+00 -1.91049882E+01  0.00000000E+00  9.55249411E+00
  9.55249411E+00 -1.91049882E+01  0.00000000E+00  9.55249411E+00  9.55249411E+00
 -1.91049882E+01  0.00000000E+00  9.55249411E+00  9.55249411E+00 -1.91049882E+01
  0.00000000E+00  9.55249411E+00  9.55249411E+00 -1.91049882E+01  0.00000000E+00
  9.55249411E+00  9.55249411E+00 -1.91049882E+01  0.00000000E+00  9.55249411E+00
  9.55249411E+00 -1.91049882E+01  0.00000000E+00  9.55249411E+00  9.55249411E+00
 -1.91049882E+01  0.00000000E+00  9.55249411E+00  9.55249411E+00 -1.91049882E+01
  0.00000000E+00  9.55249411E+00  9.55249411E+00 -1.91049882E+01  0.00000000E+00
  9.55249411E+00  9.55249411E+00 -1.91049882E+01  0.00000000E+00  9.55249411E+00
  9.55249411E+00 -1.91049882E+01  0.00000000E+00  9.55249411E+00  9.55249411E+00
 -1.91049882E+01  0.00000000E+00  9.55249411E+00  9.55249411E+00 -1.91049882E+01
  0.00000000E+00  9.55249411E+00  9.55249411E+00 -1.91049882E+01  0.00000000E+00
  9.55249411E+00  9.55249411E+00 -1.91049882E+01  0.00000000E+00  9.55249411E+00
  9.55249411E+00 -1.91049882E+01  0.00000000E+00  9.55249411E+00  9.55249411E+00
 -1.91049882E+01  0.00000000E+00  9.55249411E+00  9.55249411E+00 -1.91049882E+01
  0.00000000E+00  9.55249411E+00  9.55249411E+00 -1.91049882E+01  0.00000000E+00
  9.55249411E+00  9.55249411E+00 -1.91049882E+01  0.00000000E+00  9.55249411E+00
  9.55249411E+00 -1.91049882E+01  0.00000000E+00  9.55249411E+00  9.55249411E+00
 -1.91049882E+01  0.00000000E+00  9.55249411E+00  9.55249411E+00 -1.91049882E+01
  0.00000000E+00  9.55249411E+00  9.55249411E+00 -1.91049882E+01  0.00000000E+00
  9.55249411E+00  9.55249411E+00 -1.91049882E+01  0.00000000E+00  9.55249411E+00
  9.55249411E+00 -1.91049882E+01  0.00000000E+00  9.55249411E+00  9.55249411E+00
 -1.91049882E+01  0.00000000E+00  9.55249411E+00  9.55249411E+00 -1.91049882E+01
  0.00000000E+00  9.55249411E+00  9.55249411E+00 -1.91049882E+01  0.00000000E+00
  9.55249411E+00  9.55249411E+00 -1.91049882E+01  0.00000000E+00  9.55249411E+00
  9.55249411E+00 -1.91049882E+01  0.00000000E+00  9.55249411E+00  9.55249411E+00
 -1.91049882E+01  0.00000000E+00  9.55249411E+00  9.55249411E+00 -1.91049882E+01
  0.00000000E+00  9.55249411E+00  9.55249411E+00 -1.91049882E+01  0.00000000E+00
  9.55249411E+00  9.55249411E+00 -1.91049882E+01  0.00000000E+00  9.55249411E+00
  9.55249411E+00 -1.91049882E+01  0.00000000E+00  9.55249411E+00  9.55249411E+00
 -1.91049882E+01  0.00000000E+00  9.55249411E+00  9.55249411E+00 -1.91049882E+01
  0.00000000E+00  9.55249411E+00  9.55249411E+00 -1.91049882E+01  0.00000000E+00
  9.55249411E+00  9.55249411E+00 -1.91049882E+01  0.00000000E+00  9.55249411E+00
  9.55249411E+00 -1.91049882E+01  0.00000000E+00  9.55249411E+00  9.55249411E+00
 -1.91049882E+01  0.00000000E+00  9.55249411E+00  9.55249411E+00 -1.91049882E+01
  0.00000000E+00  9.55249411E+00  9.55249411E+00 -1.91049882E+01  0.00000000E+00
  9.55249411E+00  9.55249411E+00 -1.91049882E+01  0.00000000E+00  9.55249411E+00
  9.55249411E+00 -1.91049882E+01  0.00000000E+00  9.55249411E+00  9.55249411E+00
 -1.91049882E+01  0.00000000E+00  9.55249411E+00  9.55249411E+00 -1.91049882E+01
  0.00000000E+00  9.55249411E+00  9.55249411E+00 -1.91049882E+01  0.00000000E+00
  9.55249411E+00  9.55249411E+00 -1.91049882E+01  0.00000000E+00  9.55249411E+00
  9.55249411E+00 -1.91049882E+01  0.00000000E+00  9.55249411E+00  9.55249411E+00
 -1.91049882E+01  0.00000000E+00  9.55249411E+00  9.55249411E+00 -1.91049882E+01
  0.00000000E+00  9.55249411E+00  9.55249411E+00 -1.91049882E+01  0.00000000E+00
  9.55249411E+00  9.55249411E+00 -1.91049882E+01  0.00000000E+00  9.55249411E+00
  9.55249411E+00 -1.91049882E+01  0.00000000E+00  9.55249411E+00  9.55249411E+00
 -1.91049882E+01  0.00000000E+00  9.55249411E+00  9.55249411E+00 -1.91049882E+01
  0.00000000E+00  9.55249411E+00  9.55249411E+00 -1.91049882E+01  0.00000000E+00
  9.55249411E+00  9.55249411E+00 -1.91049882E+01  0.00000000E+00  9.55249411E+00
  9.55249411E+00 -1.91049882E+01  0.00000000E+00  9.55249411E+00  9.55249411E+00
 -1.91049882E+01  0.00000000E+00  9.55249411E+00  9.55249411E+00 -1.91049882E+01
  0.00000000E+00  9.55249411E+00  9.55249411E+00 -1.91049882E+01  0.00000000E+00
  9.55249411E+00  9.55249411E+00 -1.91049882E+01  0.00000000E+00  9.55249411E+00
  9.55249411E+00 -1.91049882E+01  0.00000000E+00  9.55249411E+00  9.55249411E+00
 -1.91049882E+01  0.00000000E+00  9.55249411E+00  9.55249411E+00 -1.91049882E+01
  0.00000000E+00  9.55249411E+00  9.55249411E+00 -1.91049882E+01  0.00000000E+00
  9.55249411E+00  9.55249411E+00 -1.91049882E+01  0.00000000E+00  9.55249411E+00
  9.55249411E+00 -1.91049882E+01  0.00000000E+00  9.55249411E+00  9.55249411E+00
 -1.91049882E+01  0.00000000E+00  9.55249411E+00  9.55249411E+00 -1.91049882E+01
  0.00000000E+00  9.55249411E+00  9.55249411E+00 -1.91049882E+01  0.00000000E+00
  9.55249411E+00  9.55249411E+00 -1.91049882E+01  0.00000000E+00  9.55249411E+00
  9.55249411E+00 -1.91049882E+01  0.00000000E+00  9.55249411E+00  9.55249411E+00
 -1.91049882E+01  0.00000000E+00  9.55249411E+00  9.55249411E+00 -1.91049882E+01
  0.00000000E+00  9.55249411E+00  9.55249411E+00 -1.91049882E+01  0.00000000E+00
  9.55249411E+00  9.55249411E+00 -1.91049882E+01  0.00000000E+00  9.55249411E+00
  9.55249411E+00 -1.91049882E+01  0.00000000E+00  9.55249411E+00  9.55249411E+00
 -1.91049882E+01  0.00000000E+00  9.55249411E+00  9.55249411E+00 -1.91049882E+01
  0.00000000E+00  9.55249411E+00  9.55249411E+00 -1.91049882E+01  0.00000000E+00
  9.55249411E+00  9.55249411E+00 -1.91049882E+01  0.00000000E+00  9.55249411E+00
  9.55249411E+00 -1.91049882E+01  0.00000000E+00  9.55249411E+00  9.55249411E+00
 -1.91049882E+01  0.00000000E+00  9.55249411E+00  9.55249411E+00 -1.91049882E+01
  0.00000000E+00  9.55249411E+00  9.55249411E+00 -1.91049882E+01  0.00000000E+00
  9.55249411E+00  9.55249411E+00 -1.91049882E+01  0.00000000E+00  9.55249411E+00
  9.55249411E+00 -1.91049882E+01  0.00000000E+00  9.55249411E+00  9.55249411E+00
 -1.91049882E+01  0.00000000E+00  9.55249411E+00  9.55249411E+00 -1.91049882E+01
  0.00000000E+00  9.55249411E+00  9.55249411E+00 -1.91049882E+01  0.00000000E+00
  9.55249411E+00  9.55249411E+00 -1.91049882E+01  0.00000000E+00  9.55249411E+00
  9.55249411E+00 -1.91049882E+01  0.00000000E+00  9.55249411E+00  9.55249411E+00
 -1.91049882E+01  0.00000000E+00  9.55249411E+00  9.55249411E+00 -1.91049882E+01
  0.00000000E+00  9.55249411E+00  9.55249411E+00 -1.91049882E+01  0.00000000E+00
  9.55249411E+00  9.55249411E+00 -1.91049882E+01  0.00000000E+00  9.55249411E+00
  9.55249411E+00 -1.91049882E+01  0.00000000E+00  9.55249411E+00  9.55249411E+00
 -1.91049882E+01  0.00000000E+00  9.55249411E+00  9.55249411E+00 -1.91049882E+01
  0.00000000E+00  9.55249411E+00  9.55249411E+00 -1.91049882E+01  0.00000000E+00
  9.55249411E+00  9.55249411E+00 -1.91049882E+01  0.00000000E+00  9.55249411E+00
  9.55249411E+00 -1.91049882E+01  0.00000000E+00  9.55249411E+00  9.55249411E+00
 -1.91049882E+01  0.00000000E+00  9.55249411E+00  9.55249411E+00 -1.91049882E+01
  0.00000000E+00  9.55249411E+00  9.55249411E+00 -1.91049882E+01  0.00000000E+00
  9.55249411E+00  9.55249411E+00 -1.91049882E+01  0.00000000E+00  9.55249411E+00
  9.55249411E+00 -1.91049882E+01  0.00000000E+00  9.55249411E+00  9.55249411E+00
 -1.91049882E+01  0.00000000E+00  9.55249411E+00  9.55249411E+00 -1.91049882E+01
  0.00000000E+00  9.55249411E+00  9.55249411E+00 -1.91049882E+01  0.00000000E+00
  9.55249411E+00  9.55249411E+00 -1.91049882E+01  0.00000000E+00  9.55249411E+00
  9.55249411E+00 -1.91049882E+01  0.00000000E+00  9.55249411E+00  9.55249411E+00
 -1.91049882E+01  0.00000000E+00  9.55249411E+00  9.55249411E+00 -1.91049882E+01
  0.00000000E+00  9.55249411E+00  9.55249411E+00 -1.91049882E+01  0.00000000E+00
  9.55249411E+00  9.55249411E+00 -1.91049882E+01  0.00000000E+00  9.55249411E+00
  9.55249411E+00 -1.91049882E+01  0.00000000E+00  9.55249411E+00  9.55249411E+00
 -1.91049882E+01  0.00000000E+00  9.55249411E+00  9.55249411E+00 -1.91049882E+01
  0.00000000E+00  9.55249411E+00  9.55249411E+00 -1.91049882E+01  0.00000000E+00
  9.55249411E+00  9.55249411E+00 -1.91049882E+01  0.00000000E+00  9.55249411E+00
  9.55249411E+00 -1.91049882E+01  0.00000000E+00  9.55249411E+00  9.55249411E+00
 -1.91049882E+01  0.00000000E+00  9.55249411E+00  9.55249411E+00 -1.91049882E+01
  0.00000000E+00  9.55249411E+00  9.55249411E+00 -1.91049882E+01  0.00000000E+00
  9.55249411E+00  9.55249411E+00 -1.91049882E+01  0.00000000E+00  9.55249411E+00
  9.55249411E+00 -1.91049882E+01  0.00000000E+00  9.55249411E+00  9.55249411E+00
 -1.91049882E+01  0.00000000E+00  9.55249411E+00  9.55249411E+00 -1.91049882E+01
  0.00000000E+00  9.55249411E+00  9.55249411E+00 -1.91049882E+01  0.00000000E+00
  9.55249411E+00  9.55249411E+00 -1.91049882E+01  0.00000000E+00  9.55249411E+00
  9.55249411E+00 -1.91049882E+01  0.00000000E+00  9.55249411E+00  9.55249411E+00
 -1.91049882E+01  0.00000000E+00  9.55249411E+00  9.55249411E+00 -1.91049882E+01
  0.00000000E+00  9.55249411E+00  9.55249411E+00 -1.91049882E+01  0.00000000E+00
  9.55249411E+00  9.55249411E+00 -1.91049882E+01  0.00000000E+00  9.55249411E+00
  9.55249411E+00 -1.91049882E+01  0.00000000E+00  9.55249411E+00  9.55249411E+00
 -1.91049882E+01  0.00000000E+00  9.55249411E+00  9.55249411E+00 -1.91049882E+01
  0.00000000E+00  9.55249411E+00  9.55249411E+00 -1.91049882E+01  0.00000000E+00
  9.55249411E+00  9.55249411E+00 -1.91049882E+01  0.00000000E+00  9.55249411E+00
  9.55249411E+00 -1.91049882E+01  0.00000000E+00  9.55249411E+00  9.55249411E+00
 -1.91049882E+01  0.00000000E+00  9.55249411E+00  9.55249411E+00 -1.91049882E+01
  0.00000000E+00  9.55249411E+00  9.55249411E+00 -1.91049882E+01  0.00000000E+00
  9.55249411E+00  9.55249411E+00 -1.91049882E+01  0.00000000E+00  9.55249411E+00
  9.55249411E+00 -1.91049882E+01  0.00000000E+00  9.55249411E+00  9.55249411E+00
 -1.91049882E+01  0.00000000E+00  9.55249411E+00  9.55249411E+00 -1.91049882E+01
  0.00000000E+00  9.55249411E+00  9.55249411E+00 -1.91049882E+01  0.00000000E+00
  9.55249411E+00  9.55249411E+00 -1.91049882E+01  0.00000000E+00  9.55249411E+00
  9.55249411E+00 -1.91049882E+01  0.00000000E+00  9.55249411E+00  9.55249411E+00
 -1.91049882E+01  0.00000000E+00  9.55249411E+00  9.55249411E+00 -1.91049882E+01
  0.00000000E+00  9.55249411E+00  9.55249411E+00 -1.91049882E+01  0.00000000E+00
  9.55249411E+00  9.55249411E+00 -1.91049882E+01  0.00000000E+00  9.55249411E+00
  9.55249411E+00 -1.91049882E+01  0.00000000E+00  9.55249411E+00  9.55249411E+00
 -1.91049882E+01  0.00000000E+00  9.55249411E+00  9.55249411E+00 -1.91049882E+01
  0.00000000E+00  9.55249411E+00  9.55249411E+00 -1.91049882E+01  0.00000000E+00
  9.55249411E+00  9.55249411E+00 -1.91049882E+01  0.00000000E+00  9.55249411E+00
  9.55249411E+00 -1.91049882E+01  0.00000000E+00  9.55249411E+00  9.55249411E+00
 -1.91049882E+01  0.00000000E+00  9.55249411E+00  9.55249411E+00 -1.91049882E+01
  0.00000000E+00  9.55249411E+00  9.55249411E+00 -1.91049882E+01
%FLAG ATOMIC_NUMBER                                                             
%FORMAT(10I8)                                                                   
       1       8       6       1       1       6       1       8       6       1
       7       6       1       7       6       6       7       1       1       7
       6       1       7       6       6       1       6       1       8       1
       8      15       8       8       8       6       1       1       6       1
       8       6       1       7       6       1       7       6       6       8
       7       1       6       7       1       1       7       6       6       1
       6       1       8       1       8      15       8       8       8       6
       1       1       6       1       8       6       1       7       6       1
       6       1       6       7       1       1       7       6       8       6
       1       6       1       8       1       8      15       8       8       8
       6       1       1       6       1       8       6       1       7       6
       1       7       6       6       8       7       1       6       7       1
       1       7       6       6       1       6       1       8       1       8
      15       8       8       8       6       1       1       6       1       8
       6       1       7       6       1       6       1       6       7       1
       1       7       6       8       6       1       6       1       8       1
       8      15       8       8       8       6       1       1       6       1
       8       6       1       7       6       1       6       1       6       8
       7       1       6       8       6       1       6       1       8       1
       8      15       8       8       8       6       1       1       6       1
       8       6       1       7       6       1       6       1       6       8
       7       1       6       8       6       1       6       1       8       1
       8      15       8       8       8       6       1       1       6       1
       8       6       1       7       6       1       6       1       6       8
       7       1       6       8       6       1       6       1       8       1
       8      15       8       8       8       6       1       1       6       1
       8       6       1       7       6       1       6       1       6       7
       1       1       7       6       8       6       1       6       1       8
       1       8      15       8       8       8       6       1       1       6
       1       8       6       1       7       6       1       7       6       6
       8       7       1       6       7       1       1       7       6       6
       1       6       1       8       1       8      15       8       8       8
       6       1       1       6       1       8       6       1       7       6
       1       7       6       6       7       1       1       7       6       1
       7       6       6       1       6       1       8       1       8      15
       8       8       8       6       1       1       6       1       8       6
       1       7       6       1       7       6       6       8       7       1
       6       7       1       1       7       6       6       1       6       1
       8       1       8      15       8       8       8       6       1       1
       6       1       8       6       1       7       6       1       6       1
       6       7       1       1       7       6       8       6       1       6
       1       8       1       8      15       8       8       8       6       1
       1       6       1       8       6       1       7       6       1       7
       6       6       8       7       1       6       7       1       1       7
       6       6       1       6       1       8       1       8      15       8
       8       8       6       1       1       6       1       8       6       1
       7       6       1       6       1       6       7       1       1       7
       6       8       6       1       6       1       8       1       8      15
       8       8       8       6       1       1       6       1       8       6
       1       7       6       1       6       1       6       8       7       1
       6       8       6       1       6       1       8       1       8       1
      12      12      12      12      12      12      12      12      12      12
      17      17      17      17      17      17      17      17      17      17
       8       1       1       0       8       1       1       0       8       1
       1       0       8       1       1       0       8       1       1       0
       8       1       1       0       8       1       1       0       8       1
       1       0       8       1       1       0       8       1       1       0
       8       1       1       0       8       1       1       0       8       1
       1       0       8       1       1       0       8       1       1       0
       8       1       1       0       8       1       1       0       8       1
       1       0       8       1       1       0       8       1       1       0
       8       1       1       0       8       1       1       0       8       1
       1       0       8       1       1       0       8       1       1       0
       8       1       1       0       8       1       1       0       8       1
       1       0       8       1       1       0       8       1       1       0
       8       1       1       0       8       1       1       0       8       1
       1       0       8       1       1       0       8       1       1       0
       8       1       1       0       8       1       1       0       8       1
       1       0       8       1       1       0       8       1       1       0
       8       1       1       0       8       1       1       0       8       1
       1       0       8       1       1       0       8       1       1       0
       8       1       1       0       8       1       1       0       8       1
       1       0       8       1       1       0       8       1       1       0
       8       1       1       0       8       1       1       0       8       1
       1       0       8       1       1       0       8       1       1       0
       8       1       1       0       8       1       1       0       8       1
       1       0       8       1       1       0       8       1       1       0
       8       1       1       0       8       1       1       0       8       1
       1       0       8       1       1       0       8       1       1       0
       8       1       1       0       8       1       1       0       8       1
       1       0       8       1       1       0       8       1       1       0
       8       1       1       0       8       1       1       0       8       1
       1       0       8       1       1       0       8       1       1       0
       8       1       1       0       8       1       1       0       8       1
       1       0       8       1       1       0       8       1       1       0
       8       1       1       0       8       1       1       0       8       1
       1       0       8       1       1       0       8       1       1       0
       8       1       1       0       8       1       1       0       8       1
       1       0       8       1       1       0       8       1       1       0
       8       1       1       0       8       1       1       0       8       1
       1       0       8       1       1       0       8       1       1       0
       8       1       1       0       8       1       1       0       8       1
       1       0       8       1       1       0       8       1       1       0
       8       1       1       0       8       1       1       0       8       1
       1       0       8       1       1       0       8       1       1       0
       8       1       1       0       8       1       1       0       8       1
       1       0       8       1       1       0       8       1       1       0
       8       1       1       0       8       1       1       0       8       1
       1       0       8       1       1       0       8       1       1       0
       8       1       1       0       8       1       1       0       8       1
       1       0       8       1       1       0       8       1       1       0
       8       1       1       0       8       1       1       0       8       1
       1       0       8       1       1       0       8       1       1       0
       8       1       1       0       8       1       1       0       8       1
       1       0       8       1       1       0       8       1       1       0
       8       1       1       0       8       1       1       0       8       1
       1       0       8       1       1       0       8       1       1       0
       8       1       1       0       8       1       1       0       8       1
       1       0       8       1       1       0       8       1       1       0
       8       1       1       0       8       1       1       0       8       1
       1       0       8       1       1       0       8       1       1       0
       8       1       1       0       8       1       1       0       8       1
       1       0       8       1       1       0       8       1       1       0
       8       1       1       0       8       1       1       0       8       1
       1       0       8       1       1       0       8       1       1       0
       8       1       1       0       8       1       1       0       8       1
       1       0       8       1       1       0       8       1       1       0
       8       1       1       0       8       1       1       0       8       1
       1       0       8       1       1       0       8       1       1       0
       8       1       1       0       8       1       1       0       8       1
       1       0       8       1       1       0       8       1       1       0
       8       1       1       0       8       1       1       0       8       1
       1       0       8       1       1       0       8       1       1       0
       8       1       1       0       8       1       1       0       8       1
       1       0       8       1       1       0       8       1       1       0
       8       1       1       0       8       1       1       0       8       1
       1       0       8       1       1       0       8       1       1       0
       8       1       1       0       8       1       1       0       8       1
       1       0       8       1       1       0       8       1       1       0
       8       1       1       0       8       1       1       0       8       1
       1       0       8       1       1       0       8       1       1       0
       8       1       1       0       8       1       1       0       8       1
       1       0       8       1       1       0       8       1       1       0
       8       1       1       0       8       1       1       0       8       1
       1       0       8       1       1       0       8       1       1       0
       8       1       1       0       8       1       1       0       8       1
       1       0       8       1       1       0       8       1       1       0
       8       1       1       0       8       1       1       0       8       1
       1       0       8       1       1       0       8       1       1       0
       8       1       1       0       8       1       1       0       8       1
       1       0       8       1       1       0       8       1       1       0
       8       1       1       0       8       1       1       0       8       1
       1       0       8       1       1       0       8       1       1       0
       8       1       1       0       8       1       1       0       8       1
       1       0       8       1       1       0       8       1       1       0
       8       1       1       0       8       1       1       0       8       1
       1       0       8       1       1       0       8       1       1       0
       8       1       1       0       8       1       1       0       8       1
       1       0       8       1       1       0       8       1       1       0
       8       1       1       0       8       1       1       0       8       1
       1       0       8       1       1       0       8       1       1       0
       8       1       1       0       8       1       1       0       8       1
       1       0       8       1       1       0       8       1       1       0
       8       1       1       0       8       1       1       0       8       1
       1       0       8       1       1       0       8       1       1       0
       8       1       1       0       8       1       1       0       8       1
       1       0       8       1       1       0       8       1       1       0
       8       1       1       0       8       1       1       0       8       1
       1       0       8       1       1       0       8       1       1       0
       8       1       1       0       8       1       1       0       8       1
       1       0       8       1       1       0       8       1       1       0
       8       1       1       0       8       1       1       0       8       1
       1       0       8       1       1       0       8       1       1       0
       8       1       1       0       8       1       1       0       8       1
       1       0       8       1       1       0       8       1       1       0
       8       1       1       0       8       1       1       0       8       1
       1       0       8       1       1       0       8       1       1       0
       8       1       1       0       8       1       1       0       8       1
       1       0       8       1       1       0       8       1       1       0
       8       1       1       0       8       1       1       0       8       1
       1       0       8       1       1       0       8       1       1       0
       8       1       1       0       8       1       1       0       8       1
       1       0       8       1       1       0       8       1       1       0
       8       1       1       0       8       1       1       0       8       1
       1       0       8       1       1       0       8       1       1       0
       8       1       1       0       8       1       1       0       8       1
       1       0       8       1       1       0       8       1       1       0
       8       1       1       0       8       1       1       0       8       1
       1       0       8       1       1       0       8       1       1       0
       8       1       1       0       8       1       1       0       8       1
       1       0       8       1       1       0       8       1       1       0
       8       1       1       0       8       1       1       0       8       1
       1       0       8       1       1       0       8       1       1       0
       8       1       1       0       8       1       1       0       8       1
       1       0       8       1       1       0       8       1       1       0
       8       1       1       0       8       1       1       0       8       1
       1       0       8       1       1       0       8       1       1       0
       8       1       1       0       8       1       1       0       8       1
       1       0       8       1       1       0       8       1       1       0
       8       1       1       0       8       1       1       0       8       1
       1       0       8       1       1       0       8       1       1       0
       8       1       1       0       8       1       1       0       8       1
       1       0       8       1       1       0       8       1       1       0
       8       1       1       0       8       1       1       0       8       1
       1       0       8       1       1       0       8       1       1       0
       8       1       1       0       8       1       1       0       8       1
       1       0       8       1       1       0       8       1       1       0
       8       1       1       0       8       1       1       0       8       1
       1       0       8       1       1       0       8       1       1       0
       8       1       1       0       8       1       1       0       8       1
       1       0       8       1       1       0       8       1       1       0
       8       1       1       0       8       1       1       0       8       1
       1       0       8       1       1       0       8       1       1       0
       8       1       1       0       8       1       1       0       8       1
       1       0       8       1       1       0       8       1       1       0
       8       1       1       0       8       1       1       0       8       1
       1       0       8       1       1       0       8       1       1       0
       8       1       1       0       8       1       1       0       8       1
       1       0       8       1       1       0       8       1       1       0
       8       1       1       0       8       1       1       0       8       1
       1       0       8       1       1       0       8       1       1       0
       8       1       1       0       8       1       1       0       8       1
       1       0       8       1       1       0       8       1       1       0
       8       1       1       0       8       1       1       0       8       1
       1       0       8       1       1       0       8       1       1       0
       8       1       1       0       8       1       1       0       8       1
       1       0       8       1       1       0       8       1       1       0
       8       1       1       0       8       1       1       0       8       1
       1       0       8       1       1       0       8       1       1       0
       8       1       1       0       8       1       1       0       8       1
       1       0       8       1       1       0       8       1       1       0
       8       1       1       0       8       1       1       0       8       1
       1       0       8       1       1       0       8       1       1       0
       8       1       1       0       8       1       1       0       8       1
       1       0       8       1       1       0       8       1       1       0
       8       1       1       0       8       1       1       0       8       1
       1       0       8       1       1       0       8       1       1       0
       8       1       1       0       8       1       1       0       8       1
       1       0       8       1       1       0       8       1       1       0
       8       1       1       0       8       1       1       0       8       1
       1       0       8       1       1       0       8       1       1       0
       8       1       1       0       8       1       1       0       8       1
       1       0       8       1       1       0       8       1       1       0
       8       1       1       0       8       1       1       0       8       1
       1       0       8       1       1       0       8       1       1       0
       8       1       1       0       8       1       1       0       8       1
       1       0       8       1       1       0       8       1       1       0
       8       1       1       0       8       1       1       0       8       1
       1       0       8       1       1       0       8       1       1       0
       8       1       1       0       8       1       1       0       8       1
       1       0       8       1       1       0       8       1       1       0
       8       1       1       0       8       1       1       0       8       1
       1       0       8       1       1       0       8       1       1       0
       8       1       1       0       8       1       1       0       8       1
       1       0       8       1       1       0       8       1       1       0
       8       1       1       0       8       1       1       0       8       1
       1       0       8       1       1       0       8       1       1       0
       8       1       1       0       8       1       1       0       8       1
       1       0       8       1       1       0       8       1       1       0
       8       1       1       0       8       1       1       0       8       1
       1       0       8       1       1       0       8       1       1       0
       8       1       1       0       8       1       1       0       8       1
       1       0       8       1       1       0       8       1       1       0
       8       1       1       0       8       1       1       0       8       1
       1       0       8       1       1       0       8       1       1       0
       8       1       1       0       8       1       1       0       8       1
       1       0       8       1       1       0       8       1       1       0
       8       1       1       0       8       1       1       0       8       1
       1       0       8       1       1       0       8       1       1       0
       8       1       1       0       8       1       1       0       8       1
       1       0       8       1       1       0       8       1       1       0
       8       1       1       0       8       1       1       0       8       1
       1       0       8       1       1       0       8       1       1       0
       8       1       1       0       8       1       1       0       8       1
       1       0       8       1       1       0       8       1       1       0
       8       1       1       0       8       1       1       0       8       1
       1       0       8       1       1       0       8       1       1       0
       8       1       1       0       8       1       1       0       8       1
       1       0       8       1       1       0       8       1       1       0
       8       1       1       0       8       1       1       0       8       1
       1       0       8       1       1       0       8       1       1       0
       8       1       1       0       8       1       1       0       8       1
       1       0       8       1       1       0       8       1       1       0
       8       1       1       0       8       1       1       0       8       1
       1       0       8       1       1       0       8       1       1       0
       8       1       1       0       8       1       1       0       8       1
       1       0       8       1       1       0       8       1       1       0
       8       1       1       0       8       1       1       0       8       1
       1       0       8       1       1       0       8       1       1       0
       8       1       1       0       8       1       1       0       8       1
       1       0       8       1       1       0       8       1       1       0
       8       1       1       0       8       1       1       0       8       1
       1       0       8       1       1       0       8       1       1       0
       8       1       1       0       8       1       1       0       8       1
       1       0       8       1       1       0       8       1       1       0
       8       1       1       0       8       1       1       0       8       1
       1       0       8       1       1       0       8       1       1       0
       8       1       1       0       8       1       1       0       8       1
       1       0       8       1       1       0       8       1       1       0
       8       1       1       0       8       1       1       0       8       1
       1       0       8       1       1       0       8       1       1       0
       8       1       1       0       8       1       1       0       8       1
       1       0       8       1       1       0       8       1       1       0
       8       1       1       0       8       1       1       0       8       1
       1       0       8       1       1       0       8       1       1       0
       8       1       1       0       8       1       1       0       8       1
       1       0       8       1       1       0       8       1       1       0
       8       1       1       0       8       1       1       0       8       1
       1       0       8       1       1       0       8       1       1       0
       8       1       1       0       8       1       1       0       8       1
       1       0       8       1       1       0       8       1       1       0
       8       1       1       0       8       1       1       0       8       1
       1       0       8       1       1       0       8       1       1       0
       8       1       1       0       8       1       1       0       8       1
       1       0       8       1       1       0       8       1       1       0
       8       1       1       0       8       1       1       0       8       1
       1       0       8       1       1       0       8       1       1       0
       8       1       1       0       8       1       1       0       8       1
       1       0       8       1       1       0       8       1       1       0
       8       1       1       0       8       1       1       0       8       1
       1       0       8       1       1       0       8       1       1       0
       8       1       1       0       8       1       1       0       8       1
       1       0       8       1       1       0       8       1       1       0
       8       1       1       0       8       1       1       0       8       1
       1       0       8       1       1       0       8       1       1       0
       8       1       1       0       8       1       1       0       8       1
       1       0       8       1       1       0       8       1       1       0
       8       1       1       0       8       1       1       0       8       1
       1       0       8       1       1       0       8       1       1       0
       8       1       1       0       8       1       1       0       8       1
       1       0       8       1       1       0       8       1       1       0
       8       1       1       0       8       1       1       0       8       1
       1       0       8       1       1       0       8       1       1       0
       8       1       1       0       8       1       1       0       8       1
       1       0       8       1       1       0       8       1       1       0
       8       1       1       0       8       1       1       0       8       1
       1       0       8       1       1       0       8       1       1       0
       8       1       1       0       8       1       1       0       8       1
       1       0       8       1       1       0       8       1       1       0
       8       1       1       0       8       1       1       0       8       1
       1       0       8       1       1       0       8       1       1       0
       8       1       1       0       8       1       1       0       8       1
       1       0       8       1       1       0       8       1       1       0
       8       1       1       0       8       1       1       0       8       1
       1       0       8       1       1       0       8       1       1       0
       8       1       1       0       8       1       1       0       8       1
       1       0       8       1       1       0       8       1       1       0
       8       1       1       0       8       1       1       0       8       1
       1       0       8       1       1       0       8       1       1       0
       8       1       1       0       8       1       1       0       8       1
       1       0       8       1       1       0       8       1       1       0
       8       1       1       0       8       1       1       0       8       1
       1       0       8       1       1       0       8       1       1       0
       8       1       1       0       8       1       1       0       8       1
       1       0       8       1       1       0       8       1       1       0
       8       1       1       0       8       1       1       0       8       1
       1       0       8       1       1       0       8       1       1       0
       8       1       1       0       8       1       1       0       8       1
       1       0       8       1       1       0       8       1       1       0
       8       1       1       0       8       1       1       0       8       1
       1       0       8       1       1       0       8       1       1       0
       8       1       1       0       8       1       1       0       8       1
       1       0       8       1       1       0       8       1       1       0
       8       1       1       0       8       1       1       0       8       1
       1       0       8       1       1       0       8       1       1       0
       8       1       1       0       8       1       1       0       8       1
       1       0       8       1       1       0       8       1       1       0
       8       1       1       0       8       1       1       0       8       1
       1       0       8       1       1       0       8       1       1       0
       8       1       1       0       8       1       1       0       8       1
       1       0       8       1       1       0       8       1       1       0
       8       1       1       0       8       1       1       0       8       1
       1       0       8       1       1       0       8       1       1       0
       8       1       1       0       8       1       1       0       8       1
       1       0       8       1       1       0       8       1       1       0
       8       1       1       0       8       1       1       0       8       1
       1       0       8       1       1       0       8       1       1       0
       8       1       1       0       8       1       1       0       8       1
       1       0       8       1       1       0       8       1       1       0
       8       1       1       0       8       1       1       0       8       1
       1       0       8       1       1       0       8       1       1       0
       8       1       1       0       8       1       1       0       8       1
       1       0       8       1       1       0       8       1       1       0
       8       1       1       0       8       1       1       0       8       1
       1       0       8       1       1       0       8       1       1       0
       8       1       1       0       8       1       1       0       8       1
       1       0       8       1       1       0       8       1       1       0
       8       1       1       0       8       1       1       0       8       1
       1       0       8       1       1       0       8       1       1       0
       8       1       1       0       8       1       1       0       8       1
       1       0       8       1       1       0       8       1       1       0
       8       1       1       0       8       1       1       0       8       1
       1       0       8       1       1       0       8       1       1       0
       8       1       1       0       8       1       1       0       8       1
       1       0       8       1       1       0       8       1       1       0
       8       1       1       0       8       1       1       0       8       1
       1       0       8       1       1       0       8       1       1       0
       8       1       1       0       8       1       1       0       8       1
       1       0       8       1       1       0       8       1       1       0
       8       1       1       0       8       1       1       0       8       1
       1       0       8       1       1       0       8       1       1       0
       8       1       1       0       8       1       1       0       8       1
       1       0       8       1       1       0       8       1       1       0
       8       1       1       0       8       1       1       0       8       1
       1       0       8       1       1       0       8       1       1       0
       8       1       1       0       8       1       1       0       8       1
       1       0       8       1       1       0       8       1       1       0
       8       1       1       0       8       1       1       0       8       1
       1       0       8       1       1       0       8       1       1       0
       8       1       1       0       8       1       1       0       8       1
       1       0       8       1       1       0       8       1       1       0
       8       1       1       0       8       1       1       0       8       1
       1       0       8       1       1       0       8       1       1       0
       8       1       1       0       8       1       1       0       8       1
       1       0       8       1       1       0       8       1       1       0
       8       1       1       0       8       1       1       0       8       1
       1       0       8       1       1       0       8       1       1       0
       8       1       1       0       8       1       1       0       8       1
       1       0       8       1       1       0       8       1       1       0
       8       1       1       0       8       1       1       0       8       1
       1       0       8       1       1       0       8       1       1       0
       8       1       1       0       8       1       1       0       8       1
       1       0       8       1       1       0       8       1       1       0
       8       1       1       0       8       1       1       0       8       1
       1       0       8       1       1       0       8       1       1       0
       8       1       1       0       8       1       1       0       8       1
       1       0       8       1       1       0       8       1       1       0
       8       1       1       0       8       1       1       0       8       1
       1       0       8       1       1       0       8       1       1       0
       8       1       1       0       8       1       1       0       8       1
       1       0       8       1       1       0       8       1       1       0
       8       1       1       0       8       1       1       0       8       1
       1       0       8       1       1       0       8       1       1       0
       8       1       1       0       8       1       1       0       8       1
       1       0       8       1       1       0       8       1       1       0
       8       1       1       0       8       1       1       0       8       1
       1       0       8       1       1       0       8       1       1       0
       8       1       1       0       8       1       1       0       8       1
       1       0       8       1       1       0       8       1       1       0
       8       1       1       0       8       1       1       0       8       1
       1       0       8       1       1       0       8       1       1       0
       8       1       1       0       8       1       1       0       8       1
       1       0       8       1       1       0       8       1       1       0
       8       1       1       0       8       1       1       0       8       1
       1       0       8       1       1       0       8       1       1       0
       8       1       1       0       8       1       1       0       8       1
       1       0       8       1       1       0       8       1       1       0
       8       1       1       0       8       1       1       0       8       1
       1       0       8       1       1       0       8       1       1       0
       8       1       1       0       8       1       1       0       8       1
       1       0       8       1       1       0       8       1       1       0
       8       1       1       0       8       1       1       0       8       1
       1       0       8       1       1       0       8       1       1       0
       8       1       1       0       8       1       1       0       8       1
       1       0       8       1       1       0       8       1       1       0
       8       1       1       0       8       1       1       0       8       1
       1       0       8       1       1       0       8       1       1       0
       8       1       1       0       8       1       1       0       8       1
       1       0       8       1       1       0       8       1       1       0
       8       1       1       0       8       1       1       0       8       1
       1       0       8       1       1       0       8       1       1       0
       8       1       1       0       8       1       1       0       8       1
       1       0       8       1       1       0       8       1       1       0
       8       1       1       0       8       1       1       0       8       1
       1       0       8       1       1       0       8       1       1       0
       8       1       1       0       8       1       1       0       8       1
       1       0       8       1       1       0       8       1       1       0
       8       1       1       0       8       1       1       0       8       1
       1       0       8       1       1       0       8       1       1       0
       8       1       1       0       8       1       1       0       8       1
       1       0       8       1       1       0       8       1       1       0
       8       1       1       0       8       1       1       0       8       1
       1       0       8       1       1       0       8       1       1       0
       8       1       1       0       8       1       1       0       8       1
       1       0       8       1       1       0       8       1       1       0
       8       1       1       0       8       1       1       0       8       1
       1       0       8       1       1       0       8       1       1       0
       8       1       1       0       8       1       1       0       8       1
       1       0       8       1       1       0       8       1       1       0
       8       1       1       0       8       1       1       0       8       1
       1       0       8       1       1       0       8       1       1       0
       8       1       1       0       8       1       1       0       8       1
       1       0       8       1       1       0       8       1       1       0
       8       1       1       0       8       1       1       0       8       1
       1       0       8       1       1       0       8       1       1       0
       8       1       1       0       8       1       1       0       8       1
       1       0       8       1       1       0       8       1       1       0
       8       1       1       0       8       1       1       0       8       1
       1       0       8       1       1       0       8       1       1       0
       8       1       1       0       8       1       1       0       8       1
       1       0       8       1       1       0       8       1       1       0
       8       1       1       0       8       1       1       0       8       1
       1       0       8       1       1       0       8       1       1       0
       8       1       1       0       8       1       1       0       8       1
       1       0       8       1       1       0       8       1       1       0
       8       1       1       0       8       1       1       0       8       1
       1       0       8       1       1       0       8       1       1       0
       8       1       1       0       8       1       1       0       8       1
       1       0       8       1       1       0       8       1       1       0
       8       1       1       0       8       1       1       0       8       1
       1       0       8       1       1       0       8       1       1       0
       8       1       1       0       8       1       1       0       8       1
       1       0       8       1       1       0       8       1       1       0
       8       1       1       0       8       1       1       0       8       1
       1       0       8       1       1       0       8       1       1       0
       8       1       1       0       8       1       1       0       8       1
       1       0       8       1       1       0       8       1       1       0
       8       1       1       0       8       1       1       0       8       1
       1       0       8       1       1       0       8       1       1       0
       8       1       1       0       8       1       1       0       8       1
       1       0       8       1       1       0       8       1       1       0
       8       1       1       0       8       1       1       0       8       1
       1       0       8       1       1       0       8       1       1       0
       8       1       1       0       8       1       1       0       8       1
       1       0       8       1       1       0       8       1       1       0
       8       1       1       0       8       1       1       0       8       1
       1       0       8       1       1       0       8       1       1       0
       8       1       1       0       8       1       1       0       8       1
       1       0       8       1       1       0       8       1       1       0
       8       1       1       0       8       1       1       0       8       1
       1       0       8       1       1       0       8       1       1       0
       8       1       1       0       8       1       1       0       8       1
       1       0       8       1       1       0       8       1       1       0
       8       1       1       0       8       1       1       0       8       1
       1       0       8       1       1       0       8       1       1       0
       8       1       1       0       8       1       1       0       8       1
       1       0       8       1       1       0       8       1       1       0
       8       1       1       0       8       1       1       0       8       1
       1       0       8       1       1       0       8       1       1       0
       8       1       1       0       8       1       1       0       8       1
       1       0       8       1       1       0       8       1       1       0
       8       1       1       0       8       1       1       0       8       1
       1       0       8       1       1       0       8       1       1       0
       8       1       1       0       8       1       1       0       8       1
       1       0       8       1       1       0       8       1       1       0
       8       1       1       0       8       1       1       0       8       1
       1       0       8       1       1       0       8       1       1       0
       8       1       1       0       8       1       1       0       8       1
       1       0       8       1       1       0       8       1       1       0
       8       1       1       0       8       1       1       0       8       1
       1       0       8       1       1       0       8       1       1       0
       8       1       1       0       8       1       1       0       8       1
       1       0       8       1       1       0       8       1       1       0
       8       1       1       0       8       1       1       0       8       1
       1       0       8       1       1       0       8       1       1       0
       8       1       1       0       8       1       1       0       8       1
       1       0       8       1       1       0       8       1       1       0
       8       1       1       0       8       1       1       0       8       1
       1       0       8       1       1       0       8       1       1       0
       8       1       1       0       8       1       1       0       8       1
       1       0       8       1       1       0       8       1       1       0
       8       1       1       0       8       1       1       0       8       1
       1       0       8       1       1       0       8       1       1       0
       8       1       1       0       8       1       1       0       8       1
       1       0       8       1       1       0       8       1       1       0
       8       1       1       0       8       1       1       0       8       1
       1       0       8       1       1       0       8       1       1       0
       8       1       1       0       8       1       1       0       8       1
       1       0       8       1       1       0       8       1       1       0
       8       1       1       0       8       1       1       0       8       1
       1       0       8       1       1       0       8       1       1       0
       8       1       1       0       8       1       1       0       8       1
       1       0       8       1       1       0       8       1       1       0
       8       1       1       0       8       1       1       0       8       1
       1       0       8       1       1       0       8       1       1       0
       8       1       1       0       8       1       1       0       8       1
       1       0       8       1       1       0       8       1       1       0
       8       1       1       0       8       1       1       0       8       1
       1       0       8       1       1       0       8       1       1       0
       8       1       1       0       8       1       1       0       8       1
       1       0       8       1       1       0       8       1       1       0
       8       1       1       0       8       1       1       0       8       1
       1       0       8       1       1       0       8       1       1       0
       8       1       1       0       8       1       1       0       8       1
       1       0       8       1       1       0       8       1       1       0
       8       1       1       0       8       1       1       0       8       1
       1       0       8       1       1       0       8       1       1       0
       8       1       1       0       8       1       1       0       8       1
       1       0       8       1       1       0       8       1       1       0
       8       1       1       0       8       1       1       0       8       1
       1       0       8       1       1       0       8       1       1       0
       8       1       1       0       8       1       1       0       8       1
       1       0       8       1       1       0       8       1       1       0
       8       1       1       0       8       1       1       0       8       1
       1       0       8       1       1       0       8       1       1       0
       8       1       1       0       8       1       1       0       8       1
       1       0       8       1       1       0       8       1       1       0
       8       1       1       0       8       1       1       0       8       1
       1       0       8       1       1       0       8       1       1       0
       8       1       1       0       8       1       1       0       8       1
       1       0       8       1       1       0       8       1       1       0
       8       1       1       0       8       1       1       0       8       1
       1       0       8       1       1       0       8       1       1       0
       8       1       1       0       8       1       1       0       8       1
       1       0       8       1       1       0       8       1       1       0
       8       1       1       0       8       1       1       0       8       1
       1       0       8       1       1       0       8       1       1       0
       8       1       1       0       8       1       1       0       8       1
       1       0       8       1       1       0       8       1       1       0
       8       1       1       0       8       1       1       0       8       1
       1       0       8       1       1       0       8       1       1       0
       8       1       1       0       8       1       1       0       8       1
       1       0       8       1       1       0       8       1       1       0
       8       1       1       0       8       1       1       0       8       1
       1       0       8       1       1       0       8       1       1       0
       8       1       1       0       8       1       1       0       8       1
       1       0       8       1       1       0       8       1       1       0
       8       1       1       0       8       1       1       0       8       1
       1       0       8       1       1       0       8       1       1       0
       8       1       1       0       8       1       1       0       8       1
       1       0       8       1       1       0       8       1       1       0
       8       1       1       0       8       1       1       0       8       1
       1       0       8       1       1       0       8       1       1       0
       8       1       1       0       8       1       1       0       8       1
       1       0       8       1       1       0       8       1       1       0
       8       1       1       0       8       1       1       0       8       1
       1       0       8       1       1       0       8       1       1       0
       8       1       1       0       8       1       1       0       8       1
       1       0       8       1       1       0       8       1       1       0
       8       1       1       0       8       1       1       0       8       1
       1       0       8       1       1       0       8       1       1       0
       8       1       1       0       8       1       1       0       8       1
       1       0       8       1       1       0       8       1       1       0
       8       1       1       0       8       1       1       0       8       1
       1       0       8       1       1       0       8       1       1       0
       8       1       1       0       8       1       1       0       8       1
       1       0       8       1       1       0       8       1       1       0
       8       1       1       0       8       1       1       0       8       1
       1       0       8       1       1       0       8       1       1       0
       8       1       1       0       8       1       1       0       8       1
       1       0       8       1       1       0       8       1       1       0
       8       1       1       0       8       1       1       0       8       1
       1       0       8       1       1       0       8       1       1       0
       8       1       1       0       8       1       1       0       8       1
       1       0       8       1       1       0       8       1       1       0
       8       1       1       0       8       1       1       0       8       1
       1       0       8       1       1       0       8       1       1       0
       8       1       1       0       8       1       1       0       8       1
       1       0       8       1       1       0       8       1       1       0
       8       1       1       0       8       1       1       0       8       1
       1       0       8       1       1       0       8       1       1       0
       8       1       1       0       8       1       1       0       8       1
       1       0       8       1       1       0       8       1       1       0
       8       1       1       0       8       1       1       0       8       1
       1       0       8       1       1       0       8       1       1       0
       8       1       1       0       8       1       1       0       8       1
       1       0       8       1       1       0       8       1       1       0
       8       1       1       0       8       1       1       0       8       1
       1       0       8       1       1       0       8       1       1       0
       8       1       1       0       8       1       1       0       8       1
       1       0       8       1       1       0       8       1       1       0
       8       1       1       0       8       1       1       0       8       1
       1       0       8       1       1       0       8       1       1       0
       8       1       1       0       8       1       1       0       8       1
       1       0       8       1       1       0       8       1       1       0
       8       1       1       0       8       1       1       0       8       1
       1       0       8       1       1       0       8       1       1       0
       8       1       1       0       8       1       1       0       8       1
       1       0       8       1       1       0       8       1       1       0
       8       1       1       0       8       1       1       0       8       1
       1       0       8       1       1       0       8       1       1       0
       8       1       1       0       8       1       1       0       8       1
       1       0       8       1       1       0       8       1       1       0
       8       1       1       0       8       1       1       0       8       1
       1       0       8       1       1       0       8       1       1       0
       8       1       1       0       8       1       1       0       8       1
       1       0       8       1       1       0       8       1       1       0
       8       1       1       0       8       1       1       0       8       1
       1       0       8       1       1       0       8       1       1       0
       8       1       1       0       8       1       1       0       8       1
       1       0       8       1       1       0       8       1       1       0
       8       1       1       0       8       1       1       0       8       1
       1       0       8       1       1       0       8       1       1       0
       8       1       1       0       8       1       1       0       8       1
       1       0       8       1       1       0       8       1       1       0
       8       1       1       0       8       1       1       0       8       1
       1       0       8       1       1       0       8       1       1       0
       8       1       1       0       8       1       1       0       8       1
       1       0       8       1       1       0       8       1       1       0
       8       1       1       0       8       1       1       0       8       1
       1       0       8       1       1       0       8       1       1       0
       8       1       1       0       8       1       1       0       8       1
       1       0       8       1       1       0       8       1       1       0
       8       1       1       0       8       1       1       0       8       1
       1       0       8       1       1       0       8       1       1       0
       8       1       1       0       8       1       1       0       8       1
       1       0       8       1       1       0       8       1       1       0
       8       1       1       0       8       1       1       0       8       1
       1       0       8       1       1       0       8       1       1       0
       8       1       1       0       8       1       1       0       8       1
       1       0       8       1       1       0       8       1       1       0
       8       1       1       0       8       1       1       0       8       1
       1       0       8       1       1       0       8       1       1       0
       8       1       1       0       8       1       1       0       8       1
       1       0       8       1       1       0       8       1       1       0
       8       1       1       0       8       1       1       0       8       1
       1       0       8       1       1       0       8       1       1       0
       8       1       1       0       8       1       1       0       8       1
       1       0       8       1       1       0       8       1       1       0
       8       1       1       0       8       1       1       0       8       1
       1       0       8       1       1       0       8       1       1       0
       8       1       1       0       8       1       1       0       8       1
       1       0       8       1       1       0       8       1       1       0
       8       1       1       0       8       1       1       0       8       1
       1       0       8       1       1       0       8       1       1       0
       8       1       1       0       8       1       1       0       8       1
       1       0       8       1       1       0       8       1       1       0
       8       1       1       0       8       1       1       0       8       1
       1       0       8       1       1       0       8       1       1       0
       8       1       1       0       8       1       1       0       8       1
       1       0       8       1       1       0       8       1       1       0
       8       1       1       0       8       1       1       0       8       1
       1       0       8       1       1       0       8       1       1       0
       8       1       1       0       8       1       1       0       8       1
       1       0       8       1       1       0       8       1       1       0
       8       1       1       0       8       1       1       0       8       1
       1       0       8       1       1       0       8       1       1       0
       8       1       1       0       8       1       1       0       8       1
       1       0       8       1       1       0       8       1       1       0
       8       1       1       0       8       1       1       0       8       1
       1       0       8       1       1       0       8       1       1       0
       8       1       1       0       8       1       1       0       8       1
       1       0       8       1       1       0       8       1       1       0
       8       1       1       0       8       1       1       0       8       1
       1       0       8       1       1       0       8       1       1       0
       8       1       1       0       8       1       1       0       8       1
       1       0       8       1       1       0       8       1       1       0
       8       1       1       0       8       1       1       0       8       1
       1       0       8       1       1       0       8       1       1       0
       8       1       1       0       8       1       1       0       8       1
       1       0       8       1       1       0       8       1       1       0
       8       1       1       0       8       1       1       0       8       1
       1       0       8       1       1       0       8       1       1       0
       8       1       1       0       8       1       1       0       8       1
       1       0       8       1       1       0       8       1       1       0
       8       1       1       0       8       1       1       0       8       1
       1       0       8       1       1       0       8       1       1       0
       8       1       1       0       8       1       1       0       8       1
       1       0       8       1       1       0       8       1       1       0
       8       1       1       0       8       1       1       0       8       1
       1       0       8       1       1       0       8       1       1       0
       8       1       1       0       8       1       1       0       8       1
       1       0       8       1       1       0       8       1       1       0
       8       1       1       0       8       1       1       0       8       1
       1       0       8       1       1       0       8       1       1       0
       8       1       1       0       8       1       1       0       8       1
       1       0       8       1       1       0       8       1       1       0
       8       1       1       0       8       1       1       0       8       1
       1       0       8       1       1       0       8       1       1       0
       8       1       1       0       8       1       1       0       8       1
       1       0       8       1       1       0       8       1       1       0
       8       1       1       0       8       1       1       0       8       1
       1       0       8       1       1       0       8       1       1       0
       8       1       1       0       8       1       1       0       8       1
       1       0       8       1       1       0       8       1       1       0
       8       1       1       0       8       1       1       0       8       1
       1       0       8       1       1       0       8       1       1       0
       8       1       1       0       8       1       1       0       8       1
       1       0       8       1       1       0       8       1       1       0
       8       1       1       0       8       1       1       0       8       1
       1       0       8       1       1       0       8       1       1       0
       8       1       1       0       8       1       1       0       8       1
       1       0       8       1       1       0       8       1       1       0
       8       1       1       0       8       1       1       0       8       1
       1       0       8       1       1       0       8       1       1       0
       8       1       1       0       8       1       1       0       8       1
       1       0       8       1       1       0       8       1       1       0
       8       1       1       0       8       1       1       0       8       1
       1       0       8       1       1       0       8       1       1       0
       8       1       1       0       8       1       1       0       8       1
       1       0       8       1       1       0       8       1       1       0
       8       1       1       0       8       1       1       0       8       1
       1       0       8       1       1       0       8       1       1       0
       8       1       1       0       8       1       1       0       8       1
       1       0       8       1       1       0       8       1       1       0
       8       1       1       0       8       1       1       0       8       1
       1       0       8       1       1       0       8       1       1       0
       8       1       1       0       8       1       1       0       8       1
       1       0       8       1       1       0       8       1       1       0
       8       1       1       0       8       1       1       0       8       1
       1       0       8       1       1       0       8       1       1       0
       8       1       1       0       8       1       1       0       8       1
       1       0       8       1       1       0       8       1       1       0
       8       1       1       0       8       1       1       0       8       1
       1       0       8       1       1       0       8       1       1       0
       8       1       1       0       8       1       1       0       8       1
       1       0       8       1       1       0       8       1       1       0
       8       1       1       0       8       1       1       0       8       1
       1       0       8       1       1       0       8       1       1       0
       8       1       1       0       8       1       1       0       8       1
       1       0       8       1       1       0       8       1       1       0
       8       1       1       0       8       1       1       0       8       1
       1       0       8       1       1       0       8       1       1       0
       8       1       1       0       8       1       1       0       8       1
       1       0       8       1       1       0       8       1       1       0
       8       1       1       0       8       1       1       0       8       1
       1       0       8       1       1       0       8       1       1       0
       8       1       1       0       8       1       1       0       8       1
       1       0       8       1       1       0       8       1       1       0
       8       1       1       0       8       1       1       0       8       1
       1       0       8       1       1       0       8       1       1       0
       8       1       1       0       8       1       1       0       8       1
       1       0       8       1       1       0       8       1       1       0
       8       1       1       0       8       1       1       0       8       1
       1       0       8       1       1       0       8       1       1       0
       8       1       1       0       8       1       1       0       8       1
       1       0       8       1       1       0       8       1       1       0
       8       1       1       0       8       1       1       0       8       1
       1       0       8       1       1       0       8       1       1       0
       8       1       1       0       8       1       1       0       8       1
       1       0       8       1       1       0       8       1       1       0
       8       1       1       0       8       1       1       0       8       1
       1       0       8       1       1       0       8       1       1       0
       8       1       1       0       8       1       1       0       8       1
       1       0       8       1       1       0       8       1       1       0
       8       1       1       0       8       1       1       0       8       1
       1       0       8       1       1       0       8       1       1       0
       8       1       1       0       8       1       1       0       8       1
       1       0       8       1       1       0       8       1       1       0
       8       1       1       0       8       1       1       0       8       1
       1       0       8       1       1       0       8       1       1       0
       8       1       1       0       8       1       1       0       8       1
       1       0       8       1       1       0       8       1       1       0
       8       1       1       0       8       1       1       0       8       1
       1       0       8       1       1       0       8       1       1       0
       8       1       1       0       8       1       1       0       8       1
       1       0       8       1       1       0       8       1       1       0
       8       1       1       0       8       1       1       0       8       1
       1       0       8       1       1       0       8       1       1       0
       8       1       1       0       8       1       1       0       8       1
       1       0       8       1       1       0       8       1       1       0
       8       1       1       0       8       1       1       0       8       1
       1       0       8       1       1       0       8       1       1       0
       8       1       1       0       8       1       1       0       8       1
       1       0       8       1       1       0       8       1       1       0
       8       1       1       0       8       1       1       0       8       1
       1       0       8       1       1       0       8       1       1       0
       8       1       1       0       8       1       1       0       8       1
       1       0       8       1       1       0       8       1       1       0
       8       1       1       0       8       1       1       0       8       1
       1       0       8       1       1       0       8       1       1       0
       8       1       1       0       8       1       1       0       8       1
       1       0       8       1       1       0       8       1       1       0
       8       1       1       0       8       1       1       0       8       1
       1       0       8       1       1       0       8       1       1       0
       8       1       1       0       8       1       1       0       8       1
       1       0       8       1       1       0       8       1       1       0
       8       1       1       0       8       1       1       0       8       1
       1       0       8       1       1       0       8       1       1       0
       8       1       1       0       8       1       1       0       8       1
       1       0       8       1       1       0       8       1       1       0
       8       1       1       0       8       1       1       0       8       1
       1       0       8       1       1       0       8       1       1       0
       8       1       1       0       8       1       1       0       8       1
       1       0       8       1       1       0       8       1       1       0
       8       1       1       0       8       1       1       0       8       1
       1       0       8       1       1       0       8       1       1       0
       8       1       1       0       8       1       1       0       8       1
       1       0       8       1       1       0       8       1       1       0
       8       1       1       0       8       1       1       0       8       1
       1       0       8       1       1       0       8       1       1       0
       8       1       1       0       8       1       1       0       8       1
       1       0       8       1       1       0       8       1       1       0
       8       1       1       0       8       1       1       0       8       1
       1       0       8       1       1       0       8       1       1       0
       8       1       1       0       8       1       1       0       8       1
       1       0       8       1       1       0       8       1       1       0
       8       1       1       0       8       1       1       0       8       1
       1       0       8       1       1       0       8       1       1       0
       8       1       1       0       8       1       1       0       8       1
       1       0       8       1       1       0       8       1       1       0
       8       1       1       0       8       1       1       0       8       1
       1       0       8       1       1       0       8       1       1       0
       8       1       1       0       8       1       1       0       8       1
       1       0       8       1       1       0       8       1       1       0
       8       1       1       0       8       1       1       0       8       1
       1       0       8       1       1       0       8       1       1       0
       8       1       1       0       8       1       1       0       8       1
       1       0       8       1       1       0       8       1       1       0
       8       1       1       0       8       1       1       0       8       1
       1       0       8       1       1       0       8       1       1       0
       8       1       1       0       8       1       1       0       8       1
       1       0       8       1       1       0       8       1       1       0
       8       1       1       0       8       1       1       0       8       1
       1       0       8       1       1       0       8       1       1       0
       8       1       1       0       8       1       1       0       8       1
       1       0       8       1       1       0       8       1       1       0
       8       1       1       0       8       1       1       0       8       1
       1       0       8       1       1       0       8       1       1       0
       8       1       1       0       8       1       1       0       8       1
       1       0       8       1       1       0       8       1       1       0
       8       1       1       0       8       1       1       0       8       1
       1       0       8       1       1       0       8       1       1       0
       8       1       1       0       8       1       1       0       8       1
       1       0       8       1       1       0       8       1       1       0
       8       1       1       0       8       1       1       0       8       1
       1       0       8       1       1       0       8       1       1       0
       8       1       1       0       8       1       1       0       8       1
       1       0       8       1       1       0       8       1       1       0
       8       1       1       0       8       1       1       0       8       1
       1       0       8       1       1       0       8       1       1       0
       8       1       1       0       8       1       1       0       8       1
       1       0       8       1       1       0       8       1       1       0
       8       1       1       0       8       1       1       0       8       1
       1       0       8       1       1       0       8       1       1       0
       8       1       1       0       8       1       1       0       8       1
       1       0       8       1       1       0       8       1       1       0
       8       1       1       0       8       1       1       0       8       1
       1       0       8       1       1       0       8       1       1       0
       8       1       1       0       8       1       1       0       8       1
       1       0       8       1       1       0       8       1       1       0
       8       1       1       0       8       1       1       0       8       1
       1       0       8       1       1       0       8       1       1       0
       8       1       1       0       8       1       1       0       8       1
       1       0       8       1       1       0       8       1       1       0
       8       1       1       0       8       1       1       0       8       1
       1       0       8       1       1       0       8       1       1       0
       8       1       1       0       8       1       1       0       8       1
       1       0       8       1       1       0       8       1       1       0
       8       1       1       0       8       1       1       0       8       1
       1       0       8       1       1       0       8       1       1       0
       8       1       1       0       8       1       1       0       8       1
       1       0       8       1       1       0       8       1       1       0
       8       1       1       0       8       1       1       0       8       1
       1       0       8       1       1       0       8       1       1       0
       8       1       1       0       8       1       1       0       8       1
       1       0       8       1       1       0       8       1       1       0
       8       1       1       0       8       1       1       0       8       1
       1       0       8       1       1       0       8       1       1       0
       8       1       1       0       8       1       1       0       8       1
       1       0       8       1       1       0       8       1       1       0
       8       1       1       0       8       1       1       0       8       1
       1       0       8       1       1       0       8       1       1       0
       8       1       1       0       8       1       1       0       8       1
       1       0       8       1       1       0       8       1       1       0
       8       1       1       0       8       1       1       0       8       1
       1       0       8       1       1       0       8       1       1       0
       8       1       1       0       8       1       1       0       8       1
       1       0       8       1       1       0       8       1       1       0
       8       1       1       0       8       1       1       0       8       1
       1       0       8       1       1       0       8       1       1       0
       8       1       1       0       8       1       1       0       8       1
       1       0       8       1       1       0       8       1       1       0
       8       1       1       0       8       1       1       0       8       1
       1       0       8       1       1       0       8       1       1       0
       8       1       1       0       8       1       1       0       8       1
       1       0       8       1       1       0       8       1       1       0
       8       1       1       0       8       1       1       0       8       1
       1       0       8       1       1       0       8       1       1       0
       8       1       1       0       8       1       1       0       8       1
       1       0       8       1       1       0       8       1       1       0
       8       1       1       0       8       1       1       0       8       1
       1       0       8       1       1       0       8       1       1       0
       8       1       1       0       8       1       1       0       8       1
       1       0       8       1       1       0       8       1       1       0
       8       1       1       0       8       1       1       0       8       1
       1       0       8       1       1       0       8       1       1       0
       8       1       1       0       8       1       1       0       8       1
       1       0       8       1       1       0       8       1       1       0
       8       1       1       0       8       1       1       0       8       1
       1       0       8       1       1       0       8       1       1       0
       8       1       1       0       8       1       1       0       8       1
       1       0       8       1       1       0       8       1       1       0
       8       1       1       0       8       1       1       0       8       1
       1       0       8       1       1       0       8       1       1       0
       8       1       1       0       8       1       1       0       8       1
       1       0       8       1       1       0       8       1       1       0
       8       1       1       0       8       1       1       0       8       1
       1       0       8       1       1       0       8       1       1       0
       8       1       1       0       8       1       1       0       8       1
       1       0       8       1       1       0       8       1       1       0
       8       1       1       0       8       1       1       0       8       1
       1       0       8       1       1       0       8       1       1       0
       8       1       1       0       8       1       1       0       8       1
       1       0       8       1       1       0       8       1       1       0
       8       1       1       0       8       1       1       0       8       1
       1       0       8       1       1       0       8       1       1       0
       8       1       1       0       8       1       1       0       8       1
       1       0       8       1       1       0       8       1       1       0
       8       1       1       0       8       1       1       0       8       1
       1       0       8       1       1       0       8       1       1       0
       8       1       1       0       8       1       1       0       8       1
       1       0       8       1       1       0       8       1       1       0
       8       1       1       0       8       1       1       0       8       1
       1       0       8       1       1       0       8       1       1       0
       8       1       1       0       8       1       1       0       8       1
       1       0       8       1       1       0       8       1       1       0
       8       1       1       0       8       1       1       0       8       1
       1       0       8       1       1       0       8       1       1       0
       8       1       1       0       8       1       1       0       8       1
       1       0       8       1       1       0       8       1       1       0
       8       1       1       0       8       1       1       0       8       1
       1       0       8       1       1       0       8       1       1       0
       8       1       1       0       8       1       1       0       8       1
       1       0       8       1       1       0       8       1       1       0
       8       1       1       0       8       1       1       0       8       1
       1       0       8       1       1       0       8       1       1       0
       8       1       1       0       8       1       1       0       8       1
       1       0       8       1       1       0       8       1       1       0
       8       1       1       0       8       1       1       0       8       1
       1       0       8       1       1       0       8       1       1       0
       8       1       1       0       8       1       1       0       8       1
       1       0       8       1       1       0       8       1       1       0
       8       1       1       0       8       1       1       0       8       1
       1       0       8       1       1       0       8       1       1       0
       8       1       1       0       8       1       1       0       8       1
       1       0       8       1       1       0       8       1       1       0
       8       1       1       0       8       1       1       0       8       1
       1       0       8       1       1       0       8       1       1       0
       8       1       1       0       8       1       1       0       8       1
       1       0       8       1       1       0       8       1       1       0
       8       1       1       0       8       1       1       0       8       1
       1       0       8       1       1       0       8       1       1       0
       8       1       1       0       8       1       1       0       8       1
       1       0       8       1       1       0       8       1       1       0
       8       1       1       0       8       1       1       0       8       1
       1       0       8       1       1       0       8       1       1       0
       8       1       1       0       8       1       1       0       8       1
       1       0       8       1       1       0       8       1       1       0
       8       1       1       0       8       1       1       0       8       1
       1       0       8       1       1       0       8       1       1       0
       8       1       1       0       8       1       1       0       8       1
       1       0       8       1       1       0       8       1       1       0
       8       1       1       0       8       1       1       0       8       1
       1       0       8       1       1       0       8       1       1       0
       8       1       1       0       8       1       1       0       8       1
       1       0       8       1       1       0       8       1       1       0
       8       1       1       0       8       1       1       0       8       1
       1       0       8       1       1       0       8       1       1       0
       8       1       1       0       8       1       1       0       8       1
       1       0       8       1       1       0       8       1       1       0
       8       1       1       0       8       1       1       0       8       1
       1       0       8       1       1       0       8       1       1       0
       8       1       1       0       8       1       1       0       8       1
       1       0       8       1       1       0       8       1       1       0
       8       1       1       0       8       1       1       0       8       1
       1       0       8       1       1       0       8       1       1       0
       8       1       1       0       8       1       1       0       8       1
       1       0       8       1       1       0       8       1       1       0
       8       1       1       0       8       1       1       0       8       1
       1       0       8       1       1       0       8       1       1       0
       8       1       1       0       8       1       1       0       8       1
       1       0       8       1       1       0       8       1       1       0
       8       1       1       0       8       1       1       0       8       1
       1       0       8       1       1       0       8       1       1       0
       8       1       1       0       8       1       1       0       8       1
       1       0       8       1       1       0       8       1       1       0
       8       1       1       0       8       1       1       0       8       1
       1       0       8       1       1       0       8       1       1       0
       8       1       1       0       8       1       1       0       8       1
       1       0       8       1       1       0       8       1       1       0
       8       1       1       0       8       1       1       0       8       1
       1       0       8       1       1       0       8       1       1       0
       8       1       1       0       8       1       1       0       8       1
       1       0       8       1       1       0       8       1       1       0
       8       1       1       0       8       1       1       0       8       1
       1       0       8       1       1       0       8       1       1       0
       8       1       1       0       8       1       1       0       8       1
       1       0       8       1       1       0       8       1       1       0
       8       1       1       0       8       1       1       0       8       1
       1       0       8       1       1       0       8       1       1       0
       8       1       1       0       8       1       1       0       8       1
       1       0       8       1       1       0       8       1       1       0
       8       1       1       0       8       1       1       0       8       1
       1       0       8       1       1       0       8       1       1       0
       8       1       1       0       8       1       1       0       8       1
       1       0       8       1       1       0       8       1       1       0
       8       1       1       0       8       1       1       0       8       1
       1       0       8       1       1       0       8       1       1       0
       8       1       1       0       8       1       1       0       8       1
       1       0       8       1       1       0       8       1       1       0
       8       1       1       0       8       1       1       0       8       1
       1       0       8       1       1       0       8       1       1       0
       8       1       1       0       8       1       1       0       8       1
       1       0       8       1       1       0       8       1       1       0
       8       1       1       0       8       1       1       0       8       1
       1       0       8       1       1       0       8       1       1       0
       8       1       1       0       8       1       1       0       8       1
       1       0       8       1       1       0       8       1       1       0
       8       1       1       0       8       1       1       0       8       1
       1       0       8       1       1       0       8       1       1       0
       8       1       1       0       8       1       1       0       8       1
       1       0       8       1       1       0       8       1       1       0
       8       1       1       0       8       1       1       0       8       1
       1       0       8       1       1       0       8       1       1       0
       8       1       1       0       8       1       1       0       8       1
       1       0       8       1       1       0       8       1       1       0
       8       1       1       0       8       1       1       0       8       1
       1       0       8       1       1       0       8       1       1       0
       8       1       1       0       8       1       1       0       8       1
       1       0       8       1       1       0       8       1       1       0
       8       1       1       0       8       1       1       0       8       1
       1       0       8       1       1       0       8       1       1       0
       8       1       1       0       8       1       1       0       8       1
       1       0       8       1       1       0       8       1       1       0
       8       1       1       0       8       1       1       0       8       1
       1       0       8       1       1       0       8       1       1       0
       8       1       1       0       8       1       1       0       8       1
       1       0       8       1       1       0       8       1       1       0
       8       1       1       0       8       1       1       0       8       1
       1       0       8       1       1       0       8       1       1       0
       8       1       1       0       8       1       1       0       8       1
       1       0       8       1       1       0       8       1       1       0
       8       1       1       0       8       1       1       0       8       1
       1       0       8       1       1       0       8       1       1       0
       8       1       1       0       8       1       1       0       8       1
       1       0       8       1       1       0       8       1       1       0
       8       1       1       0       8       1       1       0       8       1
       1       0       8       1       1       0       8       1       1       0
       8       1       1       0       8       1       1       0       8       1
       1       0       8       1       1       0       8       1       1       0
       8       1       1       0       8       1       1       0       8       1
       1       0       8       1       1       0       8       1       1       0
       8       1       1       0       8       1       1       0       8       1
       1       0       8       1       1       0       8       1       1       0
       8       1       1       0       8       1       1       0       8       1
       1       0       8       1       1       0       8       1       1       0
       8       1       1       0       8       1       1       0       8       1
       1       0       8       1       1       0       8       1       1       0
       8       1       1       0       8       1       1       0       8       1
       1       0       8       1       1       0       8       1       1       0
       8       1       1       0       8       1       1       0       8       1
       1       0       8       1       1       0       8       1       1       0
       8       1       1       0       8       1       1       0       8       1
       1       0       8       1       1       0       8       1       1       0
       8       1       1       0       8       1       1       0       8       1
       1       0       8       1       1       0       8       1       1       0
       8       1       1       0       8       1       1       0       8       1
       1       0       8       1       1       0       8       1       1       0
       8       1       1       0       8       1       1       0       8       1
       1       0       8       1       1       0       8       1       1       0
       8       1       1       0       8       1       1       0       8       1
       1       0       8       1       1       0       8       1       1       0
       8       1       1       0       8       1       1       0       8       1
       1       0       8       1       1       0       8       1       1       0
       8       1       1       0       8       1       1       0       8       1
       1       0       8       1       1       0       8       1       1       0
       8       1       1       0       8       1       1       0       8       1
       1       0       8       1       1       0       8       1       1       0
       8       1       1       0       8       1       1       0       8       1
       1       0       8       1       1       0       8       1       1       0
       8       1       1       0       8       1       1       0       8       1
       1       0       8       1       1       0       8       1       1       0
       8       1       1       0       8       1       1       0       8       1
       1       0       8       1       1       0       8       1       1       0
       8       1       1       0       8       1       1       0       8       1
       1       0       8       1       1       0       8       1       1       0
       8       1       1       0       8       1       1       0       8       1
       1       0       8       1       1       0       8       1       1       0
       8       1       1       0       8       1       1       0       8       1
       1       0       8       1       1       0       8       1       1       0
       8       1       1       0       8       1       1       0       8       1
       1       0       8       1       1       0       8       1       1       0
       8       1       1       0       8       1       1       0       8       1
       1       0       8       1       1       0       8       1       1       0
       8       1       1       0       8       1       1       0       8       1
       1       0       8       1       1       0       8       1       1       0
       8       1       1       0       8       1       1       0       8       1
       1       0       8       1       1       0       8       1       1       0
       8       1       1       0       8       1       1       0       8       1
       1       0       8       1       1       0       8       1       1       0
       8       1       1       0       8       1       1       0       8       1
       1       0       8       1       1       0       8       1       1       0
       8       1       1       0       8       1       1       0       8       1
       1       0       8       1       1       0       8       1       1       0
       8       1       1       0       8       1       1       0       8       1
       1       0       8       1       1       0       8       1       1       0
       8       1       1       0       8       1       1       0       8       1
       1       0       8       1       1       0       8       1       1       0
       8       1       1       0       8       1       1       0       8       1
       1       0       8       1       1       0       8       1       1       0
       8       1       1       0       8       1       1       0       8       1
       1       0       8       1       1       0       8       1       1       0
       8       1       1       0       8       1       1       0       8       1
       1       0       8       1       1       0       8       1       1       0
       8       1       1       0       8       1       1       0       8       1
       1       0       8       1       1       0       8       1       1       0
       8       1       1       0       8       1       1       0       8       1
       1       0       8       1       1       0       8       1       1       0
       8       1       1       0       8       1       1       0       8       1
       1       0       8       1       1       0       8       1       1       0
       8       1       1       0       8       1       1       0       8       1
       1       0       8       1       1       0       8       1       1       0
       8       1       1       0       8       1       1       0       8       1
       1       0       8       1       1       0       8       1       1       0
       8       1       1       0       8       1       1       0       8       1
       1       0       8       1       1       0       8       1       1       0
       8       1       1       0       8       1       1       0       8       1
       1       0       8       1       1       0       8       1       1       0
       8       1       1       0       8       1       1       0       8       1
       1       0       8       1       1       0       8       1       1       0
       8       1       1       0       8       1       1       0       8       1
       1       0       8       1       1       0       8       1       1       0
       8       1       1       0       8       1       1       0       8       1
       1       0       8       1       1       0       8       1       1       0
       8       1       1       0       8       1       1       0       8       1
       1       0       8       1       1       0       8       1       1       0
       8       1       1       0       8       1       1       0       8       1
       1       0       8       1       1       0       8       1       1       0
       8       1       1       0       8       1       1       0       8       1
       1       0       8       1       1       0       8       1       1       0
       8       1       1       0       8       1       1       0       8       1
       1       0       8       1       1       0       8       1       1       0
       8       1       1       0       8       1       1       0       8       1
       1       0       8       1       1       0       8       1       1       0
       8       1       1       0       8       1       1       0       8       1
       1       0       8       1       1       0       8       1       1       0
       8       1       1       0       8       1       1       0       8       1
       1       0       8       1       1       0       8       1       1       0
       8       1       1       0       8       1       1       0       8       1
       1       0       8       1       1       0       8       1       1       0
       8       1       1       0       8       1       1       0       8       1
       1       0       8       1       1       0       8       1       1       0
       8       1       1       0       8       1       1       0       8       1
       1       0       8       1       1       0       8       1       1       0
       8       1       1       0       8       1       1       0       8       1
       1       0       8       1       1       0       8       1       1       0
       8       1       1       0       8       1       1       0       8       1
       1       0       8       1       1       0       8       1       1       0
       8       1       1       0       8       1       1       0       8       1
       1       0       8       1       1       0       8       1       1       0
       8       1       1       0       8       1       1       0       8       1
       1       0       8       1       1       0       8       1       1       0
       8       1       1       0       8       1       1       0       8       1
       1       0       8       1       1       0       8       1       1       0
       8       1       1       0       8       1       1       0       8       1
       1       0       8       1       1       0       8       1       1       0
       8       1       1       0       8       1       1       0       8       1
       1       0       8       1       1       0       8       1       1       0
       8       1       1       0       8       1       1       0       8       1
       1       0       8       1       1       0       8       1       1       0
       8       1       1       0       8       1       1       0       8       1
       1       0       8       1       1       0       8       1       1       0
       8       1       1       0       8       1       1       0       8       1
       1       0       8       1       1       0       8       1       1       0
       8       1       1       0       8       1       1       0       8       1
       1       0       8       1       1       0       8       1       1       0
       8       1       1       0       8       1       1       0       8       1
       1       0       8       1       1       0       8       1       1       0
       8       1       1       0       8       1       1       0       8       1
       1       0       8       1       1       0       8       1       1       0
       8       1       1       0       8       1       1       0       8       1
       1       0       8       1       1       0       8       1       1       0
       8       1       1       0       8       1       1       0       8       1
       1       0       8       1       1       0       8       1       1       0
       8       1       1       0       8       1       1       0       8       1
       1       0       8       1       1       0       8       1       1       0
       8       1       1       0       8       1       1       0       8       1
       1       0       8       1       1       0       8       1       1       0
       8       1       1       0       8       1       1       0       8       1
       1       0       8       1       1       0       8       1       1       0
       8       1       1       0       8       1       1       0       8       1
       1       0       8       1       1       0       8       1       1       0
       8       1       1       0       8       1       1       0       8       1
       1       0       8       1       1       0       8       1       1       0
       8       1       1       0       8       1       1       0       8       1
       1       0       8       1       1       0       8       1       1       0
       8       1       1       0       8       1       1       0       8       1
       1       0       8       1       1       0       8       1       1       0
       8       1       1       0       8       1       1       0       8       1
       1       0       8       1       1       0       8       1       1       0
       8       1       1       0       8       1       1       0       8       1
       1       0       8       1       1       0       8       1       1       0
       8       1       1       0       8       1       1       0       8       1
       1       0       8       1       1       0       8       1       1       0
       8       1       1       0       8       1       1       0       8       1
       1       0       8       1       1       0       8       1       1       0
       8       1       1       0       8       1       1       0       8       1
       1       0       8       1       1       0       8       1       1       0
       8       1       1       0       8       1       1       0       8       1
       1       0       8       1       1       0       8       1       1       0
       8       1       1       0       8       1       1       0       8       1
       1       0       8       1       1       0       8       1       1       0
       8       1       1       0       8       1       1       0       8       1
       1       0       8       1       1       0       8       1       1       0
       8       1       1       0       8       1       1       0       8       1
       1       0       8       1       1       0       8       1       1       0
       8       1       1       0       8       1       1       0       8       1
       1       0       8       1       1       0       8       1       1       0
       8       1       1       0       8       1       1       0       8       1
       1       0       8       1       1       0       8       1       1       0
       8       1       1       0       8       1       1       0       8       1
       1       0       8       1       1       0       8       1       1       0
       8       1       1       0       8       1       1       0       8       1
       1       0       8       1       1       0       8       1       1       0
       8       1       1       0       8       1       1       0       8       1
       1       0       8       1       1       0       8       1       1       0
       8       1       1       0       8       1       1       0       8       1
       1       0       8       1       1       0       8       1       1       0
       8       1       1       0       8       1       1       0       8       1
       1       0       8       1       1       0       8       1       1       0
       8       1       1       0       8       1       1       0       8       1
       1       0       8       1       1       0       8       1       1       0
       8       1       1       0       8       1       1       0       8       1
       1       0       8       1       1       0       8       1       1       0
       8       1       1       0       8       1       1       0       8       1
       1       0       8       1       1       0       8       1       1       0
       8       1       1       0       8       1       1       0       8       1
       1       0       8       1       1       0       8       1       1       0
       8       1       1       0       8       1       1       0       8       1
       1       0       8       1       1       0       8       1       1       0
       8       1       1       0       8       1       1       0       8       1
       1       0       8       1       1       0       8       1       1       0
       8       1       1       0       8       1       1       0       8       1
       1       0       8       1       1       0       8       1       1       0
       8       1       1       0       8       1       1       0       8       1
       1       0       8       1       1       0       8       1       1       0
       8       1       1       0       8       1       1       0       8       1
       1       0       8       1       1       0       8       1       1       0
       8       1       1       0       8       1       1       0       8       1
       1       0       8       1       1       0       8       1       1       0
       8       1       1       0       8       1       1       0       8       1
       1       0       8       1       1       0       8       1       1       0
       8       1       1       0       8       1       1       0       8       1
       1       0       8       1       1       0       8       1       1       0
       8       1       1       0       8       1       1       0       8       1
       1       0       8       1       1       0       8       1       1       0
       8       1       1       0       8       1       1       0       8       1
       1       0       8       1       1       0       8       1       1       0
       8       1       1       0       8       1       1       0       8       1
       1       0       8       1       1       0       8       1       1       0
       8       1       1       0       8       1       1       0       8       1
       1       0       8       1       1       0       8       1       1       0
       8       1       1       0       8       1       1       0       8       1
       1       0       8       1       1       0       8       1       1       0
       8       1       1       0       8       1       1       0       8       1
       1       0       8       1       1       0       8       1       1       0
       8       1       1       0
%FLAG MASS                                                                      
%FORMAT(5E16.8)                                                                 
  1.00800000E+00  1.60000000E+01  1.20100000E+01  1.00800000E+00  1.00800000E+00
  1.20100000E+01  1.00800000E+00  1.60000000E+01  1.20100000E+01  1.00800000E+00
  1.40100000E+01  1.20100000E+01  1.00800000E+00  1.40100000E+01  1.20100000E+01
  1.20100000E+01  1.40100000E+01  1.00800000E+00  1.00800000E+00  1.40100000E+01
  1.20100000E+01  1.00800000E+00  1.40100000E+01  1.20100000E+01  1.20100000E+01
  1.00800000E+00  1.20100000E+01  1.00800000E+00  1.60000000E+01  1.00800000E+00
  1.60000000E+01  3.09700000E+01  1.60000000E+01  1.60000000E+01  1.60000000E+01
  1.20100000E+01  1.00800000E+00  1.00800000E+00  1.20100000E+01  1.00800000E+00
  1.60000000E+01  1.20100000E+01  1.00800000E+00  1.40100000E+01  1.20100000E+01
  1.00800000E+00  1.40100000E+01  1.20100000E+01  1.20100000E+01  1.60000000E+01
  1.40100000E+01  1.00800000E+00  1.20100000E+01  1.40100000E+01  1.00800000E+00
  1.00800000E+00  1.40100000E+01  1.20100000E+01  1.20100000E+01  1.00800000E+00
  1.20100000E+01  1.00800000E+00  1.60000000E+01  1.00800000E+00  1.60000000E+01
  3.09700000E+01  1.60000000E+01  1.60000000E+01  1.60000000E+01  1.20100000E+01
  1.00800000E+00  1.00800000E+00  1.20100000E+01  1.00800000E+00  1.60000000E+01
  1.20100000E+01  1.00800000E+00  1.40100000E+01  1.20100000E+01  1.00800000E+00
  1.20100000E+01  1.00800000E+00  1.20100000E+01  1.40100000E+01  1.00800000E+00
  1.00800000E+00  1.40100000E+01  1.20100000E+01  1.60000000E+01  1.20100000E+01
  1.00800000E+00  1.20100000E+01  1.00800000E+00  1.60000000E+01  1.00800000E+00
  1.60000000E+01  3.09700000E+01  1.60000000E+01  1.60000000E+01  1.60000000E+01
  1.20100000E+01  1.00800000E+00  1.00800000E+00  1.20100000E+01  1.00800000E+00
  1.60000000E+01  1.20100000E+01  1.00800000E+00  1.40100000E+01  1.20100000E+01
  1.00800000E+00  1.40100000E+01  1.20100000E+01  1.20100000E+01  1.60000000E+01
  1.40100000E+01  1.00800000E+00  1.20100000E+01  1.40100000E+01  1.00800000E+00
  1.00800000E+00  1.40100000E+01  1.20100000E+01  1.20100000E+01  1.00800000E+00
  1.20100000E+01  1.00800000E+00  1.60000000E+01  1.00800000E+00  1.60000000E+01
  3.09700000E+01  1.60000000E+01  1.60000000E+01  1.60000000E+01  1.20100000E+01
  1.00800000E+00  1.00800000E+00  1.20100000E+01  1.00800000E+00  1.60000000E+01
  1.20100000E+01  1.00800000E+00  1.40100000E+01  1.20100000E+01  1.00800000E+00
  1.20100000E+01  1.00800000E+00  1.20100000E+01  1.40100000E+01  1.00800000E+00
  1.00800000E+00  1.40100000E+01  1.20100000E+01  1.60000000E+01  1.20100000E+01
  1.00800000E+00  1.20100000E+01  1.00800000E+00  1.60000000E+01  1.00800000E+00
  1.60000000E+01  3.09700000E+01  1.60000000E+01  1.60000000E+01  1.60000000E+01
  1.20100000E+01  1.00800000E+00  1.00800000E+00  1.20100000E+01  1.00800000E+00
  1.60000000E+01  1.20100000E+01  1.00800000E+00  1.40100000E+01  1.20100000E+01
  1.00800000E+00  1.20100000E+01  1.00800000E+00  1.20100000E+01  1.60000000E+01
  1.40100000E+01  1.00800000E+00  1.20100000E+01  1.60000000E+01  1.20100000E+01
  1.00800000E+00  1.20100000E+01  1.00800000E+00  1.60000000E+01  1.00800000E+00
  1.60000000E+01  3.09700000E+01  1.60000000E+01  1.60000000E+01  1.60000000E+01
  1.20100000E+01  1.00800000E+00  1.00800000E+00  1.20100000E+01  1.00800000E+00
  1.60000000E+01  1.20100000E+01  1.00800000E+00  1.40100000E+01  1.20100000E+01
  1.00800000E+00  1.20100000E+01  1.00800000E+00  1.20100000E+01  1.60000000E+01
  1.40100000E+01  1.00800000E+00  1.20100000E+01  1.60000000E+01  1.20100000E+01
  1.00800000E+00  1.20100000E+01  1.00800000E+00  1.60000000E+01  1.00800000E+00
  1.60000000E+01  3.09700000E+01  1.60000000E+01  1.60000000E+01  1.60000000E+01
  1.20100000E+01  1.00800000E+00  1.00800000E+00  1.20100000E+01  1.00800000E+00
  1.60000000E+01  1.20100000E+01  1.00800000E+00  1.40100000E+01  1.20100000E+01
  1.00800000E+00  1.20100000E+01  1.00800000E+00  1.20100000E+01  1.60000000E+01
  1.40100000E+01  1.00800000E+00  1.20100000E+01  1.60000000E+01  1.20100000E+01
  1.00800000E+00  1.20100000E+01  1.00800000E+00  1.60000000E+01  1.00800000E+00
  1.60000000E+01  3.09700000E+01  1.60000000E+01  1.60000000E+01  1.60000000E+01
  1.20100000E+01  1.00800000E+00  1.00800000E+00  1.20100000E+01  1.00800000E+00
  1.60000000E+01  1.20100000E+01  1.00800000E+00  1.40100000E+01  1.20100000E+01
  1.00800000E+00  1.20100000E+01  1.00800000E+00  1.20100000E+01  1.40100000E+01
  1.00800000E+00  1.00800000E+00  1.40100000E+01  1.20100000E+01  1.60000000E+01
  1.20100000E+01  1.00800000E+00  1.20100000E+01  1.00800000E+00  1.60000000E+01
  1.00800000E+00  1.60000000E+01  3.09700000E+01  1.60000000E+01  1.60000000E+01
  1.60000000E+01  1.20100000E+01  1.00800000E+00  1.00800000E+00  1.20100000E+01
  1.00800000E+00  1.60000000E+01  1.20100000E+01  1.00800000E+00  1.40100000E+01
  1.20100000E+01  1.00800000E+00  1.40100000E+01  1.20100000E+01  1.20100000E+01
  1.60000000E+01  1.40100000E+01  1.00800000E+00  1.20100000E+01  1.40100000E+01
  1.00800000E+00  1.00800000E+00  1.40100000E+01  1.20100000E+01  1.20100000E+01
  1.00800000E+00  1.20100000E+01  1.00800000E+00  1.60000000E+01  1.00800000E+00
  1.60000000E+01  3.09700000E+01  1.60000000E+01  1.60000000E+01  1.60000000E+01
  1.20100000E+01  1.00800000E+00  1.00800000E+00  1.20100000E+01  1.00800000E+00
  1.60000000E+01  1.20100000E+01  1.00800000E+00  1.40100000E+01  1.20100000E+01
  1.00800000E+00  1.40100000E+01  1.20100000E+01  1.20100000E+01  1.40100000E+01
  1.00800000E+00  1.00800000E+00  1.40100000E+01  1.20100000E+01  1.00800000E+00
  1.40100000E+01  1.20100000E+01  1.20100000E+01  1.00800000E+00  1.20100000E+01
  1.00800000E+00  1.60000000E+01  1.00800000E+00  1.60000000E+01  3.09700000E+01
  1.60000000E+01  1.60000000E+01  1.60000000E+01  1.20100000E+01  1.00800000E+00
  1.00800000E+00  1.20100000E+01  1.00800000E+00  1.60000000E+01  1.20100000E+01
  1.00800000E+00  1.40100000E+01  1.20100000E+01  1.00800000E+00  1.40100000E+01
  1.20100000E+01  1.20100000E+01  1.60000000E+01  1.40100000E+01  1.00800000E+00
  1.20100000E+01  1.40100000E+01  1.00800000E+00  1.00800000E+00  1.40100000E+01
  1.20100000E+01  1.20100000E+01  1.00800000E+00  1.20100000E+01  1.00800000E+00
  1.60000000E+01  1.00800000E+00  1.60000000E+01  3.09700000E+01  1.60000000E+01
  1.60000000E+01  1.60000000E+01  1.20100000E+01  1.00800000E+00  1.00800000E+00
  1.20100000E+01  1.00800000E+00  1.60000000E+01  1.20100000E+01  1.00800000E+00
  1.40100000E+01  1.20100000E+01  1.00800000E+00  1.20100000E+01  1.00800000E+00
  1.20100000E+01  1.40100000E+01  1.00800000E+00  1.00800000E+00  1.40100000E+01
  1.20100000E+01  1.60000000E+01  1.20100000E+01  1.00800000E+00  1.20100000E+01
  1.00800000E+00  1.60000000E+01  1.00800000E+00  1.60000000E+01  3.09700000E+01
  1.60000000E+01  1.60000000E+01  1.60000000E+01  1.20100000E+01  1.00800000E+00
  1.00800000E+00  1.20100000E+01  1.00800000E+00  1.60000000E+01  1.20100000E+01
  1.00800000E+00  1.40100000E+01  1.20100000E+01  1.00800000E+00  1.40100000E+01
  1.20100000E+01  1.20100000E+01  1.60000000E+01  1.40100000E+01  1.00800000E+00
  1.20100000E+01  1.40100000E+01  1.00800000E+00  1.00800000E+00  1.40100000E+01
  1.20100000E+01  1.20100000E+01  1.00800000E+00  1.20100000E+01  1.00800000E+00
  1.60000000E+01  1.00800000E+00  1.60000000E+01  3.09700000E+01  1.60000000E+01
  1.60000000E+01  1.60000000E+01  1.20100000E+01  1.00800000E+00  1.00800000E+00
  1.20100000E+01  1.00800000E+00  1.60000000E+01  1.20100000E+01  1.00800000E+00
  1.40100000E+01  1.20100000E+01  1.00800000E+00  1.20100000E+01  1.00800000E+00
  1.20100000E+01  1.40100000E+01  1.00800000E+00  1.00800000E+00  1.40100000E+01
  1.20100000E+01  1.60000000E+01  1.20100000E+01  1.00800000E+00  1.20100000E+01
  1.00800000E+00  1.60000000E+01  1.00800000E+00  1.60000000E+01  3.09700000E+01
  1.60000000E+01  1.60000000E+01  1.60000000E+01  1.20100000E+01  1.00800000E+00
  1.00800000E+00  1.20100000E+01  1.00800000E+00  1.60000000E+01  1.20100000E+01
  1.00800000E+00  1.40100000E+01  1.20100000E+01  1.00800000E+00  1.20100000E+01
  1.00800000E+00  1.20100000E+01  1.60000000E+01  1.40100000E+01  1.00800000E+00
  1.20100000E+01  1.60000000E+01  1.20100000E+01  1.00800000E+00  1.20100000E+01
  1.00800000E+00  1.60000000E+01  1.00800000E+00  1.60000000E+01  1.00800000E+00
  2.43050000E+01  2.43050000E+01  2.43050000E+01  2.43050000E+01  2.43050000E+01
  2.43050000E+01  2.43050000E+01  2.43050000E+01  2.43050000E+01  2.43050000E+01
  3.54500000E+01  3.54500000E+01  3.54500000E+01  3.54500000E+01  3.54500000E+01
  3.54500000E+01  3.54500000E+01  3.54500000E+01  3.54500000E+01  3.54500000E+01
  1.60000000E+01  1.00800000E+00  1.00800000E+00  0.00000000E+00  1.60000000E+01
  1.00800000E+00  1.00800000E+00  0.00000000E+00  1.60000000E+01  1.00800000E+00
  1.00800000E+00  0.00000000E+00  1.60000000E+01  1.00800000E+00  1.00800000E+00
  0.00000000E+00  1.60000000E+01  1.00800000E+00  1.00800000E+00  0.00000000E+00
  1.60000000E+01  1.00800000E+00  1.00800000E+00  0.00000000E+00  1.60000000E+01
  1.00800000E+00  1.00800000E+00  0.00000000E+00  1.60000000E+01  1.00800000E+00
  1.00800000E+00  0.00000000E+00  1.60000000E+01  1.00800000E+00  1.00800000E+00
  0.00000000E+00  1.60000000E+01  1.00800000E+00  1.00800000E+00  0.00000000E+00
  1.60000000E+01  1.00800000E+00  1.00800000E+00  0.00000000E+00  1.60000000E+01
  1.00800000E+00  1.00800000E+00  0.00000000E+00  1.60000000E+01  1.00800000E+00
  1.00800000E+00  0.00000000E+00  1.60000000E+01  1.00800000E+00  1.00800000E+00
  0.00000000E+00  1.60000000E+01  1.00800000E+00  1.00800000E+00  0.00000000E+00
  1.60000000E+01  1.00800000E+00  1.00800000E+00  0.00000000E+00  1.60000000E+01
  1.00800000E+00  1.00800000E+00  0.00000000E+00  1.60000000E+01  1.00800000E+00
  1.00800000E+00  0.00000000E+00  1.60000000E+01  1.00800000E+00  1.00800000E+00
  0.00000000E+00  1.60000000E+01  1.00800000E+00  1.00800000E+00  0.00000000E+00
  1.60000000E+01  1.00800000E+00  1.00800000E+00  0.00000000E+00  1.60000000E+01
  1.00800000E+00  1.00800000E+00  0.00000000E+00  1.60000000E+01  1.00800000E+00
  1.00800000E+00  0.00000000E+00  1.60000000E+01  1.00800000E+00  1.00800000E+00
  0.00000000E+00  1.60000000E+01  1.00800000E+00  1.00800000E+00  0.00000000E+00
  1.60000000E+01  1.00800000E+00  1.00800000E+00  0.00000000E+00  1.60000000E+01
  1.00800000E+00  1.00800000E+00  0.00000000E+00  1.60000000E+01  1.00800000E+00
  1.00800000E+00  0.00000000E+00  1.60000000E+01  1.00800000E+00  1.00800000E+00
  0.00000000E+00  1.60000000E+01  1.00800000E+00  1.00800000E+00  0.00000000E+00
  1.60000000E+01  1.00800000E+00  1.00800000E+00  0.00000000E+00  1.60000000E+01
  1.00800000E+00  1.00800000E+00  0.00000000E+00  1.60000000E+01  1.00800000E+00
  1.00800000E+00  0.00000000E+00  1.60000000E+01  1.00800000E+00  1.00800000E+00
  0.00000000E+00  1.60000000E+01  1.00800000E+00  1.00800000E+00  0.00000000E+00
  1.60000000E+01  1.00800000E+00  1.00800000E+00  0.00000000E+00  1.60000000E+01
  1.00800000E+00  1.00800000E+00  0.00000000E+00  1.60000000E+01  1.00800000E+00
  1.00800000E+00  0.00000000E+00  1.60000000E+01  1.00800000E+00  1.00800000E+00
  0.00000000E+00  1.60000000E+01  1.00800000E+00  1.00800000E+00  0.00000000E+00
  1.60000000E+01  1.00800000E+00  1.00800000E+00  0.00000000E+00  1.60000000E+01
  1.00800000E+00  1.00800000E+00  0.00000000E+00  1.60000000E+01  1.00800000E+00
  1.00800000E+00  0.00000000E+00  1.60000000E+01  1.00800000E+00  1.00800000E+00
  0.00000000E+00  1.60000000E+01  1.00800000E+00  1.00800000E+00  0.00000000E+00
  1.60000000E+01  1.00800000E+00  1.00800000E+00  0.00000000E+00  1.60000000E+01
  1.00800000E+00  1.00800000E+00  0.00000000E+00  1.60000000E+01  1.00800000E+00
  1.00800000E+00  0.00000000E+00  1.60000000E+01  1.00800000E+00  1.00800000E+00
  0.00000000E+00  1.60000000E+01  1.00800000E+00  1.00800000E+00  0.00000000E+00
  1.60000000E+01  1.00800000E+00  1.00800000E+00  0.00000000E+00  1.60000000E+01
  1.00800000E+00  1.00800000E+00  0.00000000E+00  1.60000000E+01  1.00800000E+00
  1.00800000E+00  0.00000000E+00  1.60000000E+01  1.00800000E+00  1.00800000E+00
  0.00000000E+00  1.60000000E+01  1.00800000E+00  1.00800000E+00  0.00000000E+00
  1.60000000E+01  1.00800000E+00  1.00800000E+00  0.00000000E+00  1.60000000E+01
  1.00800000E+00  1.00800000E+00  0.00000000E+00  1.60000000E+01  1.00800000E+00
  1.00800000E+00  0.00000000E+00  1.60000000E+01  1.00800000E+00  1.00800000E+00
  0.00000000E+00  1.60000000E+01  1.00800000E+00  1.00800000E+00  0.00000000E+00
  1.60000000E+01  1.00800000E+00  1.00800000E+00  0.00000000E+00  1.60000000E+01
  1.00800000E+00  1.00800000E+00  0.00000000E+00  1.60000000E+01  1.00800000E+00
  1.00800000E+00  0.00000000E+00  1.60000000E+01  1.00800000E+00  1.00800000E+00
  0.00000000E+00  1.60000000E+01  1.00800000E+00  1.00800000E+00  0.00000000E+00
  1.60000000E+01  1.00800000E+00  1.00800000E+00  0.00000000E+00  1.60000000E+01
  1.00800000E+00  1.00800000E+00  0.00000000E+00  1.60000000E+01  1.00800000E+00
  1.00800000E+00  0.00000000E+00  1.60000000E+01  1.00800000E+00  1.00800000E+00
  0.00000000E+00  1.60000000E+01  1.00800000E+00  1.00800000E+00  0.00000000E+00
  1.60000000E+01  1.00800000E+00  1.00800000E+00  0.00000000E+00  1.60000000E+01
  1.00800000E+00  1.00800000E+00  0.00000000E+00  1.60000000E+01  1.00800000E+00
  1.00800000E+00  0.00000000E+00  1.60000000E+01  1.00800000E+00  1.00800000E+00
  0.00000000E+00  1.60000000E+01  1.00800000E+00  1.00800000E+00  0.00000000E+00
  1.60000000E+01  1.00800000E+00  1.00800000E+00  0.00000000E+00  1.60000000E+01
  1.00800000E+00  1.00800000E+00  0.00000000E+00  1.60000000E+01  1.00800000E+00
  1.00800000E+00  0.00000000E+00  1.60000000E+01  1.00800000E+00  1.00800000E+00
  0.00000000E+00  1.60000000E+01  1.00800000E+00  1.00800000E+00  0.00000000E+00
  1.60000000E+01  1.00800000E+00  1.00800000E+00  0.00000000E+00  1.60000000E+01
  1.00800000E+00  1.00800000E+00  0.00000000E+00  1.60000000E+01  1.00800000E+00
  1.00800000E+00  0.00000000E+00  1.60000000E+01  1.00800000E+00  1.00800000E+00
  0.00000000E+00  1.60000000E+01  1.00800000E+00  1.00800000E+00  0.00000000E+00
  1.60000000E+01  1.00800000E+00  1.00800000E+00  0.00000000E+00  1.60000000E+01
  1.00800000E+00  1.00800000E+00  0.00000000E+00  1.60000000E+01  1.00800000E+00
  1.00800000E+00  0.00000000E+00  1.60000000E+01  1.00800000E+00  1.00800000E+00
  0.00000000E+00  1.60000000E+01  1.00800000E+00  1.00800000E+00  0.00000000E+00
  1.60000000E+01  1.00800000E+00  1.00800000E+00  0.00000000E+00  1.60000000E+01
  1.00800000E+00  1.00800000E+00  0.00000000E+00  1.60000000E+01  1.00800000E+00
  1.00800000E+00  0.00000000E+00  1.60000000E+01  1.00800000E+00  1.00800000E+00
  0.00000000E+00  1.60000000E+01  1.00800000E+00  1.00800000E+00  0.00000000E+00
  1.60000000E+01  1.00800000E+00  1.00800000E+00  0.00000000E+00  1.60000000E+01
  1.00800000E+00  1.00800000E+00  0.00000000E+00  1.60000000E+01  1.00800000E+00
  1.00800000E+00  0.00000000E+00  1.60000000E+01  1.00800000E+00  1.00800000E+00
  0.00000000E+00  1.60000000E+01  1.00800000E+00  1.00800000E+00  0.00000000E+00
  1.60000000E+01  1.00800000E+00  1.00800000E+00  0.00000000E+00  1.60000000E+01
  1.00800000E+00  1.00800000E+00  0.00000000E+00  1.60000000E+01  1.00800000E+00
  1.00800000E+00  0.00000000E+00  1.60000000E+01  1.00800000E+00  1.00800000E+00
  0.00000000E+00  1.60000000E+01  1.00800000E+00  1.00800000E+00  0.00000000E+00
  1.60000000E+01  1.00800000E+00  1.00800000E+00  0.00000000E+00  1.60000000E+01
  1.00800000E+00  1.00800000E+00  0.00000000E+00  1.60000000E+01  1.00800000E+00
  1.00800000E+00  0.00000000E+00  1.60000000E+01  1.00800000E+00  1.00800000E+00
  0.00000000E+00  1.60000000E+01  1.00800000E+00  1.00800000E+00  0.00000000E+00
  1.60000000E+01  1.00800000E+00  1.00800000E+00  0.00000000E+00  1.60000000E+01
  1.00800000E+00  1.00800000E+00  0.00000000E+00  1.60000000E+01  1.00800000E+00
  1.00800000E+00  0.00000000E+00  1.60000000E+01  1.00800000E+00  1.00800000E+00
  0.00000000E+00  1.60000000E+01  1.00800000E+00  1.00800000E+00  0.00000000E+00
  1.60000000E+01  1.00800000E+00  1.00800000E+00  0.00000000E+00  1.60000000E+01
  1.00800000E+00  1.00800000E+00  0.00000000E+00  1.60000000E+01  1.00800000E+00
  1.00800000E+00  0.00000000E+00  1.60000000E+01  1.00800000E+00  1.00800000E+00
  0.00000000E+00  1.60000000E+01  1.00800000E+00  1.00800000E+00  0.00000000E+00
  1.60000000E+01  1.00800000E+00  1.00800000E+00  0.00000000E+00  1.60000000E+01
  1.00800000E+00  1.00800000E+00  0.00000000E+00  1.60000000E+01  1.00800000E+00
  1.00800000E+00  0.00000000E+00  1.60000000E+01  1.00800000E+00  1.00800000E+00
  0.00000000E+00  1.60000000E+01  1.00800000E+00  1.00800000E+00  0.00000000E+00
  1.60000000E+01  1.00800000E+00  1.00800000E+00  0.00000000E+00  1.60000000E+01
  1.00800000E+00  1.00800000E+00  0.00000000E+00  1.60000000E+01  1.00800000E+00
  1.00800000E+00  0.00000000E+00  1.60000000E+01  1.00800000E+00  1.00800000E+00
  0.00000000E+00  1.60000000E+01  1.00800000E+00  1.00800000E+00  0.00000000E+00
  1.60000000E+01  1.00800000E+00  1.00800000E+00  0.00000000E+00  1.60000000E+01
  1.00800000E+00  1.00800000E+00  0.00000000E+00  1.60000000E+01  1.00800000E+00
  1.00800000E+00  0.00000000E+00  1.60000000E+01  1.00800000E+00  1.00800000E+00
  0.00000000E+00  1.60000000E+01  1.00800000E+00  1.00800000E+00  0.00000000E+00
  1.60000000E+01  1.00800000E+00  1.00800000E+00  0.00000000E+00  1.60000000E+01
  1.00800000E+00  1.00800000E+00  0.00000000E+00  1.60000000E+01  1.00800000E+00
  1.00800000E+00  0.00000000E+00  1.60000000E+01  1.00800000E+00  1.00800000E+00
  0.00000000E+00  1.60000000E+01  1.00800000E+00  1.00800000E+00  0.00000000E+00
  1.60000000E+01  1.00800000E+00  1.00800000E+00  0.00000000E+00  1.60000000E+01
  1.00800000E+00  1.00800000E+00  0.00000000E+00  1.60000000E+01  1.00800000E+00
  1.00800000E+00  0.00000000E+00  1.60000000E+01  1.00800000E+00  1.00800000E+00
  0.00000000E+00  1.60000000E+01  1.00800000E+00  1.00800000E+00  0.00000000E+00
  1.60000000E+01  1.00800000E+00  1.00800000E+00  0.00000000E+00  1.60000000E+01
  1.00800000E+00  1.00800000E+00  0.00000000E+00  1.60000000E+01  1.00800000E+00
  1.00800000E+00  0.00000000E+00  1.60000000E+01  1.00800000E+00  1.00800000E+00
  0.00000000E+00  1.60000000E+01  1.00800000E+00  1.00800000E+00  0.00000000E+00
  1.60000000E+01  1.00800000E+00  1.00800000E+00  0.00000000E+00  1.60000000E+01
  1.00800000E+00  1.00800000E+00  0.00000000E+00  1.60000000E+01  1.00800000E+00
  1.00800000E+00  0.00000000E+00  1.60000000E+01  1.00800000E+00  1.00800000E+00
  0.00000000E+00  1.60000000E+01  1.00800000E+00  1.00800000E+00  0.00000000E+00
  1.60000000E+01  1.00800000E+00  1.00800000E+00  0.00000000E+00  1.60000000E+01
  1.00800000E+00  1.00800000E+00  0.00000000E+00  1.60000000E+01  1.00800000E+00
  1.00800000E+00  0.00000000E+00  1.60000000E+01  1.00800000E+00  1.00800000E+00
  0.00000000E+00  1.60000000E+01  1.00800000E+00  1.00800000E+00  0.00000000E+00
  1.60000000E+01  1.00800000E+00  1.00800000E+00  0.00000000E+00  1.60000000E+01
  1.00800000E+00  1.00800000E+00  0.00000000E+00  1.60000000E+01  1.00800000E+00
  1.00800000E+00  0.00000000E+00  1.60000000E+01  1.00800000E+00  1.00800000E+00
  0.00000000E+00  1.60000000E+01  1.00800000E+00  1.00800000E+00  0.00000000E+00
  1.60000000E+01  1.00800000E+00  1.00800000E+00  0.00000000E+00  1.60000000E+01
  1.00800000E+00  1.00800000E+00  0.00000000E+00  1.60000000E+01  1.00800000E+00
  1.00800000E+00  0.00000000E+00  1.60000000E+01  1.00800000E+00  1.00800000E+00
  0.00000000E+00  1.60000000E+01  1.00800000E+00  1.00800000E+00  0.00000000E+00
  1.60000000E+01  1.00800000E+00  1.00800000E+00  0.00000000E+00  1.60000000E+01
  1.00800000E+00  1.00800000E+00  0.00000000E+00  1.60000000E+01  1.00800000E+00
  1.00800000E+00  0.00000000E+00  1.60000000E+01  1.00800000E+00  1.00800000E+00
  0.00000000E+00  1.60000000E+01  1.00800000E+00  1.00800000E+00  0.00000000E+00
  1.60000000E+01  1.00800000E+00  1.00800000E+00  0.00000000E+00  1.60000000E+01
  1.00800000E+00  1.00800000E+00  0.00000000E+00  1.60000000E+01  1.00800000E+00
  1.00800000E+00  0.00000000E+00  1.60000000E+01  1.00800000E+00  1.00800000E+00
  0.00000000E+00  1.60000000E+01  1.00800000E+00  1.00800000E+00  0.00000000E+00
  1.60000000E+01  1.00800000E+00  1.00800000E+00  0.00000000E+00  1.60000000E+01
  1.00800000E+00  1.00800000E+00  0.00000000E+00  1.60000000E+01  1.00800000E+00
  1.00800000E+00  0.00000000E+00  1.60000000E+01  1.00800000E+00  1.00800000E+00
  0.00000000E+00  1.60000000E+01  1.00800000E+00  1.00800000E+00  0.00000000E+00
  1.60000000E+01  1.00800000E+00  1.00800000E+00  0.00000000E+00  1.60000000E+01
  1.00800000E+00  1.00800000E+00  0.00000000E+00  1.60000000E+01  1.00800000E+00
  1.00800000E+00  0.00000000E+00  1.60000000E+01  1.00800000E+00  1.00800000E+00
  0.00000000E+00  1.60000000E+01  1.00800000E+00  1.00800000E+00  0.00000000E+00
  1.60000000E+01  1.00800000E+00  1.00800000E+00  0.00000000E+00  1.60000000E+01
  1.00800000E+00  1.00800000E+00  0.00000000E+00  1.60000000E+01  1.00800000E+00
  1.00800000E+00  0.00000000E+00  1.60000000E+01  1.00800000E+00  1.00800000E+00
  0.00000000E+00  1.60000000E+01  1.00800000E+00  1.00800000E+00  0.00000000E+00
  1.60000000E+01  1.00800000E+00  1.00800000E+00  0.00000000E+00  1.60000000E+01
  1.00800000E+00  1.00800000E+00  0.00000000E+00  1.60000000E+01  1.00800000E+00
  1.00800000E+00  0.00000000E+00  1.60000000E+01  1.00800000E+00  1.00800000E+00
  0.00000000E+00  1.60000000E+01  1.00800000E+00  1.00800000E+00  0.00000000E+00
  1.60000000E+01  1.00800000E+00  1.00800000E+00  0.00000000E+00  1.60000000E+01
  1.00800000E+00  1.00800000E+00  0.00000000E+00  1.60000000E+01  1.00800000E+00
  1.00800000E+00  0.00000000E+00  1.60000000E+01  1.00800000E+00  1.00800000E+00
  0.00000000E+00  1.60000000E+01  1.00800000E+00  1.00800000E+00  0.00000000E+00
  1.60000000E+01  1.00800000E+00  1.00800000E+00  0.00000000E+00  1.60000000E+01
  1.00800000E+00  1.00800000E+00  0.00000000E+00  1.60000000E+01  1.00800000E+00
  1.00800000E+00  0.00000000E+00  1.60000000E+01  1.00800000E+00  1.00800000E+00
  0.00000000E+00  1.60000000E+01  1.00800000E+00  1.00800000E+00  0.00000000E+00
  1.60000000E+01  1.00800000E+00  1.00800000E+00  0.00000000E+00  1.60000000E+01
  1.00800000E+00  1.00800000E+00  0.00000000E+00  1.60000000E+01  1.00800000E+00
  1.00800000E+00  0.00000000E+00  1.60000000E+01  1.00800000E+00  1.00800000E+00
  0.00000000E+00  1.60000000E+01  1.00800000E+00  1.00800000E+00  0.00000000E+00
  1.60000000E+01  1.00800000E+00  1.00800000E+00  0.00000000E+00  1.60000000E+01
  1.00800000E+00  1.00800000E+00  0.00000000E+00  1.60000000E+01  1.00800000E+00
  1.00800000E+00  0.00000000E+00  1.60000000E+01  1.00800000E+00  1.00800000E+00
  0.00000000E+00  1.60000000E+01  1.00800000E+00  1.00800000E+00  0.00000000E+00
  1.60000000E+01  1.00800000E+00  1.00800000E+00  0.00000000E+00  1.60000000E+01
  1.00800000E+00  1.00800000E+00  0.00000000E+00  1.60000000E+01  1.00800000E+00
  1.00800000E+00  0.00000000E+00  1.60000000E+01  1.00800000E+00  1.00800000E+00
  0.00000000E+00  1.60000000E+01  1.00800000E+00  1.00800000E+00  0.00000000E+00
  1.60000000E+01  1.00800000E+00  1.00800000E+00  0.00000000E+00  1.60000000E+01
  1.00800000E+00  1.00800000E+00  0.00000000E+00  1.60000000E+01  1.00800000E+00
  1.00800000E+00  0.00000000E+00  1.60000000E+01  1.00800000E+00  1.00800000E+00
  0.00000000E+00  1.60000000E+01  1.00800000E+00  1.00800000E+00  0.00000000E+00
  1.60000000E+01  1.00800000E+00  1.00800000E+00  0.00000000E+00  1.60000000E+01
  1.00800000E+00  1.00800000E+00  0.00000000E+00  1.60000000E+01  1.00800000E+00
  1.00800000E+00  0.00000000E+00  1.60000000E+01  1.00800000E+00  1.00800000E+00
  0.00000000E+00  1.60000000E+01  1.00800000E+00  1.00800000E+00  0.00000000E+00
  1.60000000E+01  1.00800000E+00  1.00800000E+00  0.00000000E+00  1.60000000E+01
  1.00800000E+00  1.00800000E+00  0.00000000E+00  1.60000000E+01  1.00800000E+00
  1.00800000E+00  0.00000000E+00  1.60000000E+01  1.00800000E+00  1.00800000E+00
  0.00000000E+00  1.60000000E+01  1.00800000E+00  1.00800000E+00  0.00000000E+00
  1.60000000E+01  1.00800000E+00  1.00800000E+00  0.00000000E+00  1.60000000E+01
  1.00800000E+00  1.00800000E+00  0.00000000E+00  1.60000000E+01  1.00800000E+00
  1.00800000E+00  0.00000000E+00  1.60000000E+01  1.00800000E+00  1.00800000E+00
  0.00000000E+00  1.60000000E+01  1.00800000E+00  1.00800000E+00  0.00000000E+00
  1.60000000E+01  1.00800000E+00  1.00800000E+00  0.00000000E+00  1.60000000E+01
  1.00800000E+00  1.00800000E+00  0.00000000E+00  1.60000000E+01  1.00800000E+00
  1.00800000E+00  0.00000000E+00  1.60000000E+01  1.00800000E+00  1.00800000E+00
  0.00000000E+00  1.60000000E+01  1.00800000E+00  1.00800000E+00  0.00000000E+00
  1.60000000E+01  1.00800000E+00  1.00800000E+00  0.00000000E+00  1.60000000E+01
  1.00800000E+00  1.00800000E+00  0.00000000E+00  1.60000000E+01  1.00800000E+00
  1.00800000E+00  0.00000000E+00  1.60000000E+01  1.00800000E+00  1.00800000E+00
  0.00000000E+00  1.60000000E+01  1.00800000E+00  1.00800000E+00  0.00000000E+00
  1.60000000E+01  1.00800000E+00  1.00800000E+00  0.00000000E+00  1.60000000E+01
  1.00800000E+00  1.00800000E+00  0.00000000E+00  1.60000000E+01  1.00800000E+00
  1.00800000E+00  0.00000000E+00  1.60000000E+01  1.00800000E+00  1.00800000E+00
  0.00000000E+00  1.60000000E+01  1.00800000E+00  1.00800000E+00  0.00000000E+00
  1.60000000E+01  1.00800000E+00  1.00800000E+00  0.00000000E+00  1.60000000E+01
  1.00800000E+00  1.00800000E+00  0.00000000E+00  1.60000000E+01  1.00800000E+00
  1.00800000E+00  0.00000000E+00  1.60000000E+01  1.00800000E+00  1.00800000E+00
  0.00000000E+00  1.60000000E+01  1.00800000E+00  1.00800000E+00  0.00000000E+00
  1.60000000E+01  1.00800000E+00  1.00800000E+00  0.00000000E+00  1.60000000E+01
  1.00800000E+00  1.00800000E+00  0.00000000E+00  1.60000000E+01  1.00800000E+00
  1.00800000E+00  0.00000000E+00  1.60000000E+01  1.00800000E+00  1.00800000E+00
  0.00000000E+00  1.60000000E+01  1.00800000E+00  1.00800000E+00  0.00000000E+00
  1.60000000E+01  1.00800000E+00  1.00800000E+00  0.00000000E+00  1.60000000E+01
  1.00800000E+00  1.00800000E+00  0.00000000E+00  1.60000000E+01  1.00800000E+00
  1.00800000E+00  0.00000000E+00  1.60000000E+01  1.00800000E+00  1.00800000E+00
  0.00000000E+00  1.60000000E+01  1.00800000E+00  1.00800000E+00  0.00000000E+00
  1.60000000E+01  1.00800000E+00  1.00800000E+00  0.00000000E+00  1.60000000E+01
  1.00800000E+00  1.00800000E+00  0.00000000E+00  1.60000000E+01  1.00800000E+00
  1.00800000E+00  0.00000000E+00  1.60000000E+01  1.00800000E+00  1.00800000E+00
  0.00000000E+00  1.60000000E+01  1.00800000E+00  1.00800000E+00  0.00000000E+00
  1.60000000E+01  1.00800000E+00  1.00800000E+00  0.00000000E+00  1.60000000E+01
  1.00800000E+00  1.00800000E+00  0.00000000E+00  1.60000000E+01  1.00800000E+00
  1.00800000E+00  0.00000000E+00  1.60000000E+01  1.00800000E+00  1.00800000E+00
  0.00000000E+00  1.60000000E+01  1.00800000E+00  1.00800000E+00  0.00000000E+00
  1.60000000E+01  1.00800000E+00  1.00800000E+00  0.00000000E+00  1.60000000E+01
  1.00800000E+00  1.00800000E+00  0.00000000E+00  1.60000000E+01  1.00800000E+00
  1.00800000E+00  0.00000000E+00  1.60000000E+01  1.00800000E+00  1.00800000E+00
  0.00000000E+00  1.60000000E+01  1.00800000E+00  1.00800000E+00  0.00000000E+00
  1.60000000E+01  1.00800000E+00  1.00800000E+00  0.00000000E+00  1.60000000E+01
  1.00800000E+00  1.00800000E+00  0.00000000E+00  1.60000000E+01  1.00800000E+00
  1.00800000E+00  0.00000000E+00  1.60000000E+01  1.00800000E+00  1.00800000E+00
  0.00000000E+00  1.60000000E+01  1.00800000E+00  1.00800000E+00  0.00000000E+00
  1.60000000E+01  1.00800000E+00  1.00800000E+00  0.00000000E+00  1.60000000E+01
  1.00800000E+00  1.00800000E+00  0.00000000E+00  1.60000000E+01  1.00800000E+00
  1.00800000E+00  0.00000000E+00  1.60000000E+01  1.00800000E+00  1.00800000E+00
  0.00000000E+00  1.60000000E+01  1.00800000E+00  1.00800000E+00  0.00000000E+00
  1.60000000E+01  1.00800000E+00  1.00800000E+00  0.00000000E+00  1.60000000E+01
  1.00800000E+00  1.00800000E+00  0.00000000E+00  1.60000000E+01  1.00800000E+00
  1.00800000E+00  0.00000000E+00  1.60000000E+01  1.00800000E+00  1.00800000E+00
  0.00000000E+00  1.60000000E+01  1.00800000E+00  1.00800000E+00  0.00000000E+00
  1.60000000E+01  1.00800000E+00  1.00800000E+00  0.00000000E+00  1.60000000E+01
  1.00800000E+00  1.00800000E+00  0.00000000E+00  1.60000000E+01  1.00800000E+00
  1.00800000E+00  0.00000000E+00  1.60000000E+01  1.00800000E+00  1.00800000E+00
  0.00000000E+00  1.60000000E+01  1.00800000E+00  1.00800000E+00  0.00000000E+00
  1.60000000E+01  1.00800000E+00  1.00800000E+00  0.00000000E+00  1.60000000E+01
  1.00800000E+00  1.00800000E+00  0.00000000E+00  1.60000000E+01  1.00800000E+00
  1.00800000E+00  0.00000000E+00  1.60000000E+01  1.00800000E+00  1.00800000E+00
  0.00000000E+00  1.60000000E+01  1.00800000E+00  1.00800000E+00  0.00000000E+00
  1.60000000E+01  1.00800000E+00  1.00800000E+00  0.00000000E+00  1.60000000E+01
  1.00800000E+00  1.00800000E+00  0.00000000E+00  1.60000000E+01  1.00800000E+00
  1.00800000E+00  0.00000000E+00  1.60000000E+01  1.00800000E+00  1.00800000E+00
  0.00000000E+00  1.60000000E+01  1.00800000E+00  1.00800000E+00  0.00000000E+00
  1.60000000E+01  1.00800000E+00  1.00800000E+00  0.00000000E+00  1.60000000E+01
  1.00800000E+00  1.00800000E+00  0.00000000E+00  1.60000000E+01  1.00800000E+00
  1.00800000E+00  0.00000000E+00  1.60000000E+01  1.00800000E+00  1.00800000E+00
  0.00000000E+00  1.60000000E+01  1.00800000E+00  1.00800000E+00  0.00000000E+00
  1.60000000E+01  1.00800000E+00  1.00800000E+00  0.00000000E+00  1.60000000E+01
  1.00800000E+00  1.00800000E+00  0.00000000E+00  1.60000000E+01  1.00800000E+00
  1.00800000E+00  0.00000000E+00  1.60000000E+01  1.00800000E+00  1.00800000E+00
  0.00000000E+00  1.60000000E+01  1.00800000E+00  1.00800000E+00  0.00000000E+00
  1.60000000E+01  1.00800000E+00  1.00800000E+00  0.00000000E+00  1.60000000E+01
  1.00800000E+00  1.00800000E+00  0.00000000E+00  1.60000000E+01  1.00800000E+00
  1.00800000E+00  0.00000000E+00  1.60000000E+01  1.00800000E+00  1.00800000E+00
  0.00000000E+00  1.60000000E+01  1.00800000E+00  1.00800000E+00  0.00000000E+00
  1.60000000E+01  1.00800000E+00  1.00800000E+00  0.00000000E+00  1.60000000E+01
  1.00800000E+00  1.00800000E+00  0.00000000E+00  1.60000000E+01  1.00800000E+00
  1.00800000E+00  0.00000000E+00  1.60000000E+01  1.00800000E+00  1.00800000E+00
  0.00000000E+00  1.60000000E+01  1.00800000E+00  1.00800000E+00  0.00000000E+00
  1.60000000E+01  1.00800000E+00  1.00800000E+00  0.00000000E+00  1.60000000E+01
  1.00800000E+00  1.00800000E+00  0.00000000E+00  1.60000000E+01  1.00800000E+00
  1.00800000E+00  0.00000000E+00  1.60000000E+01  1.00800000E+00  1.00800000E+00
  0.00000000E+00  1.60000000E+01  1.00800000E+00  1.00800000E+00  0.00000000E+00
  1.60000000E+01  1.00800000E+00  1.00800000E+00  0.00000000E+00  1.60000000E+01
  1.00800000E+00  1.00800000E+00  0.00000000E+00  1.60000000E+01  1.00800000E+00
  1.00800000E+00  0.00000000E+00  1.60000000E+01  1.00800000E+00  1.00800000E+00
  0.00000000E+00  1.60000000E+01  1.00800000E+00  1.00800000E+00  0.00000000E+00
  1.60000000E+01  1.00800000E+00  1.00800000E+00  0.00000000E+00  1.60000000E+01
  1.00800000E+00  1.00800000E+00  0.00000000E+00  1.60000000E+01  1.00800000E+00
  1.00800000E+00  0.00000000E+00  1.60000000E+01  1.00800000E+00  1.00800000E+00
  0.00000000E+00  1.60000000E+01  1.00800000E+00  1.00800000E+00  0.00000000E+00
  1.60000000E+01  1.00800000E+00  1.00800000E+00  0.00000000E+00  1.60000000E+01
  1.00800000E+00  1.00800000E+00  0.00000000E+00  1.60000000E+01  1.00800000E+00
  1.00800000E+00  0.00000000E+00  1.60000000E+01  1.00800000E+00  1.00800000E+00
  0.00000000E+00  1.60000000E+01  1.00800000E+00  1.00800000E+00  0.00000000E+00
  1.60000000E+01  1.00800000E+00  1.00800000E+00  0.00000000E+00  1.60000000E+01
  1.00800000E+00  1.00800000E+00  0.00000000E+00  1.60000000E+01  1.00800000E+00
  1.00800000E+00  0.00000000E+00  1.60000000E+01  1.00800000E+00  1.00800000E+00
  0.00000000E+00  1.60000000E+01  1.00800000E+00  1.00800000E+00  0.00000000E+00
  1.60000000E+01  1.00800000E+00  1.00800000E+00  0.00000000E+00  1.60000000E+01
  1.00800000E+00  1.00800000E+00  0.00000000E+00  1.60000000E+01  1.00800000E+00
  1.00800000E+00  0.00000000E+00  1.60000000E+01  1.00800000E+00  1.00800000E+00
  0.00000000E+00  1.60000000E+01  1.00800000E+00  1.00800000E+00  0.00000000E+00
  1.60000000E+01  1.00800000E+00  1.00800000E+00  0.00000000E+00  1.60000000E+01
  1.00800000E+00  1.00800000E+00  0.00000000E+00  1.60000000E+01  1.00800000E+00
  1.00800000E+00  0.00000000E+00  1.60000000E+01  1.00800000E+00  1.00800000E+00
  0.00000000E+00  1.60000000E+01  1.00800000E+00  1.00800000E+00  0.00000000E+00
  1.60000000E+01  1.00800000E+00  1.00800000E+00  0.00000000E+00  1.60000000E+01
  1.00800000E+00  1.00800000E+00  0.00000000E+00  1.60000000E+01  1.00800000E+00
  1.00800000E+00  0.00000000E+00  1.60000000E+01  1.00800000E+00  1.00800000E+00
  0.00000000E+00  1.60000000E+01  1.00800000E+00  1.00800000E+00  0.00000000E+00
  1.60000000E+01  1.00800000E+00  1.00800000E+00  0.00000000E+00  1.60000000E+01
  1.00800000E+00  1.00800000E+00  0.00000000E+00  1.60000000E+01  1.00800000E+00
  1.00800000E+00  0.00000000E+00  1.60000000E+01  1.00800000E+00  1.00800000E+00
  0.00000000E+00  1.60000000E+01  1.00800000E+00  1.00800000E+00  0.00000000E+00
  1.60000000E+01  1.00800000E+00  1.00800000E+00  0.00000000E+00  1.60000000E+01
  1.00800000E+00  1.00800000E+00  0.00000000E+00  1.60000000E+01  1.00800000E+00
  1.00800000E+00  0.00000000E+00  1.60000000E+01  1.00800000E+00  1.00800000E+00
  0.00000000E+00  1.60000000E+01  1.00800000E+00  1.00800000E+00  0.00000000E+00
  1.60000000E+01  1.00800000E+00  1.00800000E+00  0.00000000E+00  1.60000000E+01
  1.00800000E+00  1.00800000E+00  0.00000000E+00  1.60000000E+01  1.00800000E+00
  1.00800000E+00  0.00000000E+00  1.60000000E+01  1.00800000E+00  1.00800000E+00
  0.00000000E+00  1.60000000E+01  1.00800000E+00  1.00800000E+00  0.00000000E+00
  1.60000000E+01  1.00800000E+00  1.00800000E+00  0.00000000E+00  1.60000000E+01
  1.00800000E+00  1.00800000E+00  0.00000000E+00  1.60000000E+01  1.00800000E+00
  1.00800000E+00  0.00000000E+00  1.60000000E+01  1.00800000E+00  1.00800000E+00
  0.00000000E+00  1.60000000E+01  1.00800000E+00  1.00800000E+00  0.00000000E+00
  1.60000000E+01  1.00800000E+00  1.00800000E+00  0.00000000E+00  1.60000000E+01
  1.00800000E+00  1.00800000E+00  0.00000000E+00  1.60000000E+01  1.00800000E+00
  1.00800000E+00  0.00000000E+00  1.60000000E+01  1.00800000E+00  1.00800000E+00
  0.00000000E+00  1.60000000E+01  1.00800000E+00  1.00800000E+00  0.00000000E+00
  1.60000000E+01  1.00800000E+00  1.00800000E+00  0.00000000E+00  1.60000000E+01
  1.00800000E+00  1.00800000E+00  0.00000000E+00  1.60000000E+01  1.00800000E+00
  1.00800000E+00  0.00000000E+00  1.60000000E+01  1.00800000E+00  1.00800000E+00
  0.00000000E+00  1.60000000E+01  1.00800000E+00  1.00800000E+00  0.00000000E+00
  1.60000000E+01  1.00800000E+00  1.00800000E+00  0.00000000E+00  1.60000000E+01
  1.00800000E+00  1.00800000E+00  0.00000000E+00  1.60000000E+01  1.00800000E+00
  1.00800000E+00  0.00000000E+00  1.60000000E+01  1.00800000E+00  1.00800000E+00
  0.00000000E+00  1.60000000E+01  1.00800000E+00  1.00800000E+00  0.00000000E+00
  1.60000000E+01  1.00800000E+00  1.00800000E+00  0.00000000E+00  1.60000000E+01
  1.00800000E+00  1.00800000E+00  0.00000000E+00  1.60000000E+01  1.00800000E+00
  1.00800000E+00  0.00000000E+00  1.60000000E+01  1.00800000E+00  1.00800000E+00
  0.00000000E+00  1.60000000E+01  1.00800000E+00  1.00800000E+00  0.00000000E+00
  1.60000000E+01  1.00800000E+00  1.00800000E+00  0.00000000E+00  1.60000000E+01
  1.00800000E+00  1.00800000E+00  0.00000000E+00  1.60000000E+01  1.00800000E+00
  1.00800000E+00  0.00000000E+00  1.60000000E+01  1.00800000E+00  1.00800000E+00
  0.00000000E+00  1.60000000E+01  1.00800000E+00  1.00800000E+00  0.00000000E+00
  1.60000000E+01  1.00800000E+00  1.00800000E+00  0.00000000E+00  1.60000000E+01
  1.00800000E+00  1.00800000E+00  0.00000000E+00  1.60000000E+01  1.00800000E+00
  1.00800000E+00  0.00000000E+00  1.60000000E+01  1.00800000E+00  1.00800000E+00
  0.00000000E+00  1.60000000E+01  1.00800000E+00  1.00800000E+00  0.00000000E+00
  1.60000000E+01  1.00800000E+00  1.00800000E+00  0.00000000E+00  1.60000000E+01
  1.00800000E+00  1.00800000E+00  0.00000000E+00  1.60000000E+01  1.00800000E+00
  1.00800000E+00  0.00000000E+00  1.60000000E+01  1.00800000E+00  1.00800000E+00
  0.00000000E+00  1.60000000E+01  1.00800000E+00  1.00800000E+00  0.00000000E+00
  1.60000000E+01  1.00800000E+00  1.00800000E+00  0.00000000E+00  1.60000000E+01
  1.00800000E+00  1.00800000E+00  0.00000000E+00  1.60000000E+01  1.00800000E+00
  1.00800000E+00  0.00000000E+00  1.60000000E+01  1.00800000E+00  1.00800000E+00
  0.00000000E+00  1.60000000E+01  1.00800000E+00  1.00800000E+00  0.00000000E+00
  1.60000000E+01  1.00800000E+00  1.00800000E+00  0.00000000E+00  1.60000000E+01
  1.00800000E+00  1.00800000E+00  0.00000000E+00  1.60000000E+01  1.00800000E+00
  1.00800000E+00  0.00000000E+00  1.60000000E+01  1.00800000E+00  1.00800000E+00
  0.00000000E+00  1.60000000E+01  1.00800000E+00  1.00800000E+00  0.00000000E+00
  1.60000000E+01  1.00800000E+00  1.00800000E+00  0.00000000E+00  1.60000000E+01
  1.00800000E+00  1.00800000E+00  0.00000000E+00  1.60000000E+01  1.00800000E+00
  1.00800000E+00  0.00000000E+00  1.60000000E+01  1.00800000E+00  1.00800000E+00
  0.00000000E+00  1.60000000E+01  1.00800000E+00  1.00800000E+00  0.00000000E+00
  1.60000000E+01  1.00800000E+00  1.00800000E+00  0.00000000E+00  1.60000000E+01
  1.00800000E+00  1.00800000E+00  0.00000000E+00  1.60000000E+01  1.00800000E+00
  1.00800000E+00  0.00000000E+00  1.60000000E+01  1.00800000E+00  1.00800000E+00
  0.00000000E+00  1.60000000E+01  1.00800000E+00  1.00800000E+00  0.00000000E+00
  1.60000000E+01  1.00800000E+00  1.00800000E+00  0.00000000E+00  1.60000000E+01
  1.00800000E+00  1.00800000E+00  0.00000000E+00  1.60000000E+01  1.00800000E+00
  1.00800000E+00  0.00000000E+00  1.60000000E+01  1.00800000E+00  1.00800000E+00
  0.00000000E+00  1.60000000E+01  1.00800000E+00  1.00800000E+00  0.00000000E+00
  1.60000000E+01  1.00800000E+00  1.00800000E+00  0.00000000E+00  1.60000000E+01
  1.00800000E+00  1.00800000E+00  0.00000000E+00  1.60000000E+01  1.00800000E+00
  1.00800000E+00  0.00000000E+00  1.60000000E+01  1.00800000E+00  1.00800000E+00
  0.00000000E+00  1.60000000E+01  1.00800000E+00  1.00800000E+00  0.00000000E+00
  1.60000000E+01  1.00800000E+00  1.00800000E+00  0.00000000E+00  1.60000000E+01
  1.00800000E+00  1.00800000E+00  0.00000000E+00  1.60000000E+01  1.00800000E+00
  1.00800000E+00  0.00000000E+00  1.60000000E+01  1.00800000E+00  1.00800000E+00
  0.00000000E+00  1.60000000E+01  1.00800000E+00  1.00800000E+00  0.00000000E+00
  1.60000000E+01  1.00800000E+00  1.00800000E+00  0.00000000E+00  1.60000000E+01
  1.00800000E+00  1.00800000E+00  0.00000000E+00  1.60000000E+01  1.00800000E+00
  1.00800000E+00  0.00000000E+00  1.60000000E+01  1.00800000E+00  1.00800000E+00
  0.00000000E+00  1.60000000E+01  1.00800000E+00  1.00800000E+00  0.00000000E+00
  1.60000000E+01  1.00800000E+00  1.00800000E+00  0.00000000E+00  1.60000000E+01
  1.00800000E+00  1.00800000E+00  0.00000000E+00  1.60000000E+01  1.00800000E+00
  1.00800000E+00  0.00000000E+00  1.60000000E+01  1.00800000E+00  1.00800000E+00
  0.00000000E+00  1.60000000E+01  1.00800000E+00  1.00800000E+00  0.00000000E+00
  1.60000000E+01  1.00800000E+00  1.00800000E+00  0.00000000E+00  1.60000000E+01
  1.00800000E+00  1.00800000E+00  0.00000000E+00  1.60000000E+01  1.00800000E+00
  1.00800000E+00  0.00000000E+00  1.60000000E+01  1.00800000E+00  1.00800000E+00
  0.00000000E+00  1.60000000E+01  1.00800000E+00  1.00800000E+00  0.00000000E+00
  1.60000000E+01  1.00800000E+00  1.00800000E+00  0.00000000E+00  1.60000000E+01
  1.00800000E+00  1.00800000E+00  0.00000000E+00  1.60000000E+01  1.00800000E+00
  1.00800000E+00  0.00000000E+00  1.60000000E+01  1.00800000E+00  1.00800000E+00
  0.00000000E+00  1.60000000E+01  1.00800000E+00  1.00800000E+00  0.00000000E+00
  1.60000000E+01  1.00800000E+00  1.00800000E+00  0.00000000E+00  1.60000000E+01
  1.00800000E+00  1.00800000E+00  0.00000000E+00  1.60000000E+01  1.00800000E+00
  1.00800000E+00  0.00000000E+00  1.60000000E+01  1.00800000E+00  1.00800000E+00
  0.00000000E+00  1.60000000E+01  1.00800000E+00  1.00800000E+00  0.00000000E+00
  1.60000000E+01  1.00800000E+00  1.00800000E+00  0.00000000E+00  1.60000000E+01
  1.00800000E+00  1.00800000E+00  0.00000000E+00  1.60000000E+01  1.00800000E+00
  1.00800000E+00  0.00000000E+00  1.60000000E+01  1.00800000E+00  1.00800000E+00
  0.00000000E+00  1.60000000E+01  1.00800000E+00  1.00800000E+00  0.00000000E+00
  1.60000000E+01  1.00800000E+00  1.00800000E+00  0.00000000E+00  1.60000000E+01
  1.00800000E+00  1.00800000E+00  0.00000000E+00  1.60000000E+01  1.00800000E+00
  1.00800000E+00  0.00000000E+00  1.60000000E+01  1.00800000E+00  1.00800000E+00
  0.00000000E+00  1.60000000E+01  1.00800000E+00  1.00800000E+00  0.00000000E+00
  1.60000000E+01  1.00800000E+00  1.00800000E+00  0.00000000E+00  1.60000000E+01
  1.00800000E+00  1.00800000E+00  0.00000000E+00  1.60000000E+01  1.00800000E+00
  1.00800000E+00  0.00000000E+00  1.60000000E+01  1.00800000E+00  1.00800000E+00
  0.00000000E+00  1.60000000E+01  1.00800000E+00  1.00800000E+00  0.00000000E+00
  1.60000000E+01  1.00800000E+00  1.00800000E+00  0.00000000E+00  1.60000000E+01
  1.00800000E+00  1.00800000E+00  0.00000000E+00  1.60000000E+01  1.00800000E+00
  1.00800000E+00  0.00000000E+00  1.60000000E+01  1.00800000E+00  1.00800000E+00
  0.00000000E+00  1.60000000E+01  1.00800000E+00  1.00800000E+00  0.00000000E+00
  1.60000000E+01  1.00800000E+00  1.00800000E+00  0.00000000E+00  1.60000000E+01
  1.00800000E+00  1.00800000E+00  0.00000000E+00  1.60000000E+01  1.00800000E+00
  1.00800000E+00  0.00000000E+00  1.60000000E+01  1.00800000E+00  1.00800000E+00
  0.00000000E+00  1.60000000E+01  1.00800000E+00  1.00800000E+00  0.00000000E+00
  1.60000000E+01  1.00800000E+00  1.00800000E+00  0.00000000E+00  1.60000000E+01
  1.00800000E+00  1.00800000E+00  0.00000000E+00  1.60000000E+01  1.00800000E+00
  1.00800000E+00  0.00000000E+00  1.60000000E+01  1.00800000E+00  1.00800000E+00
  0.00000000E+00  1.60000000E+01  1.00800000E+00  1.00800000E+00  0.00000000E+00
  1.60000000E+01  1.00800000E+00  1.00800000E+00  0.00000000E+00  1.60000000E+01
  1.00800000E+00  1.00800000E+00  0.00000000E+00  1.60000000E+01  1.00800000E+00
  1.00800000E+00  0.00000000E+00  1.60000000E+01  1.00800000E+00  1.00800000E+00
  0.00000000E+00  1.60000000E+01  1.00800000E+00  1.00800000E+00  0.00000000E+00
  1.60000000E+01  1.00800000E+00  1.00800000E+00  0.00000000E+00  1.60000000E+01
  1.00800000E+00  1.00800000E+00  0.00000000E+00  1.60000000E+01  1.00800000E+00
  1.00800000E+00  0.00000000E+00  1.60000000E+01  1.00800000E+00  1.00800000E+00
  0.00000000E+00  1.60000000E+01  1.00800000E+00  1.00800000E+00  0.00000000E+00
  1.60000000E+01  1.00800000E+00  1.00800000E+00  0.00000000E+00  1.60000000E+01
  1.00800000E+00  1.00800000E+00  0.00000000E+00  1.60000000E+01  1.00800000E+00
  1.00800000E+00  0.00000000E+00  1.60000000E+01  1.00800000E+00  1.00800000E+00
  0.00000000E+00  1.60000000E+01  1.00800000E+00  1.00800000E+00  0.00000000E+00
  1.60000000E+01  1.00800000E+00  1.00800000E+00  0.00000000E+00  1.60000000E+01
  1.00800000E+00  1.00800000E+00  0.00000000E+00  1.60000000E+01  1.00800000E+00
  1.00800000E+00  0.00000000E+00  1.60000000E+01  1.00800000E+00  1.00800000E+00
  0.00000000E+00  1.60000000E+01  1.00800000E+00  1.00800000E+00  0.00000000E+00
  1.60000000E+01  1.00800000E+00  1.00800000E+00  0.00000000E+00  1.60000000E+01
  1.00800000E+00  1.00800000E+00  0.00000000E+00  1.60000000E+01  1.00800000E+00
  1.00800000E+00  0.00000000E+00  1.60000000E+01  1.00800000E+00  1.00800000E+00
  0.00000000E+00  1.60000000E+01  1.00800000E+00  1.00800000E+00  0.00000000E+00
  1.60000000E+01  1.00800000E+00  1.00800000E+00  0.00000000E+00  1.60000000E+01
  1.00800000E+00  1.00800000E+00  0.00000000E+00  1.60000000E+01  1.00800000E+00
  1.00800000E+00  0.00000000E+00  1.60000000E+01  1.00800000E+00  1.00800000E+00
  0.00000000E+00  1.60000000E+01  1.00800000E+00  1.00800000E+00  0.00000000E+00
  1.60000000E+01  1.00800000E+00  1.00800000E+00  0.00000000E+00  1.60000000E+01
  1.00800000E+00  1.00800000E+00  0.00000000E+00  1.60000000E+01  1.00800000E+00
  1.00800000E+00  0.00000000E+00  1.60000000E+01  1.00800000E+00  1.00800000E+00
  0.00000000E+00  1.60000000E+01  1.00800000E+00  1.00800000E+00  0.00000000E+00
  1.60000000E+01  1.00800000E+00  1.00800000E+00  0.00000000E+00  1.60000000E+01
  1.00800000E+00  1.00800000E+00  0.00000000E+00  1.60000000E+01  1.00800000E+00
  1.00800000E+00  0.00000000E+00  1.60000000E+01  1.00800000E+00  1.00800000E+00
  0.00000000E+00  1.60000000E+01  1.00800000E+00  1.00800000E+00  0.00000000E+00
  1.60000000E+01  1.00800000E+00  1.00800000E+00  0.00000000E+00  1.60000000E+01
  1.00800000E+00  1.00800000E+00  0.00000000E+00  1.60000000E+01  1.00800000E+00
  1.00800000E+00  0.00000000E+00  1.60000000E+01  1.00800000E+00  1.00800000E+00
  0.00000000E+00  1.60000000E+01  1.00800000E+00  1.00800000E+00  0.00000000E+00
  1.60000000E+01  1.00800000E+00  1.00800000E+00  0.00000000E+00  1.60000000E+01
  1.00800000E+00  1.00800000E+00  0.00000000E+00  1.60000000E+01  1.00800000E+00
  1.00800000E+00  0.00000000E+00  1.60000000E+01  1.00800000E+00  1.00800000E+00
  0.00000000E+00  1.60000000E+01  1.00800000E+00  1.00800000E+00  0.00000000E+00
  1.60000000E+01  1.00800000E+00  1.00800000E+00  0.00000000E+00  1.60000000E+01
  1.00800000E+00  1.00800000E+00  0.00000000E+00  1.60000000E+01  1.00800000E+00
  1.00800000E+00  0.00000000E+00  1.60000000E+01  1.00800000E+00  1.00800000E+00
  0.00000000E+00  1.60000000E+01  1.00800000E+00  1.00800000E+00  0.00000000E+00
  1.60000000E+01  1.00800000E+00  1.00800000E+00  0.00000000E+00  1.60000000E+01
  1.00800000E+00  1.00800000E+00  0.00000000E+00  1.60000000E+01  1.00800000E+00
  1.00800000E+00  0.00000000E+00  1.60000000E+01  1.00800000E+00  1.00800000E+00
  0.00000000E+00  1.60000000E+01  1.00800000E+00  1.00800000E+00  0.00000000E+00
  1.60000000E+01  1.00800000E+00  1.00800000E+00  0.00000000E+00  1.60000000E+01
  1.00800000E+00  1.00800000E+00  0.00000000E+00  1.60000000E+01  1.00800000E+00
  1.00800000E+00  0.00000000E+00  1.60000000E+01  1.00800000E+00  1.00800000E+00
  0.00000000E+00  1.60000000E+01  1.00800000E+00  1.00800000E+00  0.00000000E+00
  1.60000000E+01  1.00800000E+00  1.00800000E+00  0.00000000E+00  1.60000000E+01
  1.00800000E+00  1.00800000E+00  0.00000000E+00  1.60000000E+01  1.00800000E+00
  1.00800000E+00  0.00000000E+00  1.60000000E+01  1.00800000E+00  1.00800000E+00
  0.00000000E+00  1.60000000E+01  1.00800000E+00  1.00800000E+00  0.00000000E+00
  1.60000000E+01  1.00800000E+00  1.00800000E+00  0.00000000E+00  1.60000000E+01
  1.00800000E+00  1.00800000E+00  0.00000000E+00  1.60000000E+01  1.00800000E+00
  1.00800000E+00  0.00000000E+00  1.60000000E+01  1.00800000E+00  1.00800000E+00
  0.00000000E+00  1.60000000E+01  1.00800000E+00  1.00800000E+00  0.00000000E+00
  1.60000000E+01  1.00800000E+00  1.00800000E+00  0.00000000E+00  1.60000000E+01
  1.00800000E+00  1.00800000E+00  0.00000000E+00  1.60000000E+01  1.00800000E+00
  1.00800000E+00  0.00000000E+00  1.60000000E+01  1.00800000E+00  1.00800000E+00
  0.00000000E+00  1.60000000E+01  1.00800000E+00  1.00800000E+00  0.00000000E+00
  1.60000000E+01  1.00800000E+00  1.00800000E+00  0.00000000E+00  1.60000000E+01
  1.00800000E+00  1.00800000E+00  0.00000000E+00  1.60000000E+01  1.00800000E+00
  1.00800000E+00  0.00000000E+00  1.60000000E+01  1.00800000E+00  1.00800000E+00
  0.00000000E+00  1.60000000E+01  1.00800000E+00  1.00800000E+00  0.00000000E+00
  1.60000000E+01  1.00800000E+00  1.00800000E+00  0.00000000E+00  1.60000000E+01
  1.00800000E+00  1.00800000E+00  0.00000000E+00  1.60000000E+01  1.00800000E+00
  1.00800000E+00  0.00000000E+00  1.60000000E+01  1.00800000E+00  1.00800000E+00
  0.00000000E+00  1.60000000E+01  1.00800000E+00  1.00800000E+00  0.00000000E+00
  1.60000000E+01  1.00800000E+00  1.00800000E+00  0.00000000E+00  1.60000000E+01
  1.00800000E+00  1.00800000E+00  0.00000000E+00  1.60000000E+01  1.00800000E+00
  1.00800000E+00  0.00000000E+00  1.60000000E+01  1.00800000E+00  1.00800000E+00
  0.00000000E+00  1.60000000E+01  1.00800000E+00  1.00800000E+00  0.00000000E+00
  1.60000000E+01  1.00800000E+00  1.00800000E+00  0.00000000E+00  1.60000000E+01
  1.00800000E+00  1.00800000E+00  0.00000000E+00  1.60000000E+01  1.00800000E+00
  1.00800000E+00  0.00000000E+00  1.60000000E+01  1.00800000E+00  1.00800000E+00
  0.00000000E+00  1.60000000E+01  1.00800000E+00  1.00800000E+00  0.00000000E+00
  1.60000000E+01  1.00800000E+00  1.00800000E+00  0.00000000E+00  1.60000000E+01
  1.00800000E+00  1.00800000E+00  0.00000000E+00  1.60000000E+01  1.00800000E+00
  1.00800000E+00  0.00000000E+00  1.60000000E+01  1.00800000E+00  1.00800000E+00
  0.00000000E+00  1.60000000E+01  1.00800000E+00  1.00800000E+00  0.00000000E+00
  1.60000000E+01  1.00800000E+00  1.00800000E+00  0.00000000E+00  1.60000000E+01
  1.00800000E+00  1.00800000E+00  0.00000000E+00  1.60000000E+01  1.00800000E+00
  1.00800000E+00  0.00000000E+00  1.60000000E+01  1.00800000E+00  1.00800000E+00
  0.00000000E+00  1.60000000E+01  1.00800000E+00  1.00800000E+00  0.00000000E+00
  1.60000000E+01  1.00800000E+00  1.00800000E+00  0.00000000E+00  1.60000000E+01
  1.00800000E+00  1.00800000E+00  0.00000000E+00  1.60000000E+01  1.00800000E+00
  1.00800000E+00  0.00000000E+00  1.60000000E+01  1.00800000E+00  1.00800000E+00
  0.00000000E+00  1.60000000E+01  1.00800000E+00  1.00800000E+00  0.00000000E+00
  1.60000000E+01  1.00800000E+00  1.00800000E+00  0.00000000E+00  1.60000000E+01
  1.00800000E+00  1.00800000E+00  0.00000000E+00  1.60000000E+01  1.00800000E+00
  1.00800000E+00  0.00000000E+00  1.60000000E+01  1.00800000E+00  1.00800000E+00
  0.00000000E+00  1.60000000E+01  1.00800000E+00  1.00800000E+00  0.00000000E+00
  1.60000000E+01  1.00800000E+00  1.00800000E+00  0.00000000E+00  1.60000000E+01
  1.00800000E+00  1.00800000E+00  0.00000000E+00  1.60000000E+01  1.00800000E+00
  1.00800000E+00  0.00000000E+00  1.60000000E+01  1.00800000E+00  1.00800000E+00
  0.00000000E+00  1.60000000E+01  1.00800000E+00  1.00800000E+00  0.00000000E+00
  1.60000000E+01  1.00800000E+00  1.00800000E+00  0.00000000E+00  1.60000000E+01
  1.00800000E+00  1.00800000E+00  0.00000000E+00  1.60000000E+01  1.00800000E+00
  1.00800000E+00  0.00000000E+00  1.60000000E+01  1.00800000E+00  1.00800000E+00
  0.00000000E+00  1.60000000E+01  1.00800000E+00  1.00800000E+00  0.00000000E+00
  1.60000000E+01  1.00800000E+00  1.00800000E+00  0.00000000E+00  1.60000000E+01
  1.00800000E+00  1.00800000E+00  0.00000000E+00  1.60000000E+01  1.00800000E+00
  1.00800000E+00  0.00000000E+00  1.60000000E+01  1.00800000E+00  1.00800000E+00
  0.00000000E+00  1.60000000E+01  1.00800000E+00  1.00800000E+00  0.00000000E+00
  1.60000000E+01  1.00800000E+00  1.00800000E+00  0.00000000E+00  1.60000000E+01
  1.00800000E+00  1.00800000E+00  0.00000000E+00  1.60000000E+01  1.00800000E+00
  1.00800000E+00  0.00000000E+00  1.60000000E+01  1.00800000E+00  1.00800000E+00
  0.00000000E+00  1.60000000E+01  1.00800000E+00  1.00800000E+00  0.00000000E+00
  1.60000000E+01  1.00800000E+00  1.00800000E+00  0.00000000E+00  1.60000000E+01
  1.00800000E+00  1.00800000E+00  0.00000000E+00  1.60000000E+01  1.00800000E+00
  1.00800000E+00  0.00000000E+00  1.60000000E+01  1.00800000E+00  1.00800000E+00
  0.00000000E+00  1.60000000E+01  1.00800000E+00  1.00800000E+00  0.00000000E+00
  1.60000000E+01  1.00800000E+00  1.00800000E+00  0.00000000E+00  1.60000000E+01
  1.00800000E+00  1.00800000E+00  0.00000000E+00  1.60000000E+01  1.00800000E+00
  1.00800000E+00  0.00000000E+00  1.60000000E+01  1.00800000E+00  1.00800000E+00
  0.00000000E+00  1.60000000E+01  1.00800000E+00  1.00800000E+00  0.00000000E+00
  1.60000000E+01  1.00800000E+00  1.00800000E+00  0.00000000E+00  1.60000000E+01
  1.00800000E+00  1.00800000E+00  0.00000000E+00  1.60000000E+01  1.00800000E+00
  1.00800000E+00  0.00000000E+00  1.60000000E+01  1.00800000E+00  1.00800000E+00
  0.00000000E+00  1.60000000E+01  1.00800000E+00  1.00800000E+00  0.00000000E+00
  1.60000000E+01  1.00800000E+00  1.00800000E+00  0.00000000E+00  1.60000000E+01
  1.00800000E+00  1.00800000E+00  0.00000000E+00  1.60000000E+01  1.00800000E+00
  1.00800000E+00  0.00000000E+00  1.60000000E+01  1.00800000E+00  1.00800000E+00
  0.00000000E+00  1.60000000E+01  1.00800000E+00  1.00800000E+00  0.00000000E+00
  1.60000000E+01  1.00800000E+00  1.00800000E+00  0.00000000E+00  1.60000000E+01
  1.00800000E+00  1.00800000E+00  0.00000000E+00  1.60000000E+01  1.00800000E+00
  1.00800000E+00  0.00000000E+00  1.60000000E+01  1.00800000E+00  1.00800000E+00
  0.00000000E+00  1.60000000E+01  1.00800000E+00  1.00800000E+00  0.00000000E+00
  1.60000000E+01  1.00800000E+00  1.00800000E+00  0.00000000E+00  1.60000000E+01
  1.00800000E+00  1.00800000E+00  0.00000000E+00  1.60000000E+01  1.00800000E+00
  1.00800000E+00  0.00000000E+00  1.60000000E+01  1.00800000E+00  1.00800000E+00
  0.00000000E+00  1.60000000E+01  1.00800000E+00  1.00800000E+00  0.00000000E+00
  1.60000000E+01  1.00800000E+00  1.00800000E+00  0.00000000E+00  1.60000000E+01
  1.00800000E+00  1.00800000E+00  0.00000000E+00  1.60000000E+01  1.00800000E+00
  1.00800000E+00  0.00000000E+00  1.60000000E+01  1.00800000E+00  1.00800000E+00
  0.00000000E+00  1.60000000E+01  1.00800000E+00  1.00800000E+00  0.00000000E+00
  1.60000000E+01  1.00800000E+00  1.00800000E+00  0.00000000E+00  1.60000000E+01
  1.00800000E+00  1.00800000E+00  0.00000000E+00  1.60000000E+01  1.00800000E+00
  1.00800000E+00  0.00000000E+00  1.60000000E+01  1.00800000E+00  1.00800000E+00
  0.00000000E+00  1.60000000E+01  1.00800000E+00  1.00800000E+00  0.00000000E+00
  1.60000000E+01  1.00800000E+00  1.00800000E+00  0.00000000E+00  1.60000000E+01
  1.00800000E+00  1.00800000E+00  0.00000000E+00  1.60000000E+01  1.00800000E+00
  1.00800000E+00  0.00000000E+00  1.60000000E+01  1.00800000E+00  1.00800000E+00
  0.00000000E+00  1.60000000E+01  1.00800000E+00  1.00800000E+00  0.00000000E+00
  1.60000000E+01  1.00800000E+00  1.00800000E+00  0.00000000E+00  1.60000000E+01
  1.00800000E+00  1.00800000E+00  0.00000000E+00  1.60000000E+01  1.00800000E+00
  1.00800000E+00  0.00000000E+00  1.60000000E+01  1.00800000E+00  1.00800000E+00
  0.00000000E+00  1.60000000E+01  1.00800000E+00  1.00800000E+00  0.00000000E+00
  1.60000000E+01  1.00800000E+00  1.00800000E+00  0.00000000E+00  1.60000000E+01
  1.00800000E+00  1.00800000E+00  0.00000000E+00  1.60000000E+01  1.00800000E+00
  1.00800000E+00  0.00000000E+00  1.60000000E+01  1.00800000E+00  1.00800000E+00
  0.00000000E+00  1.60000000E+01  1.00800000E+00  1.00800000E+00  0.00000000E+00
  1.60000000E+01  1.00800000E+00  1.00800000E+00  0.00000000E+00  1.60000000E+01
  1.00800000E+00  1.00800000E+00  0.00000000E+00  1.60000000E+01  1.00800000E+00
  1.00800000E+00  0.00000000E+00  1.60000000E+01  1.00800000E+00  1.00800000E+00
  0.00000000E+00  1.60000000E+01  1.00800000E+00  1.00800000E+00  0.00000000E+00
  1.60000000E+01  1.00800000E+00  1.00800000E+00  0.00000000E+00  1.60000000E+01
  1.00800000E+00  1.00800000E+00  0.00000000E+00  1.60000000E+01  1.00800000E+00
  1.00800000E+00  0.00000000E+00  1.60000000E+01  1.00800000E+00  1.00800000E+00
  0.00000000E+00  1.60000000E+01  1.00800000E+00  1.00800000E+00  0.00000000E+00
  1.60000000E+01  1.00800000E+00  1.00800000E+00  0.00000000E+00  1.60000000E+01
  1.00800000E+00  1.00800000E+00  0.00000000E+00  1.60000000E+01  1.00800000E+00
  1.00800000E+00  0.00000000E+00  1.60000000E+01  1.00800000E+00  1.00800000E+00
  0.00000000E+00  1.60000000E+01  1.00800000E+00  1.00800000E+00  0.00000000E+00
  1.60000000E+01  1.00800000E+00  1.00800000E+00  0.00000000E+00  1.60000000E+01
  1.00800000E+00  1.00800000E+00  0.00000000E+00  1.60000000E+01  1.00800000E+00
  1.00800000E+00  0.00000000E+00  1.60000000E+01  1.00800000E+00  1.00800000E+00
  0.00000000E+00  1.60000000E+01  1.00800000E+00  1.00800000E+00  0.00000000E+00
  1.60000000E+01  1.00800000E+00  1.00800000E+00  0.00000000E+00  1.60000000E+01
  1.00800000E+00  1.00800000E+00  0.00000000E+00  1.60000000E+01  1.00800000E+00
  1.00800000E+00  0.00000000E+00  1.60000000E+01  1.00800000E+00  1.00800000E+00
  0.00000000E+00  1.60000000E+01  1.00800000E+00  1.00800000E+00  0.00000000E+00
  1.60000000E+01  1.00800000E+00  1.00800000E+00  0.00000000E+00  1.60000000E+01
  1.00800000E+00  1.00800000E+00  0.00000000E+00  1.60000000E+01  1.00800000E+00
  1.00800000E+00  0.00000000E+00  1.60000000E+01  1.00800000E+00  1.00800000E+00
  0.00000000E+00  1.60000000E+01  1.00800000E+00  1.00800000E+00  0.00000000E+00
  1.60000000E+01  1.00800000E+00  1.00800000E+00  0.00000000E+00  1.60000000E+01
  1.00800000E+00  1.00800000E+00  0.00000000E+00  1.60000000E+01  1.00800000E+00
  1.00800000E+00  0.00000000E+00  1.60000000E+01  1.00800000E+00  1.00800000E+00
  0.00000000E+00  1.60000000E+01  1.00800000E+00  1.00800000E+00  0.00000000E+00
  1.60000000E+01  1.00800000E+00  1.00800000E+00  0.00000000E+00  1.60000000E+01
  1.00800000E+00  1.00800000E+00  0.00000000E+00  1.60000000E+01  1.00800000E+00
  1.00800000E+00  0.00000000E+00  1.60000000E+01  1.00800000E+00  1.00800000E+00
  0.00000000E+00  1.60000000E+01  1.00800000E+00  1.00800000E+00  0.00000000E+00
  1.60000000E+01  1.00800000E+00  1.00800000E+00  0.00000000E+00  1.60000000E+01
  1.00800000E+00  1.00800000E+00  0.00000000E+00  1.60000000E+01  1.00800000E+00
  1.00800000E+00  0.00000000E+00  1.60000000E+01  1.00800000E+00  1.00800000E+00
  0.00000000E+00  1.60000000E+01  1.00800000E+00  1.00800000E+00  0.00000000E+00
  1.60000000E+01  1.00800000E+00  1.00800000E+00  0.00000000E+00  1.60000000E+01
  1.00800000E+00  1.00800000E+00  0.00000000E+00  1.60000000E+01  1.00800000E+00
  1.00800000E+00  0.00000000E+00  1.60000000E+01  1.00800000E+00  1.00800000E+00
  0.00000000E+00  1.60000000E+01  1.00800000E+00  1.00800000E+00  0.00000000E+00
  1.60000000E+01  1.00800000E+00  1.00800000E+00  0.00000000E+00  1.60000000E+01
  1.00800000E+00  1.00800000E+00  0.00000000E+00  1.60000000E+01  1.00800000E+00
  1.00800000E+00  0.00000000E+00  1.60000000E+01  1.00800000E+00  1.00800000E+00
  0.00000000E+00  1.60000000E+01  1.00800000E+00  1.00800000E+00  0.00000000E+00
  1.60000000E+01  1.00800000E+00  1.00800000E+00  0.00000000E+00  1.60000000E+01
  1.00800000E+00  1.00800000E+00  0.00000000E+00  1.60000000E+01  1.00800000E+00
  1.00800000E+00  0.00000000E+00  1.60000000E+01  1.00800000E+00  1.00800000E+00
  0.00000000E+00  1.60000000E+01  1.00800000E+00  1.00800000E+00  0.00000000E+00
  1.60000000E+01  1.00800000E+00  1.00800000E+00  0.00000000E+00  1.60000000E+01
  1.00800000E+00  1.00800000E+00  0.00000000E+00  1.60000000E+01  1.00800000E+00
  1.00800000E+00  0.00000000E+00  1.60000000E+01  1.00800000E+00  1.00800000E+00
  0.00000000E+00  1.60000000E+01  1.00800000E+00  1.00800000E+00  0.00000000E+00
  1.60000000E+01  1.00800000E+00  1.00800000E+00  0.00000000E+00  1.60000000E+01
  1.00800000E+00  1.00800000E+00  0.00000000E+00  1.60000000E+01  1.00800000E+00
  1.00800000E+00  0.00000000E+00  1.60000000E+01  1.00800000E+00  1.00800000E+00
  0.00000000E+00  1.60000000E+01  1.00800000E+00  1.00800000E+00  0.00000000E+00
  1.60000000E+01  1.00800000E+00  1.00800000E+00  0.00000000E+00  1.60000000E+01
  1.00800000E+00  1.00800000E+00  0.00000000E+00  1.60000000E+01  1.00800000E+00
  1.00800000E+00  0.00000000E+00  1.60000000E+01  1.00800000E+00  1.00800000E+00
  0.00000000E+00  1.60000000E+01  1.00800000E+00  1.00800000E+00  0.00000000E+00
  1.60000000E+01  1.00800000E+00  1.00800000E+00  0.00000000E+00  1.60000000E+01
  1.00800000E+00  1.00800000E+00  0.00000000E+00  1.60000000E+01  1.00800000E+00
  1.00800000E+00  0.00000000E+00  1.60000000E+01  1.00800000E+00  1.00800000E+00
  0.00000000E+00  1.60000000E+01  1.00800000E+00  1.00800000E+00  0.00000000E+00
  1.60000000E+01  1.00800000E+00  1.00800000E+00  0.00000000E+00  1.60000000E+01
  1.00800000E+00  1.00800000E+00  0.00000000E+00  1.60000000E+01  1.00800000E+00
  1.00800000E+00  0.00000000E+00  1.60000000E+01  1.00800000E+00  1.00800000E+00
  0.00000000E+00  1.60000000E+01  1.00800000E+00  1.00800000E+00  0.00000000E+00
  1.60000000E+01  1.00800000E+00  1.00800000E+00  0.00000000E+00  1.60000000E+01
  1.00800000E+00  1.00800000E+00  0.00000000E+00  1.60000000E+01  1.00800000E+00
  1.00800000E+00  0.00000000E+00  1.60000000E+01  1.00800000E+00  1.00800000E+00
  0.00000000E+00  1.60000000E+01  1.00800000E+00  1.00800000E+00  0.00000000E+00
  1.60000000E+01  1.00800000E+00  1.00800000E+00  0.00000000E+00  1.60000000E+01
  1.00800000E+00  1.00800000E+00  0.00000000E+00  1.60000000E+01  1.00800000E+00
  1.00800000E+00  0.00000000E+00  1.60000000E+01  1.00800000E+00  1.00800000E+00
  0.00000000E+00  1.60000000E+01  1.00800000E+00  1.00800000E+00  0.00000000E+00
  1.60000000E+01  1.00800000E+00  1.00800000E+00  0.00000000E+00  1.60000000E+01
  1.00800000E+00  1.00800000E+00  0.00000000E+00  1.60000000E+01  1.00800000E+00
  1.00800000E+00  0.00000000E+00  1.60000000E+01  1.00800000E+00  1.00800000E+00
  0.00000000E+00  1.60000000E+01  1.00800000E+00  1.00800000E+00  0.00000000E+00
  1.60000000E+01  1.00800000E+00  1.00800000E+00  0.00000000E+00  1.60000000E+01
  1.00800000E+00  1.00800000E+00  0.00000000E+00  1.60000000E+01  1.00800000E+00
  1.00800000E+00  0.00000000E+00  1.60000000E+01  1.00800000E+00  1.00800000E+00
  0.00000000E+00  1.60000000E+01  1.00800000E+00  1.00800000E+00  0.00000000E+00
  1.60000000E+01  1.00800000E+00  1.00800000E+00  0.00000000E+00  1.60000000E+01
  1.00800000E+00  1.00800000E+00  0.00000000E+00  1.60000000E+01  1.00800000E+00
  1.00800000E+00  0.00000000E+00  1.60000000E+01  1.00800000E+00  1.00800000E+00
  0.00000000E+00  1.60000000E+01  1.00800000E+00  1.00800000E+00  0.00000000E+00
  1.60000000E+01  1.00800000E+00  1.00800000E+00  0.00000000E+00  1.60000000E+01
  1.00800000E+00  1.00800000E+00  0.00000000E+00  1.60000000E+01  1.00800000E+00
  1.00800000E+00  0.00000000E+00  1.60000000E+01  1.00800000E+00  1.00800000E+00
  0.00000000E+00  1.60000000E+01  1.00800000E+00  1.00800000E+00  0.00000000E+00
  1.60000000E+01  1.00800000E+00  1.00800000E+00  0.00000000E+00  1.60000000E+01
  1.00800000E+00  1.00800000E+00  0.00000000E+00  1.60000000E+01  1.00800000E+00
  1.00800000E+00  0.00000000E+00  1.60000000E+01  1.00800000E+00  1.00800000E+00
  0.00000000E+00  1.60000000E+01  1.00800000E+00  1.00800000E+00  0.00000000E+00
  1.60000000E+01  1.00800000E+00  1.00800000E+00  0.00000000E+00  1.60000000E+01
  1.00800000E+00  1.00800000E+00  0.00000000E+00  1.60000000E+01  1.00800000E+00
  1.00800000E+00  0.00000000E+00  1.60000000E+01  1.00800000E+00  1.00800000E+00
  0.00000000E+00  1.60000000E+01  1.00800000E+00  1.00800000E+00  0.00000000E+00
  1.60000000E+01  1.00800000E+00  1.00800000E+00  0.00000000E+00  1.60000000E+01
  1.00800000E+00  1.00800000E+00  0.00000000E+00  1.60000000E+01  1.00800000E+00
  1.00800000E+00  0.00000000E+00  1.60000000E+01  1.00800000E+00  1.00800000E+00
  0.00000000E+00  1.60000000E+01  1.00800000E+00  1.00800000E+00  0.00000000E+00
  1.60000000E+01  1.00800000E+00  1.00800000E+00  0.00000000E+00  1.60000000E+01
  1.00800000E+00  1.00800000E+00  0.00000000E+00  1.60000000E+01  1.00800000E+00
  1.00800000E+00  0.00000000E+00  1.60000000E+01  1.00800000E+00  1.00800000E+00
  0.00000000E+00  1.60000000E+01  1.00800000E+00  1.00800000E+00  0.00000000E+00
  1.60000000E+01  1.00800000E+00  1.00800000E+00  0.00000000E+00  1.60000000E+01
  1.00800000E+00  1.00800000E+00  0.00000000E+00  1.60000000E+01  1.00800000E+00
  1.00800000E+00  0.00000000E+00  1.60000000E+01  1.00800000E+00  1.00800000E+00
  0.00000000E+00  1.60000000E+01  1.00800000E+00  1.00800000E+00  0.00000000E+00
  1.60000000E+01  1.00800000E+00  1.00800000E+00  0.00000000E+00  1.60000000E+01
  1.00800000E+00  1.00800000E+00  0.00000000E+00  1.60000000E+01  1.00800000E+00
  1.00800000E+00  0.00000000E+00  1.60000000E+01  1.00800000E+00  1.00800000E+00
  0.00000000E+00  1.60000000E+01  1.00800000E+00  1.00800000E+00  0.00000000E+00
  1.60000000E+01  1.00800000E+00  1.00800000E+00  0.00000000E+00  1.60000000E+01
  1.00800000E+00  1.00800000E+00  0.00000000E+00  1.60000000E+01  1.00800000E+00
  1.00800000E+00  0.00000000E+00  1.60000000E+01  1.00800000E+00  1.00800000E+00
  0.00000000E+00  1.60000000E+01  1.00800000E+00  1.00800000E+00  0.00000000E+00
  1.60000000E+01  1.00800000E+00  1.00800000E+00  0.00000000E+00  1.60000000E+01
  1.00800000E+00  1.00800000E+00  0.00000000E+00  1.60000000E+01  1.00800000E+00
  1.00800000E+00  0.00000000E+00  1.60000000E+01  1.00800000E+00  1.00800000E+00
  0.00000000E+00  1.60000000E+01  1.00800000E+00  1.00800000E+00  0.00000000E+00
  1.60000000E+01  1.00800000E+00  1.00800000E+00  0.00000000E+00  1.60000000E+01
  1.00800000E+00  1.00800000E+00  0.00000000E+00  1.60000000E+01  1.00800000E+00
  1.00800000E+00  0.00000000E+00  1.60000000E+01  1.00800000E+00  1.00800000E+00
  0.00000000E+00  1.60000000E+01  1.00800000E+00  1.00800000E+00  0.00000000E+00
  1.60000000E+01  1.00800000E+00  1.00800000E+00  0.00000000E+00  1.60000000E+01
  1.00800000E+00  1.00800000E+00  0.00000000E+00  1.60000000E+01  1.00800000E+00
  1.00800000E+00  0.00000000E+00  1.60000000E+01  1.00800000E+00  1.00800000E+00
  0.00000000E+00  1.60000000E+01  1.00800000E+00  1.00800000E+00  0.00000000E+00
  1.60000000E+01  1.00800000E+00  1.00800000E+00  0.00000000E+00  1.60000000E+01
  1.00800000E+00  1.00800000E+00  0.00000000E+00  1.60000000E+01  1.00800000E+00
  1.00800000E+00  0.00000000E+00  1.60000000E+01  1.00800000E+00  1.00800000E+00
  0.00000000E+00  1.60000000E+01  1.00800000E+00  1.00800000E+00  0.00000000E+00
  1.60000000E+01  1.00800000E+00  1.00800000E+00  0.00000000E+00  1.60000000E+01
  1.00800000E+00  1.00800000E+00  0.00000000E+00  1.60000000E+01  1.00800000E+00
  1.00800000E+00  0.00000000E+00  1.60000000E+01  1.00800000E+00  1.00800000E+00
  0.00000000E+00  1.60000000E+01  1.00800000E+00  1.00800000E+00  0.00000000E+00
  1.60000000E+01  1.00800000E+00  1.00800000E+00  0.00000000E+00  1.60000000E+01
  1.00800000E+00  1.00800000E+00  0.00000000E+00  1.60000000E+01  1.00800000E+00
  1.00800000E+00  0.00000000E+00  1.60000000E+01  1.00800000E+00  1.00800000E+00
  0.00000000E+00  1.60000000E+01  1.00800000E+00  1.00800000E+00  0.00000000E+00
  1.60000000E+01  1.00800000E+00  1.00800000E+00  0.00000000E+00  1.60000000E+01
  1.00800000E+00  1.00800000E+00  0.00000000E+00  1.60000000E+01  1.00800000E+00
  1.00800000E+00  0.00000000E+00  1.60000000E+01  1.00800000E+00  1.00800000E+00
  0.00000000E+00  1.60000000E+01  1.00800000E+00  1.00800000E+00  0.00000000E+00
  1.60000000E+01  1.00800000E+00  1.00800000E+00  0.00000000E+00  1.60000000E+01
  1.00800000E+00  1.00800000E+00  0.00000000E+00  1.60000000E+01  1.00800000E+00
  1.00800000E+00  0.00000000E+00  1.60000000E+01  1.00800000E+00  1.00800000E+00
  0.00000000E+00  1.60000000E+01  1.00800000E+00  1.00800000E+00  0.00000000E+00
  1.60000000E+01  1.00800000E+00  1.00800000E+00  0.00000000E+00  1.60000000E+01
  1.00800000E+00  1.00800000E+00  0.00000000E+00  1.60000000E+01  1.00800000E+00
  1.00800000E+00  0.00000000E+00  1.60000000E+01  1.00800000E+00  1.00800000E+00
  0.00000000E+00  1.60000000E+01  1.00800000E+00  1.00800000E+00  0.00000000E+00
  1.60000000E+01  1.00800000E+00  1.00800000E+00  0.00000000E+00  1.60000000E+01
  1.00800000E+00  1.00800000E+00  0.00000000E+00  1.60000000E+01  1.00800000E+00
  1.00800000E+00  0.00000000E+00  1.60000000E+01  1.00800000E+00  1.00800000E+00
  0.00000000E+00  1.60000000E+01  1.00800000E+00  1.00800000E+00  0.00000000E+00
  1.60000000E+01  1.00800000E+00  1.00800000E+00  0.00000000E+00  1.60000000E+01
  1.00800000E+00  1.00800000E+00  0.00000000E+00  1.60000000E+01  1.00800000E+00
  1.00800000E+00  0.00000000E+00  1.60000000E+01  1.00800000E+00  1.00800000E+00
  0.00000000E+00  1.60000000E+01  1.00800000E+00  1.00800000E+00  0.00000000E+00
  1.60000000E+01  1.00800000E+00  1.00800000E+00  0.00000000E+00  1.60000000E+01
  1.00800000E+00  1.00800000E+00  0.00000000E+00  1.60000000E+01  1.00800000E+00
  1.00800000E+00  0.00000000E+00  1.60000000E+01  1.00800000E+00  1.00800000E+00
  0.00000000E+00  1.60000000E+01  1.00800000E+00  1.00800000E+00  0.00000000E+00
  1.60000000E+01  1.00800000E+00  1.00800000E+00  0.00000000E+00  1.60000000E+01
  1.00800000E+00  1.00800000E+00  0.00000000E+00  1.60000000E+01  1.00800000E+00
  1.00800000E+00  0.00000000E+00  1.60000000E+01  1.00800000E+00  1.00800000E+00
  0.00000000E+00  1.60000000E+01  1.00800000E+00  1.00800000E+00  0.00000000E+00
  1.60000000E+01  1.00800000E+00  1.00800000E+00  0.00000000E+00  1.60000000E+01
  1.00800000E+00  1.00800000E+00  0.00000000E+00  1.60000000E+01  1.00800000E+00
  1.00800000E+00  0.00000000E+00  1.60000000E+01  1.00800000E+00  1.00800000E+00
  0.00000000E+00  1.60000000E+01  1.00800000E+00  1.00800000E+00  0.00000000E+00
  1.60000000E+01  1.00800000E+00  1.00800000E+00  0.00000000E+00  1.60000000E+01
  1.00800000E+00  1.00800000E+00  0.00000000E+00  1.60000000E+01  1.00800000E+00
  1.00800000E+00  0.00000000E+00  1.60000000E+01  1.00800000E+00  1.00800000E+00
  0.00000000E+00  1.60000000E+01  1.00800000E+00  1.00800000E+00  0.00000000E+00
  1.60000000E+01  1.00800000E+00  1.00800000E+00  0.00000000E+00  1.60000000E+01
  1.00800000E+00  1.00800000E+00  0.00000000E+00  1.60000000E+01  1.00800000E+00
  1.00800000E+00  0.00000000E+00  1.60000000E+01  1.00800000E+00  1.00800000E+00
  0.00000000E+00  1.60000000E+01  1.00800000E+00  1.00800000E+00  0.00000000E+00
  1.60000000E+01  1.00800000E+00  1.00800000E+00  0.00000000E+00  1.60000000E+01
  1.00800000E+00  1.00800000E+00  0.00000000E+00  1.60000000E+01  1.00800000E+00
  1.00800000E+00  0.00000000E+00  1.60000000E+01  1.00800000E+00  1.00800000E+00
  0.00000000E+00  1.60000000E+01  1.00800000E+00  1.00800000E+00  0.00000000E+00
  1.60000000E+01  1.00800000E+00  1.00800000E+00  0.00000000E+00  1.60000000E+01
  1.00800000E+00  1.00800000E+00  0.00000000E+00  1.60000000E+01  1.00800000E+00
  1.00800000E+00  0.00000000E+00  1.60000000E+01  1.00800000E+00  1.00800000E+00
  0.00000000E+00  1.60000000E+01  1.00800000E+00  1.00800000E+00  0.00000000E+00
  1.60000000E+01  1.00800000E+00  1.00800000E+00  0.00000000E+00  1.60000000E+01
  1.00800000E+00  1.00800000E+00  0.00000000E+00  1.60000000E+01  1.00800000E+00
  1.00800000E+00  0.00000000E+00  1.60000000E+01  1.00800000E+00  1.00800000E+00
  0.00000000E+00  1.60000000E+01  1.00800000E+00  1.00800000E+00  0.00000000E+00
  1.60000000E+01  1.00800000E+00  1.00800000E+00  0.00000000E+00  1.60000000E+01
  1.00800000E+00  1.00800000E+00  0.00000000E+00  1.60000000E+01  1.00800000E+00
  1.00800000E+00  0.00000000E+00  1.60000000E+01  1.00800000E+00  1.00800000E+00
  0.00000000E+00  1.60000000E+01  1.00800000E+00  1.00800000E+00  0.00000000E+00
  1.60000000E+01  1.00800000E+00  1.00800000E+00  0.00000000E+00  1.60000000E+01
  1.00800000E+00  1.00800000E+00  0.00000000E+00  1.60000000E+01  1.00800000E+00
  1.00800000E+00  0.00000000E+00  1.60000000E+01  1.00800000E+00  1.00800000E+00
  0.00000000E+00  1.60000000E+01  1.00800000E+00  1.00800000E+00  0.00000000E+00
  1.60000000E+01  1.00800000E+00  1.00800000E+00  0.00000000E+00  1.60000000E+01
  1.00800000E+00  1.00800000E+00  0.00000000E+00  1.60000000E+01  1.00800000E+00
  1.00800000E+00  0.00000000E+00  1.60000000E+01  1.00800000E+00  1.00800000E+00
  0.00000000E+00  1.60000000E+01  1.00800000E+00  1.00800000E+00  0.00000000E+00
  1.60000000E+01  1.00800000E+00  1.00800000E+00  0.00000000E+00  1.60000000E+01
  1.00800000E+00  1.00800000E+00  0.00000000E+00  1.60000000E+01  1.00800000E+00
  1.00800000E+00  0.00000000E+00  1.60000000E+01  1.00800000E+00  1.00800000E+00
  0.00000000E+00  1.60000000E+01  1.00800000E+00  1.00800000E+00  0.00000000E+00
  1.60000000E+01  1.00800000E+00  1.00800000E+00  0.00000000E+00  1.60000000E+01
  1.00800000E+00  1.00800000E+00  0.00000000E+00  1.60000000E+01  1.00800000E+00
  1.00800000E+00  0.00000000E+00  1.60000000E+01  1.00800000E+00  1.00800000E+00
  0.00000000E+00  1.60000000E+01  1.00800000E+00  1.00800000E+00  0.00000000E+00
  1.60000000E+01  1.00800000E+00  1.00800000E+00  0.00000000E+00  1.60000000E+01
  1.00800000E+00  1.00800000E+00  0.00000000E+00  1.60000000E+01  1.00800000E+00
  1.00800000E+00  0.00000000E+00  1.60000000E+01  1.00800000E+00  1.00800000E+00
  0.00000000E+00  1.60000000E+01  1.00800000E+00  1.00800000E+00  0.00000000E+00
  1.60000000E+01  1.00800000E+00  1.00800000E+00  0.00000000E+00  1.60000000E+01
  1.00800000E+00  1.00800000E+00  0.00000000E+00  1.60000000E+01  1.00800000E+00
  1.00800000E+00  0.00000000E+00  1.60000000E+01  1.00800000E+00  1.00800000E+00
  0.00000000E+00  1.60000000E+01  1.00800000E+00  1.00800000E+00  0.00000000E+00
  1.60000000E+01  1.00800000E+00  1.00800000E+00  0.00000000E+00  1.60000000E+01
  1.00800000E+00  1.00800000E+00  0.00000000E+00  1.60000000E+01  1.00800000E+00
  1.00800000E+00  0.00000000E+00  1.60000000E+01  1.00800000E+00  1.00800000E+00
  0.00000000E+00  1.60000000E+01  1.00800000E+00  1.00800000E+00  0.00000000E+00
  1.60000000E+01  1.00800000E+00  1.00800000E+00  0.00000000E+00  1.60000000E+01
  1.00800000E+00  1.00800000E+00  0.00000000E+00  1.60000000E+01  1.00800000E+00
  1.00800000E+00  0.00000000E+00  1.60000000E+01  1.00800000E+00  1.00800000E+00
  0.00000000E+00  1.60000000E+01  1.00800000E+00  1.00800000E+00  0.00000000E+00
  1.60000000E+01  1.00800000E+00  1.00800000E+00  0.00000000E+00  1.60000000E+01
  1.00800000E+00  1.00800000E+00  0.00000000E+00  1.60000000E+01  1.00800000E+00
  1.00800000E+00  0.00000000E+00  1.60000000E+01  1.00800000E+00  1.00800000E+00
  0.00000000E+00  1.60000000E+01  1.00800000E+00  1.00800000E+00  0.00000000E+00
  1.60000000E+01  1.00800000E+00  1.00800000E+00  0.00000000E+00  1.60000000E+01
  1.00800000E+00  1.00800000E+00  0.00000000E+00  1.60000000E+01  1.00800000E+00
  1.00800000E+00  0.00000000E+00  1.60000000E+01  1.00800000E+00  1.00800000E+00
  0.00000000E+00  1.60000000E+01  1.00800000E+00  1.00800000E+00  0.00000000E+00
  1.60000000E+01  1.00800000E+00  1.00800000E+00  0.00000000E+00  1.60000000E+01
  1.00800000E+00  1.00800000E+00  0.00000000E+00  1.60000000E+01  1.00800000E+00
  1.00800000E+00  0.00000000E+00  1.60000000E+01  1.00800000E+00  1.00800000E+00
  0.00000000E+00  1.60000000E+01  1.00800000E+00  1.00800000E+00  0.00000000E+00
  1.60000000E+01  1.00800000E+00  1.00800000E+00  0.00000000E+00  1.60000000E+01
  1.00800000E+00  1.00800000E+00  0.00000000E+00  1.60000000E+01  1.00800000E+00
  1.00800000E+00  0.00000000E+00  1.60000000E+01  1.00800000E+00  1.00800000E+00
  0.00000000E+00  1.60000000E+01  1.00800000E+00  1.00800000E+00  0.00000000E+00
  1.60000000E+01  1.00800000E+00  1.00800000E+00  0.00000000E+00  1.60000000E+01
  1.00800000E+00  1.00800000E+00  0.00000000E+00  1.60000000E+01  1.00800000E+00
  1.00800000E+00  0.00000000E+00  1.60000000E+01  1.00800000E+00  1.00800000E+00
  0.00000000E+00  1.60000000E+01  1.00800000E+00  1.00800000E+00  0.00000000E+00
  1.60000000E+01  1.00800000E+00  1.00800000E+00  0.00000000E+00  1.60000000E+01
  1.00800000E+00  1.00800000E+00  0.00000000E+00  1.60000000E+01  1.00800000E+00
  1.00800000E+00  0.00000000E+00  1.60000000E+01  1.00800000E+00  1.00800000E+00
  0.00000000E+00  1.60000000E+01  1.00800000E+00  1.00800000E+00  0.00000000E+00
  1.60000000E+01  1.00800000E+00  1.00800000E+00  0.00000000E+00  1.60000000E+01
  1.00800000E+00  1.00800000E+00  0.00000000E+00  1.60000000E+01  1.00800000E+00
  1.00800000E+00  0.00000000E+00  1.60000000E+01  1.00800000E+00  1.00800000E+00
  0.00000000E+00  1.60000000E+01  1.00800000E+00  1.00800000E+00  0.00000000E+00
  1.60000000E+01  1.00800000E+00  1.00800000E+00  0.00000000E+00  1.60000000E+01
  1.00800000E+00  1.00800000E+00  0.00000000E+00  1.60000000E+01  1.00800000E+00
  1.00800000E+00  0.00000000E+00  1.60000000E+01  1.00800000E+00  1.00800000E+00
  0.00000000E+00  1.60000000E+01  1.00800000E+00  1.00800000E+00  0.00000000E+00
  1.60000000E+01  1.00800000E+00  1.00800000E+00  0.00000000E+00  1.60000000E+01
  1.00800000E+00  1.00800000E+00  0.00000000E+00  1.60000000E+01  1.00800000E+00
  1.00800000E+00  0.00000000E+00  1.60000000E+01  1.00800000E+00  1.00800000E+00
  0.00000000E+00  1.60000000E+01  1.00800000E+00  1.00800000E+00  0.00000000E+00
  1.60000000E+01  1.00800000E+00  1.00800000E+00  0.00000000E+00  1.60000000E+01
  1.00800000E+00  1.00800000E+00  0.00000000E+00  1.60000000E+01  1.00800000E+00
  1.00800000E+00  0.00000000E+00  1.60000000E+01  1.00800000E+00  1.00800000E+00
  0.00000000E+00  1.60000000E+01  1.00800000E+00  1.00800000E+00  0.00000000E+00
  1.60000000E+01  1.00800000E+00  1.00800000E+00  0.00000000E+00  1.60000000E+01
  1.00800000E+00  1.00800000E+00  0.00000000E+00  1.60000000E+01  1.00800000E+00
  1.00800000E+00  0.00000000E+00  1.60000000E+01  1.00800000E+00  1.00800000E+00
  0.00000000E+00  1.60000000E+01  1.00800000E+00  1.00800000E+00  0.00000000E+00
  1.60000000E+01  1.00800000E+00  1.00800000E+00  0.00000000E+00  1.60000000E+01
  1.00800000E+00  1.00800000E+00  0.00000000E+00  1.60000000E+01  1.00800000E+00
  1.00800000E+00  0.00000000E+00  1.60000000E+01  1.00800000E+00  1.00800000E+00
  0.00000000E+00  1.60000000E+01  1.00800000E+00  1.00800000E+00  0.00000000E+00
  1.60000000E+01  1.00800000E+00  1.00800000E+00  0.00000000E+00  1.60000000E+01
  1.00800000E+00  1.00800000E+00  0.00000000E+00  1.60000000E+01  1.00800000E+00
  1.00800000E+00  0.00000000E+00  1.60000000E+01  1.00800000E+00  1.00800000E+00
  0.00000000E+00  1.60000000E+01  1.00800000E+00  1.00800000E+00  0.00000000E+00
  1.60000000E+01  1.00800000E+00  1.00800000E+00  0.00000000E+00  1.60000000E+01
  1.00800000E+00  1.00800000E+00  0.00000000E+00  1.60000000E+01  1.00800000E+00
  1.00800000E+00  0.00000000E+00  1.60000000E+01  1.00800000E+00  1.00800000E+00
  0.00000000E+00  1.60000000E+01  1.00800000E+00  1.00800000E+00  0.00000000E+00
  1.60000000E+01  1.00800000E+00  1.00800000E+00  0.00000000E+00  1.60000000E+01
  1.00800000E+00  1.00800000E+00  0.00000000E+00  1.60000000E+01  1.00800000E+00
  1.00800000E+00  0.00000000E+00  1.60000000E+01  1.00800000E+00  1.00800000E+00
  0.00000000E+00  1.60000000E+01  1.00800000E+00  1.00800000E+00  0.00000000E+00
  1.60000000E+01  1.00800000E+00  1.00800000E+00  0.00000000E+00  1.60000000E+01
  1.00800000E+00  1.00800000E+00  0.00000000E+00  1.60000000E+01  1.00800000E+00
  1.00800000E+00  0.00000000E+00  1.60000000E+01  1.00800000E+00  1.00800000E+00
  0.00000000E+00  1.60000000E+01  1.00800000E+00  1.00800000E+00  0.00000000E+00
  1.60000000E+01  1.00800000E+00  1.00800000E+00  0.00000000E+00  1.60000000E+01
  1.00800000E+00  1.00800000E+00  0.00000000E+00  1.60000000E+01  1.00800000E+00
  1.00800000E+00  0.00000000E+00  1.60000000E+01  1.00800000E+00  1.00800000E+00
  0.00000000E+00  1.60000000E+01  1.00800000E+00  1.00800000E+00  0.00000000E+00
  1.60000000E+01  1.00800000E+00  1.00800000E+00  0.00000000E+00  1.60000000E+01
  1.00800000E+00  1.00800000E+00  0.00000000E+00  1.60000000E+01  1.00800000E+00
  1.00800000E+00  0.00000000E+00  1.60000000E+01  1.00800000E+00  1.00800000E+00
  0.00000000E+00  1.60000000E+01  1.00800000E+00  1.00800000E+00  0.00000000E+00
  1.60000000E+01  1.00800000E+00  1.00800000E+00  0.00000000E+00  1.60000000E+01
  1.00800000E+00  1.00800000E+00  0.00000000E+00  1.60000000E+01  1.00800000E+00
  1.00800000E+00  0.00000000E+00  1.60000000E+01  1.00800000E+00  1.00800000E+00
  0.00000000E+00  1.60000000E+01  1.00800000E+00  1.00800000E+00  0.00000000E+00
  1.60000000E+01  1.00800000E+00  1.00800000E+00  0.00000000E+00  1.60000000E+01
  1.00800000E+00  1.00800000E+00  0.00000000E+00  1.60000000E+01  1.00800000E+00
  1.00800000E+00  0.00000000E+00  1.60000000E+01  1.00800000E+00  1.00800000E+00
  0.00000000E+00  1.60000000E+01  1.00800000E+00  1.00800000E+00  0.00000000E+00
  1.60000000E+01  1.00800000E+00  1.00800000E+00  0.00000000E+00  1.60000000E+01
  1.00800000E+00  1.00800000E+00  0.00000000E+00  1.60000000E+01  1.00800000E+00
  1.00800000E+00  0.00000000E+00  1.60000000E+01  1.00800000E+00  1.00800000E+00
  0.00000000E+00  1.60000000E+01  1.00800000E+00  1.00800000E+00  0.00000000E+00
  1.60000000E+01  1.00800000E+00  1.00800000E+00  0.00000000E+00  1.60000000E+01
  1.00800000E+00  1.00800000E+00  0.00000000E+00  1.60000000E+01  1.00800000E+00
  1.00800000E+00  0.00000000E+00  1.60000000E+01  1.00800000E+00  1.00800000E+00
  0.00000000E+00  1.60000000E+01  1.00800000E+00  1.00800000E+00  0.00000000E+00
  1.60000000E+01  1.00800000E+00  1.00800000E+00  0.00000000E+00  1.60000000E+01
  1.00800000E+00  1.00800000E+00  0.00000000E+00  1.60000000E+01  1.00800000E+00
  1.00800000E+00  0.00000000E+00  1.60000000E+01  1.00800000E+00  1.00800000E+00
  0.00000000E+00  1.60000000E+01  1.00800000E+00  1.00800000E+00  0.00000000E+00
  1.60000000E+01  1.00800000E+00  1.00800000E+00  0.00000000E+00  1.60000000E+01
  1.00800000E+00  1.00800000E+00  0.00000000E+00  1.60000000E+01  1.00800000E+00
  1.00800000E+00  0.00000000E+00  1.60000000E+01  1.00800000E+00  1.00800000E+00
  0.00000000E+00  1.60000000E+01  1.00800000E+00  1.00800000E+00  0.00000000E+00
  1.60000000E+01  1.00800000E+00  1.00800000E+00  0.00000000E+00  1.60000000E+01
  1.00800000E+00  1.00800000E+00  0.00000000E+00  1.60000000E+01  1.00800000E+00
  1.00800000E+00  0.00000000E+00  1.60000000E+01  1.00800000E+00  1.00800000E+00
  0.00000000E+00  1.60000000E+01  1.00800000E+00  1.00800000E+00  0.00000000E+00
  1.60000000E+01  1.00800000E+00  1.00800000E+00  0.00000000E+00  1.60000000E+01
  1.00800000E+00  1.00800000E+00  0.00000000E+00  1.60000000E+01  1.00800000E+00
  1.00800000E+00  0.00000000E+00  1.60000000E+01  1.00800000E+00  1.00800000E+00
  0.00000000E+00  1.60000000E+01  1.00800000E+00  1.00800000E+00  0.00000000E+00
  1.60000000E+01  1.00800000E+00  1.00800000E+00  0.00000000E+00  1.60000000E+01
  1.00800000E+00  1.00800000E+00  0.00000000E+00  1.60000000E+01  1.00800000E+00
  1.00800000E+00  0.00000000E+00  1.60000000E+01  1.00800000E+00  1.00800000E+00
  0.00000000E+00  1.60000000E+01  1.00800000E+00  1.00800000E+00  0.00000000E+00
  1.60000000E+01  1.00800000E+00  1.00800000E+00  0.00000000E+00  1.60000000E+01
  1.00800000E+00  1.00800000E+00  0.00000000E+00  1.60000000E+01  1.00800000E+00
  1.00800000E+00  0.00000000E+00  1.60000000E+01  1.00800000E+00  1.00800000E+00
  0.00000000E+00  1.60000000E+01  1.00800000E+00  1.00800000E+00  0.00000000E+00
  1.60000000E+01  1.00800000E+00  1.00800000E+00  0.00000000E+00  1.60000000E+01
  1.00800000E+00  1.00800000E+00  0.00000000E+00  1.60000000E+01  1.00800000E+00
  1.00800000E+00  0.00000000E+00  1.60000000E+01  1.00800000E+00  1.00800000E+00
  0.00000000E+00  1.60000000E+01  1.00800000E+00  1.00800000E+00  0.00000000E+00
  1.60000000E+01  1.00800000E+00  1.00800000E+00  0.00000000E+00  1.60000000E+01
  1.00800000E+00  1.00800000E+00  0.00000000E+00  1.60000000E+01  1.00800000E+00
  1.00800000E+00  0.00000000E+00  1.60000000E+01  1.00800000E+00  1.00800000E+00
  0.00000000E+00  1.60000000E+01  1.00800000E+00  1.00800000E+00  0.00000000E+00
  1.60000000E+01  1.00800000E+00  1.00800000E+00  0.00000000E+00  1.60000000E+01
  1.00800000E+00  1.00800000E+00  0.00000000E+00  1.60000000E+01  1.00800000E+00
  1.00800000E+00  0.00000000E+00  1.60000000E+01  1.00800000E+00  1.00800000E+00
  0.00000000E+00  1.60000000E+01  1.00800000E+00  1.00800000E+00  0.00000000E+00
  1.60000000E+01  1.00800000E+00  1.00800000E+00  0.00000000E+00  1.60000000E+01
  1.00800000E+00  1.00800000E+00  0.00000000E+00  1.60000000E+01  1.00800000E+00
  1.00800000E+00  0.00000000E+00  1.60000000E+01  1.00800000E+00  1.00800000E+00
  0.00000000E+00  1.60000000E+01  1.00800000E+00  1.00800000E+00  0.00000000E+00
  1.60000000E+01  1.00800000E+00  1.00800000E+00  0.00000000E+00  1.60000000E+01
  1.00800000E+00  1.00800000E+00  0.00000000E+00  1.60000000E+01  1.00800000E+00
  1.00800000E+00  0.00000000E+00  1.60000000E+01  1.00800000E+00  1.00800000E+00
  0.00000000E+00  1.60000000E+01  1.00800000E+00  1.00800000E+00  0.00000000E+00
  1.60000000E+01  1.00800000E+00  1.00800000E+00  0.00000000E+00  1.60000000E+01
  1.00800000E+00  1.00800000E+00  0.00000000E+00  1.60000000E+01  1.00800000E+00
  1.00800000E+00  0.00000000E+00  1.60000000E+01  1.00800000E+00  1.00800000E+00
  0.00000000E+00  1.60000000E+01  1.00800000E+00  1.00800000E+00  0.00000000E+00
  1.60000000E+01  1.00800000E+00  1.00800000E+00  0.00000000E+00  1.60000000E+01
  1.00800000E+00  1.00800000E+00  0.00000000E+00  1.60000000E+01  1.00800000E+00
  1.00800000E+00  0.00000000E+00  1.60000000E+01  1.00800000E+00  1.00800000E+00
  0.00000000E+00  1.60000000E+01  1.00800000E+00  1.00800000E+00  0.00000000E+00
  1.60000000E+01  1.00800000E+00  1.00800000E+00  0.00000000E+00  1.60000000E+01
  1.00800000E+00  1.00800000E+00  0.00000000E+00  1.60000000E+01  1.00800000E+00
  1.00800000E+00  0.00000000E+00  1.60000000E+01  1.00800000E+00  1.00800000E+00
  0.00000000E+00  1.60000000E+01  1.00800000E+00  1.00800000E+00  0.00000000E+00
  1.60000000E+01  1.00800000E+00  1.00800000E+00  0.00000000E+00  1.60000000E+01
  1.00800000E+00  1.00800000E+00  0.00000000E+00  1.60000000E+01  1.00800000E+00
  1.00800000E+00  0.00000000E+00  1.60000000E+01  1.00800000E+00  1.00800000E+00
  0.00000000E+00  1.60000000E+01  1.00800000E+00  1.00800000E+00  0.00000000E+00
  1.60000000E+01  1.00800000E+00  1.00800000E+00  0.00000000E+00  1.60000000E+01
  1.00800000E+00  1.00800000E+00  0.00000000E+00  1.60000000E+01  1.00800000E+00
  1.00800000E+00  0.00000000E+00  1.60000000E+01  1.00800000E+00  1.00800000E+00
  0.00000000E+00  1.60000000E+01  1.00800000E+00  1.00800000E+00  0.00000000E+00
  1.60000000E+01  1.00800000E+00  1.00800000E+00  0.00000000E+00  1.60000000E+01
  1.00800000E+00  1.00800000E+00  0.00000000E+00  1.60000000E+01  1.00800000E+00
  1.00800000E+00  0.00000000E+00  1.60000000E+01  1.00800000E+00  1.00800000E+00
  0.00000000E+00  1.60000000E+01  1.00800000E+00  1.00800000E+00  0.00000000E+00
  1.60000000E+01  1.00800000E+00  1.00800000E+00  0.00000000E+00  1.60000000E+01
  1.00800000E+00  1.00800000E+00  0.00000000E+00  1.60000000E+01  1.00800000E+00
  1.00800000E+00  0.00000000E+00  1.60000000E+01  1.00800000E+00  1.00800000E+00
  0.00000000E+00  1.60000000E+01  1.00800000E+00  1.00800000E+00  0.00000000E+00
  1.60000000E+01  1.00800000E+00  1.00800000E+00  0.00000000E+00  1.60000000E+01
  1.00800000E+00  1.00800000E+00  0.00000000E+00  1.60000000E+01  1.00800000E+00
  1.00800000E+00  0.00000000E+00  1.60000000E+01  1.00800000E+00  1.00800000E+00
  0.00000000E+00  1.60000000E+01  1.00800000E+00  1.00800000E+00  0.00000000E+00
  1.60000000E+01  1.00800000E+00  1.00800000E+00  0.00000000E+00  1.60000000E+01
  1.00800000E+00  1.00800000E+00  0.00000000E+00  1.60000000E+01  1.00800000E+00
  1.00800000E+00  0.00000000E+00  1.60000000E+01  1.00800000E+00  1.00800000E+00
  0.00000000E+00  1.60000000E+01  1.00800000E+00  1.00800000E+00  0.00000000E+00
  1.60000000E+01  1.00800000E+00  1.00800000E+00  0.00000000E+00  1.60000000E+01
  1.00800000E+00  1.00800000E+00  0.00000000E+00  1.60000000E+01  1.00800000E+00
  1.00800000E+00  0.00000000E+00  1.60000000E+01  1.00800000E+00  1.00800000E+00
  0.00000000E+00  1.60000000E+01  1.00800000E+00  1.00800000E+00  0.00000000E+00
  1.60000000E+01  1.00800000E+00  1.00800000E+00  0.00000000E+00  1.60000000E+01
  1.00800000E+00  1.00800000E+00  0.00000000E+00  1.60000000E+01  1.00800000E+00
  1.00800000E+00  0.00000000E+00  1.60000000E+01  1.00800000E+00  1.00800000E+00
  0.00000000E+00  1.60000000E+01  1.00800000E+00  1.00800000E+00  0.00000000E+00
  1.60000000E+01  1.00800000E+00  1.00800000E+00  0.00000000E+00  1.60000000E+01
  1.00800000E+00  1.00800000E+00  0.00000000E+00  1.60000000E+01  1.00800000E+00
  1.00800000E+00  0.00000000E+00  1.60000000E+01  1.00800000E+00  1.00800000E+00
  0.00000000E+00  1.60000000E+01  1.00800000E+00  1.00800000E+00  0.00000000E+00
  1.60000000E+01  1.00800000E+00  1.00800000E+00  0.00000000E+00  1.60000000E+01
  1.00800000E+00  1.00800000E+00  0.00000000E+00  1.60000000E+01  1.00800000E+00
  1.00800000E+00  0.00000000E+00  1.60000000E+01  1.00800000E+00  1.00800000E+00
  0.00000000E+00  1.60000000E+01  1.00800000E+00  1.00800000E+00  0.00000000E+00
  1.60000000E+01  1.00800000E+00  1.00800000E+00  0.00000000E+00  1.60000000E+01
  1.00800000E+00  1.00800000E+00  0.00000000E+00  1.60000000E+01  1.00800000E+00
  1.00800000E+00  0.00000000E+00  1.60000000E+01  1.00800000E+00  1.00800000E+00
  0.00000000E+00  1.60000000E+01  1.00800000E+00  1.00800000E+00  0.00000000E+00
  1.60000000E+01  1.00800000E+00  1.00800000E+00  0.00000000E+00  1.60000000E+01
  1.00800000E+00  1.00800000E+00  0.00000000E+00  1.60000000E+01  1.00800000E+00
  1.00800000E+00  0.00000000E+00  1.60000000E+01  1.00800000E+00  1.00800000E+00
  0.00000000E+00  1.60000000E+01  1.00800000E+00  1.00800000E+00  0.00000000E+00
  1.60000000E+01  1.00800000E+00  1.00800000E+00  0.00000000E+00  1.60000000E+01
  1.00800000E+00  1.00800000E+00  0.00000000E+00  1.60000000E+01  1.00800000E+00
  1.00800000E+00  0.00000000E+00  1.60000000E+01  1.00800000E+00  1.00800000E+00
  0.00000000E+00  1.60000000E+01  1.00800000E+00  1.00800000E+00  0.00000000E+00
  1.60000000E+01  1.00800000E+00  1.00800000E+00  0.00000000E+00  1.60000000E+01
  1.00800000E+00  1.00800000E+00  0.00000000E+00  1.60000000E+01  1.00800000E+00
  1.00800000E+00  0.00000000E+00  1.60000000E+01  1.00800000E+00  1.00800000E+00
  0.00000000E+00  1.60000000E+01  1.00800000E+00  1.00800000E+00  0.00000000E+00
  1.60000000E+01  1.00800000E+00  1.00800000E+00  0.00000000E+00  1.60000000E+01
  1.00800000E+00  1.00800000E+00  0.00000000E+00  1.60000000E+01  1.00800000E+00
  1.00800000E+00  0.00000000E+00  1.60000000E+01  1.00800000E+00  1.00800000E+00
  0.00000000E+00  1.60000000E+01  1.00800000E+00  1.00800000E+00  0.00000000E+00
  1.60000000E+01  1.00800000E+00  1.00800000E+00  0.00000000E+00  1.60000000E+01
  1.00800000E+00  1.00800000E+00  0.00000000E+00  1.60000000E+01  1.00800000E+00
  1.00800000E+00  0.00000000E+00  1.60000000E+01  1.00800000E+00  1.00800000E+00
  0.00000000E+00  1.60000000E+01  1.00800000E+00  1.00800000E+00  0.00000000E+00
  1.60000000E+01  1.00800000E+00  1.00800000E+00  0.00000000E+00  1.60000000E+01
  1.00800000E+00  1.00800000E+00  0.00000000E+00  1.60000000E+01  1.00800000E+00
  1.00800000E+00  0.00000000E+00  1.60000000E+01  1.00800000E+00  1.00800000E+00
  0.00000000E+00  1.60000000E+01  1.00800000E+00  1.00800000E+00  0.00000000E+00
  1.60000000E+01  1.00800000E+00  1.00800000E+00  0.00000000E+00  1.60000000E+01
  1.00800000E+00  1.00800000E+00  0.00000000E+00  1.60000000E+01  1.00800000E+00
  1.00800000E+00  0.00000000E+00  1.60000000E+01  1.00800000E+00  1.00800000E+00
  0.00000000E+00  1.60000000E+01  1.00800000E+00  1.00800000E+00  0.00000000E+00
  1.60000000E+01  1.00800000E+00  1.00800000E+00  0.00000000E+00  1.60000000E+01
  1.00800000E+00  1.00800000E+00  0.00000000E+00  1.60000000E+01  1.00800000E+00
  1.00800000E+00  0.00000000E+00  1.60000000E+01  1.00800000E+00  1.00800000E+00
  0.00000000E+00  1.60000000E+01  1.00800000E+00  1.00800000E+00  0.00000000E+00
  1.60000000E+01  1.00800000E+00  1.00800000E+00  0.00000000E+00  1.60000000E+01
  1.00800000E+00  1.00800000E+00  0.00000000E+00  1.60000000E+01  1.00800000E+00
  1.00800000E+00  0.00000000E+00  1.60000000E+01  1.00800000E+00  1.00800000E+00
  0.00000000E+00  1.60000000E+01  1.00800000E+00  1.00800000E+00  0.00000000E+00
  1.60000000E+01  1.00800000E+00  1.00800000E+00  0.00000000E+00  1.60000000E+01
  1.00800000E+00  1.00800000E+00  0.00000000E+00  1.60000000E+01  1.00800000E+00
  1.00800000E+00  0.00000000E+00  1.60000000E+01  1.00800000E+00  1.00800000E+00
  0.00000000E+00  1.60000000E+01  1.00800000E+00  1.00800000E+00  0.00000000E+00
  1.60000000E+01  1.00800000E+00  1.00800000E+00  0.00000000E+00  1.60000000E+01
  1.00800000E+00  1.00800000E+00  0.00000000E+00  1.60000000E+01  1.00800000E+00
  1.00800000E+00  0.00000000E+00  1.60000000E+01  1.00800000E+00  1.00800000E+00
  0.00000000E+00  1.60000000E+01  1.00800000E+00  1.00800000E+00  0.00000000E+00
  1.60000000E+01  1.00800000E+00  1.00800000E+00  0.00000000E+00  1.60000000E+01
  1.00800000E+00  1.00800000E+00  0.00000000E+00  1.60000000E+01  1.00800000E+00
  1.00800000E+00  0.00000000E+00  1.60000000E+01  1.00800000E+00  1.00800000E+00
  0.00000000E+00  1.60000000E+01  1.00800000E+00  1.00800000E+00  0.00000000E+00
  1.60000000E+01  1.00800000E+00  1.00800000E+00  0.00000000E+00  1.60000000E+01
  1.00800000E+00  1.00800000E+00  0.00000000E+00  1.60000000E+01  1.00800000E+00
  1.00800000E+00  0.00000000E+00  1.60000000E+01  1.00800000E+00  1.00800000E+00
  0.00000000E+00  1.60000000E+01  1.00800000E+00  1.00800000E+00  0.00000000E+00
  1.60000000E+01  1.00800000E+00  1.00800000E+00  0.00000000E+00  1.60000000E+01
  1.00800000E+00  1.00800000E+00  0.00000000E+00  1.60000000E+01  1.00800000E+00
  1.00800000E+00  0.00000000E+00  1.60000000E+01  1.00800000E+00  1.00800000E+00
  0.00000000E+00  1.60000000E+01  1.00800000E+00  1.00800000E+00  0.00000000E+00
  1.60000000E+01  1.00800000E+00  1.00800000E+00  0.00000000E+00  1.60000000E+01
  1.00800000E+00  1.00800000E+00  0.00000000E+00  1.60000000E+01  1.00800000E+00
  1.00800000E+00  0.00000000E+00  1.60000000E+01  1.00800000E+00  1.00800000E+00
  0.00000000E+00  1.60000000E+01  1.00800000E+00  1.00800000E+00  0.00000000E+00
  1.60000000E+01  1.00800000E+00  1.00800000E+00  0.00000000E+00  1.60000000E+01
  1.00800000E+00  1.00800000E+00  0.00000000E+00  1.60000000E+01  1.00800000E+00
  1.00800000E+00  0.00000000E+00  1.60000000E+01  1.00800000E+00  1.00800000E+00
  0.00000000E+00  1.60000000E+01  1.00800000E+00  1.00800000E+00  0.00000000E+00
  1.60000000E+01  1.00800000E+00  1.00800000E+00  0.00000000E+00  1.60000000E+01
  1.00800000E+00  1.00800000E+00  0.00000000E+00  1.60000000E+01  1.00800000E+00
  1.00800000E+00  0.00000000E+00  1.60000000E+01  1.00800000E+00  1.00800000E+00
  0.00000000E+00  1.60000000E+01  1.00800000E+00  1.00800000E+00  0.00000000E+00
  1.60000000E+01  1.00800000E+00  1.00800000E+00  0.00000000E+00  1.60000000E+01
  1.00800000E+00  1.00800000E+00  0.00000000E+00  1.60000000E+01  1.00800000E+00
  1.00800000E+00  0.00000000E+00  1.60000000E+01  1.00800000E+00  1.00800000E+00
  0.00000000E+00  1.60000000E+01  1.00800000E+00  1.00800000E+00  0.00000000E+00
  1.60000000E+01  1.00800000E+00  1.00800000E+00  0.00000000E+00  1.60000000E+01
  1.00800000E+00  1.00800000E+00  0.00000000E+00  1.60000000E+01  1.00800000E+00
  1.00800000E+00  0.00000000E+00  1.60000000E+01  1.00800000E+00  1.00800000E+00
  0.00000000E+00  1.60000000E+01  1.00800000E+00  1.00800000E+00  0.00000000E+00
  1.60000000E+01  1.00800000E+00  1.00800000E+00  0.00000000E+00  1.60000000E+01
  1.00800000E+00  1.00800000E+00  0.00000000E+00  1.60000000E+01  1.00800000E+00
  1.00800000E+00  0.00000000E+00  1.60000000E+01  1.00800000E+00  1.00800000E+00
  0.00000000E+00  1.60000000E+01  1.00800000E+00  1.00800000E+00  0.00000000E+00
  1.60000000E+01  1.00800000E+00  1.00800000E+00  0.00000000E+00  1.60000000E+01
  1.00800000E+00  1.00800000E+00  0.00000000E+00  1.60000000E+01  1.00800000E+00
  1.00800000E+00  0.00000000E+00  1.60000000E+01  1.00800000E+00  1.00800000E+00
  0.00000000E+00  1.60000000E+01  1.00800000E+00  1.00800000E+00  0.00000000E+00
  1.60000000E+01  1.00800000E+00  1.00800000E+00  0.00000000E+00  1.60000000E+01
  1.00800000E+00  1.00800000E+00  0.00000000E+00  1.60000000E+01  1.00800000E+00
  1.00800000E+00  0.00000000E+00  1.60000000E+01  1.00800000E+00  1.00800000E+00
  0.00000000E+00  1.60000000E+01  1.00800000E+00  1.00800000E+00  0.00000000E+00
  1.60000000E+01  1.00800000E+00  1.00800000E+00  0.00000000E+00  1.60000000E+01
  1.00800000E+00  1.00800000E+00  0.00000000E+00  1.60000000E+01  1.00800000E+00
  1.00800000E+00  0.00000000E+00  1.60000000E+01  1.00800000E+00  1.00800000E+00
  0.00000000E+00  1.60000000E+01  1.00800000E+00  1.00800000E+00  0.00000000E+00
  1.60000000E+01  1.00800000E+00  1.00800000E+00  0.00000000E+00  1.60000000E+01
  1.00800000E+00  1.00800000E+00  0.00000000E+00  1.60000000E+01  1.00800000E+00
  1.00800000E+00  0.00000000E+00  1.60000000E+01  1.00800000E+00  1.00800000E+00
  0.00000000E+00  1.60000000E+01  1.00800000E+00  1.00800000E+00  0.00000000E+00
  1.60000000E+01  1.00800000E+00  1.00800000E+00  0.00000000E+00  1.60000000E+01
  1.00800000E+00  1.00800000E+00  0.00000000E+00  1.60000000E+01  1.00800000E+00
  1.00800000E+00  0.00000000E+00  1.60000000E+01  1.00800000E+00  1.00800000E+00
  0.00000000E+00  1.60000000E+01  1.00800000E+00  1.00800000E+00  0.00000000E+00
  1.60000000E+01  1.00800000E+00  1.00800000E+00  0.00000000E+00  1.60000000E+01
  1.00800000E+00  1.00800000E+00  0.00000000E+00  1.60000000E+01  1.00800000E+00
  1.00800000E+00  0.00000000E+00  1.60000000E+01  1.00800000E+00  1.00800000E+00
  0.00000000E+00  1.60000000E+01  1.00800000E+00  1.00800000E+00  0.00000000E+00
  1.60000000E+01  1.00800000E+00  1.00800000E+00  0.00000000E+00  1.60000000E+01
  1.00800000E+00  1.00800000E+00  0.00000000E+00  1.60000000E+01  1.00800000E+00
  1.00800000E+00  0.00000000E+00  1.60000000E+01  1.00800000E+00  1.00800000E+00
  0.00000000E+00  1.60000000E+01  1.00800000E+00  1.00800000E+00  0.00000000E+00
  1.60000000E+01  1.00800000E+00  1.00800000E+00  0.00000000E+00  1.60000000E+01
  1.00800000E+00  1.00800000E+00  0.00000000E+00  1.60000000E+01  1.00800000E+00
  1.00800000E+00  0.00000000E+00  1.60000000E+01  1.00800000E+00  1.00800000E+00
  0.00000000E+00  1.60000000E+01  1.00800000E+00  1.00800000E+00  0.00000000E+00
  1.60000000E+01  1.00800000E+00  1.00800000E+00  0.00000000E+00  1.60000000E+01
  1.00800000E+00  1.00800000E+00  0.00000000E+00  1.60000000E+01  1.00800000E+00
  1.00800000E+00  0.00000000E+00  1.60000000E+01  1.00800000E+00  1.00800000E+00
  0.00000000E+00  1.60000000E+01  1.00800000E+00  1.00800000E+00  0.00000000E+00
  1.60000000E+01  1.00800000E+00  1.00800000E+00  0.00000000E+00  1.60000000E+01
  1.00800000E+00  1.00800000E+00  0.00000000E+00  1.60000000E+01  1.00800000E+00
  1.00800000E+00  0.00000000E+00  1.60000000E+01  1.00800000E+00  1.00800000E+00
  0.00000000E+00  1.60000000E+01  1.00800000E+00  1.00800000E+00  0.00000000E+00
  1.60000000E+01  1.00800000E+00  1.00800000E+00  0.00000000E+00  1.60000000E+01
  1.00800000E+00  1.00800000E+00  0.00000000E+00  1.60000000E+01  1.00800000E+00
  1.00800000E+00  0.00000000E+00  1.60000000E+01  1.00800000E+00  1.00800000E+00
  0.00000000E+00  1.60000000E+01  1.00800000E+00  1.00800000E+00  0.00000000E+00
  1.60000000E+01  1.00800000E+00  1.00800000E+00  0.00000000E+00  1.60000000E+01
  1.00800000E+00  1.00800000E+00  0.00000000E+00  1.60000000E+01  1.00800000E+00
  1.00800000E+00  0.00000000E+00  1.60000000E+01  1.00800000E+00  1.00800000E+00
  0.00000000E+00  1.60000000E+01  1.00800000E+00  1.00800000E+00  0.00000000E+00
  1.60000000E+01  1.00800000E+00  1.00800000E+00  0.00000000E+00  1.60000000E+01
  1.00800000E+00  1.00800000E+00  0.00000000E+00  1.60000000E+01  1.00800000E+00
  1.00800000E+00  0.00000000E+00  1.60000000E+01  1.00800000E+00  1.00800000E+00
  0.00000000E+00  1.60000000E+01  1.00800000E+00  1.00800000E+00  0.00000000E+00
  1.60000000E+01  1.00800000E+00  1.00800000E+00  0.00000000E+00  1.60000000E+01
  1.00800000E+00  1.00800000E+00  0.00000000E+00  1.60000000E+01  1.00800000E+00
  1.00800000E+00  0.00000000E+00  1.60000000E+01  1.00800000E+00  1.00800000E+00
  0.00000000E+00  1.60000000E+01  1.00800000E+00  1.00800000E+00  0.00000000E+00
  1.60000000E+01  1.00800000E+00  1.00800000E+00  0.00000000E+00  1.60000000E+01
  1.00800000E+00  1.00800000E+00  0.00000000E+00  1.60000000E+01  1.00800000E+00
  1.00800000E+00  0.00000000E+00  1.60000000E+01  1.00800000E+00  1.00800000E+00
  0.00000000E+00  1.60000000E+01  1.00800000E+00  1.00800000E+00  0.00000000E+00
  1.60000000E+01  1.00800000E+00  1.00800000E+00  0.00000000E+00  1.60000000E+01
  1.00800000E+00  1.00800000E+00  0.00000000E+00  1.60000000E+01  1.00800000E+00
  1.00800000E+00  0.00000000E+00  1.60000000E+01  1.00800000E+00  1.00800000E+00
  0.00000000E+00  1.60000000E+01  1.00800000E+00  1.00800000E+00  0.00000000E+00
  1.60000000E+01  1.00800000E+00  1.00800000E+00  0.00000000E+00  1.60000000E+01
  1.00800000E+00  1.00800000E+00  0.00000000E+00  1.60000000E+01  1.00800000E+00
  1.00800000E+00  0.00000000E+00  1.60000000E+01  1.00800000E+00  1.00800000E+00
  0.00000000E+00  1.60000000E+01  1.00800000E+00  1.00800000E+00  0.00000000E+00
  1.60000000E+01  1.00800000E+00  1.00800000E+00  0.00000000E+00  1.60000000E+01
  1.00800000E+00  1.00800000E+00  0.00000000E+00  1.60000000E+01  1.00800000E+00
  1.00800000E+00  0.00000000E+00  1.60000000E+01  1.00800000E+00  1.00800000E+00
  0.00000000E+00  1.60000000E+01  1.00800000E+00  1.00800000E+00  0.00000000E+00
  1.60000000E+01  1.00800000E+00  1.00800000E+00  0.00000000E+00  1.60000000E+01
  1.00800000E+00  1.00800000E+00  0.00000000E+00  1.60000000E+01  1.00800000E+00
  1.00800000E+00  0.00000000E+00  1.60000000E+01  1.00800000E+00  1.00800000E+00
  0.00000000E+00  1.60000000E+01  1.00800000E+00  1.00800000E+00  0.00000000E+00
  1.60000000E+01  1.00800000E+00  1.00800000E+00  0.00000000E+00  1.60000000E+01
  1.00800000E+00  1.00800000E+00  0.00000000E+00  1.60000000E+01  1.00800000E+00
  1.00800000E+00  0.00000000E+00  1.60000000E+01  1.00800000E+00  1.00800000E+00
  0.00000000E+00  1.60000000E+01  1.00800000E+00  1.00800000E+00  0.00000000E+00
  1.60000000E+01  1.00800000E+00  1.00800000E+00  0.00000000E+00  1.60000000E+01
  1.00800000E+00  1.00800000E+00  0.00000000E+00  1.60000000E+01  1.00800000E+00
  1.00800000E+00  0.00000000E+00  1.60000000E+01  1.00800000E+00  1.00800000E+00
  0.00000000E+00  1.60000000E+01  1.00800000E+00  1.00800000E+00  0.00000000E+00
  1.60000000E+01  1.00800000E+00  1.00800000E+00  0.00000000E+00  1.60000000E+01
  1.00800000E+00  1.00800000E+00  0.00000000E+00  1.60000000E+01  1.00800000E+00
  1.00800000E+00  0.00000000E+00  1.60000000E+01  1.00800000E+00  1.00800000E+00
  0.00000000E+00  1.60000000E+01  1.00800000E+00  1.00800000E+00  0.00000000E+00
  1.60000000E+01  1.00800000E+00  1.00800000E+00  0.00000000E+00  1.60000000E+01
  1.00800000E+00  1.00800000E+00  0.00000000E+00  1.60000000E+01  1.00800000E+00
  1.00800000E+00  0.00000000E+00  1.60000000E+01  1.00800000E+00  1.00800000E+00
  0.00000000E+00  1.60000000E+01  1.00800000E+00  1.00800000E+00  0.00000000E+00
  1.60000000E+01  1.00800000E+00  1.00800000E+00  0.00000000E+00  1.60000000E+01
  1.00800000E+00  1.00800000E+00  0.00000000E+00  1.60000000E+01  1.00800000E+00
  1.00800000E+00  0.00000000E+00  1.60000000E+01  1.00800000E+00  1.00800000E+00
  0.00000000E+00  1.60000000E+01  1.00800000E+00  1.00800000E+00  0.00000000E+00
  1.60000000E+01  1.00800000E+00  1.00800000E+00  0.00000000E+00  1.60000000E+01
  1.00800000E+00  1.00800000E+00  0.00000000E+00  1.60000000E+01  1.00800000E+00
  1.00800000E+00  0.00000000E+00  1.60000000E+01  1.00800000E+00  1.00800000E+00
  0.00000000E+00  1.60000000E+01  1.00800000E+00  1.00800000E+00  0.00000000E+00
  1.60000000E+01  1.00800000E+00  1.00800000E+00  0.00000000E+00  1.60000000E+01
  1.00800000E+00  1.00800000E+00  0.00000000E+00  1.60000000E+01  1.00800000E+00
  1.00800000E+00  0.00000000E+00  1.60000000E+01  1.00800000E+00  1.00800000E+00
  0.00000000E+00  1.60000000E+01  1.00800000E+00  1.00800000E+00  0.00000000E+00
  1.60000000E+01  1.00800000E+00  1.00800000E+00  0.00000000E+00  1.60000000E+01
  1.00800000E+00  1.00800000E+00  0.00000000E+00  1.60000000E+01  1.00800000E+00
  1.00800000E+00  0.00000000E+00  1.60000000E+01  1.00800000E+00  1.00800000E+00
  0.00000000E+00  1.60000000E+01  1.00800000E+00  1.00800000E+00  0.00000000E+00
  1.60000000E+01  1.00800000E+00  1.00800000E+00  0.00000000E+00  1.60000000E+01
  1.00800000E+00  1.00800000E+00  0.00000000E+00  1.60000000E+01  1.00800000E+00
  1.00800000E+00  0.00000000E+00  1.60000000E+01  1.00800000E+00  1.00800000E+00
  0.00000000E+00  1.60000000E+01  1.00800000E+00  1.00800000E+00  0.00000000E+00
  1.60000000E+01  1.00800000E+00  1.00800000E+00  0.00000000E+00  1.60000000E+01
  1.00800000E+00  1.00800000E+00  0.00000000E+00  1.60000000E+01  1.00800000E+00
  1.00800000E+00  0.00000000E+00  1.60000000E+01  1.00800000E+00  1.00800000E+00
  0.00000000E+00  1.60000000E+01  1.00800000E+00  1.00800000E+00  0.00000000E+00
  1.60000000E+01  1.00800000E+00  1.00800000E+00  0.00000000E+00  1.60000000E+01
  1.00800000E+00  1.00800000E+00  0.00000000E+00  1.60000000E+01  1.00800000E+00
  1.00800000E+00  0.00000000E+00  1.60000000E+01  1.00800000E+00  1.00800000E+00
  0.00000000E+00  1.60000000E+01  1.00800000E+00  1.00800000E+00  0.00000000E+00
  1.60000000E+01  1.00800000E+00  1.00800000E+00  0.00000000E+00  1.60000000E+01
  1.00800000E+00  1.00800000E+00  0.00000000E+00  1.60000000E+01  1.00800000E+00
  1.00800000E+00  0.00000000E+00  1.60000000E+01  1.00800000E+00  1.00800000E+00
  0.00000000E+00  1.60000000E+01  1.00800000E+00  1.00800000E+00  0.00000000E+00
  1.60000000E+01  1.00800000E+00  1.00800000E+00  0.00000000E+00  1.60000000E+01
  1.00800000E+00  1.00800000E+00  0.00000000E+00  1.60000000E+01  1.00800000E+00
  1.00800000E+00  0.00000000E+00  1.60000000E+01  1.00800000E+00  1.00800000E+00
  0.00000000E+00  1.60000000E+01  1.00800000E+00  1.00800000E+00  0.00000000E+00
  1.60000000E+01  1.00800000E+00  1.00800000E+00  0.00000000E+00  1.60000000E+01
  1.00800000E+00  1.00800000E+00  0.00000000E+00  1.60000000E+01  1.00800000E+00
  1.00800000E+00  0.00000000E+00  1.60000000E+01  1.00800000E+00  1.00800000E+00
  0.00000000E+00  1.60000000E+01  1.00800000E+00  1.00800000E+00  0.00000000E+00
  1.60000000E+01  1.00800000E+00  1.00800000E+00  0.00000000E+00  1.60000000E+01
  1.00800000E+00  1.00800000E+00  0.00000000E+00  1.60000000E+01  1.00800000E+00
  1.00800000E+00  0.00000000E+00  1.60000000E+01  1.00800000E+00  1.00800000E+00
  0.00000000E+00  1.60000000E+01  1.00800000E+00  1.00800000E+00  0.00000000E+00
  1.60000000E+01  1.00800000E+00  1.00800000E+00  0.00000000E+00  1.60000000E+01
  1.00800000E+00  1.00800000E+00  0.00000000E+00  1.60000000E+01  1.00800000E+00
  1.00800000E+00  0.00000000E+00  1.60000000E+01  1.00800000E+00  1.00800000E+00
  0.00000000E+00  1.60000000E+01  1.00800000E+00  1.00800000E+00  0.00000000E+00
  1.60000000E+01  1.00800000E+00  1.00800000E+00  0.00000000E+00  1.60000000E+01
  1.00800000E+00  1.00800000E+00  0.00000000E+00  1.60000000E+01  1.00800000E+00
  1.00800000E+00  0.00000000E+00  1.60000000E+01  1.00800000E+00  1.00800000E+00
  0.00000000E+00  1.60000000E+01  1.00800000E+00  1.00800000E+00  0.00000000E+00
  1.60000000E+01  1.00800000E+00  1.00800000E+00  0.00000000E+00  1.60000000E+01
  1.00800000E+00  1.00800000E+00  0.00000000E+00  1.60000000E+01  1.00800000E+00
  1.00800000E+00  0.00000000E+00  1.60000000E+01  1.00800000E+00  1.00800000E+00
  0.00000000E+00  1.60000000E+01  1.00800000E+00  1.00800000E+00  0.00000000E+00
  1.60000000E+01  1.00800000E+00  1.00800000E+00  0.00000000E+00  1.60000000E+01
  1.00800000E+00  1.00800000E+00  0.00000000E+00  1.60000000E+01  1.00800000E+00
  1.00800000E+00  0.00000000E+00  1.60000000E+01  1.00800000E+00  1.00800000E+00
  0.00000000E+00  1.60000000E+01  1.00800000E+00  1.00800000E+00  0.00000000E+00
  1.60000000E+01  1.00800000E+00  1.00800000E+00  0.00000000E+00  1.60000000E+01
  1.00800000E+00  1.00800000E+00  0.00000000E+00  1.60000000E+01  1.00800000E+00
  1.00800000E+00  0.00000000E+00  1.60000000E+01  1.00800000E+00  1.00800000E+00
  0.00000000E+00  1.60000000E+01  1.00800000E+00  1.00800000E+00  0.00000000E+00
  1.60000000E+01  1.00800000E+00  1.00800000E+00  0.00000000E+00  1.60000000E+01
  1.00800000E+00  1.00800000E+00  0.00000000E+00  1.60000000E+01  1.00800000E+00
  1.00800000E+00  0.00000000E+00  1.60000000E+01  1.00800000E+00  1.00800000E+00
  0.00000000E+00  1.60000000E+01  1.00800000E+00  1.00800000E+00  0.00000000E+00
  1.60000000E+01  1.00800000E+00  1.00800000E+00  0.00000000E+00  1.60000000E+01
  1.00800000E+00  1.00800000E+00  0.00000000E+00  1.60000000E+01  1.00800000E+00
  1.00800000E+00  0.00000000E+00  1.60000000E+01  1.00800000E+00  1.00800000E+00
  0.00000000E+00  1.60000000E+01  1.00800000E+00  1.00800000E+00  0.00000000E+00
  1.60000000E+01  1.00800000E+00  1.00800000E+00  0.00000000E+00  1.60000000E+01
  1.00800000E+00  1.00800000E+00  0.00000000E+00  1.60000000E+01  1.00800000E+00
  1.00800000E+00  0.00000000E+00  1.60000000E+01  1.00800000E+00  1.00800000E+00
  0.00000000E+00  1.60000000E+01  1.00800000E+00  1.00800000E+00  0.00000000E+00
  1.60000000E+01  1.00800000E+00  1.00800000E+00  0.00000000E+00  1.60000000E+01
  1.00800000E+00  1.00800000E+00  0.00000000E+00  1.60000000E+01  1.00800000E+00
  1.00800000E+00  0.00000000E+00  1.60000000E+01  1.00800000E+00  1.00800000E+00
  0.00000000E+00  1.60000000E+01  1.00800000E+00  1.00800000E+00  0.00000000E+00
  1.60000000E+01  1.00800000E+00  1.00800000E+00  0.00000000E+00  1.60000000E+01
  1.00800000E+00  1.00800000E+00  0.00000000E+00  1.60000000E+01  1.00800000E+00
  1.00800000E+00  0.00000000E+00  1.60000000E+01  1.00800000E+00  1.00800000E+00
  0.00000000E+00  1.60000000E+01  1.00800000E+00  1.00800000E+00  0.00000000E+00
  1.60000000E+01  1.00800000E+00  1.00800000E+00  0.00000000E+00  1.60000000E+01
  1.00800000E+00  1.00800000E+00  0.00000000E+00  1.60000000E+01  1.00800000E+00
  1.00800000E+00  0.00000000E+00  1.60000000E+01  1.00800000E+00  1.00800000E+00
  0.00000000E+00  1.60000000E+01  1.00800000E+00  1.00800000E+00  0.00000000E+00
  1.60000000E+01  1.00800000E+00  1.00800000E+00  0.00000000E+00  1.60000000E+01
  1.00800000E+00  1.00800000E+00  0.00000000E+00  1.60000000E+01  1.00800000E+00
  1.00800000E+00  0.00000000E+00  1.60000000E+01  1.00800000E+00  1.00800000E+00
  0.00000000E+00  1.60000000E+01  1.00800000E+00  1.00800000E+00  0.00000000E+00
  1.60000000E+01  1.00800000E+00  1.00800000E+00  0.00000000E+00  1.60000000E+01
  1.00800000E+00  1.00800000E+00  0.00000000E+00  1.60000000E+01  1.00800000E+00
  1.00800000E+00  0.00000000E+00  1.60000000E+01  1.00800000E+00  1.00800000E+00
  0.00000000E+00  1.60000000E+01  1.00800000E+00  1.00800000E+00  0.00000000E+00
  1.60000000E+01  1.00800000E+00  1.00800000E+00  0.00000000E+00  1.60000000E+01
  1.00800000E+00  1.00800000E+00  0.00000000E+00  1.60000000E+01  1.00800000E+00
  1.00800000E+00  0.00000000E+00  1.60000000E+01  1.00800000E+00  1.00800000E+00
  0.00000000E+00  1.60000000E+01  1.00800000E+00  1.00800000E+00  0.00000000E+00
  1.60000000E+01  1.00800000E+00  1.00800000E+00  0.00000000E+00  1.60000000E+01
  1.00800000E+00  1.00800000E+00  0.00000000E+00  1.60000000E+01  1.00800000E+00
  1.00800000E+00  0.00000000E+00  1.60000000E+01  1.00800000E+00  1.00800000E+00
  0.00000000E+00  1.60000000E+01  1.00800000E+00  1.00800000E+00  0.00000000E+00
  1.60000000E+01  1.00800000E+00  1.00800000E+00  0.00000000E+00  1.60000000E+01
  1.00800000E+00  1.00800000E+00  0.00000000E+00  1.60000000E+01  1.00800000E+00
  1.00800000E+00  0.00000000E+00  1.60000000E+01  1.00800000E+00  1.00800000E+00
  0.00000000E+00  1.60000000E+01  1.00800000E+00  1.00800000E+00  0.00000000E+00
  1.60000000E+01  1.00800000E+00  1.00800000E+00  0.00000000E+00  1.60000000E+01
  1.00800000E+00  1.00800000E+00  0.00000000E+00  1.60000000E+01  1.00800000E+00
  1.00800000E+00  0.00000000E+00  1.60000000E+01  1.00800000E+00  1.00800000E+00
  0.00000000E+00  1.60000000E+01  1.00800000E+00  1.00800000E+00  0.00000000E+00
  1.60000000E+01  1.00800000E+00  1.00800000E+00  0.00000000E+00  1.60000000E+01
  1.00800000E+00  1.00800000E+00  0.00000000E+00  1.60000000E+01  1.00800000E+00
  1.00800000E+00  0.00000000E+00  1.60000000E+01  1.00800000E+00  1.00800000E+00
  0.00000000E+00  1.60000000E+01  1.00800000E+00  1.00800000E+00  0.00000000E+00
  1.60000000E+01  1.00800000E+00  1.00800000E+00  0.00000000E+00  1.60000000E+01
  1.00800000E+00  1.00800000E+00  0.00000000E+00  1.60000000E+01  1.00800000E+00
  1.00800000E+00  0.00000000E+00  1.60000000E+01  1.00800000E+00  1.00800000E+00
  0.00000000E+00  1.60000000E+01  1.00800000E+00  1.00800000E+00  0.00000000E+00
  1.60000000E+01  1.00800000E+00  1.00800000E+00  0.00000000E+00  1.60000000E+01
  1.00800000E+00  1.00800000E+00  0.00000000E+00  1.60000000E+01  1.00800000E+00
  1.00800000E+00  0.00000000E+00  1.60000000E+01  1.00800000E+00  1.00800000E+00
  0.00000000E+00  1.60000000E+01  1.00800000E+00  1.00800000E+00  0.00000000E+00
  1.60000000E+01  1.00800000E+00  1.00800000E+00  0.00000000E+00  1.60000000E+01
  1.00800000E+00  1.00800000E+00  0.00000000E+00  1.60000000E+01  1.00800000E+00
  1.00800000E+00  0.00000000E+00  1.60000000E+01  1.00800000E+00  1.00800000E+00
  0.00000000E+00  1.60000000E+01  1.00800000E+00  1.00800000E+00  0.00000000E+00
  1.60000000E+01  1.00800000E+00  1.00800000E+00  0.00000000E+00  1.60000000E+01
  1.00800000E+00  1.00800000E+00  0.00000000E+00  1.60000000E+01  1.00800000E+00
  1.00800000E+00  0.00000000E+00  1.60000000E+01  1.00800000E+00  1.00800000E+00
  0.00000000E+00  1.60000000E+01  1.00800000E+00  1.00800000E+00  0.00000000E+00
  1.60000000E+01  1.00800000E+00  1.00800000E+00  0.00000000E+00  1.60000000E+01
  1.00800000E+00  1.00800000E+00  0.00000000E+00  1.60000000E+01  1.00800000E+00
  1.00800000E+00  0.00000000E+00  1.60000000E+01  1.00800000E+00  1.00800000E+00
  0.00000000E+00  1.60000000E+01  1.00800000E+00  1.00800000E+00  0.00000000E+00
  1.60000000E+01  1.00800000E+00  1.00800000E+00  0.00000000E+00  1.60000000E+01
  1.00800000E+00  1.00800000E+00  0.00000000E+00  1.60000000E+01  1.00800000E+00
  1.00800000E+00  0.00000000E+00  1.60000000E+01  1.00800000E+00  1.00800000E+00
  0.00000000E+00  1.60000000E+01  1.00800000E+00  1.00800000E+00  0.00000000E+00
  1.60000000E+01  1.00800000E+00  1.00800000E+00  0.00000000E+00  1.60000000E+01
  1.00800000E+00  1.00800000E+00  0.00000000E+00  1.60000000E+01  1.00800000E+00
  1.00800000E+00  0.00000000E+00  1.60000000E+01  1.00800000E+00  1.00800000E+00
  0.00000000E+00  1.60000000E+01  1.00800000E+00  1.00800000E+00  0.00000000E+00
  1.60000000E+01  1.00800000E+00  1.00800000E+00  0.00000000E+00  1.60000000E+01
  1.00800000E+00  1.00800000E+00  0.00000000E+00  1.60000000E+01  1.00800000E+00
  1.00800000E+00  0.00000000E+00  1.60000000E+01  1.00800000E+00  1.00800000E+00
  0.00000000E+00  1.60000000E+01  1.00800000E+00  1.00800000E+00  0.00000000E+00
  1.60000000E+01  1.00800000E+00  1.00800000E+00  0.00000000E+00  1.60000000E+01
  1.00800000E+00  1.00800000E+00  0.00000000E+00  1.60000000E+01  1.00800000E+00
  1.00800000E+00  0.00000000E+00  1.60000000E+01  1.00800000E+00  1.00800000E+00
  0.00000000E+00  1.60000000E+01  1.00800000E+00  1.00800000E+00  0.00000000E+00
  1.60000000E+01  1.00800000E+00  1.00800000E+00  0.00000000E+00  1.60000000E+01
  1.00800000E+00  1.00800000E+00  0.00000000E+00  1.60000000E+01  1.00800000E+00
  1.00800000E+00  0.00000000E+00  1.60000000E+01  1.00800000E+00  1.00800000E+00
  0.00000000E+00  1.60000000E+01  1.00800000E+00  1.00800000E+00  0.00000000E+00
  1.60000000E+01  1.00800000E+00  1.00800000E+00  0.00000000E+00  1.60000000E+01
  1.00800000E+00  1.00800000E+00  0.00000000E+00  1.60000000E+01  1.00800000E+00
  1.00800000E+00  0.00000000E+00  1.60000000E+01  1.00800000E+00  1.00800000E+00
  0.00000000E+00  1.60000000E+01  1.00800000E+00  1.00800000E+00  0.00000000E+00
  1.60000000E+01  1.00800000E+00  1.00800000E+00  0.00000000E+00  1.60000000E+01
  1.00800000E+00  1.00800000E+00  0.00000000E+00  1.60000000E+01  1.00800000E+00
  1.00800000E+00  0.00000000E+00  1.60000000E+01  1.00800000E+00  1.00800000E+00
  0.00000000E+00  1.60000000E+01  1.00800000E+00  1.00800000E+00  0.00000000E+00
  1.60000000E+01  1.00800000E+00  1.00800000E+00  0.00000000E+00  1.60000000E+01
  1.00800000E+00  1.00800000E+00  0.00000000E+00  1.60000000E+01  1.00800000E+00
  1.00800000E+00  0.00000000E+00  1.60000000E+01  1.00800000E+00  1.00800000E+00
  0.00000000E+00  1.60000000E+01  1.00800000E+00  1.00800000E+00  0.00000000E+00
  1.60000000E+01  1.00800000E+00  1.00800000E+00  0.00000000E+00  1.60000000E+01
  1.00800000E+00  1.00800000E+00  0.00000000E+00  1.60000000E+01  1.00800000E+00
  1.00800000E+00  0.00000000E+00  1.60000000E+01  1.00800000E+00  1.00800000E+00
  0.00000000E+00  1.60000000E+01  1.00800000E+00  1.00800000E+00  0.00000000E+00
  1.60000000E+01  1.00800000E+00  1.00800000E+00  0.00000000E+00  1.60000000E+01
  1.00800000E+00  1.00800000E+00  0.00000000E+00  1.60000000E+01  1.00800000E+00
  1.00800000E+00  0.00000000E+00  1.60000000E+01  1.00800000E+00  1.00800000E+00
  0.00000000E+00  1.60000000E+01  1.00800000E+00  1.00800000E+00  0.00000000E+00
  1.60000000E+01  1.00800000E+00  1.00800000E+00  0.00000000E+00  1.60000000E+01
  1.00800000E+00  1.00800000E+00  0.00000000E+00  1.60000000E+01  1.00800000E+00
  1.00800000E+00  0.00000000E+00  1.60000000E+01  1.00800000E+00  1.00800000E+00
  0.00000000E+00  1.60000000E+01  1.00800000E+00  1.00800000E+00  0.00000000E+00
  1.60000000E+01  1.00800000E+00  1.00800000E+00  0.00000000E+00  1.60000000E+01
  1.00800000E+00  1.00800000E+00  0.00000000E+00  1.60000000E+01  1.00800000E+00
  1.00800000E+00  0.00000000E+00  1.60000000E+01  1.00800000E+00  1.00800000E+00
  0.00000000E+00  1.60000000E+01  1.00800000E+00  1.00800000E+00  0.00000000E+00
  1.60000000E+01  1.00800000E+00  1.00800000E+00  0.00000000E+00  1.60000000E+01
  1.00800000E+00  1.00800000E+00  0.00000000E+00  1.60000000E+01  1.00800000E+00
  1.00800000E+00  0.00000000E+00  1.60000000E+01  1.00800000E+00  1.00800000E+00
  0.00000000E+00  1.60000000E+01  1.00800000E+00  1.00800000E+00  0.00000000E+00
  1.60000000E+01  1.00800000E+00  1.00800000E+00  0.00000000E+00  1.60000000E+01
  1.00800000E+00  1.00800000E+00  0.00000000E+00  1.60000000E+01  1.00800000E+00
  1.00800000E+00  0.00000000E+00  1.60000000E+01  1.00800000E+00  1.00800000E+00
  0.00000000E+00  1.60000000E+01  1.00800000E+00  1.00800000E+00  0.00000000E+00
  1.60000000E+01  1.00800000E+00  1.00800000E+00  0.00000000E+00  1.60000000E+01
  1.00800000E+00  1.00800000E+00  0.00000000E+00  1.60000000E+01  1.00800000E+00
  1.00800000E+00  0.00000000E+00  1.60000000E+01  1.00800000E+00  1.00800000E+00
  0.00000000E+00  1.60000000E+01  1.00800000E+00  1.00800000E+00  0.00000000E+00
  1.60000000E+01  1.00800000E+00  1.00800000E+00  0.00000000E+00  1.60000000E+01
  1.00800000E+00  1.00800000E+00  0.00000000E+00  1.60000000E+01  1.00800000E+00
  1.00800000E+00  0.00000000E+00  1.60000000E+01  1.00800000E+00  1.00800000E+00
  0.00000000E+00  1.60000000E+01  1.00800000E+00  1.00800000E+00  0.00000000E+00
  1.60000000E+01  1.00800000E+00  1.00800000E+00  0.00000000E+00  1.60000000E+01
  1.00800000E+00  1.00800000E+00  0.00000000E+00  1.60000000E+01  1.00800000E+00
  1.00800000E+00  0.00000000E+00  1.60000000E+01  1.00800000E+00  1.00800000E+00
  0.00000000E+00  1.60000000E+01  1.00800000E+00  1.00800000E+00  0.00000000E+00
  1.60000000E+01  1.00800000E+00  1.00800000E+00  0.00000000E+00  1.60000000E+01
  1.00800000E+00  1.00800000E+00  0.00000000E+00  1.60000000E+01  1.00800000E+00
  1.00800000E+00  0.00000000E+00  1.60000000E+01  1.00800000E+00  1.00800000E+00
  0.00000000E+00  1.60000000E+01  1.00800000E+00  1.00800000E+00  0.00000000E+00
  1.60000000E+01  1.00800000E+00  1.00800000E+00  0.00000000E+00  1.60000000E+01
  1.00800000E+00  1.00800000E+00  0.00000000E+00  1.60000000E+01  1.00800000E+00
  1.00800000E+00  0.00000000E+00  1.60000000E+01  1.00800000E+00  1.00800000E+00
  0.00000000E+00  1.60000000E+01  1.00800000E+00  1.00800000E+00  0.00000000E+00
  1.60000000E+01  1.00800000E+00  1.00800000E+00  0.00000000E+00  1.60000000E+01
  1.00800000E+00  1.00800000E+00  0.00000000E+00  1.60000000E+01  1.00800000E+00
  1.00800000E+00  0.00000000E+00  1.60000000E+01  1.00800000E+00  1.00800000E+00
  0.00000000E+00  1.60000000E+01  1.00800000E+00  1.00800000E+00  0.00000000E+00
  1.60000000E+01  1.00800000E+00  1.00800000E+00  0.00000000E+00  1.60000000E+01
  1.00800000E+00  1.00800000E+00  0.00000000E+00  1.60000000E+01  1.00800000E+00
  1.00800000E+00  0.00000000E+00  1.60000000E+01  1.00800000E+00  1.00800000E+00
  0.00000000E+00  1.60000000E+01  1.00800000E+00  1.00800000E+00  0.00000000E+00
  1.60000000E+01  1.00800000E+00  1.00800000E+00  0.00000000E+00  1.60000000E+01
  1.00800000E+00  1.00800000E+00  0.00000000E+00  1.60000000E+01  1.00800000E+00
  1.00800000E+00  0.00000000E+00  1.60000000E+01  1.00800000E+00  1.00800000E+00
  0.00000000E+00  1.60000000E+01  1.00800000E+00  1.00800000E+00  0.00000000E+00
  1.60000000E+01  1.00800000E+00  1.00800000E+00  0.00000000E+00  1.60000000E+01
  1.00800000E+00  1.00800000E+00  0.00000000E+00  1.60000000E+01  1.00800000E+00
  1.00800000E+00  0.00000000E+00  1.60000000E+01  1.00800000E+00  1.00800000E+00
  0.00000000E+00  1.60000000E+01  1.00800000E+00  1.00800000E+00  0.00000000E+00
  1.60000000E+01  1.00800000E+00  1.00800000E+00  0.00000000E+00  1.60000000E+01
  1.00800000E+00  1.00800000E+00  0.00000000E+00  1.60000000E+01  1.00800000E+00
  1.00800000E+00  0.00000000E+00  1.60000000E+01  1.00800000E+00  1.00800000E+00
  0.00000000E+00  1.60000000E+01  1.00800000E+00  1.00800000E+00  0.00000000E+00
  1.60000000E+01  1.00800000E+00  1.00800000E+00  0.00000000E+00  1.60000000E+01
  1.00800000E+00  1.00800000E+00  0.00000000E+00  1.60000000E+01  1.00800000E+00
  1.00800000E+00  0.00000000E+00  1.60000000E+01  1.00800000E+00  1.00800000E+00
  0.00000000E+00  1.60000000E+01  1.00800000E+00  1.00800000E+00  0.00000000E+00
  1.60000000E+01  1.00800000E+00  1.00800000E+00  0.00000000E+00  1.60000000E+01
  1.00800000E+00  1.00800000E+00  0.00000000E+00  1.60000000E+01  1.00800000E+00
  1.00800000E+00  0.00000000E+00  1.60000000E+01  1.00800000E+00  1.00800000E+00
  0.00000000E+00  1.60000000E+01  1.00800000E+00  1.00800000E+00  0.00000000E+00
  1.60000000E+01  1.00800000E+00  1.00800000E+00  0.00000000E+00  1.60000000E+01
  1.00800000E+00  1.00800000E+00  0.00000000E+00  1.60000000E+01  1.00800000E+00
  1.00800000E+00  0.00000000E+00  1.60000000E+01  1.00800000E+00  1.00800000E+00
  0.00000000E+00  1.60000000E+01  1.00800000E+00  1.00800000E+00  0.00000000E+00
  1.60000000E+01  1.00800000E+00  1.00800000E+00  0.00000000E+00  1.60000000E+01
  1.00800000E+00  1.00800000E+00  0.00000000E+00  1.60000000E+01  1.00800000E+00
  1.00800000E+00  0.00000000E+00  1.60000000E+01  1.00800000E+00  1.00800000E+00
  0.00000000E+00  1.60000000E+01  1.00800000E+00  1.00800000E+00  0.00000000E+00
  1.60000000E+01  1.00800000E+00  1.00800000E+00  0.00000000E+00  1.60000000E+01
  1.00800000E+00  1.00800000E+00  0.00000000E+00  1.60000000E+01  1.00800000E+00
  1.00800000E+00  0.00000000E+00  1.60000000E+01  1.00800000E+00  1.00800000E+00
  0.00000000E+00  1.60000000E+01  1.00800000E+00  1.00800000E+00  0.00000000E+00
  1.60000000E+01  1.00800000E+00  1.00800000E+00  0.00000000E+00  1.60000000E+01
  1.00800000E+00  1.00800000E+00  0.00000000E+00  1.60000000E+01  1.00800000E+00
  1.00800000E+00  0.00000000E+00  1.60000000E+01  1.00800000E+00  1.00800000E+00
  0.00000000E+00  1.60000000E+01  1.00800000E+00  1.00800000E+00  0.00000000E+00
  1.60000000E+01  1.00800000E+00  1.00800000E+00  0.00000000E+00  1.60000000E+01
  1.00800000E+00  1.00800000E+00  0.00000000E+00  1.60000000E+01  1.00800000E+00
  1.00800000E+00  0.00000000E+00  1.60000000E+01  1.00800000E+00  1.00800000E+00
  0.00000000E+00  1.60000000E+01  1.00800000E+00  1.00800000E+00  0.00000000E+00
  1.60000000E+01  1.00800000E+00  1.00800000E+00  0.00000000E+00  1.60000000E+01
  1.00800000E+00  1.00800000E+00  0.00000000E+00  1.60000000E+01  1.00800000E+00
  1.00800000E+00  0.00000000E+00  1.60000000E+01  1.00800000E+00  1.00800000E+00
  0.00000000E+00  1.60000000E+01  1.00800000E+00  1.00800000E+00  0.00000000E+00
  1.60000000E+01  1.00800000E+00  1.00800000E+00  0.00000000E+00  1.60000000E+01
  1.00800000E+00  1.00800000E+00  0.00000000E+00  1.60000000E+01  1.00800000E+00
  1.00800000E+00  0.00000000E+00  1.60000000E+01  1.00800000E+00  1.00800000E+00
  0.00000000E+00  1.60000000E+01  1.00800000E+00  1.00800000E+00  0.00000000E+00
  1.60000000E+01  1.00800000E+00  1.00800000E+00  0.00000000E+00  1.60000000E+01
  1.00800000E+00  1.00800000E+00  0.00000000E+00  1.60000000E+01  1.00800000E+00
  1.00800000E+00  0.00000000E+00  1.60000000E+01  1.00800000E+00  1.00800000E+00
  0.00000000E+00  1.60000000E+01  1.00800000E+00  1.00800000E+00  0.00000000E+00
  1.60000000E+01  1.00800000E+00  1.00800000E+00  0.00000000E+00  1.60000000E+01
  1.00800000E+00  1.00800000E+00  0.00000000E+00  1.60000000E+01  1.00800000E+00
  1.00800000E+00  0.00000000E+00  1.60000000E+01  1.00800000E+00  1.00800000E+00
  0.00000000E+00  1.60000000E+01  1.00800000E+00  1.00800000E+00  0.00000000E+00
  1.60000000E+01  1.00800000E+00  1.00800000E+00  0.00000000E+00  1.60000000E+01
  1.00800000E+00  1.00800000E+00  0.00000000E+00  1.60000000E+01  1.00800000E+00
  1.00800000E+00  0.00000000E+00  1.60000000E+01  1.00800000E+00  1.00800000E+00
  0.00000000E+00  1.60000000E+01  1.00800000E+00  1.00800000E+00  0.00000000E+00
  1.60000000E+01  1.00800000E+00  1.00800000E+00  0.00000000E+00  1.60000000E+01
  1.00800000E+00  1.00800000E+00  0.00000000E+00  1.60000000E+01  1.00800000E+00
  1.00800000E+00  0.00000000E+00  1.60000000E+01  1.00800000E+00  1.00800000E+00
  0.00000000E+00  1.60000000E+01  1.00800000E+00  1.00800000E+00  0.00000000E+00
  1.60000000E+01  1.00800000E+00  1.00800000E+00  0.00000000E+00  1.60000000E+01
  1.00800000E+00  1.00800000E+00  0.00000000E+00  1.60000000E+01  1.00800000E+00
  1.00800000E+00  0.00000000E+00  1.60000000E+01  1.00800000E+00  1.00800000E+00
  0.00000000E+00  1.60000000E+01  1.00800000E+00  1.00800000E+00  0.00000000E+00
  1.60000000E+01  1.00800000E+00  1.00800000E+00  0.00000000E+00  1.60000000E+01
  1.00800000E+00  1.00800000E+00  0.00000000E+00  1.60000000E+01  1.00800000E+00
  1.00800000E+00  0.00000000E+00  1.60000000E+01  1.00800000E+00  1.00800000E+00
  0.00000000E+00  1.60000000E+01  1.00800000E+00  1.00800000E+00  0.00000000E+00
  1.60000000E+01  1.00800000E+00  1.00800000E+00  0.00000000E+00  1.60000000E+01
  1.00800000E+00  1.00800000E+00  0.00000000E+00  1.60000000E+01  1.00800000E+00
  1.00800000E+00  0.00000000E+00  1.60000000E+01  1.00800000E+00  1.00800000E+00
  0.00000000E+00  1.60000000E+01  1.00800000E+00  1.00800000E+00  0.00000000E+00
  1.60000000E+01  1.00800000E+00  1.00800000E+00  0.00000000E+00  1.60000000E+01
  1.00800000E+00  1.00800000E+00  0.00000000E+00  1.60000000E+01  1.00800000E+00
  1.00800000E+00  0.00000000E+00  1.60000000E+01  1.00800000E+00  1.00800000E+00
  0.00000000E+00  1.60000000E+01  1.00800000E+00  1.00800000E+00  0.00000000E+00
  1.60000000E+01  1.00800000E+00  1.00800000E+00  0.00000000E+00  1.60000000E+01
  1.00800000E+00  1.00800000E+00  0.00000000E+00  1.60000000E+01  1.00800000E+00
  1.00800000E+00  0.00000000E+00  1.60000000E+01  1.00800000E+00  1.00800000E+00
  0.00000000E+00  1.60000000E+01  1.00800000E+00  1.00800000E+00  0.00000000E+00
  1.60000000E+01  1.00800000E+00  1.00800000E+00  0.00000000E+00  1.60000000E+01
  1.00800000E+00  1.00800000E+00  0.00000000E+00  1.60000000E+01  1.00800000E+00
  1.00800000E+00  0.00000000E+00  1.60000000E+01  1.00800000E+00  1.00800000E+00
  0.00000000E+00  1.60000000E+01  1.00800000E+00  1.00800000E+00  0.00000000E+00
  1.60000000E+01  1.00800000E+00  1.00800000E+00  0.00000000E+00  1.60000000E+01
  1.00800000E+00  1.00800000E+00  0.00000000E+00  1.60000000E+01  1.00800000E+00
  1.00800000E+00  0.00000000E+00  1.60000000E+01  1.00800000E+00  1.00800000E+00
  0.00000000E+00  1.60000000E+01  1.00800000E+00  1.00800000E+00  0.00000000E+00
  1.60000000E+01  1.00800000E+00  1.00800000E+00  0.00000000E+00  1.60000000E+01
  1.00800000E+00  1.00800000E+00  0.00000000E+00  1.60000000E+01  1.00800000E+00
  1.00800000E+00  0.00000000E+00  1.60000000E+01  1.00800000E+00  1.00800000E+00
  0.00000000E+00  1.60000000E+01  1.00800000E+00  1.00800000E+00  0.00000000E+00
  1.60000000E+01  1.00800000E+00  1.00800000E+00  0.00000000E+00  1.60000000E+01
  1.00800000E+00  1.00800000E+00  0.00000000E+00  1.60000000E+01  1.00800000E+00
  1.00800000E+00  0.00000000E+00  1.60000000E+01  1.00800000E+00  1.00800000E+00
  0.00000000E+00  1.60000000E+01  1.00800000E+00  1.00800000E+00  0.00000000E+00
  1.60000000E+01  1.00800000E+00  1.00800000E+00  0.00000000E+00  1.60000000E+01
  1.00800000E+00  1.00800000E+00  0.00000000E+00  1.60000000E+01  1.00800000E+00
  1.00800000E+00  0.00000000E+00  1.60000000E+01  1.00800000E+00  1.00800000E+00
  0.00000000E+00  1.60000000E+01  1.00800000E+00  1.00800000E+00  0.00000000E+00
  1.60000000E+01  1.00800000E+00  1.00800000E+00  0.00000000E+00  1.60000000E+01
  1.00800000E+00  1.00800000E+00  0.00000000E+00  1.60000000E+01  1.00800000E+00
  1.00800000E+00  0.00000000E+00  1.60000000E+01  1.00800000E+00  1.00800000E+00
  0.00000000E+00  1.60000000E+01  1.00800000E+00  1.00800000E+00  0.00000000E+00
  1.60000000E+01  1.00800000E+00  1.00800000E+00  0.00000000E+00  1.60000000E+01
  1.00800000E+00  1.00800000E+00  0.00000000E+00  1.60000000E+01  1.00800000E+00
  1.00800000E+00  0.00000000E+00  1.60000000E+01  1.00800000E+00  1.00800000E+00
  0.00000000E+00  1.60000000E+01  1.00800000E+00  1.00800000E+00  0.00000000E+00
  1.60000000E+01  1.00800000E+00  1.00800000E+00  0.00000000E+00  1.60000000E+01
  1.00800000E+00  1.00800000E+00  0.00000000E+00  1.60000000E+01  1.00800000E+00
  1.00800000E+00  0.00000000E+00  1.60000000E+01  1.00800000E+00  1.00800000E+00
  0.00000000E+00  1.60000000E+01  1.00800000E+00  1.00800000E+00  0.00000000E+00
  1.60000000E+01  1.00800000E+00  1.00800000E+00  0.00000000E+00  1.60000000E+01
  1.00800000E+00  1.00800000E+00  0.00000000E+00  1.60000000E+01  1.00800000E+00
  1.00800000E+00  0.00000000E+00  1.60000000E+01  1.00800000E+00  1.00800000E+00
  0.00000000E+00  1.60000000E+01  1.00800000E+00  1.00800000E+00  0.00000000E+00
  1.60000000E+01  1.00800000E+00  1.00800000E+00  0.00000000E+00  1.60000000E+01
  1.00800000E+00  1.00800000E+00  0.00000000E+00  1.60000000E+01  1.00800000E+00
  1.00800000E+00  0.00000000E+00  1.60000000E+01  1.00800000E+00  1.00800000E+00
  0.00000000E+00  1.60000000E+01  1.00800000E+00  1.00800000E+00  0.00000000E+00
  1.60000000E+01  1.00800000E+00  1.00800000E+00  0.00000000E+00  1.60000000E+01
  1.00800000E+00  1.00800000E+00  0.00000000E+00  1.60000000E+01  1.00800000E+00
  1.00800000E+00  0.00000000E+00  1.60000000E+01  1.00800000E+00  1.00800000E+00
  0.00000000E+00  1.60000000E+01  1.00800000E+00  1.00800000E+00  0.00000000E+00
  1.60000000E+01  1.00800000E+00  1.00800000E+00  0.00000000E+00  1.60000000E+01
  1.00800000E+00  1.00800000E+00  0.00000000E+00  1.60000000E+01  1.00800000E+00
  1.00800000E+00  0.00000000E+00  1.60000000E+01  1.00800000E+00  1.00800000E+00
  0.00000000E+00  1.60000000E+01  1.00800000E+00  1.00800000E+00  0.00000000E+00
  1.60000000E+01  1.00800000E+00  1.00800000E+00  0.00000000E+00  1.60000000E+01
  1.00800000E+00  1.00800000E+00  0.00000000E+00  1.60000000E+01  1.00800000E+00
  1.00800000E+00  0.00000000E+00  1.60000000E+01  1.00800000E+00  1.00800000E+00
  0.00000000E+00  1.60000000E+01  1.00800000E+00  1.00800000E+00  0.00000000E+00
  1.60000000E+01  1.00800000E+00  1.00800000E+00  0.00000000E+00  1.60000000E+01
  1.00800000E+00  1.00800000E+00  0.00000000E+00  1.60000000E+01  1.00800000E+00
  1.00800000E+00  0.00000000E+00  1.60000000E+01  1.00800000E+00  1.00800000E+00
  0.00000000E+00  1.60000000E+01  1.00800000E+00  1.00800000E+00  0.00000000E+00
  1.60000000E+01  1.00800000E+00  1.00800000E+00  0.00000000E+00  1.60000000E+01
  1.00800000E+00  1.00800000E+00  0.00000000E+00  1.60000000E+01  1.00800000E+00
  1.00800000E+00  0.00000000E+00  1.60000000E+01  1.00800000E+00  1.00800000E+00
  0.00000000E+00  1.60000000E+01  1.00800000E+00  1.00800000E+00  0.00000000E+00
  1.60000000E+01  1.00800000E+00  1.00800000E+00  0.00000000E+00  1.60000000E+01
  1.00800000E+00  1.00800000E+00  0.00000000E+00  1.60000000E+01  1.00800000E+00
  1.00800000E+00  0.00000000E+00  1.60000000E+01  1.00800000E+00  1.00800000E+00
  0.00000000E+00  1.60000000E+01  1.00800000E+00  1.00800000E+00  0.00000000E+00
  1.60000000E+01  1.00800000E+00  1.00800000E+00  0.00000000E+00  1.60000000E+01
  1.00800000E+00  1.00800000E+00  0.00000000E+00  1.60000000E+01  1.00800000E+00
  1.00800000E+00  0.00000000E+00  1.60000000E+01  1.00800000E+00  1.00800000E+00
  0.00000000E+00  1.60000000E+01  1.00800000E+00  1.00800000E+00  0.00000000E+00
  1.60000000E+01  1.00800000E+00  1.00800000E+00  0.00000000E+00  1.60000000E+01
  1.00800000E+00  1.00800000E+00  0.00000000E+00  1.60000000E+01  1.00800000E+00
  1.00800000E+00  0.00000000E+00  1.60000000E+01  1.00800000E+00  1.00800000E+00
  0.00000000E+00  1.60000000E+01  1.00800000E+00  1.00800000E+00  0.00000000E+00
  1.60000000E+01  1.00800000E+00  1.00800000E+00  0.00000000E+00  1.60000000E+01
  1.00800000E+00  1.00800000E+00  0.00000000E+00  1.60000000E+01  1.00800000E+00
  1.00800000E+00  0.00000000E+00  1.60000000E+01  1.00800000E+00  1.00800000E+00
  0.00000000E+00  1.60000000E+01  1.00800000E+00  1.00800000E+00  0.00000000E+00
  1.60000000E+01  1.00800000E+00  1.00800000E+00  0.00000000E+00  1.60000000E+01
  1.00800000E+00  1.00800000E+00  0.00000000E+00  1.60000000E+01  1.00800000E+00
  1.00800000E+00  0.00000000E+00  1.60000000E+01  1.00800000E+00  1.00800000E+00
  0.00000000E+00  1.60000000E+01  1.00800000E+00  1.00800000E+00  0.00000000E+00
  1.60000000E+01  1.00800000E+00  1.00800000E+00  0.00000000E+00  1.60000000E+01
  1.00800000E+00  1.00800000E+00  0.00000000E+00  1.60000000E+01  1.00800000E+00
  1.00800000E+00  0.00000000E+00  1.60000000E+01  1.00800000E+00  1.00800000E+00
  0.00000000E+00  1.60000000E+01  1.00800000E+00  1.00800000E+00  0.00000000E+00
  1.60000000E+01  1.00800000E+00  1.00800000E+00  0.00000000E+00  1.60000000E+01
  1.00800000E+00  1.00800000E+00  0.00000000E+00  1.60000000E+01  1.00800000E+00
  1.00800000E+00  0.00000000E+00  1.60000000E+01  1.00800000E+00  1.00800000E+00
  0.00000000E+00  1.60000000E+01  1.00800000E+00  1.00800000E+00  0.00000000E+00
  1.60000000E+01  1.00800000E+00  1.00800000E+00  0.00000000E+00  1.60000000E+01
  1.00800000E+00  1.00800000E+00  0.00000000E+00  1.60000000E+01  1.00800000E+00
  1.00800000E+00  0.00000000E+00  1.60000000E+01  1.00800000E+00  1.00800000E+00
  0.00000000E+00  1.60000000E+01  1.00800000E+00  1.00800000E+00  0.00000000E+00
  1.60000000E+01  1.00800000E+00  1.00800000E+00  0.00000000E+00  1.60000000E+01
  1.00800000E+00  1.00800000E+00  0.00000000E+00  1.60000000E+01  1.00800000E+00
  1.00800000E+00  0.00000000E+00  1.60000000E+01  1.00800000E+00  1.00800000E+00
  0.00000000E+00  1.60000000E+01  1.00800000E+00  1.00800000E+00  0.00000000E+00
  1.60000000E+01  1.00800000E+00  1.00800000E+00  0.00000000E+00  1.60000000E+01
  1.00800000E+00  1.00800000E+00  0.00000000E+00  1.60000000E+01  1.00800000E+00
  1.00800000E+00  0.00000000E+00  1.60000000E+01  1.00800000E+00  1.00800000E+00
  0.00000000E+00  1.60000000E+01  1.00800000E+00  1.00800000E+00  0.00000000E+00
  1.60000000E+01  1.00800000E+00  1.00800000E+00  0.00000000E+00  1.60000000E+01
  1.00800000E+00  1.00800000E+00  0.00000000E+00  1.60000000E+01  1.00800000E+00
  1.00800000E+00  0.00000000E+00  1.60000000E+01  1.00800000E+00  1.00800000E+00
  0.00000000E+00  1.60000000E+01  1.00800000E+00  1.00800000E+00  0.00000000E+00
  1.60000000E+01  1.00800000E+00  1.00800000E+00  0.00000000E+00  1.60000000E+01
  1.00800000E+00  1.00800000E+00  0.00000000E+00  1.60000000E+01  1.00800000E+00
  1.00800000E+00  0.00000000E+00  1.60000000E+01  1.00800000E+00  1.00800000E+00
  0.00000000E+00  1.60000000E+01  1.00800000E+00  1.00800000E+00  0.00000000E+00
  1.60000000E+01  1.00800000E+00  1.00800000E+00  0.00000000E+00  1.60000000E+01
  1.00800000E+00  1.00800000E+00  0.00000000E+00  1.60000000E+01  1.00800000E+00
  1.00800000E+00  0.00000000E+00  1.60000000E+01  1.00800000E+00  1.00800000E+00
  0.00000000E+00  1.60000000E+01  1.00800000E+00  1.00800000E+00  0.00000000E+00
  1.60000000E+01  1.00800000E+00  1.00800000E+00  0.00000000E+00  1.60000000E+01
  1.00800000E+00  1.00800000E+00  0.00000000E+00  1.60000000E+01  1.00800000E+00
  1.00800000E+00  0.00000000E+00  1.60000000E+01  1.00800000E+00  1.00800000E+00
  0.00000000E+00  1.60000000E+01  1.00800000E+00  1.00800000E+00  0.00000000E+00
  1.60000000E+01  1.00800000E+00  1.00800000E+00  0.00000000E+00  1.60000000E+01
  1.00800000E+00  1.00800000E+00  0.00000000E+00  1.60000000E+01  1.00800000E+00
  1.00800000E+00  0.00000000E+00  1.60000000E+01  1.00800000E+00  1.00800000E+00
  0.00000000E+00  1.60000000E+01  1.00800000E+00  1.00800000E+00  0.00000000E+00
  1.60000000E+01  1.00800000E+00  1.00800000E+00  0.00000000E+00  1.60000000E+01
  1.00800000E+00  1.00800000E+00  0.00000000E+00  1.60000000E+01  1.00800000E+00
  1.00800000E+00  0.00000000E+00  1.60000000E+01  1.00800000E+00  1.00800000E+00
  0.00000000E+00  1.60000000E+01  1.00800000E+00  1.00800000E+00  0.00000000E+00
  1.60000000E+01  1.00800000E+00  1.00800000E+00  0.00000000E+00  1.60000000E+01
  1.00800000E+00  1.00800000E+00  0.00000000E+00  1.60000000E+01  1.00800000E+00
  1.00800000E+00  0.00000000E+00  1.60000000E+01  1.00800000E+00  1.00800000E+00
  0.00000000E+00  1.60000000E+01  1.00800000E+00  1.00800000E+00  0.00000000E+00
  1.60000000E+01  1.00800000E+00  1.00800000E+00  0.00000000E+00  1.60000000E+01
  1.00800000E+00  1.00800000E+00  0.00000000E+00  1.60000000E+01  1.00800000E+00
  1.00800000E+00  0.00000000E+00  1.60000000E+01  1.00800000E+00  1.00800000E+00
  0.00000000E+00  1.60000000E+01  1.00800000E+00  1.00800000E+00  0.00000000E+00
  1.60000000E+01  1.00800000E+00  1.00800000E+00  0.00000000E+00  1.60000000E+01
  1.00800000E+00  1.00800000E+00  0.00000000E+00  1.60000000E+01  1.00800000E+00
  1.00800000E+00  0.00000000E+00  1.60000000E+01  1.00800000E+00  1.00800000E+00
  0.00000000E+00  1.60000000E+01  1.00800000E+00  1.00800000E+00  0.00000000E+00
  1.60000000E+01  1.00800000E+00  1.00800000E+00  0.00000000E+00  1.60000000E+01
  1.00800000E+00  1.00800000E+00  0.00000000E+00  1.60000000E+01  1.00800000E+00
  1.00800000E+00  0.00000000E+00  1.60000000E+01  1.00800000E+00  1.00800000E+00
  0.00000000E+00  1.60000000E+01  1.00800000E+00  1.00800000E+00  0.00000000E+00
  1.60000000E+01  1.00800000E+00  1.00800000E+00  0.00000000E+00  1.60000000E+01
  1.00800000E+00  1.00800000E+00  0.00000000E+00  1.60000000E+01  1.00800000E+00
  1.00800000E+00  0.00000000E+00  1.60000000E+01  1.00800000E+00  1.00800000E+00
  0.00000000E+00  1.60000000E+01  1.00800000E+00  1.00800000E+00  0.00000000E+00
  1.60000000E+01  1.00800000E+00  1.00800000E+00  0.00000000E+00  1.60000000E+01
  1.00800000E+00  1.00800000E+00  0.00000000E+00  1.60000000E+01  1.00800000E+00
  1.00800000E+00  0.00000000E+00  1.60000000E+01  1.00800000E+00  1.00800000E+00
  0.00000000E+00  1.60000000E+01  1.00800000E+00  1.00800000E+00  0.00000000E+00
  1.60000000E+01  1.00800000E+00  1.00800000E+00  0.00000000E+00  1.60000000E+01
  1.00800000E+00  1.00800000E+00  0.00000000E+00  1.60000000E+01  1.00800000E+00
  1.00800000E+00  0.00000000E+00  1.60000000E+01  1.00800000E+00  1.00800000E+00
  0.00000000E+00  1.60000000E+01  1.00800000E+00  1.00800000E+00  0.00000000E+00
  1.60000000E+01  1.00800000E+00  1.00800000E+00  0.00000000E+00  1.60000000E+01
  1.00800000E+00  1.00800000E+00  0.00000000E+00  1.60000000E+01  1.00800000E+00
  1.00800000E+00  0.00000000E+00  1.60000000E+01  1.00800000E+00  1.00800000E+00
  0.00000000E+00  1.60000000E+01  1.00800000E+00  1.00800000E+00  0.00000000E+00
  1.60000000E+01  1.00800000E+00  1.00800000E+00  0.00000000E+00  1.60000000E+01
  1.00800000E+00  1.00800000E+00  0.00000000E+00  1.60000000E+01  1.00800000E+00
  1.00800000E+00  0.00000000E+00  1.60000000E+01  1.00800000E+00  1.00800000E+00
  0.00000000E+00  1.60000000E+01  1.00800000E+00  1.00800000E+00  0.00000000E+00
  1.60000000E+01  1.00800000E+00  1.00800000E+00  0.00000000E+00  1.60000000E+01
  1.00800000E+00  1.00800000E+00  0.00000000E+00  1.60000000E+01  1.00800000E+00
  1.00800000E+00  0.00000000E+00  1.60000000E+01  1.00800000E+00  1.00800000E+00
  0.00000000E+00  1.60000000E+01  1.00800000E+00  1.00800000E+00  0.00000000E+00
  1.60000000E+01  1.00800000E+00  1.00800000E+00  0.00000000E+00  1.60000000E+01
  1.00800000E+00  1.00800000E+00  0.00000000E+00  1.60000000E+01  1.00800000E+00
  1.00800000E+00  0.00000000E+00  1.60000000E+01  1.00800000E+00  1.00800000E+00
  0.00000000E+00  1.60000000E+01  1.00800000E+00  1.00800000E+00  0.00000000E+00
  1.60000000E+01  1.00800000E+00  1.00800000E+00  0.00000000E+00  1.60000000E+01
  1.00800000E+00  1.00800000E+00  0.00000000E+00  1.60000000E+01  1.00800000E+00
  1.00800000E+00  0.00000000E+00  1.60000000E+01  1.00800000E+00  1.00800000E+00
  0.00000000E+00  1.60000000E+01  1.00800000E+00  1.00800000E+00  0.00000000E+00
  1.60000000E+01  1.00800000E+00  1.00800000E+00  0.00000000E+00  1.60000000E+01
  1.00800000E+00  1.00800000E+00  0.00000000E+00  1.60000000E+01  1.00800000E+00
  1.00800000E+00  0.00000000E+00  1.60000000E+01  1.00800000E+00  1.00800000E+00
  0.00000000E+00  1.60000000E+01  1.00800000E+00  1.00800000E+00  0.00000000E+00
  1.60000000E+01  1.00800000E+00  1.00800000E+00  0.00000000E+00  1.60000000E+01
  1.00800000E+00  1.00800000E+00  0.00000000E+00  1.60000000E+01  1.00800000E+00
  1.00800000E+00  0.00000000E+00  1.60000000E+01  1.00800000E+00  1.00800000E+00
  0.00000000E+00  1.60000000E+01  1.00800000E+00  1.00800000E+00  0.00000000E+00
  1.60000000E+01  1.00800000E+00  1.00800000E+00  0.00000000E+00  1.60000000E+01
  1.00800000E+00  1.00800000E+00  0.00000000E+00  1.60000000E+01  1.00800000E+00
  1.00800000E+00  0.00000000E+00  1.60000000E+01  1.00800000E+00  1.00800000E+00
  0.00000000E+00  1.60000000E+01  1.00800000E+00  1.00800000E+00  0.00000000E+00
  1.60000000E+01  1.00800000E+00  1.00800000E+00  0.00000000E+00  1.60000000E+01
  1.00800000E+00  1.00800000E+00  0.00000000E+00  1.60000000E+01  1.00800000E+00
  1.00800000E+00  0.00000000E+00  1.60000000E+01  1.00800000E+00  1.00800000E+00
  0.00000000E+00  1.60000000E+01  1.00800000E+00  1.00800000E+00  0.00000000E+00
  1.60000000E+01  1.00800000E+00  1.00800000E+00  0.00000000E+00  1.60000000E+01
  1.00800000E+00  1.00800000E+00  0.00000000E+00  1.60000000E+01  1.00800000E+00
  1.00800000E+00  0.00000000E+00  1.60000000E+01  1.00800000E+00  1.00800000E+00
  0.00000000E+00  1.60000000E+01  1.00800000E+00  1.00800000E+00  0.00000000E+00
  1.60000000E+01  1.00800000E+00  1.00800000E+00  0.00000000E+00  1.60000000E+01
  1.00800000E+00  1.00800000E+00  0.00000000E+00  1.60000000E+01  1.00800000E+00
  1.00800000E+00  0.00000000E+00  1.60000000E+01  1.00800000E+00  1.00800000E+00
  0.00000000E+00  1.60000000E+01  1.00800000E+00  1.00800000E+00  0.00000000E+00
  1.60000000E+01  1.00800000E+00  1.00800000E+00  0.00000000E+00  1.60000000E+01
  1.00800000E+00  1.00800000E+00  0.00000000E+00  1.60000000E+01  1.00800000E+00
  1.00800000E+00  0.00000000E+00  1.60000000E+01  1.00800000E+00  1.00800000E+00
  0.00000000E+00  1.60000000E+01  1.00800000E+00  1.00800000E+00  0.00000000E+00
  1.60000000E+01  1.00800000E+00  1.00800000E+00  0.00000000E+00  1.60000000E+01
  1.00800000E+00  1.00800000E+00  0.00000000E+00  1.60000000E+01  1.00800000E+00
  1.00800000E+00  0.00000000E+00  1.60000000E+01  1.00800000E+00  1.00800000E+00
  0.00000000E+00  1.60000000E+01  1.00800000E+00  1.00800000E+00  0.00000000E+00
  1.60000000E+01  1.00800000E+00  1.00800000E+00  0.00000000E+00  1.60000000E+01
  1.00800000E+00  1.00800000E+00  0.00000000E+00  1.60000000E+01  1.00800000E+00
  1.00800000E+00  0.00000000E+00  1.60000000E+01  1.00800000E+00  1.00800000E+00
  0.00000000E+00  1.60000000E+01  1.00800000E+00  1.00800000E+00  0.00000000E+00
  1.60000000E+01  1.00800000E+00  1.00800000E+00  0.00000000E+00  1.60000000E+01
  1.00800000E+00  1.00800000E+00  0.00000000E+00  1.60000000E+01  1.00800000E+00
  1.00800000E+00  0.00000000E+00  1.60000000E+01  1.00800000E+00  1.00800000E+00
  0.00000000E+00  1.60000000E+01  1.00800000E+00  1.00800000E+00  0.00000000E+00
  1.60000000E+01  1.00800000E+00  1.00800000E+00  0.00000000E+00  1.60000000E+01
  1.00800000E+00  1.00800000E+00  0.00000000E+00  1.60000000E+01  1.00800000E+00
  1.00800000E+00  0.00000000E+00  1.60000000E+01  1.00800000E+00  1.00800000E+00
  0.00000000E+00  1.60000000E+01  1.00800000E+00  1.00800000E+00  0.00000000E+00
  1.60000000E+01  1.00800000E+00  1.00800000E+00  0.00000000E+00  1.60000000E+01
  1.00800000E+00  1.00800000E+00  0.00000000E+00  1.60000000E+01  1.00800000E+00
  1.00800000E+00  0.00000000E+00  1.60000000E+01  1.00800000E+00  1.00800000E+00
  0.00000000E+00  1.60000000E+01  1.00800000E+00  1.00800000E+00  0.00000000E+00
  1.60000000E+01  1.00800000E+00  1.00800000E+00  0.00000000E+00  1.60000000E+01
  1.00800000E+00  1.00800000E+00  0.00000000E+00  1.60000000E+01  1.00800000E+00
  1.00800000E+00  0.00000000E+00  1.60000000E+01  1.00800000E+00  1.00800000E+00
  0.00000000E+00  1.60000000E+01  1.00800000E+00  1.00800000E+00  0.00000000E+00
  1.60000000E+01  1.00800000E+00  1.00800000E+00  0.00000000E+00  1.60000000E+01
  1.00800000E+00  1.00800000E+00  0.00000000E+00  1.60000000E+01  1.00800000E+00
  1.00800000E+00  0.00000000E+00  1.60000000E+01  1.00800000E+00  1.00800000E+00
  0.00000000E+00  1.60000000E+01  1.00800000E+00  1.00800000E+00  0.00000000E+00
  1.60000000E+01  1.00800000E+00  1.00800000E+00  0.00000000E+00  1.60000000E+01
  1.00800000E+00  1.00800000E+00  0.00000000E+00  1.60000000E+01  1.00800000E+00
  1.00800000E+00  0.00000000E+00  1.60000000E+01  1.00800000E+00  1.00800000E+00
  0.00000000E+00  1.60000000E+01  1.00800000E+00  1.00800000E+00  0.00000000E+00
  1.60000000E+01  1.00800000E+00  1.00800000E+00  0.00000000E+00  1.60000000E+01
  1.00800000E+00  1.00800000E+00  0.00000000E+00  1.60000000E+01  1.00800000E+00
  1.00800000E+00  0.00000000E+00  1.60000000E+01  1.00800000E+00  1.00800000E+00
  0.00000000E+00  1.60000000E+01  1.00800000E+00  1.00800000E+00  0.00000000E+00
  1.60000000E+01  1.00800000E+00  1.00800000E+00  0.00000000E+00  1.60000000E+01
  1.00800000E+00  1.00800000E+00  0.00000000E+00  1.60000000E+01  1.00800000E+00
  1.00800000E+00  0.00000000E+00  1.60000000E+01  1.00800000E+00  1.00800000E+00
  0.00000000E+00  1.60000000E+01  1.00800000E+00  1.00800000E+00  0.00000000E+00
  1.60000000E+01  1.00800000E+00  1.00800000E+00  0.00000000E+00  1.60000000E+01
  1.00800000E+00  1.00800000E+00  0.00000000E+00  1.60000000E+01  1.00800000E+00
  1.00800000E+00  0.00000000E+00  1.60000000E+01  1.00800000E+00  1.00800000E+00
  0.00000000E+00  1.60000000E+01  1.00800000E+00  1.00800000E+00  0.00000000E+00
  1.60000000E+01  1.00800000E+00  1.00800000E+00  0.00000000E+00  1.60000000E+01
  1.00800000E+00  1.00800000E+00  0.00000000E+00  1.60000000E+01  1.00800000E+00
  1.00800000E+00  0.00000000E+00  1.60000000E+01  1.00800000E+00  1.00800000E+00
  0.00000000E+00  1.60000000E+01  1.00800000E+00  1.00800000E+00  0.00000000E+00
  1.60000000E+01  1.00800000E+00  1.00800000E+00  0.00000000E+00  1.60000000E+01
  1.00800000E+00  1.00800000E+00  0.00000000E+00  1.60000000E+01  1.00800000E+00
  1.00800000E+00  0.00000000E+00  1.60000000E+01  1.00800000E+00  1.00800000E+00
  0.00000000E+00  1.60000000E+01  1.00800000E+00  1.00800000E+00  0.00000000E+00
  1.60000000E+01  1.00800000E+00  1.00800000E+00  0.00000000E+00  1.60000000E+01
  1.00800000E+00  1.00800000E+00  0.00000000E+00  1.60000000E+01  1.00800000E+00
  1.00800000E+00  0.00000000E+00  1.60000000E+01  1.00800000E+00  1.00800000E+00
  0.00000000E+00  1.60000000E+01  1.00800000E+00  1.00800000E+00  0.00000000E+00
  1.60000000E+01  1.00800000E+00  1.00800000E+00  0.00000000E+00  1.60000000E+01
  1.00800000E+00  1.00800000E+00  0.00000000E+00  1.60000000E+01  1.00800000E+00
  1.00800000E+00  0.00000000E+00  1.60000000E+01  1.00800000E+00  1.00800000E+00
  0.00000000E+00  1.60000000E+01  1.00800000E+00  1.00800000E+00  0.00000000E+00
  1.60000000E+01  1.00800000E+00  1.00800000E+00  0.00000000E+00  1.60000000E+01
  1.00800000E+00  1.00800000E+00  0.00000000E+00  1.60000000E+01  1.00800000E+00
  1.00800000E+00  0.00000000E+00  1.60000000E+01  1.00800000E+00  1.00800000E+00
  0.00000000E+00  1.60000000E+01  1.00800000E+00  1.00800000E+00  0.00000000E+00
  1.60000000E+01  1.00800000E+00  1.00800000E+00  0.00000000E+00  1.60000000E+01
  1.00800000E+00  1.00800000E+00  0.00000000E+00  1.60000000E+01  1.00800000E+00
  1.00800000E+00  0.00000000E+00  1.60000000E+01  1.00800000E+00  1.00800000E+00
  0.00000000E+00  1.60000000E+01  1.00800000E+00  1.00800000E+00  0.00000000E+00
  1.60000000E+01  1.00800000E+00  1.00800000E+00  0.00000000E+00  1.60000000E+01
  1.00800000E+00  1.00800000E+00  0.00000000E+00  1.60000000E+01  1.00800000E+00
  1.00800000E+00  0.00000000E+00  1.60000000E+01  1.00800000E+00  1.00800000E+00
  0.00000000E+00  1.60000000E+01  1.00800000E+00  1.00800000E+00  0.00000000E+00
  1.60000000E+01  1.00800000E+00  1.00800000E+00  0.00000000E+00  1.60000000E+01
  1.00800000E+00  1.00800000E+00  0.00000000E+00  1.60000000E+01  1.00800000E+00
  1.00800000E+00  0.00000000E+00  1.60000000E+01  1.00800000E+00  1.00800000E+00
  0.00000000E+00  1.60000000E+01  1.00800000E+00  1.00800000E+00  0.00000000E+00
  1.60000000E+01  1.00800000E+00  1.00800000E+00  0.00000000E+00  1.60000000E+01
  1.00800000E+00  1.00800000E+00  0.00000000E+00  1.60000000E+01  1.00800000E+00
  1.00800000E+00  0.00000000E+00  1.60000000E+01  1.00800000E+00  1.00800000E+00
  0.00000000E+00  1.60000000E+01  1.00800000E+00  1.00800000E+00  0.00000000E+00
  1.60000000E+01  1.00800000E+00  1.00800000E+00  0.00000000E+00  1.60000000E+01
  1.00800000E+00  1.00800000E+00  0.00000000E+00  1.60000000E+01  1.00800000E+00
  1.00800000E+00  0.00000000E+00  1.60000000E+01  1.00800000E+00  1.00800000E+00
  0.00000000E+00  1.60000000E+01  1.00800000E+00  1.00800000E+00  0.00000000E+00
  1.60000000E+01  1.00800000E+00  1.00800000E+00  0.00000000E+00  1.60000000E+01
  1.00800000E+00  1.00800000E+00  0.00000000E+00  1.60000000E+01  1.00800000E+00
  1.00800000E+00  0.00000000E+00  1.60000000E+01  1.00800000E+00  1.00800000E+00
  0.00000000E+00  1.60000000E+01  1.00800000E+00  1.00800000E+00  0.00000000E+00
  1.60000000E+01  1.00800000E+00  1.00800000E+00  0.00000000E+00  1.60000000E+01
  1.00800000E+00  1.00800000E+00  0.00000000E+00  1.60000000E+01  1.00800000E+00
  1.00800000E+00  0.00000000E+00  1.60000000E+01  1.00800000E+00  1.00800000E+00
  0.00000000E+00  1.60000000E+01  1.00800000E+00  1.00800000E+00  0.00000000E+00
  1.60000000E+01  1.00800000E+00  1.00800000E+00  0.00000000E+00  1.60000000E+01
  1.00800000E+00  1.00800000E+00  0.00000000E+00  1.60000000E+01  1.00800000E+00
  1.00800000E+00  0.00000000E+00  1.60000000E+01  1.00800000E+00  1.00800000E+00
  0.00000000E+00  1.60000000E+01  1.00800000E+00  1.00800000E+00  0.00000000E+00
  1.60000000E+01  1.00800000E+00  1.00800000E+00  0.00000000E+00  1.60000000E+01
  1.00800000E+00  1.00800000E+00  0.00000000E+00  1.60000000E+01  1.00800000E+00
  1.00800000E+00  0.00000000E+00  1.60000000E+01  1.00800000E+00  1.00800000E+00
  0.00000000E+00  1.60000000E+01  1.00800000E+00  1.00800000E+00  0.00000000E+00
  1.60000000E+01  1.00800000E+00  1.00800000E+00  0.00000000E+00  1.60000000E+01
  1.00800000E+00  1.00800000E+00  0.00000000E+00  1.60000000E+01  1.00800000E+00
  1.00800000E+00  0.00000000E+00  1.60000000E+01  1.00800000E+00  1.00800000E+00
  0.00000000E+00  1.60000000E+01  1.00800000E+00  1.00800000E+00  0.00000000E+00
  1.60000000E+01  1.00800000E+00  1.00800000E+00  0.00000000E+00  1.60000000E+01
  1.00800000E+00  1.00800000E+00  0.00000000E+00  1.60000000E+01  1.00800000E+00
  1.00800000E+00  0.00000000E+00  1.60000000E+01  1.00800000E+00  1.00800000E+00
  0.00000000E+00  1.60000000E+01  1.00800000E+00  1.00800000E+00  0.00000000E+00
  1.60000000E+01  1.00800000E+00  1.00800000E+00  0.00000000E+00  1.60000000E+01
  1.00800000E+00  1.00800000E+00  0.00000000E+00  1.60000000E+01  1.00800000E+00
  1.00800000E+00  0.00000000E+00  1.60000000E+01  1.00800000E+00  1.00800000E+00
  0.00000000E+00  1.60000000E+01  1.00800000E+00  1.00800000E+00  0.00000000E+00
  1.60000000E+01  1.00800000E+00  1.00800000E+00  0.00000000E+00  1.60000000E+01
  1.00800000E+00  1.00800000E+00  0.00000000E+00  1.60000000E+01  1.00800000E+00
  1.00800000E+00  0.00000000E+00  1.60000000E+01  1.00800000E+00  1.00800000E+00
  0.00000000E+00  1.60000000E+01  1.00800000E+00  1.00800000E+00  0.00000000E+00
  1.60000000E+01  1.00800000E+00  1.00800000E+00  0.00000000E+00  1.60000000E+01
  1.00800000E+00  1.00800000E+00  0.00000000E+00  1.60000000E+01  1.00800000E+00
  1.00800000E+00  0.00000000E+00  1.60000000E+01  1.00800000E+00  1.00800000E+00
  0.00000000E+00  1.60000000E+01  1.00800000E+00  1.00800000E+00  0.00000000E+00
  1.60000000E+01  1.00800000E+00  1.00800000E+00  0.00000000E+00  1.60000000E+01
  1.00800000E+00  1.00800000E+00  0.00000000E+00  1.60000000E+01  1.00800000E+00
  1.00800000E+00  0.00000000E+00  1.60000000E+01  1.00800000E+00  1.00800000E+00
  0.00000000E+00  1.60000000E+01  1.00800000E+00  1.00800000E+00  0.00000000E+00
  1.60000000E+01  1.00800000E+00  1.00800000E+00  0.00000000E+00  1.60000000E+01
  1.00800000E+00  1.00800000E+00  0.00000000E+00  1.60000000E+01  1.00800000E+00
  1.00800000E+00  0.00000000E+00  1.60000000E+01  1.00800000E+00  1.00800000E+00
  0.00000000E+00  1.60000000E+01  1.00800000E+00  1.00800000E+00  0.00000000E+00
  1.60000000E+01  1.00800000E+00  1.00800000E+00  0.00000000E+00  1.60000000E+01
  1.00800000E+00  1.00800000E+00  0.00000000E+00  1.60000000E+01  1.00800000E+00
  1.00800000E+00  0.00000000E+00  1.60000000E+01  1.00800000E+00  1.00800000E+00
  0.00000000E+00  1.60000000E+01  1.00800000E+00  1.00800000E+00  0.00000000E+00
  1.60000000E+01  1.00800000E+00  1.00800000E+00  0.00000000E+00  1.60000000E+01
  1.00800000E+00  1.00800000E+00  0.00000000E+00  1.60000000E+01  1.00800000E+00
  1.00800000E+00  0.00000000E+00  1.60000000E+01  1.00800000E+00  1.00800000E+00
  0.00000000E+00  1.60000000E+01  1.00800000E+00  1.00800000E+00  0.00000000E+00
  1.60000000E+01  1.00800000E+00  1.00800000E+00  0.00000000E+00  1.60000000E+01
  1.00800000E+00  1.00800000E+00  0.00000000E+00  1.60000000E+01  1.00800000E+00
  1.00800000E+00  0.00000000E+00  1.60000000E+01  1.00800000E+00  1.00800000E+00
  0.00000000E+00  1.60000000E+01  1.00800000E+00  1.00800000E+00  0.00000000E+00
  1.60000000E+01  1.00800000E+00  1.00800000E+00  0.00000000E+00  1.60000000E+01
  1.00800000E+00  1.00800000E+00  0.00000000E+00  1.60000000E+01  1.00800000E+00
  1.00800000E+00  0.00000000E+00  1.60000000E+01  1.00800000E+00  1.00800000E+00
  0.00000000E+00  1.60000000E+01  1.00800000E+00  1.00800000E+00  0.00000000E+00
  1.60000000E+01  1.00800000E+00  1.00800000E+00  0.00000000E+00  1.60000000E+01
  1.00800000E+00  1.00800000E+00  0.00000000E+00  1.60000000E+01  1.00800000E+00
  1.00800000E+00  0.00000000E+00  1.60000000E+01  1.00800000E+00  1.00800000E+00
  0.00000000E+00  1.60000000E+01  1.00800000E+00  1.00800000E+00  0.00000000E+00
  1.60000000E+01  1.00800000E+00  1.00800000E+00  0.00000000E+00  1.60000000E+01
  1.00800000E+00  1.00800000E+00  0.00000000E+00  1.60000000E+01  1.00800000E+00
  1.00800000E+00  0.00000000E+00  1.60000000E+01  1.00800000E+00  1.00800000E+00
  0.00000000E+00  1.60000000E+01  1.00800000E+00  1.00800000E+00  0.00000000E+00
  1.60000000E+01  1.00800000E+00  1.00800000E+00  0.00000000E+00  1.60000000E+01
  1.00800000E+00  1.00800000E+00  0.00000000E+00  1.60000000E+01  1.00800000E+00
  1.00800000E+00  0.00000000E+00  1.60000000E+01  1.00800000E+00  1.00800000E+00
  0.00000000E+00  1.60000000E+01  1.00800000E+00  1.00800000E+00  0.00000000E+00
  1.60000000E+01  1.00800000E+00  1.00800000E+00  0.00000000E+00  1.60000000E+01
  1.00800000E+00  1.00800000E+00  0.00000000E+00  1.60000000E+01  1.00800000E+00
  1.00800000E+00  0.00000000E+00  1.60000000E+01  1.00800000E+00  1.00800000E+00
  0.00000000E+00  1.60000000E+01  1.00800000E+00  1.00800000E+00  0.00000000E+00
  1.60000000E+01  1.00800000E+00  1.00800000E+00  0.00000000E+00  1.60000000E+01
  1.00800000E+00  1.00800000E+00  0.00000000E+00  1.60000000E+01  1.00800000E+00
  1.00800000E+00  0.00000000E+00  1.60000000E+01  1.00800000E+00  1.00800000E+00
  0.00000000E+00  1.60000000E+01  1.00800000E+00  1.00800000E+00  0.00000000E+00
  1.60000000E+01  1.00800000E+00  1.00800000E+00  0.00000000E+00  1.60000000E+01
  1.00800000E+00  1.00800000E+00  0.00000000E+00  1.60000000E+01  1.00800000E+00
  1.00800000E+00  0.00000000E+00  1.60000000E+01  1.00800000E+00  1.00800000E+00
  0.00000000E+00  1.60000000E+01  1.00800000E+00  1.00800000E+00  0.00000000E+00
  1.60000000E+01  1.00800000E+00  1.00800000E+00  0.00000000E+00  1.60000000E+01
  1.00800000E+00  1.00800000E+00  0.00000000E+00  1.60000000E+01  1.00800000E+00
  1.00800000E+00  0.00000000E+00  1.60000000E+01  1.00800000E+00  1.00800000E+00
  0.00000000E+00  1.60000000E+01  1.00800000E+00  1.00800000E+00  0.00000000E+00
  1.60000000E+01  1.00800000E+00  1.00800000E+00  0.00000000E+00  1.60000000E+01
  1.00800000E+00  1.00800000E+00  0.00000000E+00  1.60000000E+01  1.00800000E+00
  1.00800000E+00  0.00000000E+00  1.60000000E+01  1.00800000E+00  1.00800000E+00
  0.00000000E+00  1.60000000E+01  1.00800000E+00  1.00800000E+00  0.00000000E+00
  1.60000000E+01  1.00800000E+00  1.00800000E+00  0.00000000E+00  1.60000000E+01
  1.00800000E+00  1.00800000E+00  0.00000000E+00  1.60000000E+01  1.00800000E+00
  1.00800000E+00  0.00000000E+00  1.60000000E+01  1.00800000E+00  1.00800000E+00
  0.00000000E+00  1.60000000E+01  1.00800000E+00  1.00800000E+00  0.00000000E+00
  1.60000000E+01  1.00800000E+00  1.00800000E+00  0.00000000E+00  1.60000000E+01
  1.00800000E+00  1.00800000E+00  0.00000000E+00  1.60000000E+01  1.00800000E+00
  1.00800000E+00  0.00000000E+00  1.60000000E+01  1.00800000E+00  1.00800000E+00
  0.00000000E+00  1.60000000E+01  1.00800000E+00  1.00800000E+00  0.00000000E+00
  1.60000000E+01  1.00800000E+00  1.00800000E+00  0.00000000E+00  1.60000000E+01
  1.00800000E+00  1.00800000E+00  0.00000000E+00  1.60000000E+01  1.00800000E+00
  1.00800000E+00  0.00000000E+00  1.60000000E+01  1.00800000E+00  1.00800000E+00
  0.00000000E+00  1.60000000E+01  1.00800000E+00  1.00800000E+00  0.00000000E+00
  1.60000000E+01  1.00800000E+00  1.00800000E+00  0.00000000E+00  1.60000000E+01
  1.00800000E+00  1.00800000E+00  0.00000000E+00  1.60000000E+01  1.00800000E+00
  1.00800000E+00  0.00000000E+00  1.60000000E+01  1.00800000E+00  1.00800000E+00
  0.00000000E+00  1.60000000E+01  1.00800000E+00  1.00800000E+00  0.00000000E+00
  1.60000000E+01  1.00800000E+00  1.00800000E+00  0.00000000E+00  1.60000000E+01
  1.00800000E+00  1.00800000E+00  0.00000000E+00  1.60000000E+01  1.00800000E+00
  1.00800000E+00  0.00000000E+00  1.60000000E+01  1.00800000E+00  1.00800000E+00
  0.00000000E+00  1.60000000E+01  1.00800000E+00  1.00800000E+00  0.00000000E+00
  1.60000000E+01  1.00800000E+00  1.00800000E+00  0.00000000E+00  1.60000000E+01
  1.00800000E+00  1.00800000E+00  0.00000000E+00  1.60000000E+01  1.00800000E+00
  1.00800000E+00  0.00000000E+00  1.60000000E+01  1.00800000E+00  1.00800000E+00
  0.00000000E+00  1.60000000E+01  1.00800000E+00  1.00800000E+00  0.00000000E+00
  1.60000000E+01  1.00800000E+00  1.00800000E+00  0.00000000E+00  1.60000000E+01
  1.00800000E+00  1.00800000E+00  0.00000000E+00  1.60000000E+01  1.00800000E+00
  1.00800000E+00  0.00000000E+00  1.60000000E+01  1.00800000E+00  1.00800000E+00
  0.00000000E+00  1.60000000E+01  1.00800000E+00  1.00800000E+00  0.00000000E+00
  1.60000000E+01  1.00800000E+00  1.00800000E+00  0.00000000E+00  1.60000000E+01
  1.00800000E+00  1.00800000E+00  0.00000000E+00  1.60000000E+01  1.00800000E+00
  1.00800000E+00  0.00000000E+00  1.60000000E+01  1.00800000E+00  1.00800000E+00
  0.00000000E+00  1.60000000E+01  1.00800000E+00  1.00800000E+00  0.00000000E+00
  1.60000000E+01  1.00800000E+00  1.00800000E+00  0.00000000E+00  1.60000000E+01
  1.00800000E+00  1.00800000E+00  0.00000000E+00  1.60000000E+01  1.00800000E+00
  1.00800000E+00  0.00000000E+00  1.60000000E+01  1.00800000E+00  1.00800000E+00
  0.00000000E+00  1.60000000E+01  1.00800000E+00  1.00800000E+00  0.00000000E+00
  1.60000000E+01  1.00800000E+00  1.00800000E+00  0.00000000E+00  1.60000000E+01
  1.00800000E+00  1.00800000E+00  0.00000000E+00  1.60000000E+01  1.00800000E+00
  1.00800000E+00  0.00000000E+00  1.60000000E+01  1.00800000E+00  1.00800000E+00
  0.00000000E+00  1.60000000E+01  1.00800000E+00  1.00800000E+00  0.00000000E+00
  1.60000000E+01  1.00800000E+00  1.00800000E+00  0.00000000E+00  1.60000000E+01
  1.00800000E+00  1.00800000E+00  0.00000000E+00  1.60000000E+01  1.00800000E+00
  1.00800000E+00  0.00000000E+00  1.60000000E+01  1.00800000E+00  1.00800000E+00
  0.00000000E+00  1.60000000E+01  1.00800000E+00  1.00800000E+00  0.00000000E+00
  1.60000000E+01  1.00800000E+00  1.00800000E+00  0.00000000E+00  1.60000000E+01
  1.00800000E+00  1.00800000E+00  0.00000000E+00  1.60000000E+01  1.00800000E+00
  1.00800000E+00  0.00000000E+00  1.60000000E+01  1.00800000E+00  1.00800000E+00
  0.00000000E+00  1.60000000E+01  1.00800000E+00  1.00800000E+00  0.00000000E+00
  1.60000000E+01  1.00800000E+00  1.00800000E+00  0.00000000E+00  1.60000000E+01
  1.00800000E+00  1.00800000E+00  0.00000000E+00  1.60000000E+01  1.00800000E+00
  1.00800000E+00  0.00000000E+00  1.60000000E+01  1.00800000E+00  1.00800000E+00
  0.00000000E+00  1.60000000E+01  1.00800000E+00  1.00800000E+00  0.00000000E+00
  1.60000000E+01  1.00800000E+00  1.00800000E+00  0.00000000E+00  1.60000000E+01
  1.00800000E+00  1.00800000E+00  0.00000000E+00  1.60000000E+01  1.00800000E+00
  1.00800000E+00  0.00000000E+00  1.60000000E+01  1.00800000E+00  1.00800000E+00
  0.00000000E+00  1.60000000E+01  1.00800000E+00  1.00800000E+00  0.00000000E+00
  1.60000000E+01  1.00800000E+00  1.00800000E+00  0.00000000E+00  1.60000000E+01
  1.00800000E+00  1.00800000E+00  0.00000000E+00  1.60000000E+01  1.00800000E+00
  1.00800000E+00  0.00000000E+00  1.60000000E+01  1.00800000E+00  1.00800000E+00
  0.00000000E+00  1.60000000E+01  1.00800000E+00  1.00800000E+00  0.00000000E+00
  1.60000000E+01  1.00800000E+00  1.00800000E+00  0.00000000E+00  1.60000000E+01
  1.00800000E+00  1.00800000E+00  0.00000000E+00  1.60000000E+01  1.00800000E+00
  1.00800000E+00  0.00000000E+00  1.60000000E+01  1.00800000E+00  1.00800000E+00
  0.00000000E+00  1.60000000E+01  1.00800000E+00  1.00800000E+00  0.00000000E+00
  1.60000000E+01  1.00800000E+00  1.00800000E+00  0.00000000E+00  1.60000000E+01
  1.00800000E+00  1.00800000E+00  0.00000000E+00  1.60000000E+01  1.00800000E+00
  1.00800000E+00  0.00000000E+00  1.60000000E+01  1.00800000E+00  1.00800000E+00
  0.00000000E+00  1.60000000E+01  1.00800000E+00  1.00800000E+00  0.00000000E+00
  1.60000000E+01  1.00800000E+00  1.00800000E+00  0.00000000E+00  1.60000000E+01
  1.00800000E+00  1.00800000E+00  0.00000000E+00  1.60000000E+01  1.00800000E+00
  1.00800000E+00  0.00000000E+00  1.60000000E+01  1.00800000E+00  1.00800000E+00
  0.00000000E+00  1.60000000E+01  1.00800000E+00  1.00800000E+00  0.00000000E+00
  1.60000000E+01  1.00800000E+00  1.00800000E+00  0.00000000E+00  1.60000000E+01
  1.00800000E+00  1.00800000E+00  0.00000000E+00  1.60000000E+01  1.00800000E+00
  1.00800000E+00  0.00000000E+00  1.60000000E+01  1.00800000E+00  1.00800000E+00
  0.00000000E+00  1.60000000E+01  1.00800000E+00  1.00800000E+00  0.00000000E+00
  1.60000000E+01  1.00800000E+00  1.00800000E+00  0.00000000E+00  1.60000000E+01
  1.00800000E+00  1.00800000E+00  0.00000000E+00  1.60000000E+01  1.00800000E+00
  1.00800000E+00  0.00000000E+00  1.60000000E+01  1.00800000E+00  1.00800000E+00
  0.00000000E+00  1.60000000E+01  1.00800000E+00  1.00800000E+00  0.00000000E+00
  1.60000000E+01  1.00800000E+00  1.00800000E+00  0.00000000E+00  1.60000000E+01
  1.00800000E+00  1.00800000E+00  0.00000000E+00  1.60000000E+01  1.00800000E+00
  1.00800000E+00  0.00000000E+00  1.60000000E+01  1.00800000E+00  1.00800000E+00
  0.00000000E+00  1.60000000E+01  1.00800000E+00  1.00800000E+00  0.00000000E+00
  1.60000000E+01  1.00800000E+00  1.00800000E+00  0.00000000E+00  1.60000000E+01
  1.00800000E+00  1.00800000E+00  0.00000000E+00  1.60000000E+01  1.00800000E+00
  1.00800000E+00  0.00000000E+00  1.60000000E+01  1.00800000E+00  1.00800000E+00
  0.00000000E+00  1.60000000E+01  1.00800000E+00  1.00800000E+00  0.00000000E+00
  1.60000000E+01  1.00800000E+00  1.00800000E+00  0.00000000E+00  1.60000000E+01
  1.00800000E+00  1.00800000E+00  0.00000000E+00  1.60000000E+01  1.00800000E+00
  1.00800000E+00  0.00000000E+00  1.60000000E+01  1.00800000E+00  1.00800000E+00
  0.00000000E+00  1.60000000E+01  1.00800000E+00  1.00800000E+00  0.00000000E+00
  1.60000000E+01  1.00800000E+00  1.00800000E+00  0.00000000E+00  1.60000000E+01
  1.00800000E+00  1.00800000E+00  0.00000000E+00  1.60000000E+01  1.00800000E+00
  1.00800000E+00  0.00000000E+00  1.60000000E+01  1.00800000E+00  1.00800000E+00
  0.00000000E+00  1.60000000E+01  1.00800000E+00  1.00800000E+00  0.00000000E+00
  1.60000000E+01  1.00800000E+00  1.00800000E+00  0.00000000E+00  1.60000000E+01
  1.00800000E+00  1.00800000E+00  0.00000000E+00  1.60000000E+01  1.00800000E+00
  1.00800000E+00  0.00000000E+00  1.60000000E+01  1.00800000E+00  1.00800000E+00
  0.00000000E+00  1.60000000E+01  1.00800000E+00  1.00800000E+00  0.00000000E+00
  1.60000000E+01  1.00800000E+00  1.00800000E+00  0.00000000E+00  1.60000000E+01
  1.00800000E+00  1.00800000E+00  0.00000000E+00  1.60000000E+01  1.00800000E+00
  1.00800000E+00  0.00000000E+00  1.60000000E+01  1.00800000E+00  1.00800000E+00
  0.00000000E+00  1.60000000E+01  1.00800000E+00  1.00800000E+00  0.00000000E+00
  1.60000000E+01  1.00800000E+00  1.00800000E+00  0.00000000E+00  1.60000000E+01
  1.00800000E+00  1.00800000E+00  0.00000000E+00  1.60000000E+01  1.00800000E+00
  1.00800000E+00  0.00000000E+00  1.60000000E+01  1.00800000E+00  1.00800000E+00
  0.00000000E+00  1.60000000E+01  1.00800000E+00  1.00800000E+00  0.00000000E+00
  1.60000000E+01  1.00800000E+00  1.00800000E+00  0.00000000E+00  1.60000000E+01
  1.00800000E+00  1.00800000E+00  0.00000000E+00  1.60000000E+01  1.00800000E+00
  1.00800000E+00  0.00000000E+00  1.60000000E+01  1.00800000E+00  1.00800000E+00
  0.00000000E+00  1.60000000E+01  1.00800000E+00  1.00800000E+00  0.00000000E+00
  1.60000000E+01  1.00800000E+00  1.00800000E+00  0.00000000E+00  1.60000000E+01
  1.00800000E+00  1.00800000E+00  0.00000000E+00  1.60000000E+01  1.00800000E+00
  1.00800000E+00  0.00000000E+00  1.60000000E+01  1.00800000E+00  1.00800000E+00
  0.00000000E+00  1.60000000E+01  1.00800000E+00  1.00800000E+00  0.00000000E+00
  1.60000000E+01  1.00800000E+00  1.00800000E+00  0.00000000E+00  1.60000000E+01
  1.00800000E+00  1.00800000E+00  0.00000000E+00  1.60000000E+01  1.00800000E+00
  1.00800000E+00  0.00000000E+00  1.60000000E+01  1.00800000E+00  1.00800000E+00
  0.00000000E+00  1.60000000E+01  1.00800000E+00  1.00800000E+00  0.00000000E+00
  1.60000000E+01  1.00800000E+00  1.00800000E+00  0.00000000E+00  1.60000000E+01
  1.00800000E+00  1.00800000E+00  0.00000000E+00  1.60000000E+01  1.00800000E+00
  1.00800000E+00  0.00000000E+00  1.60000000E+01  1.00800000E+00  1.00800000E+00
  0.00000000E+00  1.60000000E+01  1.00800000E+00  1.00800000E+00  0.00000000E+00
  1.60000000E+01  1.00800000E+00  1.00800000E+00  0.00000000E+00  1.60000000E+01
  1.00800000E+00  1.00800000E+00  0.00000000E+00  1.60000000E+01  1.00800000E+00
  1.00800000E+00  0.00000000E+00  1.60000000E+01  1.00800000E+00  1.00800000E+00
  0.00000000E+00  1.60000000E+01  1.00800000E+00  1.00800000E+00  0.00000000E+00
  1.60000000E+01  1.00800000E+00  1.00800000E+00  0.00000000E+00  1.60000000E+01
  1.00800000E+00  1.00800000E+00  0.00000000E+00  1.60000000E+01  1.00800000E+00
  1.00800000E+00  0.00000000E+00  1.60000000E+01  1.00800000E+00  1.00800000E+00
  0.00000000E+00  1.60000000E+01  1.00800000E+00  1.00800000E+00  0.00000000E+00
  1.60000000E+01  1.00800000E+00  1.00800000E+00  0.00000000E+00  1.60000000E+01
  1.00800000E+00  1.00800000E+00  0.00000000E+00  1.60000000E+01  1.00800000E+00
  1.00800000E+00  0.00000000E+00  1.60000000E+01  1.00800000E+00  1.00800000E+00
  0.00000000E+00  1.60000000E+01  1.00800000E+00  1.00800000E+00  0.00000000E+00
  1.60000000E+01  1.00800000E+00  1.00800000E+00  0.00000000E+00  1.60000000E+01
  1.00800000E+00  1.00800000E+00  0.00000000E+00  1.60000000E+01  1.00800000E+00
  1.00800000E+00  0.00000000E+00  1.60000000E+01  1.00800000E+00  1.00800000E+00
  0.00000000E+00  1.60000000E+01  1.00800000E+00  1.00800000E+00  0.00000000E+00
  1.60000000E+01  1.00800000E+00  1.00800000E+00  0.00000000E+00  1.60000000E+01
  1.00800000E+00  1.00800000E+00  0.00000000E+00  1.60000000E+01  1.00800000E+00
  1.00800000E+00  0.00000000E+00  1.60000000E+01  1.00800000E+00  1.00800000E+00
  0.00000000E+00  1.60000000E+01  1.00800000E+00  1.00800000E+00  0.00000000E+00
  1.60000000E+01  1.00800000E+00  1.00800000E+00  0.00000000E+00  1.60000000E+01
  1.00800000E+00  1.00800000E+00  0.00000000E+00  1.60000000E+01  1.00800000E+00
  1.00800000E+00  0.00000000E+00  1.60000000E+01  1.00800000E+00  1.00800000E+00
  0.00000000E+00  1.60000000E+01  1.00800000E+00  1.00800000E+00  0.00000000E+00
  1.60000000E+01  1.00800000E+00  1.00800000E+00  0.00000000E+00  1.60000000E+01
  1.00800000E+00  1.00800000E+00  0.00000000E+00  1.60000000E+01  1.00800000E+00
  1.00800000E+00  0.00000000E+00  1.60000000E+01  1.00800000E+00  1.00800000E+00
  0.00000000E+00  1.60000000E+01  1.00800000E+00  1.00800000E+00  0.00000000E+00
  1.60000000E+01  1.00800000E+00  1.00800000E+00  0.00000000E+00  1.60000000E+01
  1.00800000E+00  1.00800000E+00  0.00000000E+00  1.60000000E+01  1.00800000E+00
  1.00800000E+00  0.00000000E+00  1.60000000E+01  1.00800000E+00  1.00800000E+00
  0.00000000E+00  1.60000000E+01  1.00800000E+00  1.00800000E+00  0.00000000E+00
  1.60000000E+01  1.00800000E+00  1.00800000E+00  0.00000000E+00  1.60000000E+01
  1.00800000E+00  1.00800000E+00  0.00000000E+00  1.60000000E+01  1.00800000E+00
  1.00800000E+00  0.00000000E+00  1.60000000E+01  1.00800000E+00  1.00800000E+00
  0.00000000E+00  1.60000000E+01  1.00800000E+00  1.00800000E+00  0.00000000E+00
  1.60000000E+01  1.00800000E+00  1.00800000E+00  0.00000000E+00  1.60000000E+01
  1.00800000E+00  1.00800000E+00  0.00000000E+00  1.60000000E+01  1.00800000E+00
  1.00800000E+00  0.00000000E+00  1.60000000E+01  1.00800000E+00  1.00800000E+00
  0.00000000E+00  1.60000000E+01  1.00800000E+00  1.00800000E+00  0.00000000E+00
  1.60000000E+01  1.00800000E+00  1.00800000E+00  0.00000000E+00  1.60000000E+01
  1.00800000E+00  1.00800000E+00  0.00000000E+00  1.60000000E+01  1.00800000E+00
  1.00800000E+00  0.00000000E+00  1.60000000E+01  1.00800000E+00  1.00800000E+00
  0.00000000E+00  1.60000000E+01  1.00800000E+00  1.00800000E+00  0.00000000E+00
  1.60000000E+01  1.00800000E+00  1.00800000E+00  0.00000000E+00  1.60000000E+01
  1.00800000E+00  1.00800000E+00  0.00000000E+00  1.60000000E+01  1.00800000E+00
  1.00800000E+00  0.00000000E+00  1.60000000E+01  1.00800000E+00  1.00800000E+00
  0.00000000E+00  1.60000000E+01  1.00800000E+00  1.00800000E+00  0.00000000E+00
  1.60000000E+01  1.00800000E+00  1.00800000E+00  0.00000000E+00  1.60000000E+01
  1.00800000E+00  1.00800000E+00  0.00000000E+00  1.60000000E+01  1.00800000E+00
  1.00800000E+00  0.00000000E+00  1.60000000E+01  1.00800000E+00  1.00800000E+00
  0.00000000E+00  1.60000000E+01  1.00800000E+00  1.00800000E+00  0.00000000E+00
  1.60000000E+01  1.00800000E+00  1.00800000E+00  0.00000000E+00  1.60000000E+01
  1.00800000E+00  1.00800000E+00  0.00000000E+00  1.60000000E+01  1.00800000E+00
  1.00800000E+00  0.00000000E+00  1.60000000E+01  1.00800000E+00  1.00800000E+00
  0.00000000E+00  1.60000000E+01  1.00800000E+00  1.00800000E+00  0.00000000E+00
  1.60000000E+01  1.00800000E+00  1.00800000E+00  0.00000000E+00  1.60000000E+01
  1.00800000E+00  1.00800000E+00  0.00000000E+00  1.60000000E+01  1.00800000E+00
  1.00800000E+00  0.00000000E+00  1.60000000E+01  1.00800000E+00  1.00800000E+00
  0.00000000E+00  1.60000000E+01  1.00800000E+00  1.00800000E+00  0.00000000E+00
  1.60000000E+01  1.00800000E+00  1.00800000E+00  0.00000000E+00  1.60000000E+01
  1.00800000E+00  1.00800000E+00  0.00000000E+00  1.60000000E+01  1.00800000E+00
  1.00800000E+00  0.00000000E+00  1.60000000E+01  1.00800000E+00  1.00800000E+00
  0.00000000E+00  1.60000000E+01  1.00800000E+00  1.00800000E+00  0.00000000E+00
  1.60000000E+01  1.00800000E+00  1.00800000E+00  0.00000000E+00  1.60000000E+01
  1.00800000E+00  1.00800000E+00  0.00000000E+00  1.60000000E+01  1.00800000E+00
  1.00800000E+00  0.00000000E+00  1.60000000E+01  1.00800000E+00  1.00800000E+00
  0.00000000E+00  1.60000000E+01  1.00800000E+00  1.00800000E+00  0.00000000E+00
  1.60000000E+01  1.00800000E+00  1.00800000E+00  0.00000000E+00  1.60000000E+01
  1.00800000E+00  1.00800000E+00  0.00000000E+00  1.60000000E+01  1.00800000E+00
  1.00800000E+00  0.00000000E+00  1.60000000E+01  1.00800000E+00  1.00800000E+00
  0.00000000E+00  1.60000000E+01  1.00800000E+00  1.00800000E+00  0.00000000E+00
  1.60000000E+01  1.00800000E+00  1.00800000E+00  0.00000000E+00  1.60000000E+01
  1.00800000E+00  1.00800000E+00  0.00000000E+00  1.60000000E+01  1.00800000E+00
  1.00800000E+00  0.00000000E+00  1.60000000E+01  1.00800000E+00  1.00800000E+00
  0.00000000E+00  1.60000000E+01  1.00800000E+00  1.00800000E+00  0.00000000E+00
  1.60000000E+01  1.00800000E+00  1.00800000E+00  0.00000000E+00  1.60000000E+01
  1.00800000E+00  1.00800000E+00  0.00000000E+00  1.60000000E+01  1.00800000E+00
  1.00800000E+00  0.00000000E+00  1.60000000E+01  1.00800000E+00  1.00800000E+00
  0.00000000E+00  1.60000000E+01  1.00800000E+00  1.00800000E+00  0.00000000E+00
  1.60000000E+01  1.00800000E+00  1.00800000E+00  0.00000000E+00  1.60000000E+01
  1.00800000E+00  1.00800000E+00  0.00000000E+00  1.60000000E+01  1.00800000E+00
  1.00800000E+00  0.00000000E+00  1.60000000E+01  1.00800000E+00  1.00800000E+00
  0.00000000E+00  1.60000000E+01  1.00800000E+00  1.00800000E+00  0.00000000E+00
  1.60000000E+01  1.00800000E+00  1.00800000E+00  0.00000000E+00  1.60000000E+01
  1.00800000E+00  1.00800000E+00  0.00000000E+00  1.60000000E+01  1.00800000E+00
  1.00800000E+00  0.00000000E+00  1.60000000E+01  1.00800000E+00  1.00800000E+00
  0.00000000E+00  1.60000000E+01  1.00800000E+00  1.00800000E+00  0.00000000E+00
  1.60000000E+01  1.00800000E+00  1.00800000E+00  0.00000000E+00  1.60000000E+01
  1.00800000E+00  1.00800000E+00  0.00000000E+00  1.60000000E+01  1.00800000E+00
  1.00800000E+00  0.00000000E+00  1.60000000E+01  1.00800000E+00  1.00800000E+00
  0.00000000E+00  1.60000000E+01  1.00800000E+00  1.00800000E+00  0.00000000E+00
  1.60000000E+01  1.00800000E+00  1.00800000E+00  0.00000000E+00  1.60000000E+01
  1.00800000E+00  1.00800000E+00  0.00000000E+00  1.60000000E+01  1.00800000E+00
  1.00800000E+00  0.00000000E+00  1.60000000E+01  1.00800000E+00  1.00800000E+00
  0.00000000E+00  1.60000000E+01  1.00800000E+00  1.00800000E+00  0.00000000E+00
  1.60000000E+01  1.00800000E+00  1.00800000E+00  0.00000000E+00  1.60000000E+01
  1.00800000E+00  1.00800000E+00  0.00000000E+00  1.60000000E+01  1.00800000E+00
  1.00800000E+00  0.00000000E+00  1.60000000E+01  1.00800000E+00  1.00800000E+00
  0.00000000E+00  1.60000000E+01  1.00800000E+00  1.00800000E+00  0.00000000E+00
  1.60000000E+01  1.00800000E+00  1.00800000E+00  0.00000000E+00  1.60000000E+01
  1.00800000E+00  1.00800000E+00  0.00000000E+00  1.60000000E+01  1.00800000E+00
  1.00800000E+00  0.00000000E+00  1.60000000E+01  1.00800000E+00  1.00800000E+00
  0.00000000E+00  1.60000000E+01  1.00800000E+00  1.00800000E+00  0.00000000E+00
  1.60000000E+01  1.00800000E+00  1.00800000E+00  0.00000000E+00  1.60000000E+01
  1.00800000E+00  1.00800000E+00  0.00000000E+00  1.60000000E+01  1.00800000E+00
  1.00800000E+00  0.00000000E+00  1.60000000E+01  1.00800000E+00  1.00800000E+00
  0.00000000E+00  1.60000000E+01  1.00800000E+00  1.00800000E+00  0.00000000E+00
  1.60000000E+01  1.00800000E+00  1.00800000E+00  0.00000000E+00  1.60000000E+01
  1.00800000E+00  1.00800000E+00  0.00000000E+00  1.60000000E+01  1.00800000E+00
  1.00800000E+00  0.00000000E+00  1.60000000E+01  1.00800000E+00  1.00800000E+00
  0.00000000E+00  1.60000000E+01  1.00800000E+00  1.00800000E+00  0.00000000E+00
  1.60000000E+01  1.00800000E+00  1.00800000E+00  0.00000000E+00  1.60000000E+01
  1.00800000E+00  1.00800000E+00  0.00000000E+00  1.60000000E+01  1.00800000E+00
  1.00800000E+00  0.00000000E+00  1.60000000E+01  1.00800000E+00  1.00800000E+00
  0.00000000E+00  1.60000000E+01  1.00800000E+00  1.00800000E+00  0.00000000E+00
  1.60000000E+01  1.00800000E+00  1.00800000E+00  0.00000000E+00  1.60000000E+01
  1.00800000E+00  1.00800000E+00  0.00000000E+00  1.60000000E+01  1.00800000E+00
  1.00800000E+00  0.00000000E+00  1.60000000E+01  1.00800000E+00  1.00800000E+00
  0.00000000E+00  1.60000000E+01  1.00800000E+00  1.00800000E+00  0.00000000E+00
  1.60000000E+01  1.00800000E+00  1.00800000E+00  0.00000000E+00  1.60000000E+01
  1.00800000E+00  1.00800000E+00  0.00000000E+00  1.60000000E+01  1.00800000E+00
  1.00800000E+00  0.00000000E+00  1.60000000E+01  1.00800000E+00  1.00800000E+00
  0.00000000E+00  1.60000000E+01  1.00800000E+00  1.00800000E+00  0.00000000E+00
  1.60000000E+01  1.00800000E+00  1.00800000E+00  0.00000000E+00  1.60000000E+01
  1.00800000E+00  1.00800000E+00  0.00000000E+00  1.60000000E+01  1.00800000E+00
  1.00800000E+00  0.00000000E+00  1.60000000E+01  1.00800000E+00  1.00800000E+00
  0.00000000E+00  1.60000000E+01  1.00800000E+00  1.00800000E+00  0.00000000E+00
  1.60000000E+01  1.00800000E+00  1.00800000E+00  0.00000000E+00  1.60000000E+01
  1.00800000E+00  1.00800000E+00  0.00000000E+00  1.60000000E+01  1.00800000E+00
  1.00800000E+00  0.00000000E+00  1.60000000E+01  1.00800000E+00  1.00800000E+00
  0.00000000E+00  1.60000000E+01  1.00800000E+00  1.00800000E+00  0.00000000E+00
  1.60000000E+01  1.00800000E+00  1.00800000E+00  0.00000000E+00  1.60000000E+01
  1.00800000E+00  1.00800000E+00  0.00000000E+00  1.60000000E+01  1.00800000E+00
  1.00800000E+00  0.00000000E+00  1.60000000E+01  1.00800000E+00  1.00800000E+00
  0.00000000E+00  1.60000000E+01  1.00800000E+00  1.00800000E+00  0.00000000E+00
  1.60000000E+01  1.00800000E+00  1.00800000E+00  0.00000000E+00  1.60000000E+01
  1.00800000E+00  1.00800000E+00  0.00000000E+00  1.60000000E+01  1.00800000E+00
  1.00800000E+00  0.00000000E+00  1.60000000E+01  1.00800000E+00  1.00800000E+00
  0.00000000E+00  1.60000000E+01  1.00800000E+00  1.00800000E+00  0.00000000E+00
  1.60000000E+01  1.00800000E+00  1.00800000E+00  0.00000000E+00  1.60000000E+01
  1.00800000E+00  1.00800000E+00  0.00000000E+00  1.60000000E+01  1.00800000E+00
  1.00800000E+00  0.00000000E+00  1.60000000E+01  1.00800000E+00  1.00800000E+00
  0.00000000E+00  1.60000000E+01  1.00800000E+00  1.00800000E+00  0.00000000E+00
  1.60000000E+01  1.00800000E+00  1.00800000E+00  0.00000000E+00  1.60000000E+01
  1.00800000E+00  1.00800000E+00  0.00000000E+00  1.60000000E+01  1.00800000E+00
  1.00800000E+00  0.00000000E+00  1.60000000E+01  1.00800000E+00  1.00800000E+00
  0.00000000E+00  1.60000000E+01  1.00800000E+00  1.00800000E+00  0.00000000E+00
  1.60000000E+01  1.00800000E+00  1.00800000E+00  0.00000000E+00  1.60000000E+01
  1.00800000E+00  1.00800000E+00  0.00000000E+00  1.60000000E+01  1.00800000E+00
  1.00800000E+00  0.00000000E+00  1.60000000E+01  1.00800000E+00  1.00800000E+00
  0.00000000E+00  1.60000000E+01  1.00800000E+00  1.00800000E+00  0.00000000E+00
  1.60000000E+01  1.00800000E+00  1.00800000E+00  0.00000000E+00  1.60000000E+01
  1.00800000E+00  1.00800000E+00  0.00000000E+00  1.60000000E+01  1.00800000E+00
  1.00800000E+00  0.00000000E+00  1.60000000E+01  1.00800000E+00  1.00800000E+00
  0.00000000E+00  1.60000000E+01  1.00800000E+00  1.00800000E+00  0.00000000E+00
  1.60000000E+01  1.00800000E+00  1.00800000E+00  0.00000000E+00  1.60000000E+01
  1.00800000E+00  1.00800000E+00  0.00000000E+00  1.60000000E+01  1.00800000E+00
  1.00800000E+00  0.00000000E+00  1.60000000E+01  1.00800000E+00  1.00800000E+00
  0.00000000E+00  1.60000000E+01  1.00800000E+00  1.00800000E+00  0.00000000E+00
  1.60000000E+01  1.00800000E+00  1.00800000E+00  0.00000000E+00  1.60000000E+01
  1.00800000E+00  1.00800000E+00  0.00000000E+00  1.60000000E+01  1.00800000E+00
  1.00800000E+00  0.00000000E+00  1.60000000E+01  1.00800000E+00  1.00800000E+00
  0.00000000E+00  1.60000000E+01  1.00800000E+00  1.00800000E+00  0.00000000E+00
  1.60000000E+01  1.00800000E+00  1.00800000E+00  0.00000000E+00  1.60000000E+01
  1.00800000E+00  1.00800000E+00  0.00000000E+00  1.60000000E+01  1.00800000E+00
  1.00800000E+00  0.00000000E+00  1.60000000E+01  1.00800000E+00  1.00800000E+00
  0.00000000E+00  1.60000000E+01  1.00800000E+00  1.00800000E+00  0.00000000E+00
  1.60000000E+01  1.00800000E+00  1.00800000E+00  0.00000000E+00  1.60000000E+01
  1.00800000E+00  1.00800000E+00  0.00000000E+00  1.60000000E+01  1.00800000E+00
  1.00800000E+00  0.00000000E+00  1.60000000E+01  1.00800000E+00  1.00800000E+00
  0.00000000E+00  1.60000000E+01  1.00800000E+00  1.00800000E+00  0.00000000E+00
  1.60000000E+01  1.00800000E+00  1.00800000E+00  0.00000000E+00  1.60000000E+01
  1.00800000E+00  1.00800000E+00  0.00000000E+00  1.60000000E+01  1.00800000E+00
  1.00800000E+00  0.00000000E+00  1.60000000E+01  1.00800000E+00  1.00800000E+00
  0.00000000E+00  1.60000000E+01  1.00800000E+00  1.00800000E+00  0.00000000E+00
  1.60000000E+01  1.00800000E+00  1.00800000E+00  0.00000000E+00  1.60000000E+01
  1.00800000E+00  1.00800000E+00  0.00000000E+00  1.60000000E+01  1.00800000E+00
  1.00800000E+00  0.00000000E+00  1.60000000E+01  1.00800000E+00  1.00800000E+00
  0.00000000E+00  1.60000000E+01  1.00800000E+00  1.00800000E+00  0.00000000E+00
  1.60000000E+01  1.00800000E+00  1.00800000E+00  0.00000000E+00  1.60000000E+01
  1.00800000E+00  1.00800000E+00  0.00000000E+00  1.60000000E+01  1.00800000E+00
  1.00800000E+00  0.00000000E+00  1.60000000E+01  1.00800000E+00  1.00800000E+00
  0.00000000E+00  1.60000000E+01  1.00800000E+00  1.00800000E+00  0.00000000E+00
  1.60000000E+01  1.00800000E+00  1.00800000E+00  0.00000000E+00  1.60000000E+01
  1.00800000E+00  1.00800000E+00  0.00000000E+00  1.60000000E+01  1.00800000E+00
  1.00800000E+00  0.00000000E+00  1.60000000E+01  1.00800000E+00  1.00800000E+00
  0.00000000E+00  1.60000000E+01  1.00800000E+00  1.00800000E+00  0.00000000E+00
  1.60000000E+01  1.00800000E+00  1.00800000E+00  0.00000000E+00  1.60000000E+01
  1.00800000E+00  1.00800000E+00  0.00000000E+00  1.60000000E+01  1.00800000E+00
  1.00800000E+00  0.00000000E+00  1.60000000E+01  1.00800000E+00  1.00800000E+00
  0.00000000E+00  1.60000000E+01  1.00800000E+00  1.00800000E+00  0.00000000E+00
  1.60000000E+01  1.00800000E+00  1.00800000E+00  0.00000000E+00  1.60000000E+01
  1.00800000E+00  1.00800000E+00  0.00000000E+00  1.60000000E+01  1.00800000E+00
  1.00800000E+00  0.00000000E+00  1.60000000E+01  1.00800000E+00  1.00800000E+00
  0.00000000E+00  1.60000000E+01  1.00800000E+00  1.00800000E+00  0.00000000E+00
  1.60000000E+01  1.00800000E+00  1.00800000E+00  0.00000000E+00  1.60000000E+01
  1.00800000E+00  1.00800000E+00  0.00000000E+00  1.60000000E+01  1.00800000E+00
  1.00800000E+00  0.00000000E+00  1.60000000E+01  1.00800000E+00  1.00800000E+00
  0.00000000E+00  1.60000000E+01  1.00800000E+00  1.00800000E+00  0.00000000E+00
  1.60000000E+01  1.00800000E+00  1.00800000E+00  0.00000000E+00  1.60000000E+01
  1.00800000E+00  1.00800000E+00  0.00000000E+00  1.60000000E+01  1.00800000E+00
  1.00800000E+00  0.00000000E+00  1.60000000E+01  1.00800000E+00  1.00800000E+00
  0.00000000E+00  1.60000000E+01  1.00800000E+00  1.00800000E+00  0.00000000E+00
  1.60000000E+01  1.00800000E+00  1.00800000E+00  0.00000000E+00  1.60000000E+01
  1.00800000E+00  1.00800000E+00  0.00000000E+00  1.60000000E+01  1.00800000E+00
  1.00800000E+00  0.00000000E+00  1.60000000E+01  1.00800000E+00  1.00800000E+00
  0.00000000E+00  1.60000000E+01  1.00800000E+00  1.00800000E+00  0.00000000E+00
  1.60000000E+01  1.00800000E+00  1.00800000E+00  0.00000000E+00  1.60000000E+01
  1.00800000E+00  1.00800000E+00  0.00000000E+00  1.60000000E+01  1.00800000E+00
  1.00800000E+00  0.00000000E+00  1.60000000E+01  1.00800000E+00  1.00800000E+00
  0.00000000E+00  1.60000000E+01  1.00800000E+00  1.00800000E+00  0.00000000E+00
  1.60000000E+01  1.00800000E+00  1.00800000E+00  0.00000000E+00  1.60000000E+01
  1.00800000E+00  1.00800000E+00  0.00000000E+00  1.60000000E+01  1.00800000E+00
  1.00800000E+00  0.00000000E+00  1.60000000E+01  1.00800000E+00  1.00800000E+00
  0.00000000E+00  1.60000000E+01  1.00800000E+00  1.00800000E+00  0.00000000E+00
  1.60000000E+01  1.00800000E+00  1.00800000E+00  0.00000000E+00  1.60000000E+01
  1.00800000E+00  1.00800000E+00  0.00000000E+00  1.60000000E+01  1.00800000E+00
  1.00800000E+00  0.00000000E+00  1.60000000E+01  1.00800000E+00  1.00800000E+00
  0.00000000E+00  1.60000000E+01  1.00800000E+00  1.00800000E+00  0.00000000E+00
  1.60000000E+01  1.00800000E+00  1.00800000E+00  0.00000000E+00  1.60000000E+01
  1.00800000E+00  1.00800000E+00  0.00000000E+00  1.60000000E+01  1.00800000E+00
  1.00800000E+00  0.00000000E+00  1.60000000E+01  1.00800000E+00  1.00800000E+00
  0.00000000E+00  1.60000000E+01  1.00800000E+00  1.00800000E+00  0.00000000E+00
  1.60000000E+01  1.00800000E+00  1.00800000E+00  0.00000000E+00  1.60000000E+01
  1.00800000E+00  1.00800000E+00  0.00000000E+00  1.60000000E+01  1.00800000E+00
  1.00800000E+00  0.00000000E+00  1.60000000E+01  1.00800000E+00  1.00800000E+00
  0.00000000E+00  1.60000000E+01  1.00800000E+00  1.00800000E+00  0.00000000E+00
  1.60000000E+01  1.00800000E+00  1.00800000E+00  0.00000000E+00  1.60000000E+01
  1.00800000E+00  1.00800000E+00  0.00000000E+00  1.60000000E+01  1.00800000E+00
  1.00800000E+00  0.00000000E+00  1.60000000E+01  1.00800000E+00  1.00800000E+00
  0.00000000E+00  1.60000000E+01  1.00800000E+00  1.00800000E+00  0.00000000E+00
  1.60000000E+01  1.00800000E+00  1.00800000E+00  0.00000000E+00  1.60000000E+01
  1.00800000E+00  1.00800000E+00  0.00000000E+00  1.60000000E+01  1.00800000E+00
  1.00800000E+00  0.00000000E+00  1.60000000E+01  1.00800000E+00  1.00800000E+00
  0.00000000E+00  1.60000000E+01  1.00800000E+00  1.00800000E+00  0.00000000E+00
  1.60000000E+01  1.00800000E+00  1.00800000E+00  0.00000000E+00  1.60000000E+01
  1.00800000E+00  1.00800000E+00  0.00000000E+00  1.60000000E+01  1.00800000E+00
  1.00800000E+00  0.00000000E+00  1.60000000E+01  1.00800000E+00  1.00800000E+00
  0.00000000E+00  1.60000000E+01  1.00800000E+00  1.00800000E+00  0.00000000E+00
  1.60000000E+01  1.00800000E+00  1.00800000E+00  0.00000000E+00  1.60000000E+01
  1.00800000E+00  1.00800000E+00  0.00000000E+00  1.60000000E+01  1.00800000E+00
  1.00800000E+00  0.00000000E+00  1.60000000E+01  1.00800000E+00  1.00800000E+00
  0.00000000E+00  1.60000000E+01  1.00800000E+00  1.00800000E+00  0.00000000E+00
  1.60000000E+01  1.00800000E+00  1.00800000E+00  0.00000000E+00  1.60000000E+01
  1.00800000E+00  1.00800000E+00  0.00000000E+00  1.60000000E+01  1.00800000E+00
  1.00800000E+00  0.00000000E+00  1.60000000E+01  1.00800000E+00  1.00800000E+00
  0.00000000E+00  1.60000000E+01  1.00800000E+00  1.00800000E+00  0.00000000E+00
  1.60000000E+01  1.00800000E+00  1.00800000E+00  0.00000000E+00  1.60000000E+01
  1.00800000E+00  1.00800000E+00  0.00000000E+00  1.60000000E+01  1.00800000E+00
  1.00800000E+00  0.00000000E+00  1.60000000E+01  1.00800000E+00  1.00800000E+00
  0.00000000E+00  1.60000000E+01  1.00800000E+00  1.00800000E+00  0.00000000E+00
  1.60000000E+01  1.00800000E+00  1.00800000E+00  0.00000000E+00  1.60000000E+01
  1.00800000E+00  1.00800000E+00  0.00000000E+00  1.60000000E+01  1.00800000E+00
  1.00800000E+00  0.00000000E+00  1.60000000E+01  1.00800000E+00  1.00800000E+00
  0.00000000E+00  1.60000000E+01  1.00800000E+00  1.00800000E+00  0.00000000E+00
  1.60000000E+01  1.00800000E+00  1.00800000E+00  0.00000000E+00  1.60000000E+01
  1.00800000E+00  1.00800000E+00  0.00000000E+00  1.60000000E+01  1.00800000E+00
  1.00800000E+00  0.00000000E+00  1.60000000E+01  1.00800000E+00  1.00800000E+00
  0.00000000E+00  1.60000000E+01  1.00800000E+00  1.00800000E+00  0.00000000E+00
  1.60000000E+01  1.00800000E+00  1.00800000E+00  0.00000000E+00  1.60000000E+01
  1.00800000E+00  1.00800000E+00  0.00000000E+00  1.60000000E+01  1.00800000E+00
  1.00800000E+00  0.00000000E+00  1.60000000E+01  1.00800000E+00  1.00800000E+00
  0.00000000E+00  1.60000000E+01  1.00800000E+00  1.00800000E+00  0.00000000E+00
  1.60000000E+01  1.00800000E+00  1.00800000E+00  0.00000000E+00  1.60000000E+01
  1.00800000E+00  1.00800000E+00  0.00000000E+00  1.60000000E+01  1.00800000E+00
  1.00800000E+00  0.00000000E+00  1.60000000E+01  1.00800000E+00  1.00800000E+00
  0.00000000E+00  1.60000000E+01  1.00800000E+00  1.00800000E+00  0.00000000E+00
  1.60000000E+01  1.00800000E+00  1.00800000E+00  0.00000000E+00  1.60000000E+01
  1.00800000E+00  1.00800000E+00  0.00000000E+00  1.60000000E+01  1.00800000E+00
  1.00800000E+00  0.00000000E+00  1.60000000E+01  1.00800000E+00  1.00800000E+00
  0.00000000E+00  1.60000000E+01  1.00800000E+00  1.00800000E+00  0.00000000E+00
  1.60000000E+01  1.00800000E+00  1.00800000E+00  0.00000000E+00  1.60000000E+01
  1.00800000E+00  1.00800000E+00  0.00000000E+00  1.60000000E+01  1.00800000E+00
  1.00800000E+00  0.00000000E+00  1.60000000E+01  1.00800000E+00  1.00800000E+00
  0.00000000E+00  1.60000000E+01  1.00800000E+00  1.00800000E+00  0.00000000E+00
  1.60000000E+01  1.00800000E+00  1.00800000E+00  0.00000000E+00  1.60000000E+01
  1.00800000E+00  1.00800000E+00  0.00000000E+00  1.60000000E+01  1.00800000E+00
  1.00800000E+00  0.00000000E+00  1.60000000E+01  1.00800000E+00  1.00800000E+00
  0.00000000E+00  1.60000000E+01  1.00800000E+00  1.00800000E+00  0.00000000E+00
  1.60000000E+01  1.00800000E+00  1.00800000E+00  0.00000000E+00  1.60000000E+01
  1.00800000E+00  1.00800000E+00  0.00000000E+00  1.60000000E+01  1.00800000E+00
  1.00800000E+00  0.00000000E+00  1.60000000E+01  1.00800000E+00  1.00800000E+00
  0.00000000E+00  1.60000000E+01  1.00800000E+00  1.00800000E+00  0.00000000E+00
  1.60000000E+01  1.00800000E+00  1.00800000E+00  0.00000000E+00  1.60000000E+01
  1.00800000E+00  1.00800000E+00  0.00000000E+00  1.60000000E+01  1.00800000E+00
  1.00800000E+00  0.00000000E+00  1.60000000E+01  1.00800000E+00  1.00800000E+00
  0.00000000E+00  1.60000000E+01  1.00800000E+00  1.00800000E+00  0.00000000E+00
  1.60000000E+01  1.00800000E+00  1.00800000E+00  0.00000000E+00  1.60000000E+01
  1.00800000E+00  1.00800000E+00  0.00000000E+00  1.60000000E+01  1.00800000E+00
  1.00800000E+00  0.00000000E+00  1.60000000E+01  1.00800000E+00  1.00800000E+00
  0.00000000E+00  1.60000000E+01  1.00800000E+00  1.00800000E+00  0.00000000E+00
  1.60000000E+01  1.00800000E+00  1.00800000E+00  0.00000000E+00  1.60000000E+01
  1.00800000E+00  1.00800000E+00  0.00000000E+00  1.60000000E+01  1.00800000E+00
  1.00800000E+00  0.00000000E+00  1.60000000E+01  1.00800000E+00  1.00800000E+00
  0.00000000E+00  1.60000000E+01  1.00800000E+00  1.00800000E+00  0.00000000E+00
  1.60000000E+01  1.00800000E+00  1.00800000E+00  0.00000000E+00  1.60000000E+01
  1.00800000E+00  1.00800000E+00  0.00000000E+00  1.60000000E+01  1.00800000E+00
  1.00800000E+00  0.00000000E+00  1.60000000E+01  1.00800000E+00  1.00800000E+00
  0.00000000E+00  1.60000000E+01  1.00800000E+00  1.00800000E+00  0.00000000E+00
  1.60000000E+01  1.00800000E+00  1.00800000E+00  0.00000000E+00  1.60000000E+01
  1.00800000E+00  1.00800000E+00  0.00000000E+00  1.60000000E+01  1.00800000E+00
  1.00800000E+00  0.00000000E+00  1.60000000E+01  1.00800000E+00  1.00800000E+00
  0.00000000E+00  1.60000000E+01  1.00800000E+00  1.00800000E+00  0.00000000E+00
  1.60000000E+01  1.00800000E+00  1.00800000E+00  0.00000000E+00  1.60000000E+01
  1.00800000E+00  1.00800000E+00  0.00000000E+00  1.60000000E+01  1.00800000E+00
  1.00800000E+00  0.00000000E+00  1.60000000E+01  1.00800000E+00  1.00800000E+00
  0.00000000E+00  1.60000000E+01  1.00800000E+00  1.00800000E+00  0.00000000E+00
  1.60000000E+01  1.00800000E+00  1.00800000E+00  0.00000000E+00  1.60000000E+01
  1.00800000E+00  1.00800000E+00  0.00000000E+00  1.60000000E+01  1.00800000E+00
  1.00800000E+00  0.00000000E+00  1.60000000E+01  1.00800000E+00  1.00800000E+00
  0.00000000E+00  1.60000000E+01  1.00800000E+00  1.00800000E+00  0.00000000E+00
  1.60000000E+01  1.00800000E+00  1.00800000E+00  0.00000000E+00  1.60000000E+01
  1.00800000E+00  1.00800000E+00  0.00000000E+00  1.60000000E+01  1.00800000E+00
  1.00800000E+00  0.00000000E+00  1.60000000E+01  1.00800000E+00  1.00800000E+00
  0.00000000E+00  1.60000000E+01  1.00800000E+00  1.00800000E+00  0.00000000E+00
  1.60000000E+01  1.00800000E+00  1.00800000E+00  0.00000000E+00  1.60000000E+01
  1.00800000E+00  1.00800000E+00  0.00000000E+00  1.60000000E+01  1.00800000E+00
  1.00800000E+00  0.00000000E+00  1.60000000E+01  1.00800000E+00  1.00800000E+00
  0.00000000E+00  1.60000000E+01  1.00800000E+00  1.00800000E+00  0.00000000E+00
  1.60000000E+01  1.00800000E+00  1.00800000E+00  0.00000000E+00  1.60000000E+01
  1.00800000E+00  1.00800000E+00  0.00000000E+00  1.60000000E+01  1.00800000E+00
  1.00800000E+00  0.00000000E+00  1.60000000E+01  1.00800000E+00  1.00800000E+00
  0.00000000E+00  1.60000000E+01  1.00800000E+00  1.00800000E+00  0.00000000E+00
  1.60000000E+01  1.00800000E+00  1.00800000E+00  0.00000000E+00  1.60000000E+01
  1.00800000E+00  1.00800000E+00  0.00000000E+00  1.60000000E+01  1.00800000E+00
  1.00800000E+00  0.00000000E+00  1.60000000E+01  1.00800000E+00  1.00800000E+00
  0.00000000E+00  1.60000000E+01  1.00800000E+00  1.00800000E+00  0.00000000E+00
  1.60000000E+01  1.00800000E+00  1.00800000E+00  0.00000000E+00  1.60000000E+01
  1.00800000E+00  1.00800000E+00  0.00000000E+00  1.60000000E+01  1.00800000E+00
  1.00800000E+00  0.00000000E+00  1.60000000E+01  1.00800000E+00  1.00800000E+00
  0.00000000E+00  1.60000000E+01  1.00800000E+00  1.00800000E+00  0.00000000E+00
  1.60000000E+01  1.00800000E+00  1.00800000E+00  0.00000000E+00  1.60000000E+01
  1.00800000E+00  1.00800000E+00  0.00000000E+00  1.60000000E+01  1.00800000E+00
  1.00800000E+00  0.00000000E+00  1.60000000E+01  1.00800000E+00  1.00800000E+00
  0.00000000E+00  1.60000000E+01  1.00800000E+00  1.00800000E+00  0.00000000E+00
  1.60000000E+01  1.00800000E+00  1.00800000E+00  0.00000000E+00  1.60000000E+01
  1.00800000E+00  1.00800000E+00  0.00000000E+00  1.60000000E+01  1.00800000E+00
  1.00800000E+00  0.00000000E+00  1.60000000E+01  1.00800000E+00  1.00800000E+00
  0.00000000E+00  1.60000000E+01  1.00800000E+00  1.00800000E+00  0.00000000E+00
  1.60000000E+01  1.00800000E+00  1.00800000E+00  0.00000000E+00  1.60000000E+01
  1.00800000E+00  1.00800000E+00  0.00000000E+00  1.60000000E+01  1.00800000E+00
  1.00800000E+00  0.00000000E+00  1.60000000E+01  1.00800000E+00  1.00800000E+00
  0.00000000E+00  1.60000000E+01  1.00800000E+00  1.00800000E+00  0.00000000E+00
  1.60000000E+01  1.00800000E+00  1.00800000E+00  0.00000000E+00  1.60000000E+01
  1.00800000E+00  1.00800000E+00  0.00000000E+00  1.60000000E+01  1.00800000E+00
  1.00800000E+00  0.00000000E+00  1.60000000E+01  1.00800000E+00  1.00800000E+00
  0.00000000E+00  1.60000000E+01  1.00800000E+00  1.00800000E+00  0.00000000E+00
  1.60000000E+01  1.00800000E+00  1.00800000E+00  0.00000000E+00  1.60000000E+01
  1.00800000E+00  1.00800000E+00  0.00000000E+00  1.60000000E+01  1.00800000E+00
  1.00800000E+00  0.00000000E+00  1.60000000E+01  1.00800000E+00  1.00800000E+00
  0.00000000E+00  1.60000000E+01  1.00800000E+00  1.00800000E+00  0.00000000E+00
  1.60000000E+01  1.00800000E+00  1.00800000E+00  0.00000000E+00  1.60000000E+01
  1.00800000E+00  1.00800000E+00  0.00000000E+00  1.60000000E+01  1.00800000E+00
  1.00800000E+00  0.00000000E+00  1.60000000E+01  1.00800000E+00  1.00800000E+00
  0.00000000E+00  1.60000000E+01  1.00800000E+00  1.00800000E+00  0.00000000E+00
  1.60000000E+01  1.00800000E+00  1.00800000E+00  0.00000000E+00  1.60000000E+01
  1.00800000E+00  1.00800000E+00  0.00000000E+00  1.60000000E+01  1.00800000E+00
  1.00800000E+00  0.00000000E+00  1.60000000E+01  1.00800000E+00  1.00800000E+00
  0.00000000E+00  1.60000000E+01  1.00800000E+00  1.00800000E+00  0.00000000E+00
  1.60000000E+01  1.00800000E+00  1.00800000E+00  0.00000000E+00  1.60000000E+01
  1.00800000E+00  1.00800000E+00  0.00000000E+00  1.60000000E+01  1.00800000E+00
  1.00800000E+00  0.00000000E+00  1.60000000E+01  1.00800000E+00  1.00800000E+00
  0.00000000E+00  1.60000000E+01  1.00800000E+00  1.00800000E+00  0.00000000E+00
  1.60000000E+01  1.00800000E+00  1.00800000E+00  0.00000000E+00  1.60000000E+01
  1.00800000E+00  1.00800000E+00  0.00000000E+00  1.60000000E+01  1.00800000E+00
  1.00800000E+00  0.00000000E+00  1.60000000E+01  1.00800000E+00  1.00800000E+00
  0.00000000E+00  1.60000000E+01  1.00800000E+00  1.00800000E+00  0.00000000E+00
  1.60000000E+01  1.00800000E+00  1.00800000E+00  0.00000000E+00  1.60000000E+01
  1.00800000E+00  1.00800000E+00  0.00000000E+00  1.60000000E+01  1.00800000E+00
  1.00800000E+00  0.00000000E+00  1.60000000E+01  1.00800000E+00  1.00800000E+00
  0.00000000E+00  1.60000000E+01  1.00800000E+00  1.00800000E+00  0.00000000E+00
  1.60000000E+01  1.00800000E+00  1.00800000E+00  0.00000000E+00  1.60000000E+01
  1.00800000E+00  1.00800000E+00  0.00000000E+00  1.60000000E+01  1.00800000E+00
  1.00800000E+00  0.00000000E+00  1.60000000E+01  1.00800000E+00  1.00800000E+00
  0.00000000E+00  1.60000000E+01  1.00800000E+00  1.00800000E+00  0.00000000E+00
  1.60000000E+01  1.00800000E+00  1.00800000E+00  0.00000000E+00  1.60000000E+01
  1.00800000E+00  1.00800000E+00  0.00000000E+00  1.60000000E+01  1.00800000E+00
  1.00800000E+00  0.00000000E+00  1.60000000E+01  1.00800000E+00  1.00800000E+00
  0.00000000E+00  1.60000000E+01  1.00800000E+00  1.00800000E+00  0.00000000E+00
  1.60000000E+01  1.00800000E+00  1.00800000E+00  0.00000000E+00  1.60000000E+01
  1.00800000E+00  1.00800000E+00  0.00000000E+00  1.60000000E+01  1.00800000E+00
  1.00800000E+00  0.00000000E+00  1.60000000E+01  1.00800000E+00  1.00800000E+00
  0.00000000E+00  1.60000000E+01  1.00800000E+00  1.00800000E+00  0.00000000E+00
  1.60000000E+01  1.00800000E+00  1.00800000E+00  0.00000000E+00  1.60000000E+01
  1.00800000E+00  1.00800000E+00  0.00000000E+00  1.60000000E+01  1.00800000E+00
  1.00800000E+00  0.00000000E+00  1.60000000E+01  1.00800000E+00  1.00800000E+00
  0.00000000E+00  1.60000000E+01  1.00800000E+00  1.00800000E+00  0.00000000E+00
  1.60000000E+01  1.00800000E+00  1.00800000E+00  0.00000000E+00  1.60000000E+01
  1.00800000E+00  1.00800000E+00  0.00000000E+00  1.60000000E+01  1.00800000E+00
  1.00800000E+00  0.00000000E+00  1.60000000E+01  1.00800000E+00  1.00800000E+00
  0.00000000E+00  1.60000000E+01  1.00800000E+00  1.00800000E+00  0.00000000E+00
  1.60000000E+01  1.00800000E+00  1.00800000E+00  0.00000000E+00  1.60000000E+01
  1.00800000E+00  1.00800000E+00  0.00000000E+00  1.60000000E+01  1.00800000E+00
  1.00800000E+00  0.00000000E+00  1.60000000E+01  1.00800000E+00  1.00800000E+00
  0.00000000E+00  1.60000000E+01  1.00800000E+00  1.00800000E+00  0.00000000E+00
  1.60000000E+01  1.00800000E+00  1.00800000E+00  0.00000000E+00  1.60000000E+01
  1.00800000E+00  1.00800000E+00  0.00000000E+00  1.60000000E+01  1.00800000E+00
  1.00800000E+00  0.00000000E+00  1.60000000E+01  1.00800000E+00  1.00800000E+00
  0.00000000E+00  1.60000000E+01  1.00800000E+00  1.00800000E+00  0.00000000E+00
  1.60000000E+01  1.00800000E+00  1.00800000E+00  0.00000000E+00  1.60000000E+01
  1.00800000E+00  1.00800000E+00  0.00000000E+00  1.60000000E+01  1.00800000E+00
  1.00800000E+00  0.00000000E+00  1.60000000E+01  1.00800000E+00  1.00800000E+00
  0.00000000E+00  1.60000000E+01  1.00800000E+00  1.00800000E+00  0.00000000E+00
  1.60000000E+01  1.00800000E+00  1.00800000E+00  0.00000000E+00  1.60000000E+01
  1.00800000E+00  1.00800000E+00  0.00000000E+00  1.60000000E+01  1.00800000E+00
  1.00800000E+00  0.00000000E+00  1.60000000E+01  1.00800000E+00  1.00800000E+00
  0.00000000E+00  1.60000000E+01  1.00800000E+00  1.00800000E+00  0.00000000E+00
  1.60000000E+01  1.00800000E+00  1.00800000E+00  0.00000000E+00  1.60000000E+01
  1.00800000E+00  1.00800000E+00  0.00000000E+00  1.60000000E+01  1.00800000E+00
  1.00800000E+00  0.00000000E+00  1.60000000E+01  1.00800000E+00  1.00800000E+00
  0.00000000E+00  1.60000000E+01  1.00800000E+00  1.00800000E+00  0.00000000E+00
  1.60000000E+01  1.00800000E+00  1.00800000E+00  0.00000000E+00  1.60000000E+01
  1.00800000E+00  1.00800000E+00  0.00000000E+00  1.60000000E+01  1.00800000E+00
  1.00800000E+00  0.00000000E+00  1.60000000E+01  1.00800000E+00  1.00800000E+00
  0.00000000E+00  1.60000000E+01  1.00800000E+00  1.00800000E+00  0.00000000E+00
  1.60000000E+01  1.00800000E+00  1.00800000E+00  0.00000000E+00  1.60000000E+01
  1.00800000E+00  1.00800000E+00  0.00000000E+00  1.60000000E+01  1.00800000E+00
  1.00800000E+00  0.00000000E+00  1.60000000E+01  1.00800000E+00  1.00800000E+00
  0.00000000E+00  1.60000000E+01  1.00800000E+00  1.00800000E+00  0.00000000E+00
  1.60000000E+01  1.00800000E+00  1.00800000E+00  0.00000000E+00  1.60000000E+01
  1.00800000E+00  1.00800000E+00  0.00000000E+00  1.60000000E+01  1.00800000E+00
  1.00800000E+00  0.00000000E+00  1.60000000E+01  1.00800000E+00  1.00800000E+00
  0.00000000E+00  1.60000000E+01  1.00800000E+00  1.00800000E+00  0.00000000E+00
  1.60000000E+01  1.00800000E+00  1.00800000E+00  0.00000000E+00  1.60000000E+01
  1.00800000E+00  1.00800000E+00  0.00000000E+00  1.60000000E+01  1.00800000E+00
  1.00800000E+00  0.00000000E+00  1.60000000E+01  1.00800000E+00  1.00800000E+00
  0.00000000E+00  1.60000000E+01  1.00800000E+00  1.00800000E+00  0.00000000E+00
  1.60000000E+01  1.00800000E+00  1.00800000E+00  0.00000000E+00  1.60000000E+01
  1.00800000E+00  1.00800000E+00  0.00000000E+00  1.60000000E+01  1.00800000E+00
  1.00800000E+00  0.00000000E+00  1.60000000E+01  1.00800000E+00  1.00800000E+00
  0.00000000E+00  1.60000000E+01  1.00800000E+00  1.00800000E+00  0.00000000E+00
  1.60000000E+01  1.00800000E+00  1.00800000E+00  0.00000000E+00  1.60000000E+01
  1.00800000E+00  1.00800000E+00  0.00000000E+00  1.60000000E+01  1.00800000E+00
  1.00800000E+00  0.00000000E+00  1.60000000E+01  1.00800000E+00  1.00800000E+00
  0.00000000E+00  1.60000000E+01  1.00800000E+00  1.00800000E+00  0.00000000E+00
  1.60000000E+01  1.00800000E+00  1.00800000E+00  0.00000000E+00  1.60000000E+01
  1.00800000E+00  1.00800000E+00  0.00000000E+00  1.60000000E+01  1.00800000E+00
  1.00800000E+00  0.00000000E+00  1.60000000E+01  1.00800000E+00  1.00800000E+00
  0.00000000E+00  1.60000000E+01  1.00800000E+00  1.00800000E+00  0.00000000E+00
  1.60000000E+01  1.00800000E+00  1.00800000E+00  0.00000000E+00  1.60000000E+01
  1.00800000E+00  1.00800000E+00  0.00000000E+00  1.60000000E+01  1.00800000E+00
  1.00800000E+00  0.00000000E+00  1.60000000E+01  1.00800000E+00  1.00800000E+00
  0.00000000E+00  1.60000000E+01  1.00800000E+00  1.00800000E+00  0.00000000E+00
  1.60000000E+01  1.00800000E+00  1.00800000E+00  0.00000000E+00  1.60000000E+01
  1.00800000E+00  1.00800000E+00  0.00000000E+00  1.60000000E+01  1.00800000E+00
  1.00800000E+00  0.00000000E+00  1.60000000E+01  1.00800000E+00  1.00800000E+00
  0.00000000E+00  1.60000000E+01  1.00800000E+00  1.00800000E+00  0.00000000E+00
  1.60000000E+01  1.00800000E+00  1.00800000E+00  0.00000000E+00  1.60000000E+01
  1.00800000E+00  1.00800000E+00  0.00000000E+00  1.60000000E+01  1.00800000E+00
  1.00800000E+00  0.00000000E+00  1.60000000E+01  1.00800000E+00  1.00800000E+00
  0.00000000E+00  1.60000000E+01  1.00800000E+00  1.00800000E+00  0.00000000E+00
  1.60000000E+01  1.00800000E+00  1.00800000E+00  0.00000000E+00  1.60000000E+01
  1.00800000E+00  1.00800000E+00  0.00000000E+00  1.60000000E+01  1.00800000E+00
  1.00800000E+00  0.00000000E+00  1.60000000E+01  1.00800000E+00  1.00800000E+00
  0.00000000E+00  1.60000000E+01  1.00800000E+00  1.00800000E+00  0.00000000E+00
  1.60000000E+01  1.00800000E+00  1.00800000E+00  0.00000000E+00  1.60000000E+01
  1.00800000E+00  1.00800000E+00  0.00000000E+00  1.60000000E+01  1.00800000E+00
  1.00800000E+00  0.00000000E+00  1.60000000E+01  1.00800000E+00  1.00800000E+00
  0.00000000E+00  1.60000000E+01  1.00800000E+00  1.00800000E+00  0.00000000E+00
  1.60000000E+01  1.00800000E+00  1.00800000E+00  0.00000000E+00  1.60000000E+01
  1.00800000E+00  1.00800000E+00  0.00000000E+00  1.60000000E+01  1.00800000E+00
  1.00800000E+00  0.00000000E+00  1.60000000E+01  1.00800000E+00  1.00800000E+00
  0.00000000E+00  1.60000000E+01  1.00800000E+00  1.00800000E+00  0.00000000E+00
  1.60000000E+01  1.00800000E+00  1.00800000E+00  0.00000000E+00  1.60000000E+01
  1.00800000E+00  1.00800000E+00  0.00000000E+00  1.60000000E+01  1.00800000E+00
  1.00800000E+00  0.00000000E+00  1.60000000E+01  1.00800000E+00  1.00800000E+00
  0.00000000E+00  1.60000000E+01  1.00800000E+00  1.00800000E+00  0.00000000E+00
  1.60000000E+01  1.00800000E+00  1.00800000E+00  0.00000000E+00  1.60000000E+01
  1.00800000E+00  1.00800000E+00  0.00000000E+00  1.60000000E+01  1.00800000E+00
  1.00800000E+00  0.00000000E+00  1.60000000E+01  1.00800000E+00  1.00800000E+00
  0.00000000E+00  1.60000000E+01  1.00800000E+00  1.00800000E+00  0.00000000E+00
  1.60000000E+01  1.00800000E+00  1.00800000E+00  0.00000000E+00  1.60000000E+01
  1.00800000E+00  1.00800000E+00  0.00000000E+00  1.60000000E+01  1.00800000E+00
  1.00800000E+00  0.00000000E+00  1.60000000E+01  1.00800000E+00  1.00800000E+00
  0.00000000E+00  1.60000000E+01  1.00800000E+00  1.00800000E+00  0.00000000E+00
  1.60000000E+01  1.00800000E+00  1.00800000E+00  0.00000000E+00  1.60000000E+01
  1.00800000E+00  1.00800000E+00  0.00000000E+00  1.60000000E+01  1.00800000E+00
  1.00800000E+00  0.00000000E+00  1.60000000E+01  1.00800000E+00  1.00800000E+00
  0.00000000E+00  1.60000000E+01  1.00800000E+00  1.00800000E+00  0.00000000E+00
  1.60000000E+01  1.00800000E+00  1.00800000E+00  0.00000000E+00  1.60000000E+01
  1.00800000E+00  1.00800000E+00  0.00000000E+00  1.60000000E+01  1.00800000E+00
  1.00800000E+00  0.00000000E+00  1.60000000E+01  1.00800000E+00  1.00800000E+00
  0.00000000E+00  1.60000000E+01  1.00800000E+00  1.00800000E+00  0.00000000E+00
  1.60000000E+01  1.00800000E+00  1.00800000E+00  0.00000000E+00  1.60000000E+01
  1.00800000E+00  1.00800000E+00  0.00000000E+00  1.60000000E+01  1.00800000E+00
  1.00800000E+00  0.00000000E+00  1.60000000E+01  1.00800000E+00  1.00800000E+00
  0.00000000E+00  1.60000000E+01  1.00800000E+00  1.00800000E+00  0.00000000E+00
  1.60000000E+01  1.00800000E+00  1.00800000E+00  0.00000000E+00  1.60000000E+01
  1.00800000E+00  1.00800000E+00  0.00000000E+00  1.60000000E+01  1.00800000E+00
  1.00800000E+00  0.00000000E+00  1.60000000E+01  1.00800000E+00  1.00800000E+00
  0.00000000E+00  1.60000000E+01  1.00800000E+00  1.00800000E+00  0.00000000E+00
  1.60000000E+01  1.00800000E+00  1.00800000E+00  0.00000000E+00  1.60000000E+01
  1.00800000E+00  1.00800000E+00  0.00000000E+00  1.60000000E+01  1.00800000E+00
  1.00800000E+00  0.00000000E+00  1.60000000E+01  1.00800000E+00  1.00800000E+00
  0.00000000E+00  1.60000000E+01  1.00800000E+00  1.00800000E+00  0.00000000E+00
  1.60000000E+01  1.00800000E+00  1.00800000E+00  0.00000000E+00  1.60000000E+01
  1.00800000E+00  1.00800000E+00  0.00000000E+00  1.60000000E+01  1.00800000E+00
  1.00800000E+00  0.00000000E+00  1.60000000E+01  1.00800000E+00  1.00800000E+00
  0.00000000E+00  1.60000000E+01  1.00800000E+00  1.00800000E+00  0.00000000E+00
  1.60000000E+01  1.00800000E+00  1.00800000E+00  0.00000000E+00  1.60000000E+01
  1.00800000E+00  1.00800000E+00  0.00000000E+00  1.60000000E+01  1.00800000E+00
  1.00800000E+00  0.00000000E+00  1.60000000E+01  1.00800000E+00  1.00800000E+00
  0.00000000E+00  1.60000000E+01  1.00800000E+00  1.00800000E+00  0.00000000E+00
  1.60000000E+01  1.00800000E+00  1.00800000E+00  0.00000000E+00  1.60000000E+01
  1.00800000E+00  1.00800000E+00  0.00000000E+00  1.60000000E+01  1.00800000E+00
  1.00800000E+00  0.00000000E+00  1.60000000E+01  1.00800000E+00  1.00800000E+00
  0.00000000E+00  1.60000000E+01  1.00800000E+00  1.00800000E+00  0.00000000E+00
  1.60000000E+01  1.00800000E+00  1.00800000E+00  0.00000000E+00  1.60000000E+01
  1.00800000E+00  1.00800000E+00  0.00000000E+00  1.60000000E+01  1.00800000E+00
  1.00800000E+00  0.00000000E+00  1.60000000E+01  1.00800000E+00  1.00800000E+00
  0.00000000E+00  1.60000000E+01  1.00800000E+00  1.00800000E+00  0.00000000E+00
  1.60000000E+01  1.00800000E+00  1.00800000E+00  0.00000000E+00  1.60000000E+01
  1.00800000E+00  1.00800000E+00  0.00000000E+00  1.60000000E+01  1.00800000E+00
  1.00800000E+00  0.00000000E+00  1.60000000E+01  1.00800000E+00  1.00800000E+00
  0.00000000E+00  1.60000000E+01  1.00800000E+00  1.00800000E+00  0.00000000E+00
  1.60000000E+01  1.00800000E+00  1.00800000E+00  0.00000000E+00  1.60000000E+01
  1.00800000E+00  1.00800000E+00  0.00000000E+00  1.60000000E+01  1.00800000E+00
  1.00800000E+00  0.00000000E+00  1.60000000E+01  1.00800000E+00  1.00800000E+00
  0.00000000E+00  1.60000000E+01  1.00800000E+00  1.00800000E+00  0.00000000E+00
  1.60000000E+01  1.00800000E+00  1.00800000E+00  0.00000000E+00  1.60000000E+01
  1.00800000E+00  1.00800000E+00  0.00000000E+00  1.60000000E+01  1.00800000E+00
  1.00800000E+00  0.00000000E+00  1.60000000E+01  1.00800000E+00  1.00800000E+00
  0.00000000E+00  1.60000000E+01  1.00800000E+00  1.00800000E+00  0.00000000E+00
  1.60000000E+01  1.00800000E+00  1.00800000E+00  0.00000000E+00  1.60000000E+01
  1.00800000E+00  1.00800000E+00  0.00000000E+00  1.60000000E+01  1.00800000E+00
  1.00800000E+00  0.00000000E+00  1.60000000E+01  1.00800000E+00  1.00800000E+00
  0.00000000E+00  1.60000000E+01  1.00800000E+00  1.00800000E+00  0.00000000E+00
  1.60000000E+01  1.00800000E+00  1.00800000E+00  0.00000000E+00  1.60000000E+01
  1.00800000E+00  1.00800000E+00  0.00000000E+00  1.60000000E+01  1.00800000E+00
  1.00800000E+00  0.00000000E+00  1.60000000E+01  1.00800000E+00  1.00800000E+00
  0.00000000E+00  1.60000000E+01  1.00800000E+00  1.00800000E+00  0.00000000E+00
  1.60000000E+01  1.00800000E+00  1.00800000E+00  0.00000000E+00  1.60000000E+01
  1.00800000E+00  1.00800000E+00  0.00000000E+00  1.60000000E+01  1.00800000E+00
  1.00800000E+00  0.00000000E+00  1.60000000E+01  1.00800000E+00  1.00800000E+00
  0.00000000E+00  1.60000000E+01  1.00800000E+00  1.00800000E+00  0.00000000E+00
  1.60000000E+01  1.00800000E+00  1.00800000E+00  0.00000000E+00  1.60000000E+01
  1.00800000E+00  1.00800000E+00  0.00000000E+00  1.60000000E+01  1.00800000E+00
  1.00800000E+00  0.00000000E+00  1.60000000E+01  1.00800000E+00  1.00800000E+00
  0.00000000E+00  1.60000000E+01  1.00800000E+00  1.00800000E+00  0.00000000E+00
  1.60000000E+01  1.00800000E+00  1.00800000E+00  0.00000000E+00  1.60000000E+01
  1.00800000E+00  1.00800000E+00  0.00000000E+00  1.60000000E+01  1.00800000E+00
  1.00800000E+00  0.00000000E+00  1.60000000E+01  1.00800000E+00  1.00800000E+00
  0.00000000E+00  1.60000000E+01  1.00800000E+00  1.00800000E+00  0.00000000E+00
  1.60000000E+01  1.00800000E+00  1.00800000E+00  0.00000000E+00  1.60000000E+01
  1.00800000E+00  1.00800000E+00  0.00000000E+00  1.60000000E+01  1.00800000E+00
  1.00800000E+00  0.00000000E+00  1.60000000E+01  1.00800000E+00  1.00800000E+00
  0.00000000E+00  1.60000000E+01  1.00800000E+00  1.00800000E+00  0.00000000E+00
  1.60000000E+01  1.00800000E+00  1.00800000E+00  0.00000000E+00  1.60000000E+01
  1.00800000E+00  1.00800000E+00  0.00000000E+00  1.60000000E+01  1.00800000E+00
  1.00800000E+00  0.00000000E+00  1.60000000E+01  1.00800000E+00  1.00800000E+00
  0.00000000E+00  1.60000000E+01  1.00800000E+00  1.00800000E+00  0.00000000E+00
  1.60000000E+01  1.00800000E+00  1.00800000E+00  0.00000000E+00  1.60000000E+01
  1.00800000E+00  1.00800000E+00  0.00000000E+00  1.60000000E+01  1.00800000E+00
  1.00800000E+00  0.00000000E+00  1.60000000E+01  1.00800000E+00  1.00800000E+00
  0.00000000E+00  1.60000000E+01  1.00800000E+00  1.00800000E+00  0.00000000E+00
  1.60000000E+01  1.00800000E+00  1.00800000E+00  0.00000000E+00
%FLAG ATOM_TYPE_INDEX                                                           
%FORMAT(10I8)                                                                   
       1       2       3       4       4       3       4       5       3       6
       7       8       9       7       8       8       7      10      10       7
       8       9       7       8       3       4       3       4       2       1
       5      11      12      12       5       3       4       4       3       4
       5       3       6       7       8       9       7       8       8      12
       7      10       8       7      10      10       7       8       3       4
       3       4       2       1       5      11      12      12       5       3
       4       4       3       4       5       3       6       7       8      13
       8      14       8       7      10      10       7       8      12       3
       4       3       4       2       1       5      11      12      12       5
       3       4       4       3       4       5       3       6       7       8
       9       7       8       8      12       7      10       8       7      10
      10       7       8       3       4       3       4       2       1       5
      11      12      12       5       3       4       4       3       4       5
       3       6       7       8      13       8      14       8       7      10
      10       7       8      12       3       4       3       4       2       1
       5      11      12      12       5       3       4       4       3       4
       5       3       6       7       8      13       8      14       8      12
       7      10       8      12       3       4       3       4       2       1
       5      11      12      12       5       3       4       4       3       4
       5       3       6       7       8      13       8      14       8      12
       7      10       8      12       3       4       3       4       2       1
       5      11      12      12       5       3       4       4       3       4
       5       3       6       7       8      13       8      14       8      12
       7      10       8      12       3       4       3       4       2       1
       5      11      12      12       5       3       4       4       3       4
       5       3       6       7       8      13       8      14       8       7
      10      10       7       8      12       3       4       3       4       2
       1       5      11      12      12       5       3       4       4       3
       4       5       3       6       7       8       9       7       8       8
      12       7      10       8       7      10      10       7       8       3
       4       3       4       2       1       5      11      12      12       5
       3       4       4       3       4       5       3       6       7       8
       9       7       8       8       7      10      10       7       8       9
       7       8       3       4       3       4       2       1       5      11
      12      12       5       3       4       4       3       4       5       3
       6       7       8       9       7       8       8      12       7      10
       8       7      10      10       7       8       3       4       3       4
       2       1       5      11      12      12       5       3       4       4
       3       4       5       3       6       7       8      13       8      14
       8       7      10      10       7       8      12       3       4       3
       4       2       1       5      11      12      12       5       3       4
       4       3       4       5       3       6       7       8       9       7
       8       8      12       7      10       8       7      10      10       7
       8       3       4       3       4       2       1       5      11      12
      12       5       3       4       4       3       4       5       3       6
       7       8      13       8      14       8       7      10      10       7
       8      12       3       4       3       4       2       1       5      11
      12      12       5       3       4       4       3       4       5       3
       6       7       8      13       8      14       8      12       7      10
       8      12       3       4       3       4       2       1       2       1
      15      15      15      15      15      15      15      15      15      15
      16      16      16      16      16      16      16      16      16      16
      17       1       1      18      17       1       1      18      17       1
       1      18      17       1       1      18      17       1       1      18
      17       1       1      18      17       1       1      18      17       1
       1      18      17       1       1      18      17       1       1      18
      17       1       1      18      17       1       1      18      17       1
       1      18      17       1       1      18      17       1       1      18
      17       1       1      18      17       1       1      18      17       1
       1      18      17       1       1      18      17       1       1      18
      17       1       1      18      17       1       1      18      17       1
       1      18      17       1       1      18      17       1       1      18
      17       1       1      18      17       1       1      18      17       1
       1      18      17       1       1      18      17       1       1      18
      17       1       1      18      17       1       1      18      17       1
       1      18      17       1       1      18      17       1       1      18
      17       1       1      18      17       1       1      18      17       1
       1      18      17       1       1      18      17       1       1      18
      17       1       1      18      17       1       1      18      17       1
       1      18      17       1       1      18      17       1       1      18
      17       1       1      18      17       1       1      18      17       1
       1      18      17       1       1      18      17       1       1      18
      17       1       1      18      17       1       1      18      17       1
       1      18      17       1       1      18      17       1       1      18
      17       1       1      18      17       1       1      18      17       1
       1      18      17       1       1      18      17       1       1      18
      17       1       1      18      17       1       1      18      17       1
       1      18      17       1       1      18      17       1       1      18
      17       1       1      18      17       1       1      18      17       1
       1      18      17       1       1      18      17       1       1      18
      17       1       1      18      17       1       1      18      17       1
       1      18      17       1       1      18      17       1       1      18
      17       1       1      18      17       1       1      18      17       1
       1      18      17       1       1      18      17       1       1      18
      17       1       1      18      17       1       1      18      17       1
       1      18      17       1       1      18      17       1       1      18
      17       1       1      18      17       1       1      18      17       1
       1      18      17       1       1      18      17       1       1      18
      17       1       1      18      17       1       1      18      17       1
       1      18      17       1       1      18      17       1       1      18
      17       1       1      18      17       1       1      18      17       1
       1      18      17       1       1      18      17       1       1      18
      17       1       1      18      17       1       1      18      17       1
       1      18      17       1       1      18      17       1       1      18
      17       1       1      18      17       1       1      18      17       1
       1      18      17       1       1      18      17       1       1      18
      17       1       1      18      17       1       1      18      17       1
       1      18      17       1       1      18      17       1       1      18
      17       1       1      18      17       1       1      18      17       1
       1      18      17       1       1      18      17       1       1      18
      17       1       1      18      17       1       1      18      17       1
       1      18      17       1       1      18      17       1       1      18
      17       1       1      18      17       1       1      18      17       1
       1      18      17       1       1      18      17       1       1      18
      17       1       1      18      17       1       1      18      17       1
       1      18      17       1       1      18      17       1       1      18
      17       1       1      18      17       1       1      18      17       1
       1      18      17       1       1      18      17       1       1      18
      17       1       1      18      17       1       1      18      17       1
       1      18      17       1       1      18      17       1       1      18
      17       1       1      18      17       1       1      18      17       1
       1      18      17       1       1      18      17       1       1      18
      17       1       1      18      17       1       1      18      17       1
       1      18      17       1       1      18      17       1       1      18
      17       1       1      18      17       1       1      18      17       1
       1      18      17       1       1      18      17       1       1      18
      17       1       1      18      17       1       1      18      17       1
       1      18      17       1       1      18      17       1       1      18
      17       1       1      18      17       1       1      18      17       1
       1      18      17       1       1      18      17       1       1      18
      17       1       1      18      17       1       1      18      17       1
       1      18      17       1       1      18      17       1       1      18
      17       1       1      18      17       1       1      18      17       1
       1      18      17       1       1      18      17       1       1      18
      17       1       1      18      17       1       1      18      17       1
       1      18      17       1       1      18      17       1       1      18
      17       1       1      18      17       1       1      18      17       1
       1      18      17       1       1      18      17       1       1      18
      17       1       1      18      17       1       1      18      17       1
       1      18      17       1       1      18      17       1       1      18
      17       1       1      18      17       1       1      18      17       1
       1      18      17       1       1      18      17       1       1      18
      17       1       1      18      17       1       1      18      17       1
       1      18      17       1       1      18      17       1       1      18
      17       1       1      18      17       1       1      18      17       1
       1      18      17       1       1      18      17       1       1      18
      17       1       1      18      17       1       1      18      17       1
       1      18      17       1       1      18      17       1       1      18
      17       1       1      18      17       1       1      18      17       1
       1      18      17       1       1      18      17       1       1      18
      17       1       1      18      17       1       1      18      17       1
       1      18      17       1       1      18      17       1       1      18
      17       1       1      18      17       1       1      18      17       1
       1      18      17       1       1      18      17       1       1      18
      17       1       1      18      17       1       1      18      17       1
       1      18      17       1       1      18      17       1       1      18
      17       1       1      18      17       1       1      18      17       1
       1      18      17       1       1      18      17       1       1      18
      17       1       1      18      17       1       1      18      17       1
       1      18      17       1       1      18      17       1       1      18
      17       1       1      18      17       1       1      18      17       1
       1      18      17       1       1      18      17       1       1      18
      17       1       1      18      17       1       1      18      17       1
       1      18      17       1       1      18      17       1       1      18
      17       1       1      18      17       1       1      18      17       1
       1      18      17       1       1      18      17       1       1      18
      17       1       1      18      17       1       1      18      17       1
       1      18      17       1       1      18      17       1       1      18
      17       1       1      18      17       1       1      18      17       1
       1      18      17       1       1      18      17       1       1      18
      17       1       1      18      17       1       1      18      17       1
       1      18      17       1       1      18      17       1       1      18
      17       1       1      18      17       1       1      18      17       1
       1      18      17       1       1      18      17       1       1      18
      17       1       1      18      17       1       1      18      17       1
       1      18      17       1       1      18      17       1       1      18
      17       1       1      18      17       1       1      18      17       1
       1      18      17       1       1      18      17       1       1      18
      17       1       1      18      17       1       1      18      17       1
       1      18      17       1       1      18      17       1       1      18
      17       1       1      18      17       1       1      18      17       1
       1      18      17       1       1      18      17       1       1      18
      17       1       1      18      17       1       1      18      17       1
       1      18      17       1       1      18      17       1       1      18
      17       1       1      18      17       1       1      18      17       1
       1      18      17       1       1      18      17       1       1      18
      17       1       1      18      17       1       1      18      17       1
       1      18      17       1       1      18      17       1       1      18
      17       1       1      18      17       1       1      18      17       1
       1      18      17       1       1      18      17       1       1      18
      17       1       1      18      17       1       1      18      17       1
       1      18      17       1       1      18      17       1       1      18
      17       1       1      18      17       1       1      18      17       1
       1      18      17       1       1      18      17       1       1      18
      17       1       1      18      17       1       1      18      17       1
       1      18      17       1       1      18      17       1       1      18
      17       1       1      18      17       1       1      18      17       1
       1      18      17       1       1      18      17       1       1      18
      17       1       1      18      17       1       1      18      17       1
       1      18      17       1       1      18      17       1       1      18
      17       1       1      18      17       1       1      18      17       1
       1      18      17       1       1      18      17       1       1      18
      17       1       1      18      17       1       1      18      17       1
       1      18      17       1       1      18      17       1       1      18
      17       1       1      18      17       1       1      18      17       1
       1      18      17       1       1      18      17       1       1      18
      17       1       1      18      17       1       1      18      17       1
       1      18      17       1       1      18      17       1       1      18
      17       1       1      18      17       1       1      18      17       1
       1      18      17       1       1      18      17       1       1      18
      17       1       1      18      17       1       1      18      17       1
       1      18      17       1       1      18      17       1       1      18
      17       1       1      18      17       1       1      18      17       1
       1      18      17       1       1      18      17       1       1      18
      17       1       1      18      17       1       1      18      17       1
       1      18      17       1       1      18      17       1       1      18
      17       1       1      18      17       1       1      18      17       1
       1      18      17       1       1      18      17       1       1      18
      17       1       1      18      17       1       1      18      17       1
       1      18      17       1       1      18      17       1       1      18
      17       1       1      18      17       1       1      18      17       1
       1      18      17       1       1      18      17       1       1      18
      17       1       1      18      17       1       1      18      17       1
       1      18      17       1       1      18      17       1       1      18
      17       1       1      18      17       1       1      18      17       1
       1      18      17       1       1      18      17       1       1      18
      17       1       1      18      17       1       1      18      17       1
       1      18      17       1       1      18      17       1       1      18
      17       1       1      18      17       1       1      18      17       1
       1      18      17       1       1      18      17       1       1      18
      17       1       1      18      17       1       1      18      17       1
       1      18      17       1       1      18      17       1       1      18
      17       1       1      18      17       1       1      18      17       1
       1      18      17       1       1      18      17       1       1      18
      17       1       1      18      17       1       1      18      17       1
       1      18      17       1       1      18      17       1       1      18
      17       1       1      18      17       1       1      18      17       1
       1      18      17       1       1      18      17       1       1      18
      17       1       1      18      17       1       1      18      17       1
       1      18      17       1       1      18      17       1       1      18
      17       1       1      18      17       1       1      18      17       1
       1      18      17       1       1      18      17       1       1      18
      17       1       1      18      17       1       1      18      17       1
       1      18      17       1       1      18      17       1       1      18
      17       1       1      18      17       1       1      18      17       1
       1      18      17       1       1      18      17       1       1      18
      17       1       1      18      17       1       1      18      17       1
       1      18      17       1       1      18      17       1       1      18
      17       1       1      18      17       1       1      18      17       1
       1      18      17       1       1      18      17       1       1      18
      17       1       1      18      17       1       1      18      17       1
       1      18      17       1       1      18      17       1       1      18
      17       1       1      18      17       1       1      18      17       1
       1      18      17       1       1      18      17       1       1      18
      17       1       1      18      17       1       1      18      17       1
       1      18      17       1       1      18      17       1       1      18
      17       1       1      18      17       1       1      18      17       1
       1      18      17       1       1      18      17       1       1      18
      17       1       1      18      17       1       1      18      17       1
       1      18      17       1       1      18      17       1       1      18
      17       1       1      18      17       1       1      18      17       1
       1      18      17       1       1      18      17       1       1      18
      17       1       1      18      17       1       1      18      17       1
       1      18      17       1       1      18      17       1       1      18
      17       1       1      18      17       1       1      18      17       1
       1      18      17       1       1      18      17       1       1      18
      17       1       1      18      17       1       1      18      17       1
       1      18      17       1       1      18      17       1       1      18
      17       1       1      18      17       1       1      18      17       1
       1      18      17       1       1      18      17       1       1      18
      17       1       1      18      17       1       1      18      17       1
       1      18      17       1       1      18      17       1       1      18
      17       1       1      18      17       1       1      18      17       1
       1      18      17       1       1      18      17       1       1      18
      17       1       1      18      17       1       1      18      17       1
       1      18      17       1       1      18      17       1       1      18
      17       1       1      18      17       1       1      18      17       1
       1      18      17       1       1      18      17       1       1      18
      17       1       1      18      17       1       1      18      17       1
       1      18      17       1       1      18      17       1       1      18
      17       1       1      18      17       1       1      18      17       1
       1      18      17       1       1      18      17       1       1      18
      17       1       1      18      17       1       1      18      17       1
       1      18      17       1       1      18      17       1       1      18
      17       1       1      18      17       1       1      18      17       1
       1      18      17       1       1      18      17       1       1      18
      17       1       1      18      17       1       1      18      17       1
       1      18      17       1       1      18      17       1       1      18
      17       1       1      18      17       1       1      18      17       1
       1      18      17       1       1      18      17       1       1      18
      17       1       1      18      17       1       1      18      17       1
       1      18      17       1       1      18      17       1       1      18
      17       1       1      18      17       1       1      18      17       1
       1      18      17       1       1      18      17       1       1      18
      17       1       1      18      17       1       1      18      17       1
       1      18      17       1       1      18      17       1       1      18
      17       1       1      18      17       1       1      18      17       1
       1      18      17       1       1      18      17       1       1      18
      17       1       1      18      17       1       1      18      17       1
       1      18      17       1       1      18      17       1       1      18
      17       1       1      18      17       1       1      18      17       1
       1      18      17       1       1      18      17       1       1      18
      17       1       1      18      17       1       1      18      17       1
       1      18      17       1       1      18      17       1       1      18
      17       1       1      18      17       1       1      18      17       1
       1      18      17       1       1      18      17       1       1      18
      17       1       1      18      17       1       1      18      17       1
       1      18      17       1       1      18      17       1       1      18
      17       1       1      18      17       1       1      18      17       1
       1      18      17       1       1      18      17       1       1      18
      17       1       1      18      17       1       1      18      17       1
       1      18      17       1       1      18      17       1       1      18
      17       1       1      18      17       1       1      18      17       1
       1      18      17       1       1      18      17       1       1      18
      17       1       1      18      17       1       1      18      17       1
       1      18      17       1       1      18      17       1       1      18
      17       1       1      18      17       1       1      18      17       1
       1      18      17       1       1      18      17       1       1      18
      17       1       1      18      17       1       1      18      17       1
       1      18      17       1       1      18      17       1       1      18
      17       1       1      18      17       1       1      18      17       1
       1      18      17       1       1      18      17       1       1      18
      17       1       1      18      17       1       1      18      17       1
       1      18      17       1       1      18      17       1       1      18
      17       1       1      18      17       1       1      18      17       1
       1      18      17       1       1      18      17       1       1      18
      17       1       1      18      17       1       1      18      17       1
       1      18      17       1       1      18      17       1       1      18
      17       1       1      18      17       1       1      18      17       1
       1      18      17       1       1      18      17       1       1      18
      17       1       1      18      17       1       1      18      17       1
       1      18      17       1       1      18      17       1       1      18
      17       1       1      18      17       1       1      18      17       1
       1      18      17       1       1      18      17       1       1      18
      17       1       1      18      17       1       1      18      17       1
       1      18      17       1       1      18      17       1       1      18
      17       1       1      18      17       1       1      18      17       1
       1      18      17       1       1      18      17       1       1      18
      17       1       1      18      17       1       1      18      17       1
       1      18      17       1       1      18      17       1       1      18
      17       1       1      18      17       1       1      18      17       1
       1      18      17       1       1      18      17       1       1      18
      17       1       1      18      17       1       1      18      17       1
       1      18      17       1       1      18      17       1       1      18
      17       1       1      18      17       1       1      18      17       1
       1      18      17       1       1      18      17       1       1      18
      17       1       1      18      17       1       1      18      17       1
       1      18      17       1       1      18      17       1       1      18
      17       1       1      18      17       1       1      18      17       1
       1      18      17       1       1      18      17       1       1      18
      17       1       1      18      17       1       1      18      17       1
       1      18      17       1       1      18      17       1       1      18
      17       1       1      18      17       1       1      18      17       1
       1      18      17       1       1      18      17       1       1      18
      17       1       1      18      17       1       1      18      17       1
       1      18      17       1       1      18      17       1       1      18
      17       1       1      18      17       1       1      18      17       1
       1      18      17       1       1      18      17       1       1      18
      17       1       1      18      17       1       1      18      17       1
       1      18      17       1       1      18      17       1       1      18
      17       1       1      18      17       1       1      18      17       1
       1      18      17       1       1      18      17       1       1      18
      17       1       1      18      17       1       1      18      17       1
       1      18      17       1       1      18      17       1       1      18
      17       1       1      18      17       1       1      18      17       1
       1      18      17       1       1      18      17       1       1      18
      17       1       1      18      17       1       1      18      17       1
       1      18      17       1       1      18      17       1       1      18
      17       1       1      18      17       1       1      18      17       1
       1      18      17       1       1      18      17       1       1      18
      17       1       1      18      17       1       1      18      17       1
       1      18      17       1       1      18      17       1       1      18
      17       1       1      18      17       1       1      18      17       1
       1      18      17       1       1      18      17       1       1      18
      17       1       1      18      17       1       1      18      17       1
       1      18      17       1       1      18      17       1       1      18
      17       1       1      18      17       1       1      18      17       1
       1      18      17       1       1      18      17       1       1      18
      17       1       1      18      17       1       1      18      17       1
       1      18      17       1       1      18      17       1       1      18
      17       1       1      18      17       1       1      18      17       1
       1      18      17       1       1      18      17       1       1      18
      17       1       1      18      17       1       1      18      17       1
       1      18      17       1       1      18      17       1       1      18
      17       1       1      18      17       1       1      18      17       1
       1      18      17       1       1      18      17       1       1      18
      17       1       1      18      17       1       1      18      17       1
       1      18      17       1       1      18      17       1       1      18
      17       1       1      18      17       1       1      18      17       1
       1      18      17       1       1      18      17       1       1      18
      17       1       1      18      17       1       1      18      17       1
       1      18      17       1       1      18      17       1       1      18
      17       1       1      18      17       1       1      18      17       1
       1      18      17       1       1      18      17       1       1      18
      17       1       1      18      17       1       1      18      17       1
       1      18      17       1       1      18      17       1       1      18
      17       1       1      18      17       1       1      18      17       1
       1      18      17       1       1      18      17       1       1      18
      17       1       1      18      17       1       1      18      17       1
       1      18      17       1       1      18      17       1       1      18
      17       1       1      18      17       1       1      18      17       1
       1      18      17       1       1      18      17       1       1      18
      17       1       1      18      17       1       1      18      17       1
       1      18      17       1       1      18      17       1       1      18
      17       1       1      18      17       1       1      18      17       1
       1      18      17       1       1      18      17       1       1      18
      17       1       1      18      17       1       1      18      17       1
       1      18      17       1       1      18      17       1       1      18
      17       1       1      18      17       1       1      18      17       1
       1      18      17       1       1      18      17       1       1      18
      17       1       1      18      17       1       1      18      17       1
       1      18      17       1       1      18      17       1       1      18
      17       1       1      18      17       1       1      18      17       1
       1      18      17       1       1      18      17       1       1      18
      17       1       1      18      17       1       1      18      17       1
       1      18      17       1       1      18      17       1       1      18
      17       1       1      18      17       1       1      18      17       1
       1      18      17       1       1      18      17       1       1      18
      17       1       1      18      17       1       1      18      17       1
       1      18      17       1       1      18      17       1       1      18
      17       1       1      18      17       1       1      18      17       1
       1      18      17       1       1      18      17       1       1      18
      17       1       1      18      17       1       1      18      17       1
       1      18      17       1       1      18      17       1       1      18
      17       1       1      18      17       1       1      18      17       1
       1      18      17       1       1      18      17       1       1      18
      17       1       1      18      17       1       1      18      17       1
       1      18      17       1       1      18      17       1       1      18
      17       1       1      18      17       1       1      18      17       1
       1      18      17       1       1      18      17       1       1      18
      17       1       1      18      17       1       1      18      17       1
       1      18      17       1       1      18      17       1       1      18
      17       1       1      18      17       1       1      18      17       1
       1      18      17       1       1      18      17       1       1      18
      17       1       1      18      17       1       1      18      17       1
       1      18      17       1       1      18      17       1       1      18
      17       1       1      18      17       1       1      18      17       1
       1      18      17       1       1      18      17       1       1      18
      17       1       1      18      17       1       1      18      17       1
       1      18      17       1       1      18      17       1       1      18
      17       1       1      18      17       1       1      18      17       1
       1      18      17       1       1      18      17       1       1      18
      17       1       1      18      17       1       1      18      17       1
       1      18      17       1       1      18      17       1       1      18
      17       1       1      18      17       1       1      18      17       1
       1      18      17       1       1      18      17       1       1      18
      17       1       1      18      17       1       1      18      17       1
       1      18      17       1       1      18      17       1       1      18
      17       1       1      18      17       1       1      18      17       1
       1      18      17       1       1      18      17       1       1      18
      17       1       1      18      17       1       1      18      17       1
       1      18      17       1       1      18      17       1       1      18
      17       1       1      18      17       1       1      18      17       1
       1      18      17       1       1      18      17       1       1      18
      17       1       1      18      17       1       1      18      17       1
       1      18      17       1       1      18      17       1       1      18
      17       1       1      18      17       1       1      18      17       1
       1      18      17       1       1      18      17       1       1      18
      17       1       1      18      17       1       1      18      17       1
       1      18      17       1       1      18      17       1       1      18
      17       1       1      18      17       1       1      18      17       1
       1      18      17       1       1      18      17       1       1      18
      17       1       1      18      17       1       1      18      17       1
       1      18      17       1       1      18      17       1       1      18
      17       1       1      18      17       1       1      18      17       1
       1      18      17       1       1      18      17       1       1      18
      17       1       1      18      17       1       1      18      17       1
       1      18      17       1       1      18      17       1       1      18
      17       1       1      18      17       1       1      18      17       1
       1      18      17       1       1      18      17       1       1      18
      17       1       1      18      17       1       1      18      17       1
       1      18      17       1       1      18      17       1       1      18
      17       1       1      18      17       1       1      18      17       1
       1      18      17       1       1      18      17       1       1      18
      17       1       1      18      17       1       1      18      17       1
       1      18      17       1       1      18      17       1       1      18
      17       1       1      18      17       1       1      18      17       1
       1      18      17       1       1      18      17       1       1      18
      17       1       1      18      17       1       1      18      17       1
       1      18      17       1       1      18      17       1       1      18
      17       1       1      18      17       1       1      18      17       1
       1      18      17       1       1      18      17       1       1      18
      17       1       1      18      17       1       1      18      17       1
       1      18      17       1       1      18      17       1       1      18
      17       1       1      18      17       1       1      18      17       1
       1      18      17       1       1      18      17       1       1      18
      17       1       1      18      17       1       1      18      17       1
       1      18      17       1       1      18      17       1       1      18
      17       1       1      18      17       1       1      18      17       1
       1      18      17       1       1      18      17       1       1      18
      17       1       1      18      17       1       1      18      17       1
       1      18      17       1       1      18      17       1       1      18
      17       1       1      18      17       1       1      18      17       1
       1      18      17       1       1      18      17       1       1      18
      17       1       1      18      17       1       1      18      17       1
       1      18      17       1       1      18      17       1       1      18
      17       1       1      18      17       1       1      18      17       1
       1      18      17       1       1      18      17       1       1      18
      17       1       1      18      17       1       1      18      17       1
       1      18      17       1       1      18      17       1       1      18
      17       1       1      18      17       1       1      18      17       1
       1      18      17       1       1      18      17       1       1      18
      17       1       1      18      17       1       1      18      17       1
       1      18      17       1       1      18      17       1       1      18
      17       1       1      18      17       1       1      18      17       1
       1      18      17       1       1      18      17       1       1      18
      17       1       1      18      17       1       1      18      17       1
       1      18      17       1       1      18      17       1       1      18
      17       1       1      18      17       1       1      18      17       1
       1      18      17       1       1      18      17       1       1      18
      17       1       1      18      17       1       1      18      17       1
       1      18      17       1       1      18      17       1       1      18
      17       1       1      18      17       1       1      18      17       1
       1      18      17       1       1      18      17       1       1      18
      17       1       1      18      17       1       1      18      17       1
       1      18      17       1       1      18      17       1       1      18
      17       1       1      18      17       1       1      18      17       1
       1      18      17       1       1      18      17       1       1      18
      17       1       1      18      17       1       1      18      17       1
       1      18      17       1       1      18      17       1       1      18
      17       1       1      18      17       1       1      18      17       1
       1      18      17       1       1      18      17       1       1      18
      17       1       1      18      17       1       1      18      17       1
       1      18      17       1       1      18      17       1       1      18
      17       1       1      18      17       1       1      18      17       1
       1      18      17       1       1      18      17       1       1      18
      17       1       1      18      17       1       1      18      17       1
       1      18      17       1       1      18      17       1       1      18
      17       1       1      18      17       1       1      18      17       1
       1      18      17       1       1      18      17       1       1      18
      17       1       1      18      17       1       1      18      17       1
       1      18      17       1       1      18      17       1       1      18
      17       1       1      18      17       1       1      18      17       1
       1      18      17       1       1      18      17       1       1      18
      17       1       1      18      17       1       1      18      17       1
       1      18      17       1       1      18      17       1       1      18
      17       1       1      18      17       1       1      18      17       1
       1      18      17       1       1      18      17       1       1      18
      17       1       1      18      17       1       1      18      17       1
       1      18      17       1       1      18      17       1       1      18
      17       1       1      18      17       1       1      18      17       1
       1      18      17       1       1      18      17       1       1      18
      17       1       1      18      17       1       1      18      17       1
       1      18      17       1       1      18      17       1       1      18
      17       1       1      18      17       1       1      18      17       1
       1      18      17       1       1      18      17       1       1      18
      17       1       1      18      17       1       1      18      17       1
       1      18      17       1       1      18      17       1       1      18
      17       1       1      18      17       1       1      18      17       1
       1      18      17       1       1      18      17       1       1      18
      17       1       1      18      17       1       1      18      17       1
       1      18      17       1       1      18      17       1       1      18
      17       1       1      18      17       1       1      18      17       1
       1      18      17       1       1      18      17       1       1      18
      17       1       1      18      17       1       1      18      17       1
       1      18      17       1       1      18      17       1       1      18
      17       1       1      18      17       1       1      18      17       1
       1      18      17       1       1      18      17       1       1      18
      17       1       1      18      17       1       1      18      17       1
       1      18      17       1       1      18      17       1       1      18
      17       1       1      18      17       1       1      18      17       1
       1      18      17       1       1      18      17       1       1      18
      17       1       1      18      17       1       1      18      17       1
       1      18      17       1       1      18      17       1       1      18
      17       1       1      18      17       1       1      18      17       1
       1      18      17       1       1      18      17       1       1      18
      17       1       1      18      17       1       1      18      17       1
       1      18      17       1       1      18      17       1       1      18
      17       1       1      18      17       1       1      18      17       1
       1      18      17       1       1      18      17       1       1      18
      17       1       1      18      17       1       1      18      17       1
       1      18      17       1       1      18      17       1       1      18
      17       1       1      18      17       1       1      18      17       1
       1      18      17       1       1      18      17       1       1      18
      17       1       1      18      17       1       1      18      17       1
       1      18      17       1       1      18      17       1       1      18
      17       1       1      18      17       1       1      18      17       1
       1      18      17       1       1      18      17       1       1      18
      17       1       1      18      17       1       1      18      17       1
       1      18      17       1       1      18      17       1       1      18
      17       1       1      18      17       1       1      18      17       1
       1      18      17       1       1      18      17       1       1      18
      17       1       1      18      17       1       1      18      17       1
       1      18      17       1       1      18      17       1       1      18
      17       1       1      18      17       1       1      18      17       1
       1      18      17       1       1      18      17       1       1      18
      17       1       1      18      17       1       1      18      17       1
       1      18      17       1       1      18      17       1       1      18
      17       1       1      18      17       1       1      18      17       1
       1      18      17       1       1      18      17       1       1      18
      17       1       1      18      17       1       1      18      17       1
       1      18      17       1       1      18      17       1       1      18
      17       1       1      18      17       1       1      18      17       1
       1      18      17       1       1      18      17       1       1      18
      17       1       1      18      17       1       1      18      17       1
       1      18      17       1       1      18      17       1       1      18
      17       1       1      18      17       1       1      18      17       1
       1      18      17       1       1      18      17       1       1      18
      17       1       1      18      17       1       1      18      17       1
       1      18      17       1       1      18      17       1       1      18
      17       1       1      18      17       1       1      18      17       1
       1      18      17       1       1      18      17       1       1      18
      17       1       1      18      17       1       1      18      17       1
       1      18      17       1       1      18      17       1       1      18
      17       1       1      18      17       1       1      18      17       1
       1      18      17       1       1      18      17       1       1      18
      17       1       1      18      17       1       1      18      17       1
       1      18      17       1       1      18      17       1       1      18
      17       1       1      18      17       1       1      18      17       1
       1      18      17       1       1      18      17       1       1      18
      17       1       1      18      17       1       1      18      17       1
       1      18      17       1       1      18      17       1       1      18
      17       1       1      18      17       1       1      18      17       1
       1      18      17       1       1      18      17       1       1      18
      17       1       1      18      17       1       1      18      17       1
       1      18      17       1       1      18      17       1       1      18
      17       1       1      18      17       1       1      18      17       1
       1      18      17       1       1      18      17       1       1      18
      17       1       1      18      17       1       1      18      17       1
       1      18      17       1       1      18      17       1       1      18
      17       1       1      18      17       1       1      18      17       1
       1      18      17       1       1      18      17       1       1      18
      17       1       1      18      17       1       1      18      17       1
       1      18      17       1       1      18      17       1       1      18
      17       1       1      18      17       1       1      18      17       1
       1      18      17       1       1      18      17       1       1      18
      17       1       1      18      17       1       1      18      17       1
       1      18      17       1       1      18      17       1       1      18
      17       1       1      18      17       1       1      18      17       1
       1      18      17       1       1      18      17       1       1      18
      17       1       1      18      17       1       1      18      17       1
       1      18      17       1       1      18      17       1       1      18
      17       1       1      18      17       1       1      18      17       1
       1      18      17       1       1      18      17       1       1      18
      17       1       1      18      17       1       1      18      17       1
       1      18      17       1       1      18      17       1       1      18
      17       1       1      18      17       1       1      18      17       1
       1      18      17       1       1      18      17       1       1      18
      17       1       1      18      17       1       1      18      17       1
       1      18      17       1       1      18      17       1       1      18
      17       1       1      18      17       1       1      18      17       1
       1      18      17       1       1      18      17       1       1      18
      17       1       1      18      17       1       1      18      17       1
       1      18      17       1       1      18      17       1       1      18
      17       1       1      18      17       1       1      18      17       1
       1      18      17       1       1      18      17       1       1      18
      17       1       1      18      17       1       1      18      17       1
       1      18      17       1       1      18      17       1       1      18
      17       1       1      18      17       1       1      18      17       1
       1      18      17       1       1      18      17       1       1      18
      17       1       1      18      17       1       1      18      17       1
       1      18      17       1       1      18      17       1       1      18
      17       1       1      18      17       1       1      18      17       1
       1      18      17       1       1      18      17       1       1      18
      17       1       1      18      17       1       1      18      17       1
       1      18      17       1       1      18      17       1       1      18
      17       1       1      18      17       1       1      18      17       1
       1      18      17       1       1      18      17       1       1      18
      17       1       1      18      17       1       1      18      17       1
       1      18      17       1       1      18      17       1       1      18
      17       1       1      18      17       1       1      18      17       1
       1      18      17       1       1      18      17       1       1      18
      17       1       1      18      17       1       1      18      17       1
       1      18      17       1       1      18      17       1       1      18
      17       1       1      18      17       1       1      18      17       1
       1      18      17       1       1      18      17       1       1      18
      17       1       1      18      17       1       1      18      17       1
       1      18      17       1       1      18      17       1       1      18
      17       1       1      18      17       1       1      18      17       1
       1      18      17       1       1      18      17       1       1      18
      17       1       1      18      17       1       1      18      17       1
       1      18      17       1       1      18      17       1       1      18
      17       1       1      18      17       1       1      18      17       1
       1      18      17       1       1      18      17       1       1      18
      17       1       1      18      17       1       1      18      17       1
       1      18      17       1       1      18      17       1       1      18
      17       1       1      18      17       1       1      18      17       1
       1      18      17       1       1      18      17       1       1      18
      17       1       1      18      17       1       1      18      17       1
       1      18      17       1       1      18      17       1       1      18
      17       1       1      18      17       1       1      18      17       1
       1      18      17       1       1      18      17       1       1      18
      17       1       1      18      17       1       1      18      17       1
       1      18      17       1       1      18      17       1       1      18
      17       1       1      18      17       1       1      18      17       1
       1      18      17       1       1      18      17       1       1      18
      17       1       1      18      17       1       1      18      17       1
       1      18      17       1       1      18      17       1       1      18
      17       1       1      18      17       1       1      18      17       1
       1      18      17       1       1      18      17       1       1      18
      17       1       1      18      17       1       1      18      17       1
       1      18      17       1       1      18      17       1       1      18
      17       1       1      18      17       1       1      18      17       1
       1      18      17       1       1      18      17       1       1      18
      17       1       1      18      17       1       1      18      17       1
       1      18      17       1       1      18      17       1       1      18
      17       1       1      18      17       1       1      18      17       1
       1      18      17       1       1      18      17       1       1      18
      17       1       1      18      17       1       1      18      17       1
       1      18      17       1       1      18      17       1       1      18
      17       1       1      18      17       1       1      18      17       1
       1      18      17       1       1      18      17       1       1      18
      17       1       1      18      17       1       1      18      17       1
       1      18      17       1       1      18      17       1       1      18
      17       1       1      18      17       1       1      18      17       1
       1      18      17       1       1      18      17       1       1      18
      17       1       1      18      17       1       1      18      17       1
       1      18      17       1       1      18      17       1       1      18
      17       1       1      18      17       1       1      18      17       1
       1      18      17       1       1      18      17       1       1      18
      17       1       1      18      17       1       1      18      17       1
       1      18      17       1       1      18      17       1       1      18
      17       1       1      18      17       1       1      18      17       1
       1      18      17       1       1      18      17       1       1      18
      17       1       1      18      17       1       1      18      17       1
       1      18      17       1       1      18      17       1       1      18
      17       1       1      18      17       1       1      18      17       1
       1      18      17       1       1      18      17       1       1      18
      17       1       1      18      17       1       1      18      17       1
       1      18      17       1       1      18      17       1       1      18
      17       1       1      18      17       1       1      18      17       1
       1      18      17       1       1      18      17       1       1      18
      17       1       1      18      17       1       1      18      17       1
       1      18      17       1       1      18      17       1       1      18
      17       1       1      18      17       1       1      18      17       1
       1      18      17       1       1      18      17       1       1      18
      17       1       1      18      17       1       1      18      17       1
       1      18      17       1       1      18      17       1       1      18
      17       1       1      18      17       1       1      18      17       1
       1      18      17       1       1      18      17       1       1      18
      17       1       1      18      17       1       1      18      17       1
       1      18      17       1       1      18      17       1       1      18
      17       1       1      18      17       1       1      18      17       1
       1      18      17       1       1      18      17       1       1      18
      17       1       1      18      17       1       1      18      17       1
       1      18      17       1       1      18      17       1       1      18
      17       1       1      18      17       1       1      18      17       1
       1      18      17       1       1      18      17       1       1      18
      17       1       1      18      17       1       1      18      17       1
       1      18      17       1       1      18      17       1       1      18
      17       1       1      18      17       1       1      18      17       1
       1      18      17       1       1      18      17       1       1      18
      17       1       1      18      17       1       1      18      17       1
       1      18      17       1       1      18      17       1       1      18
      17       1       1      18      17       1       1      18      17       1
       1      18      17       1       1      18      17       1       1      18
      17       1       1      18      17       1       1      18      17       1
       1      18      17       1       1      18      17       1       1      18
      17       1       1      18      17       1       1      18      17       1
       1      18      17       1       1      18      17       1       1      18
      17       1       1      18      17       1       1      18      17       1
       1      18      17       1       1      18      17       1       1      18
      17       1       1      18      17       1       1      18      17       1
       1      18      17       1       1      18      17       1       1      18
      17       1       1      18      17       1       1      18      17       1
       1      18      17       1       1      18      17       1       1      18
      17       1       1      18      17       1       1      18      17       1
       1      18      17       1       1      18      17       1       1      18
      17       1       1      18      17       1       1      18      17       1
       1      18      17       1       1      18      17       1       1      18
      17       1       1      18      17       1       1      18      17       1
       1      18      17       1       1      18      17       1       1      18
      17       1       1      18      17       1       1      18      17       1
       1      18      17       1       1      18      17       1       1      18
      17       1       1      18      17       1       1      18      17       1
       1      18      17       1       1      18      17       1       1      18
      17       1       1      18      17       1       1      18      17       1
       1      18      17       1       1      18      17       1       1      18
      17       1       1      18      17       1       1      18      17       1
       1      18      17       1       1      18      17       1       1      18
      17       1       1      18      17       1       1      18      17       1
       1      18      17       1       1      18      17       1       1      18
      17       1       1      18      17       1       1      18      17       1
       1      18      17       1       1      18      17       1       1      18
      17       1       1      18      17       1       1      18      17       1
       1      18      17       1       1      18      17       1       1      18
      17       1       1      18      17       1       1      18      17       1
       1      18      17       1       1      18      17       1       1      18
      17       1       1      18      17       1       1      18      17       1
       1      18      17       1       1      18      17       1       1      18
      17       1       1      18      17       1       1      18      17       1
       1      18      17       1       1      18      17       1       1      18
      17       1       1      18      17       1       1      18      17       1
       1      18      17       1       1      18      17       1       1      18
      17       1       1      18      17       1       1      18      17       1
       1      18      17       1       1      18      17       1       1      18
      17       1       1      18      17       1       1      18      17       1
       1      18      17       1       1      18      17       1       1      18
      17       1       1      18      17       1       1      18      17       1
       1      18      17       1       1      18      17       1       1      18
      17       1       1      18      17       1       1      18      17       1
       1      18      17       1       1      18      17       1       1      18
      17       1       1      18      17       1       1      18      17       1
       1      18      17       1       1      18      17       1       1      18
      17       1       1      18      17       1       1      18      17       1
       1      18      17       1       1      18      17       1       1      18
      17       1       1      18      17       1       1      18      17       1
       1      18      17       1       1      18      17       1       1      18
      17       1       1      18      17       1       1      18      17       1
       1      18      17       1       1      18      17       1       1      18
      17       1       1      18      17       1       1      18      17       1
       1      18      17       1       1      18      17       1       1      18
      17       1       1      18      17       1       1      18      17       1
       1      18      17       1       1      18      17       1       1      18
      17       1       1      18      17       1       1      18      17       1
       1      18      17       1       1      18      17       1       1      18
      17       1       1      18      17       1       1      18      17       1
       1      18      17       1       1      18      17       1       1      18
      17       1       1      18      17       1       1      18      17       1
       1      18      17       1       1      18      17       1       1      18
      17       1       1      18      17       1       1      18      17       1
       1      18      17       1       1      18      17       1       1      18
      17       1       1      18      17       1       1      18      17       1
       1      18      17       1       1      18      17       1       1      18
      17       1       1      18      17       1       1      18      17       1
       1      18      17       1       1      18      17       1       1      18
      17       1       1      18      17       1       1      18      17       1
       1      18      17       1       1      18      17       1       1      18
      17       1       1      18      17       1       1      18      17       1
       1      18      17       1       1      18      17       1       1      18
      17       1       1      18      17       1       1      18      17       1
       1      18      17       1       1      18      17       1       1      18
      17       1       1      18      17       1       1      18      17       1
       1      18      17       1       1      18      17       1       1      18
      17       1       1      18      17       1       1      18      17       1
       1      18      17       1       1      18      17       1       1      18
      17       1       1      18      17       1       1      18      17       1
       1      18      17       1       1      18      17       1       1      18
      17       1       1      18      17       1       1      18      17       1
       1      18      17       1       1      18      17       1       1      18
      17       1       1      18      17       1       1      18      17       1
       1      18      17       1       1      18      17       1       1      18
      17       1       1      18      17       1       1      18      17       1
       1      18      17       1       1      18      17       1       1      18
      17       1       1      18      17       1       1      18      17       1
       1      18      17       1       1      18      17       1       1      18
      17       1       1      18      17       1       1      18      17       1
       1      18      17       1       1      18      17       1       1      18
      17       1       1      18      17       1       1      18      17       1
       1      18      17       1       1      18      17       1       1      18
      17       1       1      18      17       1       1      18      17       1
       1      18      17       1       1      18      17       1       1      18
      17       1       1      18      17       1       1      18      17       1
       1      18      17       1       1      18      17       1       1      18
      17       1       1      18      17       1       1      18      17       1
       1      18      17       1       1      18      17       1       1      18
      17       1       1      18      17       1       1      18      17       1
       1      18      17       1       1      18      17       1       1      18
      17       1       1      18      17       1       1      18      17       1
       1      18      17       1       1      18      17       1       1      18
      17       1       1      18      17       1       1      18      17       1
       1      18      17       1       1      18      17       1       1      18
      17       1       1      18      17       1       1      18      17       1
       1      18      17       1       1      18      17       1       1      18
      17       1       1      18      17       1       1      18      17       1
       1      18      17       1       1      18      17       1       1      18
      17       1       1      18      17       1       1      18      17       1
       1      18      17       1       1      18      17       1       1      18
      17       1       1      18      17       1       1      18      17       1
       1      18      17       1       1      18      17       1       1      18
      17       1       1      18      17       1       1      18      17       1
       1      18      17       1       1      18      17       1       1      18
      17       1       1      18      17       1       1      18      17       1
       1      18      17       1       1      18      17       1       1      18
      17       1       1      18      17       1       1      18      17       1
       1      18      17       1       1      18      17       1       1      18
      17       1       1      18      17       1       1      18      17       1
       1      18      17       1       1      18      17       1       1      18
      17       1       1      18      17       1       1      18      17       1
       1      18      17       1       1      18      17       1       1      18
      17       1       1      18      17       1       1      18      17       1
       1      18      17       1       1      18      17       1       1      18
      17       1       1      18      17       1       1      18      17       1
       1      18      17       1       1      18      17       1       1      18
      17       1       1      18      17       1       1      18      17       1
       1      18      17       1       1      18      17       1       1      18
      17       1       1      18      17       1       1      18      17       1
       1      18      17       1       1      18      17       1       1      18
      17       1       1      18      17       1       1      18      17       1
       1      18      17       1       1      18      17       1       1      18
      17       1       1      18      17       1       1      18      17       1
       1      18      17       1       1      18      17       1       1      18
      17       1       1      18      17       1       1      18      17       1
       1      18      17       1       1      18      17       1       1      18
      17       1       1      18      17       1       1      18      17       1
       1      18      17       1       1      18      17       1       1      18
      17       1       1      18      17       1       1      18      17       1
       1      18      17       1       1      18      17       1       1      18
      17       1       1      18      17       1       1      18      17       1
       1      18      17       1       1      18      17       1       1      18
      17       1       1      18      17       1       1      18      17       1
       1      18      17       1       1      18      17       1       1      18
      17       1       1      18      17       1       1      18      17       1
       1      18      17       1       1      18      17       1       1      18
      17       1       1      18      17       1       1      18      17       1
       1      18      17       1       1      18      17       1       1      18
      17       1       1      18      17       1       1      18      17       1
       1      18      17       1       1      18      17       1       1      18
      17       1       1      18      17       1       1      18      17       1
       1      18      17       1       1      18      17       1       1      18
      17       1       1      18      17       1       1      18      17       1
       1      18      17       1       1      18      17       1       1      18
      17       1       1      18      17       1       1      18      17       1
       1      18      17       1       1      18      17       1       1      18
      17       1       1      18      17       1       1      18      17       1
       1      18      17       1       1      18      17       1       1      18
      17       1       1      18      17       1       1      18      17       1
       1      18      17       1       1      18      17       1       1      18
      17       1       1      18      17       1       1      18      17       1
       1      18      17       1       1      18      17       1       1      18
      17       1       1      18      17       1       1      18      17       1
       1      18      17       1       1      18      17       1       1      18
      17       1       1      18      17       1       1      18      17       1
       1      18      17       1       1      18      17       1       1      18
      17       1       1      18      17       1       1      18      17       1
       1      18      17       1       1      18      17       1       1      18
      17       1       1      18      17       1       1      18      17       1
       1      18      17       1       1      18      17       1       1      18
      17       1       1      18      17       1       1      18      17       1
       1      18      17       1       1      18      17       1       1      18
      17       1       1      18      17       1       1      18      17       1
       1      18      17       1       1      18      17       1       1      18
      17       1       1      18      17       1       1      18      17       1
       1      18      17       1       1      18      17       1       1      18
      17       1       1      18      17       1       1      18      17       1
       1      18      17       1       1      18      17       1       1      18
      17       1       1      18      17       1       1      18      17       1
       1      18      17       1       1      18      17       1       1      18
      17       1       1      18      17       1       1      18      17       1
       1      18      17       1       1      18      17       1       1      18
      17       1       1      18      17       1       1      18      17       1
       1      18      17       1       1      18      17       1       1      18
      17       1       1      18      17       1       1      18      17       1
       1      18      17       1       1      18      17       1       1      18
      17       1       1      18      17       1       1      18      17       1
       1      18      17       1       1      18      17       1       1      18
      17       1       1      18      17       1       1      18      17       1
       1      18      17       1       1      18      17       1       1      18
      17       1       1      18      17       1       1      18      17       1
       1      18      17       1       1      18      17       1       1      18
      17       1       1      18      17       1       1      18      17       1
       1      18      17       1       1      18      17       1       1      18
      17       1       1      18      17       1       1      18      17       1
       1      18      17       1       1      18      17       1       1      18
      17       1       1      18      17       1       1      18      17       1
       1      18      17       1       1      18      17       1       1      18
      17       1       1      18      17       1       1      18      17       1
       1      18      17       1       1      18      17       1       1      18
      17       1       1      18      17       1       1      18      17       1
       1      18      17       1       1      18      17       1       1      18
      17       1       1      18      17       1       1      18      17       1
       1      18      17       1       1      18      17       1       1      18
      17       1       1      18      17       1       1      18      17       1
       1      18      17       1       1      18      17       1       1      18
      17       1       1      18      17       1       1      18      17       1
       1      18      17       1       1      18      17       1       1      18
      17       1       1      18      17       1       1      18      17       1
       1      18      17       1       1      18      17       1       1      18
      17       1       1      18      17       1       1      18      17       1
       1      18      17       1       1      18      17       1       1      18
      17       1       1      18      17       1       1      18      17       1
       1      18      17       1       1      18      17       1       1      18
      17       1       1      18      17       1       1      18      17       1
       1      18      17       1       1      18      17       1       1      18
      17       1       1      18      17       1       1      18      17       1
       1      18      17       1       1      18      17       1       1      18
      17       1       1      18      17       1       1      18      17       1
       1      18      17       1       1      18      17       1       1      18
      17       1       1      18      17       1       1      18      17       1
       1      18      17       1       1      18      17       1       1      18
      17       1       1      18      17       1       1      18      17       1
       1      18      17       1       1      18      17       1       1      18
      17       1       1      18      17       1       1      18      17       1
       1      18      17       1       1      18      17       1       1      18
      17       1       1      18      17       1       1      18      17       1
       1      18      17       1       1      18      17       1       1      18
      17       1       1      18      17       1       1      18      17       1
       1      18      17       1       1      18      17       1       1      18
      17       1       1      18      17       1       1      18      17       1
       1      18      17       1       1      18      17       1       1      18
      17       1       1      18      17       1       1      18      17       1
       1      18      17       1       1      18      17       1       1      18
      17       1       1      18      17       1       1      18      17       1
       1      18      17       1       1      18      17       1       1      18
      17       1       1      18      17       1       1      18      17       1
       1      18      17       1       1      18      17       1       1      18
      17       1       1      18      17       1       1      18      17       1
       1      18      17       1       1      18      17       1       1      18
      17       1       1      18      17       1       1      18      17       1
       1      18      17       1       1      18      17       1       1      18
      17       1       1      18      17       1       1      18      17       1
       1      18      17       1       1      18      17       1       1      18
      17       1       1      18      17       1       1      18      17       1
       1      18      17       1       1      18      17       1       1      18
      17       1       1      18      17       1       1      18      17       1
       1      18      17       1       1      18      17       1       1      18
      17       1       1      18      17       1       1      18      17       1
       1      18      17       1       1      18      17       1       1      18
      17       1       1      18      17       1       1      18      17       1
       1      18      17       1       1      18      17       1       1      18
      17       1       1      18      17       1       1      18      17       1
       1      18      17       1       1      18      17       1       1      18
      17       1       1      18      17       1       1      18      17       1
       1      18      17       1       1      18      17       1       1      18
      17       1       1      18      17       1       1      18      17       1
       1      18      17       1       1      18      17       1       1      18
      17       1       1      18      17       1       1      18      17       1
       1      18      17       1       1      18      17       1       1      18
      17       1       1      18      17       1       1      18      17       1
       1      18      17       1       1      18      17       1       1      18
      17       1       1      18      17       1       1      18      17       1
       1      18      17       1       1      18      17       1       1      18
      17       1       1      18      17       1       1      18      17       1
       1      18      17       1       1      18      17       1       1      18
      17       1       1      18      17       1       1      18      17       1
       1      18      17       1       1      18      17       1       1      18
      17       1       1      18      17       1       1      18      17       1
       1      18      17       1       1      18      17       1       1      18
      17       1       1      18      17       1       1      18      17       1
       1      18      17       1       1      18      17       1       1      18
      17       1       1      18      17       1       1      18      17       1
       1      18      17       1       1      18      17       1       1      18
      17       1       1      18      17       1       1      18      17       1
       1      18      17       1       1      18      17       1       1      18
      17       1       1      18      17       1       1      18      17       1
       1      18      17       1       1      18      17       1       1      18
      17       1       1      18      17       1       1      18      17       1
       1      18      17       1       1      18      17       1       1      18
      17       1       1      18      17       1       1      18      17       1
       1      18      17       1       1      18      17       1       1      18
      17       1       1      18      17       1       1      18      17       1
       1      18      17       1       1      18      17       1       1      18
      17       1       1      18      17       1       1      18      17       1
       1      18      17       1       1      18      17       1       1      18
      17       1       1      18      17       1       1      18      17       1
       1      18      17       1       1      18      17       1       1      18
      17       1       1      18      17       1       1      18      17       1
       1      18      17       1       1      18      17       1       1      18
      17       1       1      18      17       1       1      18      17       1
       1      18      17       1       1      18      17       1       1      18
      17       1       1      18      17       1       1      18      17       1
       1      18      17       1       1      18      17       1       1      18
      17       1       1      18      17       1       1      18      17       1
       1      18      17       1       1      18      17       1       1      18
      17       1       1      18      17       1       1      18      17       1
       1      18      17       1       1      18      17       1       1      18
      17       1       1      18      17       1       1      18      17       1
       1      18      17       1       1      18      17       1       1      18
      17       1       1      18      17       1       1      18      17       1
       1      18      17       1       1      18      17       1       1      18
      17       1       1      18      17       1       1      18      17       1
       1      18      17       1       1      18      17       1       1      18
      17       1       1      18      17       1       1      18      17       1
       1      18      17       1       1      18      17       1       1      18
      17       1       1      18      17       1       1      18      17       1
       1      18      17       1       1      18      17       1       1      18
      17       1       1      18      17       1       1      18      17       1
       1      18      17       1       1      18      17       1       1      18
      17       1       1      18      17       1       1      18      17       1
       1      18      17       1       1      18      17       1       1      18
      17       1       1      18      17       1       1      18      17       1
       1      18      17       1       1      18      17       1       1      18
      17       1       1      18      17       1       1      18      17       1
       1      18      17       1       1      18      17       1       1      18
      17       1       1      18      17       1       1      18      17       1
       1      18      17       1       1      18      17       1       1      18
      17       1       1      18      17       1       1      18      17       1
       1      18      17       1       1      18      17       1       1      18
      17       1       1      18      17       1       1      18      17       1
       1      18      17       1       1      18      17       1       1      18
      17       1       1      18      17       1       1      18      17       1
       1      18      17       1       1      18      17       1       1      18
      17       1       1      18      17       1       1      18      17       1
       1      18      17       1       1      18      17       1       1      18
      17       1       1      18      17       1       1      18      17       1
       1      18      17       1       1      18      17       1       1      18
      17       1       1      18      17       1       1      18      17       1
       1      18      17       1       1      18      17       1       1      18
      17       1       1      18      17       1       1      18      17       1
       1      18      17       1       1      18      17       1       1      18
      17       1       1      18      17       1       1      18      17       1
       1      18      17       1       1      18      17       1       1      18
      17       1       1      18      17       1       1      18      17       1
       1      18      17       1       1      18      17       1       1      18
      17       1       1      18      17       1       1      18      17       1
       1      18      17       1       1      18      17       1       1      18
      17       1       1      18      17       1       1      18      17       1
       1      18      17       1       1      18      17       1       1      18
      17       1       1      18      17       1       1      18      17       1
       1      18      17       1       1      18      17       1       1      18
      17       1       1      18      17       1       1      18      17       1
       1      18      17       1       1      18      17       1       1      18
      17       1       1      18      17       1       1      18      17       1
       1      18      17       1       1      18      17       1       1      18
      17       1       1      18      17       1       1      18      17       1
       1      18      17       1       1      18      17       1       1      18
      17       1       1      18      17       1       1      18      17       1
       1      18      17       1       1      18      17       1       1      18
      17       1       1      18      17       1       1      18      17       1
       1      18      17       1       1      18      17       1       1      18
      17       1       1      18      17       1       1      18      17       1
       1      18      17       1       1      18      17       1       1      18
      17       1       1      18      17       1       1      18      17       1
       1      18      17       1       1      18      17       1       1      18
      17       1       1      18      17       1       1      18      17       1
       1      18      17       1       1      18      17       1       1      18
      17       1       1      18      17       1       1      18      17       1
       1      18      17       1       1      18      17       1       1      18
      17       1       1      18      17       1       1      18      17       1
       1      18      17       1       1      18      17       1       1      18
      17       1       1      18      17       1       1      18      17       1
       1      18      17       1       1      18      17       1       1      18
      17       1       1      18      17       1       1      18      17       1
       1      18      17       1       1      18      17       1       1      18
      17       1       1      18      17       1       1      18      17       1
       1      18      17       1       1      18      17       1       1      18
      17       1       1      18      17       1       1      18      17       1
       1      18      17       1       1      18      17       1       1      18
      17       1       1      18      17       1       1      18      17       1
       1      18      17       1       1      18      17       1       1      18
      17       1       1      18      17       1       1      18      17       1
       1      18      17       1       1      18      17       1       1      18
      17       1       1      18      17       1       1      18      17       1
       1      18      17       1       1      18      17       1       1      18
      17       1       1      18      17       1       1      18      17       1
       1      18      17       1       1      18      17       1       1      18
      17       1       1      18      17       1       1      18      17       1
       1      18      17       1       1      18      17       1       1      18
      17       1       1      18      17       1       1      18      17       1
       1      18      17       1       1      18      17       1       1      18
      17       1       1      18      17       1       1      18      17       1
       1      18      17       1       1      18      17       1       1      18
      17       1       1      18      17       1       1      18      17       1
       1      18      17       1       1      18      17       1       1      18
      17       1       1      18      17       1       1      18      17       1
       1      18      17       1       1      18      17       1       1      18
      17       1       1      18      17       1       1      18      17       1
       1      18      17       1       1      18      17       1       1      18
      17       1       1      18      17       1       1      18      17       1
       1      18      17       1       1      18      17       1       1      18
      17       1       1      18      17       1       1      18      17       1
       1      18      17       1       1      18      17       1       1      18
      17       1       1      18      17       1       1      18      17       1
       1      18      17       1       1      18      17       1       1      18
      17       1       1      18      17       1       1      18      17       1
       1      18      17       1       1      18      17       1       1      18
      17       1       1      18      17       1       1      18      17       1
       1      18      17       1       1      18      17       1       1      18
      17       1       1      18      17       1       1      18      17       1
       1      18      17       1       1      18      17       1       1      18
      17       1       1      18      17       1       1      18      17       1
       1      18      17       1       1      18      17       1       1      18
      17       1       1      18      17       1       1      18      17       1
       1      18      17       1       1      18      17       1       1      18
      17       1       1      18      17       1       1      18      17       1
       1      18      17       1       1      18      17       1       1      18
      17       1       1      18      17       1       1      18      17       1
       1      18      17       1       1      18      17       1       1      18
      17       1       1      18      17       1       1      18      17       1
       1      18      17       1       1      18      17       1       1      18
      17       1       1      18      17       1       1      18      17       1
       1      18      17       1       1      18      17       1       1      18
      17       1       1      18      17       1       1      18      17       1
       1      18      17       1       1      18      17       1       1      18
      17       1       1      18      17       1       1      18      17       1
       1      18      17       1       1      18      17       1       1      18
      17       1       1      18      17       1       1      18      17       1
       1      18      17       1       1      18      17       1       1      18
      17       1       1      18      17       1       1      18      17       1
       1      18      17       1       1      18      17       1       1      18
      17       1       1      18      17       1       1      18      17       1
       1      18      17       1       1      18      17       1       1      18
      17       1       1      18      17       1       1      18      17       1
       1      18      17       1       1      18      17       1       1      18
      17       1       1      18      17       1       1      18      17       1
       1      18      17       1       1      18      17       1       1      18
      17       1       1      18      17       1       1      18      17       1
       1      18      17       1       1      18      17       1       1      18
      17       1       1      18      17       1       1      18      17       1
       1      18      17       1       1      18      17       1       1      18
      17       1       1      18      17       1       1      18      17       1
       1      18      17       1       1      18      17       1       1      18
      17       1       1      18      17       1       1      18      17       1
       1      18      17       1       1      18      17       1       1      18
      17       1       1      18      17       1       1      18      17       1
       1      18      17       1       1      18      17       1       1      18
      17       1       1      18      17       1       1      18      17       1
       1      18      17       1       1      18      17       1       1      18
      17       1       1      18      17       1       1      18      17       1
       1      18      17       1       1      18      17       1       1      18
      17       1       1      18      17       1       1      18      17       1
       1      18      17       1       1      18      17       1       1      18
      17       1       1      18      17       1       1      18      17       1
       1      18      17       1       1      18      17       1       1      18
      17       1       1      18      17       1       1      18      17       1
       1      18      17       1       1      18      17       1       1      18
      17       1       1      18      17       1       1      18      17       1
       1      18      17       1       1      18      17       1       1      18
      17       1       1      18      17       1       1      18      17       1
       1      18      17       1       1      18      17       1       1      18
      17       1       1      18      17       1       1      18      17       1
       1      18      17       1       1      18      17       1       1      18
      17       1       1      18      17       1       1      18      17       1
       1      18      17       1       1      18      17       1       1      18
      17       1       1      18      17       1       1      18      17       1
       1      18      17       1       1      18      17       1       1      18
      17       1       1      18      17       1       1      18      17       1
       1      18      17       1       1      18      17       1       1      18
      17       1       1      18      17       1       1      18      17       1
       1      18      17       1       1      18      17       1       1      18
      17       1       1      18      17       1       1      18      17       1
       1      18      17       1       1      18      17       1       1      18
      17       1       1      18      17       1       1      18      17       1
       1      18      17       1       1      18      17       1       1      18
      17       1       1      18      17       1       1      18      17       1
       1      18      17       1       1      18      17       1       1      18
      17       1       1      18      17       1       1      18      17       1
       1      18      17       1       1      18      17       1       1      18
      17       1       1      18      17       1       1      18      17       1
       1      18      17       1       1      18      17       1       1      18
      17       1       1      18      17       1       1      18      17       1
       1      18      17       1       1      18      17       1       1      18
      17       1       1      18      17       1       1      18      17       1
       1      18      17       1       1      18      17       1       1      18
      17       1       1      18      17       1       1      18      17       1
       1      18      17       1       1      18      17       1       1      18
      17       1       1      18      17       1       1      18      17       1
       1      18      17       1       1      18      17       1       1      18
      17       1       1      18      17       1       1      18      17       1
       1      18      17       1       1      18      17       1       1      18
      17       1       1      18      17       1       1      18      17       1
       1      18      17       1       1      18      17       1       1      18
      17       1       1      18      17       1       1      18      17       1
       1      18      17       1       1      18      17       1       1      18
      17       1       1      18      17       1       1      18      17       1
       1      18      17       1       1      18      17       1       1      18
      17       1       1      18      17       1       1      18      17       1
       1      18      17       1       1      18      17       1       1      18
      17       1       1      18      17       1       1      18      17       1
       1      18      17       1       1      18      17       1       1      18
      17       1       1      18      17       1       1      18      17       1
       1      18      17       1       1      18      17       1       1      18
      17       1       1      18      17       1       1      18      17       1
       1      18      17       1       1      18      17       1       1      18
      17       1       1      18      17       1       1      18      17       1
       1      18      17       1       1      18      17       1       1      18
      17       1       1      18      17       1       1      18      17       1
       1      18      17       1       1      18      17       1       1      18
      17       1       1      18      17       1       1      18      17       1
       1      18      17       1       1      18      17       1       1      18
      17       1       1      18      17       1       1      18      17       1
       1      18      17       1       1      18      17       1       1      18
      17       1       1      18      17       1       1      18      17       1
       1      18      17       1       1      18      17       1       1      18
      17       1       1      18      17       1       1      18      17       1
       1      18      17       1       1      18      17       1       1      18
      17       1       1      18      17       1       1      18      17       1
       1      18      17       1       1      18      17       1       1      18
      17       1       1      18      17       1       1      18      17       1
       1      18      17       1       1      18      17       1       1      18
      17       1       1      18      17       1       1      18      17       1
       1      18      17       1       1      18      17       1       1      18
      17       1       1      18      17       1       1      18      17       1
       1      18      17       1       1      18      17       1       1      18
      17       1       1      18      17       1       1      18      17       1
       1      18      17       1       1      18      17       1       1      18
      17       1       1      18      17       1       1      18      17       1
       1      18      17       1       1      18      17       1       1      18
      17       1       1      18      17       1       1      18      17       1
       1      18      17       1       1      18      17       1       1      18
      17       1       1      18      17       1       1      18      17       1
       1      18      17       1       1      18      17       1       1      18
      17       1       1      18      17       1       1      18      17       1
       1      18      17       1       1      18      17       1       1      18
      17       1       1      18      17       1       1      18      17       1
       1      18      17       1       1      18      17       1       1      18
      17       1       1      18      17       1       1      18      17       1
       1      18      17       1       1      18      17       1       1      18
      17       1       1      18      17       1       1      18      17       1
       1      18      17       1       1      18      17       1       1      18
      17       1       1      18      17       1       1      18      17       1
       1      18      17       1       1      18      17       1       1      18
      17       1       1      18      17       1       1      18      17       1
       1      18      17       1       1      18      17       1       1      18
      17       1       1      18      17       1       1      18      17       1
       1      18      17       1       1      18      17       1       1      18
      17       1       1      18      17       1       1      18      17       1
       1      18      17       1       1      18      17       1       1      18
      17       1       1      18      17       1       1      18      17       1
       1      18      17       1       1      18      17       1       1      18
      17       1       1      18      17       1       1      18      17       1
       1      18      17       1       1      18      17       1       1      18
      17       1       1      18      17       1       1      18      17       1
       1      18      17       1       1      18      17       1       1      18
      17       1       1      18      17       1       1      18      17       1
       1      18      17       1       1      18      17       1       1      18
      17       1       1      18      17       1       1      18      17       1
       1      18      17       1       1      18      17       1       1      18
      17       1       1      18      17       1       1      18      17       1
       1      18      17       1       1      18      17       1       1      18
      17       1       1      18      17       1       1      18      17       1
       1      18      17       1       1      18      17       1       1      18
      17       1       1      18      17       1       1      18      17       1
       1      18      17       1       1      18      17       1       1      18
      17       1       1      18      17       1       1      18      17       1
       1      18      17       1       1      18      17       1       1      18
      17       1       1      18      17       1       1      18      17       1
       1      18      17       1       1      18      17       1       1      18
      17       1       1      18      17       1       1      18      17       1
       1      18      17       1       1      18      17       1       1      18
      17       1       1      18      17       1       1      18      17       1
       1      18      17       1       1      18      17       1       1      18
      17       1       1      18      17       1       1      18      17       1
       1      18      17       1       1      18      17       1       1      18
      17       1       1      18      17       1       1      18      17       1
       1      18      17       1       1      18      17       1       1      18
      17       1       1      18      17       1       1      18      17       1
       1      18      17       1       1      18      17       1       1      18
      17       1       1      18      17       1       1      18      17       1
       1      18      17       1       1      18      17       1       1      18
      17       1       1      18      17       1       1      18      17       1
       1      18      17       1       1      18      17       1       1      18
      17       1       1      18      17       1       1      18      17       1
       1      18      17       1       1      18      17       1       1      18
      17       1       1      18      17       1       1      18      17       1
       1      18      17       1       1      18      17       1       1      18
      17       1       1      18
%FLAG NUMBER_EXCLUDED_ATOMS                                                     
%FORMAT(10I8)                                                                   
       5       7      10       5       4      12       6      11      15       7
      12       7       3       6       8       8       5       2       1       4
       3       2       1       1      10       5       5       3       2       1
       5       7       3       2       7      10       5       4      12       6
      11      15       7      12       7       3       6       7       7       4
       7       3       5       4       2       1       1       1      10       5
       5       3       2       1       5       7       3       2       7      10
       5       4      12       6      11      15       7      12       9       4
       7       3       6       4       2       1       2       2       1      10
       5       5       3       2       1       5       7       3       2       7
      10       5       4      12       6      11      15       7      12       7
       3       6       7       7       4       7       3       5       4       2
       1       1       1      10       5       5       3       2       1       5
       7       3       2       7      10       5       4      12       6      11
      15       7      12       9       4       7       3       6       4       2
       1       2       2       1      10       5       5       3       2       1
       5       7       3       2       7      10       5       4      12       6
      11      15       7      13       9       4       6       3       5       3
       3       2       2       1      10       5       5       3       2       1
       5       7       3       2       7      10       5       4      12       6
      11      15       7      13       9       4       6       3       5       3
       3       2       2       1      10       5       5       3       2       1
       5       7       3       2       7      10       5       4      12       6
      11      15       7      13       9       4       6       3       5       3
       3       2       2       1      10       5       5       3       2       1
       5       7       3       2       7      10       5       4      12       6
      11      15       7      12       9       4       7       3       6       4
       2       1       2       2       1      10       5       5       3       2
       1       5       7       3       2       7      10       5       4      12
       6      11      15       7      12       7       3       6       7       7
       4       7       3       5       4       2       1       1       1      10
       5       5       3       2       1       5       7       3       2       7
      10       5       4      12       6      11      15       7      12       7
       3       6       8       8       5       2       1       4       3       2
       1       1      10       5       5       3       2       1       5       7
       3       2       7      10       5       4      12       6      11      15
       7      12       7       3       6       7       7       4       7       3
       5       4       2       1       1       1      10       5       5       3
       2       1       5       7       3       2       7      10       5       4
      12       6      11      15       7      12       9       4       7       3
       6       4       2       1       2       2       1      10       5       5
       3       2       1       5       7       3       2       7      10       5
       4      12       6      11      15       7      12       7       3       6
       7       7       4       7       3       5       4       2       1       1
       1      10       5       5       3       2       1       5       7       3
       2       7      10       5       4      12       6      11      15       7
      12       9       4       7       3       6       4       2       1       2
       2       1      10       5       5       3       2       1       5       7
       3       2       7      10       5       4      12       6      11      15
       7      13       9       4       6       3       5       3       3       2
       2       1       7       5       5       3       2       1       1       1
       1       1       1       1       1       1       1       1       1       1
       1       1       1       1       1       1       1       1       1       1
       3       2       1       1       3       2       1       1       3       2
       1       1       3       2       1       1       3       2       1       1
       3       2       1       1       3       2       1       1       3       2
       1       1       3       2       1       1       3       2       1       1
       3       2       1       1       3       2       1       1       3       2
       1       1       3       2       1       1       3       2       1       1
       3       2       1       1       3       2       1       1       3       2
       1       1       3       2       1       1       3       2       1       1
       3       2       1       1       3       2       1       1       3       2
       1       1       3       2       1       1       3       2       1       1
       3       2       1       1       3       2       1       1       3       2
       1       1       3       2       1       1       3       2       1       1
       3       2       1       1       3       2       1       1       3       2
       1       1       3       2       1       1       3       2       1       1
       3       2       1       1       3       2       1       1       3       2
       1       1       3       2       1       1       3       2       1       1
       3       2       1       1       3       2       1       1       3       2
       1       1       3       2       1       1       3       2       1       1
       3       2       1       1       3       2       1       1       3       2
       1       1       3       2       1       1       3       2       1       1
       3       2       1       1       3       2       1       1       3       2
       1       1       3       2       1       1       3       2       1       1
       3       2       1       1       3       2       1       1       3       2
       1       1       3       2       1       1       3       2       1       1
       3       2       1       1       3       2       1       1       3       2
       1       1       3       2       1       1       3       2       1       1
       3       2       1       1       3       2       1       1       3       2
       1       1       3       2       1       1       3       2       1       1
       3       2       1       1       3       2       1       1       3       2
       1       1       3       2       1       1       3       2       1       1
       3       2       1       1       3       2       1       1       3       2
       1       1       3       2       1       1       3       2       1       1
       3       2       1       1       3       2       1       1       3       2
       1       1       3       2       1       1       3       2       1       1
       3       2       1       1       3       2       1       1       3       2
       1       1       3       2       1       1       3       2       1       1
       3       2       1       1       3       2       1       1       3       2
       1       1       3       2       1       1       3       2       1       1
       3       2       1       1       3       2       1       1       3       2
       1       1       3       2       1       1       3       2       1       1
       3       2       1       1       3       2       1       1       3       2
       1       1       3       2       1       1       3       2       1       1
       3       2       1       1       3       2       1       1       3       2
       1       1       3       2       1       1       3       2       1       1
       3       2       1       1       3       2       1       1       3       2
       1       1       3       2       1       1       3       2       1       1
       3       2       1       1       3       2       1       1       3       2
       1       1       3       2       1       1       3       2       1       1
       3       2       1       1       3       2       1       1       3       2
       1       1       3       2       1       1       3       2       1       1
       3       2       1       1       3       2       1       1       3       2
       1       1       3       2       1       1       3       2       1       1
       3       2       1       1       3       2       1       1       3       2
       1       1       3       2       1       1       3       2       1       1
       3       2       1       1       3       2       1       1       3       2
       1       1       3       2       1       1       3       2       1       1
       3       2       1       1       3       2       1       1       3       2
       1       1       3       2       1       1       3       2       1       1
       3       2       1       1       3       2       1       1       3       2
       1       1       3       2       1       1       3       2       1       1
       3       2       1       1       3       2       1       1       3       2
       1       1       3       2       1       1       3       2       1       1
       3       2       1       1       3       2       1       1       3       2
       1       1       3       2       1       1       3       2       1       1
       3       2       1       1       3       2       1       1       3       2
       1       1       3       2       1       1       3       2       1       1
       3       2       1       1       3       2       1       1       3       2
       1       1       3       2       1       1       3       2       1       1
       3       2       1       1       3       2       1       1       3       2
       1       1       3       2       1       1       3       2       1       1
       3       2       1       1       3       2       1       1       3       2
       1       1       3       2       1       1       3       2       1       1
       3       2       1       1       3       2       1       1       3       2
       1       1       3       2       1       1       3       2       1       1
       3       2       1       1       3       2       1       1       3       2
       1       1       3       2       1       1       3       2       1       1
       3       2       1       1       3       2       1       1       3       2
       1       1       3       2       1       1       3       2       1       1
       3       2       1       1       3       2       1       1       3       2
       1       1       3       2       1       1       3       2       1       1
       3       2       1       1       3       2       1       1       3       2
       1       1       3       2       1       1       3       2       1       1
       3       2       1       1       3       2       1       1       3       2
       1       1       3       2       1       1       3       2       1       1
       3       2       1       1       3       2       1       1       3       2
       1       1       3       2       1       1       3       2       1       1
       3       2       1       1       3       2       1       1       3       2
       1       1       3       2       1       1       3       2       1       1
       3       2       1       1       3       2       1       1       3       2
       1       1       3       2       1       1       3       2       1       1
       3       2       1       1       3       2       1       1       3       2
       1       1       3       2       1       1       3       2       1       1
       3       2       1       1       3       2       1       1       3       2
       1       1       3       2       1       1       3       2       1       1
       3       2       1       1       3       2       1       1       3       2
       1       1       3       2       1       1       3       2       1       1
       3       2       1       1       3       2       1       1       3       2
       1       1       3       2       1       1       3       2       1       1
       3       2       1       1       3       2       1       1       3       2
       1       1       3       2       1       1       3       2       1       1
       3       2       1       1       3       2       1       1       3       2
       1       1       3       2       1       1       3       2       1       1
       3       2       1       1       3       2       1       1       3       2
       1       1       3       2       1       1       3       2       1       1
       3       2       1       1       3       2       1       1       3       2
       1       1       3       2       1       1       3       2       1       1
       3       2       1       1       3       2       1       1       3       2
       1       1       3       2       1       1       3       2       1       1
       3       2       1       1       3       2       1       1       3       2
       1       1       3       2       1       1       3       2       1       1
       3       2       1       1       3       2       1       1       3       2
       1       1       3       2       1       1       3       2       1       1
       3       2       1       1       3       2       1       1       3       2
       1       1       3       2       1       1       3       2       1       1
       3       2       1       1       3       2       1       1       3       2
       1       1       3       2       1       1       3       2       1       1
       3       2       1       1       3       2       1       1       3       2
       1       1       3       2       1       1       3       2       1       1
       3       2       1       1       3       2       1       1       3       2
       1       1       3       2       1       1       3       2       1       1
       3       2       1       1       3       2       1       1       3       2
       1       1       3       2       1       1       3       2       1       1
       3       2       1       1       3       2       1       1       3       2
       1       1       3       2       1       1       3       2       1       1
       3       2       1       1       3       2       1       1       3       2
       1       1       3       2       1       1       3       2       1       1
       3       2       1       1       3       2       1       1       3       2
       1       1       3       2       1       1       3       2       1       1
       3       2       1       1       3       2       1       1       3       2
       1       1       3       2       1       1       3       2       1       1
       3       2       1       1       3       2       1       1       3       2
       1       1       3       2       1       1       3       2       1       1
       3       2       1       1       3       2       1       1       3       2
       1       1       3       2       1       1       3       2       1       1
       3       2       1       1       3       2       1       1       3       2
       1       1       3       2       1       1       3       2       1       1
       3       2       1       1       3       2       1       1       3       2
       1       1       3       2       1       1       3       2       1       1
       3       2       1       1       3       2       1       1       3       2
       1       1       3       2       1       1       3       2       1       1
       3       2       1       1       3       2       1       1       3       2
       1       1       3       2       1       1       3       2       1       1
       3       2       1       1       3       2       1       1       3       2
       1       1       3       2       1       1       3       2       1       1
       3       2       1       1       3       2       1       1       3       2
       1       1       3       2       1       1       3       2       1       1
       3       2       1       1       3       2       1       1       3       2
       1       1       3       2       1       1       3       2       1       1
       3       2       1       1       3       2       1       1       3       2
       1       1       3       2       1       1       3       2       1       1
       3       2       1       1       3       2       1       1       3       2
       1       1       3       2       1       1       3       2       1       1
       3       2       1       1       3       2       1       1       3       2
       1       1       3       2       1       1       3       2       1       1
       3       2       1       1       3       2       1       1       3       2
       1       1       3       2       1       1       3       2       1       1
       3       2       1       1       3       2       1       1       3       2
       1       1       3       2       1       1       3       2       1       1
       3       2       1       1       3       2       1       1       3       2
       1       1       3       2       1       1       3       2       1       1
       3       2       1       1       3       2       1       1       3       2
       1       1       3       2       1       1       3       2       1       1
       3       2       1       1       3       2       1       1       3       2
       1       1       3       2       1       1       3       2       1       1
       3       2       1       1       3       2       1       1       3       2
       1       1       3       2       1       1       3       2       1       1
       3       2       1       1       3       2       1       1       3       2
       1       1       3       2       1       1       3       2       1       1
       3       2       1       1       3       2       1       1       3       2
       1       1       3       2       1       1       3       2       1       1
       3       2       1       1       3       2       1       1       3       2
       1       1       3       2       1       1       3       2       1       1
       3       2       1       1       3       2       1       1       3       2
       1       1       3       2       1       1       3       2       1       1
       3       2       1       1       3       2       1       1       3       2
       1       1       3       2       1       1       3       2       1       1
       3       2       1       1       3       2       1       1       3       2
       1       1       3       2       1       1       3       2       1       1
       3       2       1       1       3       2       1       1       3       2
       1       1       3       2       1       1       3       2       1       1
       3       2       1       1       3       2       1       1       3       2
       1       1       3       2       1       1       3       2       1       1
       3       2       1       1       3       2       1       1       3       2
       1       1       3       2       1       1       3       2       1       1
       3       2       1       1       3       2       1       1       3       2
       1       1       3       2       1       1       3       2       1       1
       3       2       1       1       3       2       1       1       3       2
       1       1       3       2       1       1       3       2       1       1
       3       2       1       1       3       2       1       1       3       2
       1       1       3       2       1       1       3       2       1       1
       3       2       1       1       3       2       1       1       3       2
       1       1       3       2       1       1       3       2       1       1
       3       2       1       1       3       2       1       1       3       2
       1       1       3       2       1       1       3       2       1       1
       3       2       1       1       3       2       1       1       3       2
       1       1       3       2       1       1       3       2       1       1
       3       2       1       1       3       2       1       1       3       2
       1       1       3       2       1       1       3       2       1       1
       3       2       1       1       3       2       1       1       3       2
       1       1       3       2       1       1       3       2       1       1
       3       2       1       1       3       2       1       1       3       2
       1       1       3       2       1       1       3       2       1       1
       3       2       1       1       3       2       1       1       3       2
       1       1       3       2       1       1       3       2       1       1
       3       2       1       1       3       2       1       1       3       2
       1       1       3       2       1       1       3       2       1       1
       3       2       1       1       3       2       1       1       3       2
       1       1       3       2       1       1       3       2       1       1
       3       2       1       1       3       2       1       1       3       2
       1       1       3       2       1       1       3       2       1       1
       3       2       1       1       3       2       1       1       3       2
       1       1       3       2       1       1       3       2       1       1
       3       2       1       1       3       2       1       1       3       2
       1       1       3       2       1       1       3       2       1       1
       3       2       1       1       3       2       1       1       3       2
       1       1       3       2       1       1       3       2       1       1
       3       2       1       1       3       2       1       1       3       2
       1       1       3       2       1       1       3       2       1       1
       3       2       1       1       3       2       1       1       3       2
       1       1       3       2       1       1       3       2       1       1
       3       2       1       1       3       2       1       1       3       2
       1       1       3       2       1       1       3       2       1       1
       3       2       1       1       3       2       1       1       3       2
       1       1       3       2       1       1       3       2       1       1
       3       2       1       1       3       2       1       1       3       2
       1       1       3       2       1       1       3       2       1       1
       3       2       1       1       3       2       1       1       3       2
       1       1       3       2       1       1       3       2       1       1
       3       2       1       1       3       2       1       1       3       2
       1       1       3       2       1       1       3       2       1       1
       3       2       1       1       3       2       1       1       3       2
       1       1       3       2       1       1       3       2       1       1
       3       2       1       1       3       2       1       1       3       2
       1       1       3       2       1       1       3       2       1       1
       3       2       1       1       3       2       1       1       3       2
       1       1       3       2       1       1       3       2       1       1
       3       2       1       1       3       2       1       1       3       2
       1       1       3       2       1       1       3       2       1       1
       3       2       1       1       3       2       1       1       3       2
       1       1       3       2       1       1       3       2       1       1
       3       2       1       1       3       2       1       1       3       2
       1       1       3       2       1       1       3       2       1       1
       3       2       1       1       3       2       1       1       3       2
       1       1       3       2       1       1       3       2       1       1
       3       2       1       1       3       2       1       1       3       2
       1       1       3       2       1       1       3       2       1       1
       3       2       1       1       3       2       1       1       3       2
       1       1       3       2       1       1       3       2       1       1
       3       2       1       1       3       2       1       1       3       2
       1       1       3       2       1       1       3       2       1       1
       3       2       1       1       3       2       1       1       3       2
       1       1       3       2       1       1       3       2       1       1
       3       2       1       1       3       2       1       1       3       2
       1       1       3       2       1       1       3       2       1       1
       3       2       1       1       3       2       1       1       3       2
       1       1       3       2       1       1       3       2       1       1
       3       2       1       1       3       2       1       1       3       2
       1       1       3       2       1       1       3       2       1       1
       3       2       1       1       3       2       1       1       3       2
       1       1       3       2       1       1       3       2       1       1
       3       2       1       1       3       2       1       1       3       2
       1       1       3       2       1       1       3       2       1       1
       3       2       1       1       3       2       1       1       3       2
       1       1       3       2       1       1       3       2       1       1
       3       2       1       1       3       2       1       1       3       2
       1       1       3       2       1       1       3       2       1       1
       3       2       1       1       3       2       1       1       3       2
       1       1       3       2       1       1       3       2       1       1
       3       2       1       1       3       2       1       1       3       2
       1       1       3       2       1       1       3       2       1       1
       3       2       1       1       3       2       1       1       3       2
       1       1       3       2       1       1       3       2       1       1
       3       2       1       1       3       2       1       1       3       2
       1       1       3       2       1       1       3       2       1       1
       3       2       1       1       3       2       1       1       3       2
       1       1       3       2       1       1       3       2       1       1
       3       2       1       1       3       2       1       1       3       2
       1       1       3       2       1       1       3       2       1       1
       3       2       1       1       3       2       1       1       3       2
       1       1       3       2       1       1       3       2       1       1
       3       2       1       1       3       2       1       1       3       2
       1       1       3       2       1       1       3       2       1       1
       3       2       1       1       3       2       1       1       3       2
       1       1       3       2       1       1       3       2       1       1
       3       2       1       1       3       2       1       1       3       2
       1       1       3       2       1       1       3       2       1       1
       3       2       1       1       3       2       1       1       3       2
       1       1       3       2       1       1       3       2       1       1
       3       2       1       1       3       2       1       1       3       2
       1       1       3       2       1       1       3       2       1       1
       3       2       1       1       3       2       1       1       3       2
       1       1       3       2       1       1       3       2       1       1
       3       2       1       1       3       2       1       1       3       2
       1       1       3       2       1       1       3       2       1       1
       3       2       1       1       3       2       1       1       3       2
       1       1       3       2       1       1       3       2       1       1
       3       2       1       1       3       2       1       1       3       2
       1       1       3       2       1       1       3       2       1       1
       3       2       1       1       3       2       1       1       3       2
       1       1       3       2       1       1       3       2       1       1
       3       2       1       1       3       2       1       1       3       2
       1       1       3       2       1       1       3       2       1       1
       3       2       1       1       3       2       1       1       3       2
       1       1       3       2       1       1       3       2       1       1
       3       2       1       1       3       2       1       1       3       2
       1       1       3       2       1       1       3       2       1       1
       3       2       1       1       3       2       1       1       3       2
       1       1       3       2       1       1       3       2       1       1
       3       2       1       1       3       2       1       1       3       2
       1       1       3       2       1       1       3       2       1       1
       3       2       1       1       3       2       1       1       3       2
       1       1       3       2       1       1       3       2       1       1
       3       2       1       1       3       2       1       1       3       2
       1       1       3       2       1       1       3       2       1       1
       3       2       1       1       3       2       1       1       3       2
       1       1       3       2       1       1       3       2       1       1
       3       2       1       1       3       2       1       1       3       2
       1       1       3       2       1       1       3       2       1       1
       3       2       1       1       3       2       1       1       3       2
       1       1       3       2       1       1       3       2       1       1
       3       2       1       1       3       2       1       1       3       2
       1       1       3       2       1       1       3       2       1       1
       3       2       1       1       3       2       1       1       3       2
       1       1       3       2       1       1       3       2       1       1
       3       2       1       1       3       2       1       1       3       2
       1       1       3       2       1       1       3       2       1       1
       3       2       1       1       3       2       1       1       3       2
       1       1       3       2       1       1       3       2       1       1
       3       2       1       1       3       2       1       1       3       2
       1       1       3       2       1       1       3       2       1       1
       3       2       1       1       3       2       1       1       3       2
       1       1       3       2       1       1       3       2       1       1
       3       2       1       1       3       2       1       1       3       2
       1       1       3       2       1       1       3       2       1       1
       3       2       1       1       3       2       1       1       3       2
       1       1       3       2       1       1       3       2       1       1
       3       2       1       1       3       2       1       1       3       2
       1       1       3       2       1       1       3       2       1       1
       3       2       1       1       3       2       1       1       3       2
       1       1       3       2       1       1       3       2       1       1
       3       2       1       1       3       2       1       1       3       2
       1       1       3       2       1       1       3       2       1       1
       3       2       1       1       3       2       1       1       3       2
       1       1       3       2       1       1       3       2       1       1
       3       2       1       1       3       2       1       1       3       2
       1       1       3       2       1       1       3       2       1       1
       3       2       1       1       3       2       1       1       3       2
       1       1       3       2       1       1       3       2       1       1
       3       2       1       1       3       2       1       1       3       2
       1       1       3       2       1       1       3       2       1       1
       3       2       1       1       3       2       1       1       3       2
       1       1       3       2       1       1       3       2       1       1
       3       2       1       1       3       2       1       1       3       2
       1       1       3       2       1       1       3       2       1       1
       3       2       1       1       3       2       1       1       3       2
       1       1       3       2       1       1       3       2       1       1
       3       2       1       1       3       2       1       1       3       2
       1       1       3       2       1       1       3       2       1       1
       3       2       1       1       3       2       1       1       3       2
       1       1       3       2       1       1       3       2       1       1
       3       2       1       1       3       2       1       1       3       2
       1       1       3       2       1       1       3       2       1       1
       3       2       1       1       3       2       1       1       3       2
       1       1       3       2       1       1       3       2       1       1
       3       2       1       1       3       2       1       1       3       2
       1       1       3       2       1       1       3       2       1       1
       3       2       1       1       3       2       1       1       3       2
       1       1       3       2       1       1       3       2       1       1
       3       2       1       1       3       2       1       1       3       2
       1       1       3       2       1       1       3       2       1       1
       3       2       1       1       3       2       1       1       3       2
       1       1       3       2       1       1       3       2       1       1
       3       2       1       1       3       2       1       1       3       2
       1       1       3       2       1       1       3       2       1       1
       3       2       1       1       3       2       1       1       3       2
       1       1       3       2       1       1       3       2       1       1
       3       2       1       1       3       2       1       1       3       2
       1       1       3       2       1       1       3       2       1       1
       3       2       1       1       3       2       1       1       3       2
       1       1       3       2       1       1       3       2       1       1
       3       2       1       1       3       2       1       1       3       2
       1       1       3       2       1       1       3       2       1       1
       3       2       1       1       3       2       1       1       3       2
       1       1       3       2       1       1       3       2       1       1
       3       2       1       1       3       2       1       1       3       2
       1       1       3       2       1       1       3       2       1       1
       3       2       1       1       3       2       1       1       3       2
       1       1       3       2       1       1       3       2       1       1
       3       2       1       1       3       2       1       1       3       2
       1       1       3       2       1       1       3       2       1       1
       3       2       1       1       3       2       1       1       3       2
       1       1       3       2       1       1       3       2       1       1
       3       2       1       1       3       2       1       1       3       2
       1       1       3       2       1       1       3       2       1       1
       3       2       1       1       3       2       1       1       3       2
       1       1       3       2       1       1       3       2       1       1
       3       2       1       1       3       2       1       1       3       2
       1       1       3       2       1       1       3       2       1       1
       3       2       1       1       3       2       1       1       3       2
       1       1       3       2       1       1       3       2       1       1
       3       2       1       1       3       2       1       1       3       2
       1       1       3       2       1       1       3       2       1       1
       3       2       1       1       3       2       1       1       3       2
       1       1       3       2       1       1       3       2       1       1
       3       2       1       1       3       2       1       1       3       2
       1       1       3       2       1       1       3       2       1       1
       3       2       1       1       3       2       1       1       3       2
       1       1       3       2       1       1       3       2       1       1
       3       2       1       1       3       2       1       1       3       2
       1       1       3       2       1       1       3       2       1       1
       3       2       1       1       3       2       1       1       3       2
       1       1       3       2       1       1       3       2       1       1
       3       2       1       1       3       2       1       1       3       2
       1       1       3       2       1       1       3       2       1       1
       3       2       1       1       3       2       1       1       3       2
       1       1       3       2       1       1       3       2       1       1
       3       2       1       1       3       2       1       1       3       2
       1       1       3       2       1       1       3       2       1       1
       3       2       1       1       3       2       1       1       3       2
       1       1       3       2       1       1       3       2       1       1
       3       2       1       1       3       2       1       1       3       2
       1       1       3       2       1       1       3       2       1       1
       3       2       1       1       3       2       1       1       3       2
       1       1       3       2       1       1       3       2       1       1
       3       2       1       1       3       2       1       1       3       2
       1       1       3       2       1       1       3       2       1       1
       3       2       1       1       3       2       1       1       3       2
       1       1       3       2       1       1       3       2       1       1
       3       2       1       1       3       2       1       1       3       2
       1       1       3       2       1       1       3       2       1       1
       3       2       1       1       3       2       1       1       3       2
       1       1       3       2       1       1       3       2       1       1
       3       2       1       1       3       2       1       1       3       2
       1       1       3       2       1       1       3       2       1       1
       3       2       1       1       3       2       1       1       3       2
       1       1       3       2       1       1       3       2       1       1
       3       2       1       1       3       2       1       1       3       2
       1       1       3       2       1       1       3       2       1       1
       3       2       1       1       3       2       1       1       3       2
       1       1       3       2       1       1       3       2       1       1
       3       2       1       1       3       2       1       1       3       2
       1       1       3       2       1       1       3       2       1       1
       3       2       1       1       3       2       1       1       3       2
       1       1       3       2       1       1       3       2       1       1
       3       2       1       1       3       2       1       1       3       2
       1       1       3       2       1       1       3       2       1       1
       3       2       1       1       3       2       1       1       3       2
       1       1       3       2       1       1       3       2       1       1
       3       2       1       1       3       2       1       1       3       2
       1       1       3       2       1       1       3       2       1       1
       3       2       1       1       3       2       1       1       3       2
       1       1       3       2       1       1       3       2       1       1
       3       2       1       1       3       2       1       1       3       2
       1       1       3       2       1       1       3       2       1       1
       3       2       1       1       3       2       1       1       3       2
       1       1       3       2       1       1       3       2       1       1
       3       2       1       1       3       2       1       1       3       2
       1       1       3       2       1       1       3       2       1       1
       3       2       1       1       3       2       1       1       3       2
       1       1       3       2       1       1       3       2       1       1
       3       2       1       1       3       2       1       1       3       2
       1       1       3       2       1       1       3       2       1       1
       3       2       1       1       3       2       1       1       3       2
       1       1       3       2       1       1       3       2       1       1
       3       2       1       1       3       2       1       1       3       2
       1       1       3       2       1       1       3       2       1       1
       3       2       1       1       3       2       1       1       3       2
       1       1       3       2       1       1       3       2       1       1
       3       2       1       1       3       2       1       1       3       2
       1       1       3       2       1       1       3       2       1       1
       3       2       1       1       3       2       1       1       3       2
       1       1       3       2       1       1       3       2       1       1
       3       2       1       1       3       2       1       1       3       2
       1       1       3       2       1       1       3       2       1       1
       3       2       1       1       3       2       1       1       3       2
       1       1       3       2       1       1       3       2       1       1
       3       2       1       1       3       2       1       1       3       2
       1       1       3       2       1       1       3       2       1       1
       3       2       1       1       3       2       1       1       3       2
       1       1       3       2       1       1       3       2       1       1
       3       2       1       1       3       2       1       1       3       2
       1       1       3       2       1       1       3       2       1       1
       3       2       1       1       3       2       1       1       3       2
       1       1       3       2       1       1       3       2       1       1
       3       2       1       1       3       2       1       1       3       2
       1       1       3       2       1       1       3       2       1       1
       3       2       1       1       3       2       1       1       3       2
       1       1       3       2       1       1       3       2       1       1
       3       2       1       1       3       2       1       1       3       2
       1       1       3       2       1       1       3       2       1       1
       3       2       1       1       3       2       1       1       3       2
       1       1       3       2       1       1       3       2       1       1
       3       2       1       1       3       2       1       1       3       2
       1       1       3       2       1       1       3       2       1       1
       3       2       1       1       3       2       1       1       3       2
       1       1       3       2       1       1       3       2       1       1
       3       2       1       1       3       2       1       1       3       2
       1       1       3       2       1       1       3       2       1       1
       3       2       1       1       3       2       1       1       3       2
       1       1       3       2       1       1       3       2       1       1
       3       2       1       1       3       2       1       1       3       2
       1       1       3       2       1       1       3       2       1       1
       3       2       1       1       3       2       1       1       3       2
       1       1       3       2       1       1       3       2       1       1
       3       2       1       1       3       2       1       1       3       2
       1       1       3       2       1       1       3       2       1       1
       3       2       1       1       3       2       1       1       3       2
       1       1       3       2       1       1       3       2       1       1
       3       2       1       1       3       2       1       1       3       2
       1       1       3       2       1       1       3       2       1       1
       3       2       1       1       3       2       1       1       3       2
       1       1       3       2       1       1       3       2       1       1
       3       2       1       1       3       2       1       1       3       2
       1       1       3       2       1       1       3       2       1       1
       3       2       1       1       3       2       1       1       3       2
       1       1       3       2       1       1       3       2       1       1
       3       2       1       1       3       2       1       1       3       2
       1       1       3       2       1       1       3       2       1       1
       3       2       1       1       3       2       1       1       3       2
       1       1       3       2       1       1       3       2       1       1
       3       2       1       1       3       2       1       1       3       2
       1       1       3       2       1       1       3       2       1       1
       3       2       1       1       3       2       1       1       3       2
       1       1       3       2       1       1       3       2       1       1
       3       2       1       1       3       2       1       1       3       2
       1       1       3       2       1       1       3       2       1       1
       3       2       1       1       3       2       1       1       3       2
       1       1       3       2       1       1       3       2       1       1
       3       2       1       1       3       2       1       1       3       2
       1       1       3       2       1       1       3       2       1       1
       3       2       1       1       3       2       1       1       3       2
       1       1       3       2       1       1       3       2       1       1
       3       2       1       1       3       2       1       1       3       2
       1       1       3       2       1       1       3       2       1       1
       3       2       1       1       3       2       1       1       3       2
       1       1       3       2       1       1       3       2       1       1
       3       2       1       1       3       2       1       1       3       2
       1       1       3       2       1       1       3       2       1       1
       3       2       1       1       3       2       1       1       3       2
       1       1       3       2       1       1       3       2       1       1
       3       2       1       1       3       2       1       1       3       2
       1       1       3       2       1       1       3       2       1       1
       3       2       1       1       3       2       1       1       3       2
       1       1       3       2       1       1       3       2       1       1
       3       2       1       1       3       2       1       1       3       2
       1       1       3       2       1       1       3       2       1       1
       3       2       1       1       3       2       1       1       3       2
       1       1       3       2       1       1       3       2       1       1
       3       2       1       1       3       2       1       1       3       2
       1       1       3       2       1       1       3       2       1       1
       3       2       1       1       3       2       1       1       3       2
       1       1       3       2       1       1       3       2       1       1
       3       2       1       1       3       2       1       1       3       2
       1       1       3       2       1       1       3       2       1       1
       3       2       1       1       3       2       1       1       3       2
       1       1       3       2       1       1       3       2       1       1
       3       2       1       1       3       2       1       1       3       2
       1       1       3       2       1       1       3       2       1       1
       3       2       1       1       3       2       1       1       3       2
       1       1       3       2       1       1       3       2       1       1
       3       2       1       1       3       2       1       1       3       2
       1       1       3       2       1       1       3       2       1       1
       3       2       1       1       3       2       1       1       3       2
       1       1       3       2       1       1       3       2       1       1
       3       2       1       1       3       2       1       1       3       2
       1       1       3       2       1       1       3       2       1       1
       3       2       1       1       3       2       1       1       3       2
       1       1       3       2       1       1       3       2       1       1
       3       2       1       1       3       2       1       1       3       2
       1       1       3       2       1       1       3       2       1       1
       3       2       1       1       3       2       1       1       3       2
       1       1       3       2       1       1       3       2       1       1
       3       2       1       1       3       2       1       1       3       2
       1       1       3       2       1       1       3       2       1       1
       3       2       1       1       3       2       1       1       3       2
       1       1       3       2       1       1       3       2       1       1
       3       2       1       1       3       2       1       1       3       2
       1       1       3       2       1       1       3       2       1       1
       3       2       1       1       3       2       1       1       3       2
       1       1       3       2       1       1       3       2       1       1
       3       2       1       1       3       2       1       1       3       2
       1       1       3       2       1       1       3       2       1       1
       3       2       1       1       3       2       1       1       3       2
       1       1       3       2       1       1       3       2       1       1
       3       2       1       1       3       2       1       1       3       2
       1       1       3       2       1       1       3       2       1       1
       3       2       1       1       3       2       1       1       3       2
       1       1       3       2       1       1       3       2       1       1
       3       2       1       1       3       2       1       1       3       2
       1       1       3       2       1       1       3       2       1       1
       3       2       1       1       3       2       1       1       3       2
       1       1       3       2       1       1       3       2       1       1
       3       2       1       1       3       2       1       1       3       2
       1       1       3       2       1       1       3       2       1       1
       3       2       1       1       3       2       1       1       3       2
       1       1       3       2       1       1       3       2       1       1
       3       2       1       1       3       2       1       1       3       2
       1       1       3       2       1       1       3       2       1       1
       3       2       1       1       3       2       1       1       3       2
       1       1       3       2       1       1       3       2       1       1
       3       2       1       1       3       2       1       1       3       2
       1       1       3       2       1       1       3       2       1       1
       3       2       1       1       3       2       1       1       3       2
       1       1       3       2       1       1       3       2       1       1
       3       2       1       1       3       2       1       1       3       2
       1       1       3       2       1       1       3       2       1       1
       3       2       1       1       3       2       1       1       3       2
       1       1       3       2       1       1       3       2       1       1
       3       2       1       1       3       2       1       1       3       2
       1       1       3       2       1       1       3       2       1       1
       3       2       1       1       3       2       1       1       3       2
       1       1       3       2       1       1       3       2       1       1
       3       2       1       1       3       2       1       1       3       2
       1       1       3       2       1       1       3       2       1       1
       3       2       1       1       3       2       1       1       3       2
       1       1       3       2       1       1       3       2       1       1
       3       2       1       1       3       2       1       1       3       2
       1       1       3       2       1       1       3       2       1       1
       3       2       1       1       3       2       1       1       3       2
       1       1       3       2       1       1       3       2       1       1
       3       2       1       1       3       2       1       1       3       2
       1       1       3       2       1       1       3       2       1       1
       3       2       1       1       3       2       1       1       3       2
       1       1       3       2       1       1       3       2       1       1
       3       2       1       1       3       2       1       1       3       2
       1       1       3       2       1       1       3       2       1       1
       3       2       1       1       3       2       1       1       3       2
       1       1       3       2       1       1       3       2       1       1
       3       2       1       1       3       2       1       1       3       2
       1       1       3       2       1       1       3       2       1       1
       3       2       1       1       3       2       1       1       3       2
       1       1       3       2       1       1       3       2       1       1
       3       2       1       1       3       2       1       1       3       2
       1       1       3       2       1       1       3       2       1       1
       3       2       1       1       3       2       1       1       3       2
       1       1       3       2       1       1       3       2       1       1
       3       2       1       1       3       2       1       1       3       2
       1       1       3       2       1       1       3       2       1       1
       3       2       1       1       3       2       1       1       3       2
       1       1       3       2       1       1       3       2       1       1
       3       2       1       1       3       2       1       1       3       2
       1       1       3       2       1       1       3       2       1       1
       3       2       1       1       3       2       1       1       3       2
       1       1       3       2       1       1       3       2       1       1
       3       2       1       1       3       2       1       1       3       2
       1       1       3       2       1       1       3       2       1       1
       3       2       1       1       3       2       1       1       3       2
       1       1       3       2       1       1       3       2       1       1
       3       2       1       1       3       2       1       1       3       2
       1       1       3       2       1       1       3       2       1       1
       3       2       1       1       3       2       1       1       3       2
       1       1       3       2       1       1       3       2       1       1
       3       2       1       1       3       2       1       1       3       2
       1       1       3       2       1       1       3       2       1       1
       3       2       1       1       3       2       1       1       3       2
       1       1       3       2       1       1       3       2       1       1
       3       2       1       1       3       2       1       1       3       2
       1       1       3       2       1       1       3       2       1       1
       3       2       1       1       3       2       1       1       3       2
       1       1       3       2       1       1       3       2       1       1
       3       2       1       1       3       2       1       1       3       2
       1       1       3       2       1       1       3       2       1       1
       3       2       1       1       3       2       1       1       3       2
       1       1       3       2       1       1       3       2       1       1
       3       2       1       1       3       2       1       1       3       2
       1       1       3       2       1       1       3       2       1       1
       3       2       1       1       3       2       1       1       3       2
       1       1       3       2       1       1       3       2       1       1
       3       2       1       1       3       2       1       1       3       2
       1       1       3       2       1       1       3       2       1       1
       3       2       1       1       3       2       1       1       3       2
       1       1       3       2       1       1       3       2       1       1
       3       2       1       1       3       2       1       1       3       2
       1       1       3       2       1       1       3       2       1       1
       3       2       1       1       3       2       1       1       3       2
       1       1       3       2       1       1       3       2       1       1
       3       2       1       1       3       2       1       1       3       2
       1       1       3       2       1       1       3       2       1       1
       3       2       1       1       3       2       1       1       3       2
       1       1       3       2       1       1       3       2       1       1
       3       2       1       1       3       2       1       1       3       2
       1       1       3       2       1       1       3       2       1       1
       3       2       1       1       3       2       1       1       3       2
       1       1       3       2       1       1       3       2       1       1
       3       2       1       1       3       2       1       1       3       2
       1       1       3       2       1       1       3       2       1       1
       3       2       1       1       3       2       1       1       3       2
       1       1       3       2       1       1       3       2       1       1
       3       2       1       1       3       2       1       1       3       2
       1       1       3       2       1       1       3       2       1       1
       3       2       1       1       3       2       1       1       3       2
       1       1       3       2       1       1       3       2       1       1
       3       2       1       1       3       2       1       1       3       2
       1       1       3       2       1       1       3       2       1       1
       3       2       1       1       3       2       1       1       3       2
       1       1       3       2       1       1       3       2       1       1
       3       2       1       1       3       2       1       1       3       2
       1       1       3       2       1       1       3       2       1       1
       3       2       1       1       3       2       1       1       3       2
       1       1       3       2       1       1       3       2       1       1
       3       2       1       1       3       2       1       1       3       2
       1       1       3       2       1       1       3       2       1       1
       3       2       1       1       3       2       1       1       3       2
       1       1       3       2       1       1       3       2       1       1
       3       2       1       1       3       2       1       1       3       2
       1       1       3       2       1       1       3       2       1       1
       3       2       1       1       3       2       1       1       3       2
       1       1       3       2       1       1       3       2       1       1
       3       2       1       1       3       2       1       1       3       2
       1       1       3       2       1       1       3       2       1       1
       3       2       1       1       3       2       1       1       3       2
       1       1       3       2       1       1       3       2       1       1
       3       2       1       1       3       2       1       1       3       2
       1       1       3       2       1       1       3       2       1       1
       3       2       1       1       3       2       1       1       3       2
       1       1       3       2       1       1       3       2       1       1
       3       2       1       1       3       2       1       1       3       2
       1       1       3       2       1       1       3       2       1       1
       3       2       1       1       3       2       1       1       3       2
       1       1       3       2       1       1       3       2       1       1
       3       2       1       1       3       2       1       1       3       2
       1       1       3       2       1       1       3       2       1       1
       3       2       1       1       3       2       1       1       3       2
       1       1       3       2       1       1       3       2       1       1
       3       2       1       1       3       2       1       1       3       2
       1       1       3       2       1       1       3       2       1       1
       3       2       1       1       3       2       1       1       3       2
       1       1       3       2       1       1       3       2       1       1
       3       2       1       1       3       2       1       1       3       2
       1       1       3       2       1       1       3       2       1       1
       3       2       1       1       3       2       1       1       3       2
       1       1       3       2       1       1       3       2       1       1
       3       2       1       1       3       2       1       1       3       2
       1       1       3       2       1       1       3       2       1       1
       3       2       1       1       3       2       1       1       3       2
       1       1       3       2       1       1       3       2       1       1
       3       2       1       1       3       2       1       1       3       2
       1       1       3       2       1       1       3       2       1       1
       3       2       1       1       3       2       1       1       3       2
       1       1       3       2       1       1       3       2       1       1
       3       2       1       1       3       2       1       1       3       2
       1       1       3       2       1       1       3       2       1       1
       3       2       1       1       3       2       1       1       3       2
       1       1       3       2       1       1       3       2       1       1
       3       2       1       1       3       2       1       1       3       2
       1       1       3       2       1       1       3       2       1       1
       3       2       1       1       3       2       1       1       3       2
       1       1       3       2       1       1       3       2       1       1
       3       2       1       1       3       2       1       1       3       2
       1       1       3       2       1       1       3       2       1       1
       3       2       1       1       3       2       1       1       3       2
       1       1       3       2       1       1       3       2       1       1
       3       2       1       1       3       2       1       1       3       2
       1       1       3       2       1       1       3       2       1       1
       3       2       1       1       3       2       1       1       3       2
       1       1       3       2       1       1       3       2       1       1
       3       2       1       1       3       2       1       1       3       2
       1       1       3       2       1       1       3       2       1       1
       3       2       1       1       3       2       1       1       3       2
       1       1       3       2       1       1       3       2       1       1
       3       2       1       1       3       2       1       1       3       2
       1       1       3       2       1       1       3       2       1       1
       3       2       1       1       3       2       1       1       3       2
       1       1       3       2       1       1       3       2       1       1
       3       2       1       1       3       2       1       1       3       2
       1       1       3       2       1       1       3       2       1       1
       3       2       1       1       3       2       1       1       3       2
       1       1       3       2       1       1       3       2       1       1
       3       2       1       1       3       2       1       1       3       2
       1       1       3       2       1       1       3       2       1       1
       3       2       1       1       3       2       1       1       3       2
       1       1       3       2       1       1       3       2       1       1
       3       2       1       1       3       2       1       1       3       2
       1       1       3       2       1       1       3       2       1       1
       3       2       1       1       3       2       1       1       3       2
       1       1       3       2       1       1       3       2       1       1
       3       2       1       1       3       2       1       1       3       2
       1       1       3       2       1       1       3       2       1       1
       3       2       1       1       3       2       1       1       3       2
       1       1       3       2       1       1       3       2       1       1
       3       2       1       1       3       2       1       1       3       2
       1       1       3       2       1       1       3       2       1       1
       3       2       1       1       3       2       1       1       3       2
       1       1       3       2       1       1       3       2       1       1
       3       2       1       1       3       2       1       1       3       2
       1       1       3       2       1       1       3       2       1       1
       3       2       1       1       3       2       1       1       3       2
       1       1       3       2       1       1       3       2       1       1
       3       2       1       1       3       2       1       1       3       2
       1       1       3       2       1       1       3       2       1       1
       3       2       1       1       3       2       1       1       3       2
       1       1       3       2       1       1       3       2       1       1
       3       2       1       1       3       2       1       1       3       2
       1       1       3       2       1       1       3       2       1       1
       3       2       1       1       3       2       1       1       3       2
       1       1       3       2       1       1       3       2       1       1
       3       2       1       1       3       2       1       1       3       2
       1       1       3       2       1       1       3       2       1       1
       3       2       1       1       3       2       1       1       3       2
       1       1       3       2       1       1       3       2       1       1
       3       2       1       1       3       2       1       1       3       2
       1       1       3       2       1       1       3       2       1       1
       3       2       1       1       3       2       1       1       3       2
       1       1       3       2       1       1       3       2       1       1
       3       2       1       1       3       2       1       1       3       2
       1       1       3       2       1       1       3       2       1       1
       3       2       1       1       3       2       1       1       3       2
       1       1       3       2       1       1       3       2       1       1
       3       2       1       1       3       2       1       1       3       2
       1       1       3       2       1       1       3       2       1       1
       3       2       1       1       3       2       1       1       3       2
       1       1       3       2       1       1       3       2       1       1
       3       2       1       1       3       2       1       1       3       2
       1       1       3       2       1       1       3       2       1       1
       3       2       1       1       3       2       1       1       3       2
       1       1       3       2       1       1       3       2       1       1
       3       2       1       1       3       2       1       1       3       2
       1       1       3       2       1       1       3       2       1       1
       3       2       1       1       3       2       1       1       3       2
       1       1       3       2       1       1       3       2       1       1
       3       2       1       1       3       2       1       1       3       2
       1       1       3       2       1       1       3       2       1       1
       3       2       1       1       3       2       1       1       3       2
       1       1       3       2       1       1       3       2       1       1
       3       2       1       1       3       2       1       1       3       2
       1       1       3       2       1       1       3       2       1       1
       3       2       1       1       3       2       1       1       3       2
       1       1       3       2       1       1       3       2       1       1
       3       2       1       1       3       2       1       1       3       2
       1       1       3       2       1       1       3       2       1       1
       3       2       1       1       3       2       1       1       3       2
       1       1       3       2       1       1       3       2       1       1
       3       2       1       1       3       2       1       1       3       2
       1       1       3       2       1       1       3       2       1       1
       3       2       1       1       3       2       1       1       3       2
       1       1       3       2       1       1       3       2       1       1
       3       2       1       1       3       2       1       1       3       2
       1       1       3       2       1       1       3       2       1       1
       3       2       1       1       3       2       1       1       3       2
       1       1       3       2       1       1       3       2       1       1
       3       2       1       1       3       2       1       1       3       2
       1       1       3       2       1       1       3       2       1       1
       3       2       1       1       3       2       1       1       3       2
       1       1       3       2       1       1       3       2       1       1
       3       2       1       1       3       2       1       1       3       2
       1       1       3       2       1       1       3       2       1       1
       3       2       1       1       3       2       1       1       3       2
       1       1       3       2       1       1       3       2       1       1
       3       2       1       1       3       2       1       1       3       2
       1       1       3       2       1       1       3       2       1       1
       3       2       1       1       3       2       1       1       3       2
       1       1       3       2       1       1       3       2       1       1
       3       2       1       1       3       2       1       1       3       2
       1       1       3       2       1       1       3       2       1       1
       3       2       1       1       3       2       1       1       3       2
       1       1       3       2       1       1       3       2       1       1
       3       2       1       1       3       2       1       1       3       2
       1       1       3       2       1       1       3       2       1       1
       3       2       1       1       3       2       1       1       3       2
       1       1       3       2       1       1       3       2       1       1
       3       2       1       1       3       2       1       1       3       2
       1       1       3       2       1       1       3       2       1       1
       3       2       1       1       3       2       1       1       3       2
       1       1       3       2       1       1       3       2       1       1
       3       2       1       1       3       2       1       1       3       2
       1       1       3       2       1       1       3       2       1       1
       3       2       1       1       3       2       1       1       3       2
       1       1       3       2       1       1       3       2       1       1
       3       2       1       1       3       2       1       1       3       2
       1       1       3       2       1       1       3       2       1       1
       3       2       1       1       3       2       1       1       3       2
       1       1       3       2       1       1       3       2       1       1
       3       2       1       1       3       2       1       1       3       2
       1       1       3       2       1       1       3       2       1       1
       3       2       1       1       3       2       1       1       3       2
       1       1       3       2       1       1       3       2       1       1
       3       2       1       1       3       2       1       1       3       2
       1       1       3       2       1       1       3       2       1       1
       3       2       1       1       3       2       1       1       3       2
       1       1       3       2       1       1       3       2       1       1
       3       2       1       1       3       2       1       1       3       2
       1       1       3       2       1       1       3       2       1       1
       3       2       1       1       3       2       1       1       3       2
       1       1       3       2       1       1       3       2       1       1
       3       2       1       1       3       2       1       1       3       2
       1       1       3       2       1       1       3       2       1       1
       3       2       1       1       3       2       1       1       3       2
       1       1       3       2       1       1       3       2       1       1
       3       2       1       1       3       2       1       1       3       2
       1       1       3       2       1       1       3       2       1       1
       3       2       1       1       3       2       1       1       3       2
       1       1       3       2       1       1       3       2       1       1
       3       2       1       1       3       2       1       1       3       2
       1       1       3       2       1       1       3       2       1       1
       3       2       1       1       3       2       1       1       3       2
       1       1       3       2       1       1       3       2       1       1
       3       2       1       1       3       2       1       1       3       2
       1       1       3       2       1       1       3       2       1       1
       3       2       1       1       3       2       1       1       3       2
       1       1       3       2       1       1       3       2       1       1
       3       2       1       1       3       2       1       1       3       2
       1       1       3       2       1       1       3       2       1       1
       3       2       1       1       3       2       1       1       3       2
       1       1       3       2       1       1       3       2       1       1
       3       2       1       1       3       2       1       1       3       2
       1       1       3       2       1       1       3       2       1       1
       3       2       1       1       3       2       1       1       3       2
       1       1       3       2       1       1       3       2       1       1
       3       2       1       1       3       2       1       1       3       2
       1       1       3       2       1       1       3       2       1       1
       3       2       1       1       3       2       1       1       3       2
       1       1       3       2       1       1       3       2       1       1
       3       2       1       1       3       2       1       1       3       2
       1       1       3       2       1       1       3       2       1       1
       3       2       1       1       3       2       1       1       3       2
       1       1       3       2       1       1       3       2       1       1
       3       2       1       1       3       2       1       1       3       2
       1       1       3       2       1       1       3       2       1       1
       3       2       1       1       3       2       1       1       3       2
       1       1       3       2       1       1       3       2       1       1
       3       2       1       1       3       2       1       1       3       2
       1       1       3       2       1       1       3       2       1       1
       3       2       1       1       3       2       1       1       3       2
       1       1       3       2       1       1       3       2       1       1
       3       2       1       1       3       2       1       1       3       2
       1       1       3       2       1       1       3       2       1       1
       3       2       1       1       3       2       1       1       3       2
       1       1       3       2       1       1       3       2       1       1
       3       2       1       1       3       2       1       1       3       2
       1       1       3       2       1       1       3       2       1       1
       3       2       1       1       3       2       1       1       3       2
       1       1       3       2       1       1       3       2       1       1
       3       2       1       1       3       2       1       1       3       2
       1       1       3       2       1       1       3       2       1       1
       3       2       1       1       3       2       1       1       3       2
       1       1       3       2       1       1       3       2       1       1
       3       2       1       1       3       2       1       1       3       2
       1       1       3       2       1       1       3       2       1       1
       3       2       1       1       3       2       1       1       3       2
       1       1       3       2       1       1       3       2       1       1
       3       2       1       1       3       2       1       1       3       2
       1       1       3       2       1       1       3       2       1       1
       3       2       1       1       3       2       1       1       3       2
       1       1       3       2       1       1       3       2       1       1
       3       2       1       1       3       2       1       1       3       2
       1       1       3       2       1       1       3       2       1       1
       3       2       1       1       3       2       1       1       3       2
       1       1       3       2       1       1       3       2       1       1
       3       2       1       1       3       2       1       1       3       2
       1       1       3       2       1       1       3       2       1       1
       3       2       1       1       3       2       1       1       3       2
       1       1       3       2       1       1       3       2       1       1
       3       2       1       1       3       2       1       1       3       2
       1       1       3       2       1       1       3       2       1       1
       3       2       1       1       3       2       1       1       3       2
       1       1       3       2       1       1       3       2       1       1
       3       2       1       1       3       2       1       1       3       2
       1       1       3       2       1       1       3       2       1       1
       3       2       1       1       3       2       1       1       3       2
       1       1       3       2       1       1       3       2       1       1
       3       2       1       1       3       2       1       1       3       2
       1       1       3       2       1       1       3       2       1       1
       3       2       1       1       3       2       1       1       3       2
       1       1       3       2       1       1       3       2       1       1
       3       2       1       1       3       2       1       1       3       2
       1       1       3       2       1       1       3       2       1       1
       3       2       1       1       3       2       1       1       3       2
       1       1       3       2       1       1       3       2       1       1
       3       2       1       1       3       2       1       1       3       2
       1       1       3       2       1       1       3       2       1       1
       3       2       1       1       3       2       1       1       3       2
       1       1       3       2       1       1       3       2       1       1
       3       2       1       1       3       2       1       1       3       2
       1       1       3       2       1       1       3       2       1       1
       3       2       1       1       3       2       1       1       3       2
       1       1       3       2       1       1       3       2       1       1
       3       2       1       1       3       2       1       1       3       2
       1       1       3       2       1       1       3       2       1       1
       3       2       1       1       3       2       1       1       3       2
       1       1       3       2       1       1       3       2       1       1
       3       2       1       1       3       2       1       1       3       2
       1       1       3       2       1       1       3       2       1       1
       3       2       1       1       3       2       1       1       3       2
       1       1       3       2       1       1       3       2       1       1
       3       2       1       1       3       2       1       1       3       2
       1       1       3       2       1       1       3       2       1       1
       3       2       1       1       3       2       1       1       3       2
       1       1       3       2       1       1       3       2       1       1
       3       2       1       1       3       2       1       1       3       2
       1       1       3       2       1       1       3       2       1       1
       3       2       1       1       3       2       1       1       3       2
       1       1       3       2       1       1       3       2       1       1
       3       2       1       1       3       2       1       1       3       2
       1       1       3       2       1       1       3       2       1       1
       3       2       1       1       3       2       1       1       3       2
       1       1       3       2       1       1       3       2       1       1
       3       2       1       1       3       2       1       1       3       2
       1       1       3       2       1       1       3       2       1       1
       3       2       1       1       3       2       1       1       3       2
       1       1       3       2       1       1       3       2       1       1
       3       2       1       1       3       2       1       1       3       2
       1       1       3       2       1       1       3       2       1       1
       3       2       1       1       3       2       1       1       3       2
       1       1       3       2       1       1       3       2       1       1
       3       2       1       1       3       2       1       1       3       2
       1       1       3       2       1       1       3       2       1       1
       3       2       1       1       3       2       1       1       3       2
       1       1       3       2       1       1       3       2       1       1
       3       2       1       1       3       2       1       1       3       2
       1       1       3       2       1       1       3       2       1       1
       3       2       1       1       3       2       1       1       3       2
       1       1       3       2       1       1       3       2       1       1
       3       2       1       1       3       2       1       1       3       2
       1       1       3       2       1       1       3       2       1       1
       3       2       1       1       3       2       1       1       3       2
       1       1       3       2       1       1       3       2       1       1
       3       2       1       1       3       2       1       1       3       2
       1       1       3       2       1       1       3       2       1       1
       3       2       1       1       3       2       1       1       3       2
       1       1       3       2       1       1       3       2       1       1
       3       2       1       1       3       2       1       1       3       2
       1       1       3       2       1       1       3       2       1       1
       3       2       1       1       3       2       1       1       3       2
       1       1       3       2       1       1       3       2       1       1
       3       2       1       1       3       2       1       1       3       2
       1       1       3       2       1       1       3       2       1       1
       3       2       1       1       3       2       1       1       3       2
       1       1       3       2       1       1       3       2       1       1
       3       2       1       1       3       2       1       1       3       2
       1       1       3       2       1       1       3       2       1       1
       3       2       1       1       3       2       1       1       3       2
       1       1       3       2       1       1       3       2       1       1
       3       2       1       1       3       2       1       1       3       2
       1       1       3       2       1       1       3       2       1       1
       3       2       1       1       3       2       1       1       3       2
       1       1       3       2       1       1       3       2       1       1
       3       2       1       1       3       2       1       1       3       2
       1       1       3       2       1       1       3       2       1       1
       3       2       1       1       3       2       1       1       3       2
       1       1       3       2       1       1       3       2       1       1
       3       2       1       1       3       2       1       1       3       2
       1       1       3       2       1       1       3       2       1       1
       3       2       1       1       3       2       1       1       3       2
       1       1       3       2       1       1       3       2       1       1
       3       2       1       1       3       2       1       1       3       2
       1       1       3       2       1       1       3       2       1       1
       3       2       1       1       3       2       1       1       3       2
       1       1       3       2       1       1       3       2       1       1
       3       2       1       1       3       2       1       1       3       2
       1       1       3       2       1       1       3       2       1       1
       3       2       1       1       3       2       1       1       3       2
       1       1       3       2       1       1       3       2       1       1
       3       2       1       1       3       2       1       1       3       2
       1       1       3       2       1       1       3       2       1       1
       3       2       1       1       3       2       1       1       3       2
       1       1       3       2       1       1       3       2       1       1
       3       2       1       1       3       2       1       1       3       2
       1       1       3       2       1       1       3       2       1       1
       3       2       1       1       3       2       1       1       3       2
       1       1       3       2       1       1       3       2       1       1
       3       2       1       1       3       2       1       1       3       2
       1       1       3       2       1       1       3       2       1       1
       3       2       1       1       3       2       1       1       3       2
       1       1       3       2       1       1       3       2       1       1
       3       2       1       1       3       2       1       1       3       2
       1       1       3       2       1       1       3       2       1       1
       3       2       1       1       3       2       1       1       3       2
       1       1       3       2       1       1       3       2       1       1
       3       2       1       1       3       2       1       1       3       2
       1       1       3       2       1       1       3       2       1       1
       3       2       1       1       3       2       1       1       3       2
       1       1       3       2       1       1       3       2       1       1
       3       2       1       1       3       2       1       1       3       2
       1       1       3       2       1       1       3       2       1       1
       3       2       1       1       3       2       1       1       3       2
       1       1       3       2       1       1       3       2       1       1
       3       2       1       1       3       2       1       1       3       2
       1       1       3       2       1       1       3       2       1       1
       3       2       1       1       3       2       1       1       3       2
       1       1       3       2       1       1       3       2       1       1
       3       2       1       1       3       2       1       1       3       2
       1       1       3       2       1       1       3       2       1       1
       3       2       1       1       3       2       1       1       3       2
       1       1       3       2       1       1       3       2       1       1
       3       2       1       1       3       2       1       1       3       2
       1       1       3       2       1       1       3       2       1       1
       3       2       1       1       3       2       1       1       3       2
       1       1       3       2       1       1       3       2       1       1
       3       2       1       1       3       2       1       1       3       2
       1       1       3       2       1       1       3       2       1       1
       3       2       1       1       3       2       1       1       3       2
       1       1       3       2       1       1       3       2       1       1
       3       2       1       1       3       2       1       1       3       2
       1       1       3       2       1       1       3       2       1       1
       3       2       1       1       3       2       1       1       3       2
       1       1       3       2       1       1       3       2       1       1
       3       2       1       1       3       2       1       1       3       2
       1       1       3       2       1       1       3       2       1       1
       3       2       1       1       3       2       1       1       3       2
       1       1       3       2       1       1       3       2       1       1
       3       2       1       1       3       2       1       1       3       2
       1       1       3       2       1       1       3       2       1       1
       3       2       1       1       3       2       1       1       3       2
       1       1       3       2       1       1       3       2       1       1
       3       2       1       1       3       2       1       1       3       2
       1       1       3       2       1       1       3       2       1       1
       3       2       1       1       3       2       1       1       3       2
       1       1       3       2       1       1       3       2       1       1
       3       2       1       1       3       2       1       1       3       2
       1       1       3       2       1       1       3       2       1       1
       3       2       1       1       3       2       1       1       3       2
       1       1       3       2       1       1       3       2       1       1
       3       2       1       1       3       2       1       1       3       2
       1       1       3       2       1       1       3       2       1       1
       3       2       1       1       3       2       1       1       3       2
       1       1       3       2       1       1       3       2       1       1
       3       2       1       1       3       2       1       1       3       2
       1       1       3       2       1       1       3       2       1       1
       3       2       1       1       3       2       1       1       3       2
       1       1       3       2       1       1       3       2       1       1
       3       2       1       1       3       2       1       1       3       2
       1       1       3       2       1       1       3       2       1       1
       3       2       1       1       3       2       1       1       3       2
       1       1       3       2       1       1       3       2       1       1
       3       2       1       1       3       2       1       1       3       2
       1       1       3       2       1       1       3       2       1       1
       3       2       1       1       3       2       1       1       3       2
       1       1       3       2       1       1       3       2       1       1
       3       2       1       1       3       2       1       1       3       2
       1       1       3       2       1       1       3       2       1       1
       3       2       1       1       3       2       1       1       3       2
       1       1       3       2       1       1       3       2       1       1
       3       2       1       1       3       2       1       1       3       2
       1       1       3       2       1       1       3       2       1       1
       3       2       1       1       3       2       1       1       3       2
       1       1       3       2       1       1       3       2       1       1
       3       2       1       1       3       2       1       1       3       2
       1       1       3       2       1       1       3       2       1       1
       3       2       1       1       3       2       1       1       3       2
       1       1       3       2       1       1       3       2       1       1
       3       2       1       1       3       2       1       1       3       2
       1       1       3       2       1       1       3       2       1       1
       3       2       1       1       3       2       1       1       3       2
       1       1       3       2       1       1       3       2       1       1
       3       2       1       1       3       2       1       1       3       2
       1       1       3       2       1       1       3       2       1       1
       3       2       1       1       3       2       1       1       3       2
       1       1       3       2       1       1       3       2       1       1
       3       2       1       1       3       2       1       1       3       2
       1       1       3       2       1       1       3       2       1       1
       3       2       1       1       3       2       1       1       3       2
       1       1       3       2       1       1       3       2       1       1
       3       2       1       1       3       2       1       1       3       2
       1       1       3       2       1       1       3       2       1       1
       3       2       1       1       3       2       1       1       3       2
       1       1       3       2       1       1       3       2       1       1
       3       2       1       1       3       2       1       1       3       2
       1       1       3       2       1       1       3       2       1       1
       3       2       1       1       3       2       1       1       3       2
       1       1       3       2       1       1       3       2       1       1
       3       2       1       1       3       2       1       1       3       2
       1       1       3       2       1       1       3       2       1       1
       3       2       1       1       3       2       1       1       3       2
       1       1       3       2       1       1       3       2       1       1
       3       2       1       1       3       2       1       1       3       2
       1       1       3       2       1       1       3       2       1       1
       3       2       1       1       3       2       1       1       3       2
       1       1       3       2       1       1       3       2       1       1
       3       2       1       1       3       2       1       1       3       2
       1       1       3       2       1       1       3       2       1       1
       3       2       1       1       3       2       1       1       3       2
       1       1       3       2       1       1       3       2       1       1
       3       2       1       1       3       2       1       1       3       2
       1       1       3       2       1       1       3       2       1       1
       3       2       1       1       3       2       1       1       3       2
       1       1       3       2       1       1       3       2       1       1
       3       2       1       1       3       2       1       1       3       2
       1       1       3       2       1       1       3       2       1       1
       3       2       1       1       3       2       1       1       3       2
       1       1       3       2       1       1       3       2       1       1
       3       2       1       1       3       2       1       1       3       2
       1       1       3       2       1       1       3       2       1       1
       3       2       1       1       3       2       1       1       3       2
       1       1       3       2       1       1       3       2       1       1
       3       2       1       1       3       2       1       1       3       2
       1       1       3       2       1       1       3       2       1       1
       3       2       1       1       3       2       1       1       3       2
       1       1       3       2       1       1       3       2       1       1
       3       2       1       1       3       2       1       1       3       2
       1       1       3       2       1       1       3       2       1       1
       3       2       1       1       3       2       1       1       3       2
       1       1       3       2       1       1       3       2       1       1
       3       2       1       1       3       2       1       1       3       2
       1       1       3       2       1       1       3       2       1       1
       3       2       1       1       3       2       1       1       3       2
       1       1       3       2       1       1       3       2       1       1
       3       2       1       1       3       2       1       1       3       2
       1       1       3       2       1       1       3       2       1       1
       3       2       1       1       3       2       1       1       3       2
       1       1       3       2       1       1       3       2       1       1
       3       2       1       1       3       2       1       1       3       2
       1       1       3       2       1       1       3       2       1       1
       3       2       1       1       3       2       1       1       3       2
       1       1       3       2       1       1       3       2       1       1
       3       2       1       1       3       2       1       1       3       2
       1       1       3       2       1       1       3       2       1       1
       3       2       1       1       3       2       1       1       3       2
       1       1       3       2       1       1       3       2       1       1
       3       2       1       1       3       2       1       1       3       2
       1       1       3       2       1       1       3       2       1       1
       3       2       1       1       3       2       1       1       3       2
       1       1       3       2       1       1       3       2       1       1
       3       2       1       1       3       2       1       1       3       2
       1       1       3       2       1       1       3       2       1       1
       3       2       1       1       3       2       1       1       3       2
       1       1       3       2       1       1       3       2       1       1
       3       2       1       1       3       2       1       1       3       2
       1       1       3       2       1       1       3       2       1       1
       3       2       1       1       3       2       1       1       3       2
       1       1       3       2       1       1       3       2       1       1
       3       2       1       1       3       2       1       1       3       2
       1       1       3       2       1       1       3       2       1       1
       3       2       1       1       3       2       1       1       3       2
       1       1       3       2       1       1       3       2       1       1
       3       2       1       1       3       2       1       1       3       2
       1       1       3       2       1       1       3       2       1       1
       3       2       1       1       3       2       1       1       3       2
       1       1       3       2       1       1       3       2       1       1
       3       2       1       1       3       2       1       1       3       2
       1       1       3       2       1       1       3       2       1       1
       3       2       1       1       3       2       1       1       3       2
       1       1       3       2       1       1       3       2       1       1
       3       2       1       1       3       2       1       1       3       2
       1       1       3       2       1       1       3       2       1       1
       3       2       1       1       3       2       1       1       3       2
       1       1       3       2       1       1       3       2       1       1
       3       2       1       1       3       2       1       1       3       2
       1       1       3       2       1       1       3       2       1       1
       3       2       1       1       3       2       1       1       3       2
       1       1       3       2       1       1       3       2       1       1
       3       2       1       1       3       2       1       1       3       2
       1       1       3       2       1       1       3       2       1       1
       3       2       1       1       3       2       1       1       3       2
       1       1       3       2       1       1       3       2       1       1
       3       2       1       1       3       2       1       1       3       2
       1       1       3       2       1       1       3       2       1       1
       3       2       1       1       3       2       1       1       3       2
       1       1       3       2       1       1       3       2       1       1
       3       2       1       1       3       2       1       1       3       2
       1       1       3       2       1       1       3       2       1       1
       3       2       1       1       3       2       1       1       3       2
       1       1       3       2       1       1       3       2       1       1
       3       2       1       1       3       2       1       1       3       2
       1       1       3       2       1       1       3       2       1       1
       3       2       1       1       3       2       1       1       3       2
       1       1       3       2       1       1       3       2       1       1
       3       2       1       1       3       2       1       1       3       2
       1       1       3       2       1       1       3       2       1       1
       3       2       1       1       3       2       1       1       3       2
       1       1       3       2       1       1       3       2       1       1
       3       2       1       1       3       2       1       1       3       2
       1       1       3       2       1       1       3       2       1       1
       3       2       1       1       3       2       1       1       3       2
       1       1       3       2       1       1       3       2       1       1
       3       2       1       1
%FLAG NONBONDED_PARM_INDEX                                                      
%FORMAT(10I8)                                                                   
       1       2       4       7      11      16      22      29      37      46
      56      67      79      92     106     121     137     154       2       3
       5       8      12      17      23      30      38      47      57      68
      80      93     107     122     138     155       4       5       6       9
      13      18      24      31      39      48      58      69      81      94
     108     123     139     156       7       8       9      10      14      19
      25      32      40      49      59      70      82      95     109     124
     140     157      11      12      13      14      15      20      26      33
      41      50      60      71      83      96     110     125     141     158
      16      17      18      19      20      21      27      34      42      51
      61      72      84      97     111     126     142     159      22      23
      24      25      26      27      28      35      43      52      62      73
      85      98     112     127     143     160      29      30      31      32
      33      34      35      36      44      53      63      74      86      99
     113     128     144     161      37      38      39      40      41      42
      43      44      45      54      64      75      87     100     114     129
     145     162      46      47      48      49      50      51      52      53
      54      55      65      76      88     101     115     130     146     163
      56      57      58      59      60      61      62      63      64      65
      66      77      89     102     116     131     147     164      67      68
      69      70      71      72      73      74      75      76      77      78
      90     103     117     132     148     165      79      80      81      82
      83      84      85      86      87      88      89      90      91     104
     118     133     149     166      92      93      94      95      96      97
      98      99     100     101     102     103     104     105     119     134
     150     167     106     107     108     109     110     111     112     113
     114     115     116     117     118     119     120     135     151     168
     121     122     123     124     125     126     127     128     129     130
     131     132     133     134     135     136     152     169     137     138
     139     140     141     142     143     144     145     146     147     148
     149     150     151     152     153     170     154     155     156     157
     158     159     160     161     162     163     164     165     166     167
     168     169     170     171
%FLAG RESIDUE_LABEL                                                             
%FORMAT(20a4)                                                                   
A5  G   C   G   C   U   U   U   C   G   A   G   C   G   C   U3  MG  MG  MG  MG  
MG  MG  MG  MG  MG  MG  Cl- Cl- Cl- Cl- Cl- Cl- Cl- Cl- Cl- Cl- WAT WAT WAT WAT 
WAT WAT WAT WAT WAT WAT WAT WAT WAT WAT WAT WAT WAT WAT WAT WAT WAT WAT WAT WAT 
WAT WAT WAT WAT WAT WAT WAT WAT WAT WAT WAT WAT WAT WAT WAT WAT WAT WAT WAT WAT 
WAT WAT WAT WAT WAT WAT WAT WAT WAT WAT WAT WAT WAT WAT WAT WAT WAT WAT WAT WAT 
WAT WAT WAT WAT WAT WAT WAT WAT WAT WAT WAT WAT WAT WAT WAT WAT WAT WAT WAT WAT 
WAT WAT WAT WAT WAT WAT WAT WAT WAT WAT WAT WAT WAT WAT WAT WAT WAT WAT WAT WAT 
WAT WAT WAT WAT WAT WAT WAT WAT WAT WAT WAT WAT WAT WAT WAT WAT WAT WAT WAT WAT 
WAT WAT WAT WAT WAT WAT WAT WAT WAT WAT WAT WAT WAT WAT WAT WAT WAT WAT WAT WAT 
WAT WAT WAT WAT WAT WAT WAT WAT WAT WAT WAT WAT WAT WAT WAT WAT WAT WAT WAT WAT 
WAT WAT WAT WAT WAT WAT WAT WAT WAT WAT WAT WAT WAT WAT WAT WAT WAT WAT WAT WAT 
WAT WAT WAT WAT WAT WAT WAT WAT WAT WAT WAT WAT WAT WAT WAT WAT WAT WAT WAT WAT 
WAT WAT WAT WAT WAT WAT WAT WAT WAT WAT WAT WAT WAT WAT WAT WAT WAT WAT WAT WAT 
WAT WAT WAT WAT WAT WAT WAT WAT WAT WAT WAT WAT WAT WAT WAT WAT WAT WAT WAT WAT 
WAT WAT WAT WAT WAT WAT WAT WAT WAT WAT WAT WAT WAT WAT WAT WAT WAT WAT WAT WAT 
WAT WAT WAT WAT WAT WAT WAT WAT WAT WAT WAT WAT WAT WAT WAT WAT WAT WAT WAT WAT 
WAT WAT WAT WAT WAT WAT WAT WAT WAT WAT WAT WAT WAT WAT WAT WAT WAT WAT WAT WAT 
WAT WAT WAT WAT WAT WAT WAT WAT WAT WAT WAT WAT WAT WAT WAT WAT WAT WAT WAT WAT 
WAT WAT WAT WAT WAT WAT WAT WAT WAT WAT WAT WAT WAT WAT WAT WAT WAT WAT WAT WAT 
WAT WAT WAT WAT WAT WAT WAT WAT WAT WAT WAT WAT WAT WAT WAT WAT WAT WAT WAT WAT 
WAT WAT WAT WAT WAT WAT WAT WAT WAT WAT WAT WAT WAT WAT WAT WAT WAT WAT WAT WAT 
WAT WAT WAT WAT WAT WAT WAT WAT WAT WAT WAT WAT WAT WAT WAT WAT WAT WAT WAT WAT 
WAT WAT WAT WAT WAT WAT WAT WAT WAT WAT WAT WAT WAT WAT WAT WAT WAT WAT WAT WAT 
WAT WAT WAT WAT WAT WAT WAT WAT WAT WAT WAT WAT WAT WAT WAT WAT WAT WAT WAT WAT 
WAT WAT WAT WAT WAT WAT WAT WAT WAT WAT WAT WAT WAT WAT WAT WAT WAT WAT WAT WAT 
WAT WAT WAT WAT WAT WAT WAT WAT WAT WAT WAT WAT WAT WAT WAT WAT WAT WAT WAT WAT 
WAT WAT WAT WAT WAT WAT WAT WAT WAT WAT WAT WAT WAT WAT WAT WAT WAT WAT WAT WAT 
WAT WAT WAT WAT WAT WAT WAT WAT WAT WAT WAT WAT WAT WAT WAT WAT WAT WAT WAT WAT 
WAT WAT WAT WAT WAT WAT WAT WAT WAT WAT WAT WAT WAT WAT WAT WAT WAT WAT WAT WAT 
WAT WAT WAT WAT WAT WAT WAT WAT WAT WAT WAT WAT WAT WAT WAT WAT WAT WAT WAT WAT 
WAT WAT WAT WAT WAT WAT WAT WAT WAT WAT WAT WAT WAT WAT WAT WAT WAT WAT WAT WAT 
WAT WAT WAT WAT WAT WAT WAT WAT WAT WAT WAT WAT WAT WAT WAT WAT WAT WAT WAT WAT 
WAT WAT WAT WAT WAT WAT WAT WAT WAT WAT WAT WAT WAT WAT WAT WAT WAT WAT WAT WAT 
WAT WAT WAT WAT WAT WAT WAT WAT WAT WAT WAT WAT WAT WAT WAT WAT WAT WAT WAT WAT 
WAT WAT WAT WAT WAT WAT WAT WAT WAT WAT WAT WAT WAT WAT WAT WAT WAT WAT WAT WAT 
WAT WAT WAT WAT WAT WAT WAT WAT WAT WAT WAT WAT WAT WAT WAT WAT WAT WAT WAT WAT 
WAT WAT WAT WAT WAT WAT WAT WAT WAT WAT WAT WAT WAT WAT WAT WAT WAT WAT WAT WAT 
WAT WAT WAT WAT WAT WAT WAT WAT WAT WAT WAT WAT WAT WAT WAT WAT WAT WAT WAT WAT 
WAT WAT WAT WAT WAT WAT WAT WAT WAT WAT WAT WAT WAT WAT WAT WAT WAT WAT WAT WAT 
WAT WAT WAT WAT WAT WAT WAT WAT WAT WAT WAT WAT WAT WAT WAT WAT WAT WAT WAT WAT 
WAT WAT WAT WAT WAT WAT WAT WAT WAT WAT WAT WAT WAT WAT WAT WAT WAT WAT WAT WAT 
WAT WAT WAT WAT WAT WAT WAT WAT WAT WAT WAT WAT WAT WAT WAT WAT WAT WAT WAT WAT 
WAT WAT WAT WAT WAT WAT WAT WAT WAT WAT WAT WAT WAT WAT WAT WAT WAT WAT WAT WAT 
WAT WAT WAT WAT WAT WAT WAT WAT WAT WAT WAT WAT WAT WAT WAT WAT WAT WAT WAT WAT 
WAT WAT WAT WAT WAT WAT WAT WAT WAT WAT WAT WAT WAT WAT WAT WAT WAT WAT WAT WAT 
WAT WAT WAT WAT WAT WAT WAT WAT WAT WAT WAT WAT WAT WAT WAT WAT WAT WAT WAT WAT 
WAT WAT WAT WAT WAT WAT WAT WAT WAT WAT WAT WAT WAT WAT WAT WAT WAT WAT WAT WAT 
WAT WAT WAT WAT WAT WAT WAT WAT WAT WAT WAT WAT WAT WAT WAT WAT WAT WAT WAT WAT 
WAT WAT WAT WAT WAT WAT WAT WAT WAT WAT WAT WAT WAT WAT WAT WAT WAT WAT WAT WAT 
WAT WAT WAT WAT WAT WAT WAT WAT WAT WAT WAT WAT WAT WAT WAT WAT WAT WAT WAT WAT 
WAT WAT WAT WAT WAT WAT WAT WAT WAT WAT WAT WAT WAT WAT WAT WAT WAT WAT WAT WAT 
WAT WAT WAT WAT WAT WAT WAT WAT WAT WAT WAT WAT WAT WAT WAT WAT WAT WAT WAT WAT 
WAT WAT WAT WAT WAT WAT WAT WAT WAT WAT WAT WAT WAT WAT WAT WAT WAT WAT WAT WAT 
WAT WAT WAT WAT WAT WAT WAT WAT WAT WAT WAT WAT WAT WAT WAT WAT WAT WAT WAT WAT 
WAT WAT WAT WAT WAT WAT WAT WAT WAT WAT WAT WAT WAT WAT WAT WAT WAT WAT WAT WAT 
WAT WAT WAT WAT WAT WAT WAT WAT WAT WAT WAT WAT WAT WAT WAT WAT WAT WAT WAT WAT 
WAT WAT WAT WAT WAT WAT WAT WAT WAT WAT WAT WAT WAT WAT WAT WAT WAT WAT WAT WAT 
WAT WAT WAT WAT WAT WAT WAT WAT WAT WAT WAT WAT WAT WAT WAT WAT WAT WAT WAT WAT 
WAT WAT WAT WAT WAT WAT WAT WAT WAT WAT WAT WAT WAT WAT WAT WAT WAT WAT WAT WAT 
WAT WAT WAT WAT WAT WAT WAT WAT WAT WAT WAT WAT WAT WAT WAT WAT WAT WAT WAT WAT 
WAT WAT WAT WAT WAT WAT WAT WAT WAT WAT WAT WAT WAT WAT WAT WAT WAT WAT WAT WAT 
WAT WAT WAT WAT WAT WAT WAT WAT WAT WAT WAT WAT WAT WAT WAT WAT WAT WAT WAT WAT 
WAT WAT WAT WAT WAT WAT WAT WAT WAT WAT WAT WAT WAT WAT WAT WAT WAT WAT WAT WAT 
WAT WAT WAT WAT WAT WAT WAT WAT WAT WAT WAT WAT WAT WAT WAT WAT WAT WAT WAT WAT 
WAT WAT WAT WAT WAT WAT WAT WAT WAT WAT WAT WAT WAT WAT WAT WAT WAT WAT WAT WAT 
WAT WAT WAT WAT WAT WAT WAT WAT WAT WAT WAT WAT WAT WAT WAT WAT WAT WAT WAT WAT 
WAT WAT WAT WAT WAT WAT WAT WAT WAT WAT WAT WAT WAT WAT WAT WAT WAT WAT WAT WAT 
WAT WAT WAT WAT WAT WAT WAT WAT WAT WAT WAT WAT WAT WAT WAT WAT WAT WAT WAT WAT 
WAT WAT WAT WAT WAT WAT WAT WAT WAT WAT WAT WAT WAT WAT WAT WAT WAT WAT WAT WAT 
WAT WAT WAT WAT WAT WAT WAT WAT WAT WAT WAT WAT WAT WAT WAT WAT WAT WAT WAT WAT 
WAT WAT WAT WAT WAT WAT WAT WAT WAT WAT WAT WAT WAT WAT WAT WAT WAT WAT WAT WAT 
WAT WAT WAT WAT WAT WAT WAT WAT WAT WAT WAT WAT WAT WAT WAT WAT WAT WAT WAT WAT 
WAT WAT WAT WAT WAT WAT WAT WAT WAT WAT WAT WAT WAT WAT WAT WAT WAT WAT WAT WAT 
WAT WAT WAT WAT WAT WAT WAT WAT WAT WAT WAT WAT WAT WAT WAT WAT WAT WAT WAT WAT 
WAT WAT WAT WAT WAT WAT WAT WAT WAT WAT WAT WAT WAT WAT WAT WAT WAT WAT WAT WAT 
WAT WAT WAT WAT WAT WAT WAT WAT WAT WAT WAT WAT WAT WAT WAT WAT WAT WAT WAT WAT 
WAT WAT WAT WAT WAT WAT WAT WAT WAT WAT WAT WAT WAT WAT WAT WAT WAT WAT WAT WAT 
WAT WAT WAT WAT WAT WAT WAT WAT WAT WAT WAT WAT WAT WAT WAT WAT WAT WAT WAT WAT 
WAT WAT WAT WAT WAT WAT WAT WAT WAT WAT WAT WAT WAT WAT WAT WAT WAT WAT WAT WAT 
WAT WAT WAT WAT WAT WAT WAT WAT WAT WAT WAT WAT WAT WAT WAT WAT WAT WAT WAT WAT 
WAT WAT WAT WAT WAT WAT WAT WAT WAT WAT WAT WAT WAT WAT WAT WAT WAT WAT WAT WAT 
WAT WAT WAT WAT WAT WAT WAT WAT WAT WAT WAT WAT WAT WAT WAT WAT WAT WAT WAT WAT 
WAT WAT WAT WAT WAT WAT WAT WAT WAT WAT WAT WAT WAT WAT WAT WAT WAT WAT WAT WAT 
WAT WAT WAT WAT WAT WAT WAT WAT WAT WAT WAT WAT WAT WAT WAT WAT WAT WAT WAT WAT 
WAT WAT WAT WAT WAT WAT WAT WAT WAT WAT WAT WAT WAT WAT WAT WAT WAT WAT WAT WAT 
WAT WAT WAT WAT WAT WAT WAT WAT WAT WAT WAT WAT WAT WAT WAT WAT WAT WAT WAT WAT 
WAT WAT WAT WAT WAT WAT WAT WAT WAT WAT WAT WAT WAT WAT WAT WAT WAT WAT WAT WAT 
WAT WAT WAT WAT WAT WAT WAT WAT WAT WAT WAT WAT WAT WAT WAT WAT WAT WAT WAT WAT 
WAT WAT WAT WAT WAT WAT WAT WAT WAT WAT WAT WAT WAT WAT WAT WAT WAT WAT WAT WAT 
WAT WAT WAT WAT WAT WAT WAT WAT WAT WAT WAT WAT WAT WAT WAT WAT WAT WAT WAT WAT 
WAT WAT WAT WAT WAT WAT WAT WAT WAT WAT WAT WAT WAT WAT WAT WAT WAT WAT WAT WAT 
WAT WAT WAT WAT WAT WAT WAT WAT WAT WAT WAT WAT WAT WAT WAT WAT WAT WAT WAT WAT 
WAT WAT WAT WAT WAT WAT WAT WAT WAT WAT WAT WAT WAT WAT WAT WAT WAT WAT WAT WAT 
WAT WAT WAT WAT WAT WAT WAT WAT WAT WAT WAT WAT WAT WAT WAT WAT WAT WAT WAT WAT 
WAT WAT WAT WAT WAT WAT WAT WAT WAT WAT WAT WAT WAT WAT WAT WAT WAT WAT WAT WAT 
WAT WAT WAT WAT WAT WAT WAT WAT WAT WAT WAT WAT WAT WAT WAT WAT WAT WAT WAT WAT 
WAT WAT WAT WAT WAT WAT WAT WAT WAT WAT WAT WAT WAT WAT WAT WAT WAT WAT WAT WAT 
WAT WAT WAT WAT WAT WAT WAT WAT WAT WAT WAT WAT WAT WAT WAT WAT WAT WAT WAT WAT 
WAT WAT WAT WAT WAT WAT WAT WAT WAT WAT WAT WAT WAT WAT WAT WAT WAT WAT WAT WAT 
WAT WAT WAT WAT WAT WAT WAT WAT WAT WAT WAT WAT WAT WAT WAT WAT WAT WAT WAT WAT 
WAT WAT WAT WAT WAT WAT WAT WAT WAT WAT WAT WAT WAT WAT WAT WAT WAT WAT WAT WAT 
WAT WAT WAT WAT WAT WAT WAT WAT WAT WAT WAT WAT WAT WAT WAT WAT WAT WAT WAT WAT 
WAT WAT WAT WAT WAT WAT WAT WAT WAT WAT WAT WAT WAT WAT WAT WAT WAT WAT WAT WAT 
WAT WAT WAT WAT WAT WAT WAT WAT WAT WAT WAT WAT WAT WAT WAT WAT WAT WAT WAT WAT 
WAT WAT WAT WAT WAT WAT WAT WAT WAT WAT WAT WAT WAT WAT WAT WAT WAT WAT WAT WAT 
WAT WAT WAT WAT WAT WAT WAT WAT WAT WAT WAT WAT WAT WAT WAT WAT WAT WAT WAT WAT 
WAT WAT WAT WAT WAT WAT WAT WAT WAT WAT WAT WAT WAT WAT WAT WAT WAT WAT WAT WAT 
WAT WAT WAT WAT WAT WAT WAT WAT WAT WAT WAT WAT WAT WAT WAT WAT WAT WAT WAT WAT 
WAT WAT WAT WAT WAT WAT WAT WAT WAT WAT WAT WAT WAT WAT WAT WAT WAT WAT WAT WAT 
WAT WAT WAT WAT WAT WAT WAT WAT WAT WAT WAT WAT WAT WAT WAT WAT WAT WAT WAT WAT 
WAT WAT WAT WAT WAT WAT WAT WAT WAT WAT WAT WAT WAT WAT WAT WAT WAT WAT WAT WAT 
WAT WAT WAT WAT WAT WAT WAT WAT WAT WAT WAT WAT WAT WAT WAT WAT WAT WAT WAT WAT 
WAT WAT WAT WAT WAT WAT WAT WAT WAT WAT WAT WAT WAT WAT WAT WAT WAT WAT WAT WAT 
WAT WAT WAT WAT WAT WAT WAT WAT WAT WAT WAT WAT WAT WAT WAT WAT WAT WAT WAT WAT 
WAT WAT WAT WAT WAT WAT WAT WAT WAT WAT WAT WAT WAT WAT WAT WAT WAT WAT WAT WAT 
WAT WAT WAT WAT WAT WAT WAT WAT WAT WAT WAT WAT WAT WAT WAT WAT WAT WAT WAT WAT 
WAT WAT WAT WAT WAT WAT WAT WAT WAT WAT WAT WAT WAT WAT WAT WAT WAT WAT WAT WAT 
WAT WAT WAT WAT WAT WAT WAT WAT WAT WAT WAT WAT WAT WAT WAT WAT WAT WAT WAT WAT 
WAT WAT WAT WAT WAT WAT WAT WAT WAT WAT WAT WAT WAT WAT WAT WAT WAT WAT WAT WAT 
WAT WAT WAT WAT WAT WAT WAT WAT WAT WAT WAT WAT WAT WAT WAT WAT WAT WAT WAT WAT 
WAT WAT WAT WAT WAT WAT WAT WAT WAT WAT WAT WAT WAT WAT WAT WAT WAT WAT WAT WAT 
WAT WAT WAT WAT WAT WAT WAT WAT WAT WAT WAT WAT WAT WAT WAT WAT WAT WAT WAT WAT 
WAT WAT WAT WAT WAT WAT WAT WAT WAT WAT WAT WAT WAT WAT WAT WAT WAT WAT WAT WAT 
WAT WAT WAT WAT WAT WAT WAT WAT WAT WAT WAT WAT WAT WAT WAT WAT WAT WAT WAT WAT 
WAT WAT WAT WAT WAT WAT WAT WAT WAT WAT WAT WAT WAT WAT WAT WAT WAT WAT WAT WAT 
WAT WAT WAT WAT WAT WAT WAT WAT WAT WAT WAT WAT WAT WAT WAT WAT WAT WAT WAT WAT 
WAT WAT WAT WAT WAT WAT WAT WAT WAT WAT WAT WAT WAT WAT WAT WAT WAT WAT WAT WAT 
WAT WAT WAT WAT WAT WAT WAT WAT WAT WAT WAT WAT WAT WAT WAT WAT WAT WAT WAT WAT 
WAT WAT WAT WAT WAT WAT WAT WAT WAT WAT WAT WAT WAT WAT WAT WAT WAT WAT WAT WAT 
WAT WAT WAT WAT WAT WAT WAT WAT WAT WAT WAT WAT WAT WAT WAT WAT WAT WAT WAT WAT 
WAT WAT WAT WAT WAT WAT WAT WAT WAT WAT WAT WAT WAT WAT WAT WAT WAT WAT WAT WAT 
WAT WAT WAT WAT WAT WAT WAT WAT WAT WAT WAT WAT WAT WAT WAT WAT WAT WAT WAT WAT 
WAT WAT WAT WAT WAT WAT WAT WAT WAT WAT WAT WAT WAT WAT WAT WAT WAT WAT WAT WAT 
WAT WAT WAT WAT WAT WAT WAT WAT WAT WAT WAT WAT WAT WAT WAT WAT WAT WAT WAT WAT 
WAT WAT WAT WAT WAT WAT WAT WAT WAT WAT WAT WAT WAT WAT WAT WAT WAT WAT WAT WAT 
WAT WAT WAT WAT WAT WAT WAT WAT WAT WAT WAT WAT WAT WAT WAT WAT WAT WAT WAT WAT 
WAT WAT WAT WAT WAT WAT WAT WAT WAT WAT WAT WAT WAT WAT WAT WAT WAT WAT WAT WAT 
WAT WAT WAT WAT WAT WAT WAT WAT WAT WAT WAT WAT WAT WAT WAT WAT WAT WAT WAT WAT 
WAT WAT WAT WAT WAT WAT WAT WAT WAT WAT WAT WAT WAT WAT WAT WAT WAT WAT WAT WAT 
WAT WAT WAT WAT WAT WAT WAT WAT WAT WAT WAT WAT WAT WAT WAT WAT WAT WAT WAT WAT 
WAT WAT WAT WAT WAT WAT WAT WAT WAT WAT WAT WAT WAT WAT WAT WAT WAT WAT WAT WAT 
WAT WAT WAT WAT WAT WAT WAT WAT WAT WAT WAT WAT WAT WAT WAT WAT WAT WAT WAT WAT 
WAT WAT WAT WAT WAT WAT WAT WAT WAT WAT WAT WAT WAT WAT WAT WAT WAT WAT WAT WAT 
WAT WAT WAT WAT WAT WAT WAT WAT WAT WAT WAT WAT WAT WAT WAT WAT WAT WAT WAT WAT 
WAT WAT WAT WAT WAT WAT WAT WAT WAT WAT WAT WAT WAT WAT WAT WAT WAT WAT WAT WAT 
WAT WAT WAT WAT WAT WAT WAT WAT WAT WAT WAT WAT WAT WAT WAT WAT WAT WAT WAT WAT 
WAT WAT WAT WAT WAT WAT WAT WAT WAT WAT WAT WAT WAT WAT WAT WAT WAT WAT WAT WAT 
WAT WAT WAT WAT WAT WAT WAT WAT WAT WAT WAT WAT WAT WAT WAT WAT WAT WAT WAT WAT 
WAT WAT WAT WAT WAT WAT WAT WAT WAT WAT WAT WAT WAT WAT WAT WAT WAT WAT WAT WAT 
WAT WAT WAT WAT WAT WAT WAT WAT WAT WAT WAT WAT WAT WAT WAT WAT WAT WAT WAT WAT 
WAT WAT WAT WAT WAT WAT WAT WAT WAT WAT WAT WAT WAT WAT WAT WAT WAT WAT WAT WAT 
WAT WAT WAT WAT WAT WAT WAT WAT WAT WAT WAT WAT WAT WAT WAT WAT WAT WAT WAT WAT 
WAT WAT WAT WAT WAT WAT WAT WAT WAT WAT WAT WAT WAT WAT WAT WAT WAT WAT WAT WAT 
WAT WAT WAT WAT WAT WAT WAT WAT WAT WAT WAT WAT WAT WAT WAT WAT WAT WAT WAT WAT 
WAT WAT WAT WAT WAT WAT WAT WAT WAT WAT WAT WAT WAT WAT WAT WAT WAT WAT WAT WAT 
WAT WAT WAT WAT WAT WAT WAT WAT WAT WAT WAT WAT WAT WAT WAT WAT WAT WAT WAT WAT 
WAT WAT WAT WAT WAT WAT WAT WAT WAT WAT WAT WAT WAT WAT WAT WAT WAT WAT WAT WAT 
WAT WAT WAT WAT WAT WAT WAT WAT WAT WAT WAT WAT WAT WAT WAT WAT WAT WAT WAT WAT 
WAT WAT WAT WAT WAT WAT WAT WAT WAT WAT WAT WAT WAT WAT WAT WAT WAT WAT WAT WAT 
WAT WAT WAT WAT WAT WAT WAT WAT WAT WAT WAT WAT WAT WAT WAT WAT WAT 
%FLAG RESIDUE_POINTER                                                           
%FORMAT(10I8)                                                                   
       1      32      66      97     131     162     192     222     252     283
     317     350     384     415     449     480     511     512     513     514
     515     516     517     518     519     520     521     522     523     524
     525     526     527     528     529     530     531     535     539     543
     547     551     555     559     563     567     571     575     579     583
     587     591     595     599     603     607     611     615     619     623
     627     631     635     639     643     647     651     655     659     663
     667     671     675     679     683     687     691     695     699     703
     707     711     715     719     723     727     731     735     739     743
     747     751     755     759     763     767     771     775     779     783
     787     791     795     799     803     807     811     815     819     823
     827     831     835     839     843     847     851     855     859     863
     867     871     875     879     883     887     891     895     899     903
     907     911     915     919     923     927     931     935     939     943
     947     951     955     959     963     967     971     975     979     983
     987     991     995     999    1003    1007    1011    1015    1019    1023
    1027    1031    1035    1039    1043    1047    1051    1055    1059    1063
    1067    1071    1075    1079    1083    1087    1091    1095    1099    1103
    1107    1111    1115    1119    1123    1127    1131    1135    1139    1143
    1147    1151    1155    1159    1163    1167    1171    1175    1179    1183
    1187    1191    1195    1199    1203    1207    1211    1215    1219    1223
    1227    1231    1235    1239    1243    1247    1251    1255    1259    1263
    1267    1271    1275    1279    1283    1287    1291    1295    1299    1303
    1307    1311    1315    1319    1323    1327    1331    1335    1339    1343
    1347    1351    1355    1359    1363    1367    1371    1375    1379    1383
    1387    1391    1395    1399    1403    1407    1411    1415    1419    1423
    1427    1431    1435    1439    1443    1447    1451    1455    1459    1463
    1467    1471    1475    1479    1483    1487    1491    1495    1499    1503
    1507    1511    1515    1519    1523    1527    1531    1535    1539    1543
    1547    1551    1555    1559    1563    1567    1571    1575    1579    1583
    1587    1591    1595    1599    1603    1607    1611    1615    1619    1623
    1627    1631    1635    1639    1643    1647    1651    1655    1659    1663
    1667    1671    1675    1679    1683    1687    1691    1695    1699    1703
    1707    1711    1715    1719    1723    1727    1731    1735    1739    1743
    1747    1751    1755    1759    1763    1767    1771    1775    1779    1783
    1787    1791    1795    1799    1803    1807    1811    1815    1819    1823
    1827    1831    1835    1839    1843    1847    1851    1855    1859    1863
    1867    1871    1875    1879    1883    1887    1891    1895    1899    1903
    1907    1911    1915    1919    1923    1927    1931    1935    1939    1943
    1947    1951    1955    1959    1963    1967    1971    1975    1979    1983
    1987    1991    1995    1999    2003    2007    2011    2015    2019    2023
    2027    2031    2035    2039    2043    2047    2051    2055    2059    2063
    2067    2071    2075    2079    2083    2087    2091    2095    2099    2103
    2107    2111    2115    2119    2123    2127    2131    2135    2139    2143
    2147    2151    2155    2159    2163    2167    2171    2175    2179    2183
    2187    2191    2195    2199    2203    2207    2211    2215    2219    2223
    2227    2231    2235    2239    2243    2247    2251    2255    2259    2263
    2267    2271    2275    2279    2283    2287    2291    2295    2299    2303
    2307    2311    2315    2319    2323    2327    2331    2335    2339    2343
    2347    2351    2355    2359    2363    2367    2371    2375    2379    2383
    2387    2391    2395    2399    2403    2407    2411    2415    2419    2423
    2427    2431    2435    2439    2443    2447    2451    2455    2459    2463
    2467    2471    2475    2479    2483    2487    2491    2495    2499    2503
    2507    2511    2515    2519    2523    2527    2531    2535    2539    2543
    2547    2551    2555    2559    2563    2567    2571    2575    2579    2583
    2587    2591    2595    2599    2603    2607    2611    2615    2619    2623
    2627    2631    2635    2639    2643    2647    2651    2655    2659    2663
    2667    2671    2675    2679    2683    2687    2691    2695    2699    2703
    2707    2711    2715    2719    2723    2727    2731    2735    2739    2743
    2747    2751    2755    2759    2763    2767    2771    2775    2779    2783
    2787    2791    2795    2799    2803    2807    2811    2815    2819    2823
    2827    2831    2835    2839    2843    2847    2851    2855    2859    2863
    2867    2871    2875    2879    2883    2887    2891    2895    2899    2903
    2907    2911    2915    2919    2923    2927    2931    2935    2939    2943
    2947    2951    2955    2959    2963    2967    2971    2975    2979    2983
    2987    2991    2995    2999    3003    3007    3011    3015    3019    3023
    3027    3031    3035    3039    3043    3047    3051    3055    3059    3063
    3067    3071    3075    3079    3083    3087    3091    3095    3099    3103
    3107    3111    3115    3119    3123    3127    3131    3135    3139    3143
    3147    3151    3155    3159    3163    3167    3171    3175    3179    3183
    3187    3191    3195    3199    3203    3207    3211    3215    3219    3223
    3227    3231    3235    3239    3243    3247    3251    3255    3259    3263
    3267    3271    3275    3279    3283    3287    3291    3295    3299    3303
    3307    3311    3315    3319    3323    3327    3331    3335    3339    3343
    3347    3351    3355    3359    3363    3367    3371    3375    3379    3383
    3387    3391    3395    3399    3403    3407    3411    3415    3419    3423
    3427    3431    3435    3439    3443    3447    3451    3455    3459    3463
    3467    3471    3475    3479    3483    3487    3491    3495    3499    3503
    3507    3511    3515    3519    3523    3527    3531    3535    3539    3543
    3547    3551    3555    3559    3563    3567    3571    3575    3579    3583
    3587    3591    3595    3599    3603    3607    3611    3615    3619    3623
    3627    3631    3635    3639    3643    3647    3651    3655    3659    3663
    3667    3671    3675    3679    3683    3687    3691    3695    3699    3703
    3707    3711    3715    3719    3723    3727    3731    3735    3739    3743
    3747    3751    3755    3759    3763    3767    3771    3775    3779    3783
    3787    3791    3795    3799    3803    3807    3811    3815    3819    3823
    3827    3831    3835    3839    3843    3847    3851    3855    3859    3863
    3867    3871    3875    3879    3883    3887    3891    3895    3899    3903
    3907    3911    3915    3919    3923    3927    3931    3935    3939    3943
    3947    3951    3955    3959    3963    3967    3971    3975    3979    3983
    3987    3991    3995    3999    4003    4007    4011    4015    4019    4023
    4027    4031    4035    4039    4043    4047    4051    4055    4059    4063
    4067    4071    4075    4079    4083    4087    4091    4095    4099    4103
    4107    4111    4115    4119    4123    4127    4131    4135    4139    4143
    4147    4151    4155    4159    4163    4167    4171    4175    4179    4183
    4187    4191    4195    4199    4203    4207    4211    4215    4219    4223
    4227    4231    4235    4239    4243    4247    4251    4255    4259    4263
    4267    4271    4275    4279    4283    4287    4291    4295    4299    4303
    4307    4311    4315    4319    4323    4327    4331    4335    4339    4343
    4347    4351    4355    4359    4363    4367    4371    4375    4379    4383
    4387    4391    4395    4399    4403    4407    4411    4415    4419    4423
    4427    4431    4435    4439    4443    4447    4451    4455    4459    4463
    4467    4471    4475    4479    4483    4487    4491    4495    4499    4503
    4507    4511    4515    4519    4523    4527    4531    4535    4539    4543
    4547    4551    4555    4559    4563    4567    4571    4575    4579    4583
    4587    4591    4595    4599    4603    4607    4611    4615    4619    4623
    4627    4631    4635    4639    4643    4647    4651    4655    4659    4663
    4667    4671    4675    4679    4683    4687    4691    4695    4699    4703
    4707    4711    4715    4719    4723    4727    4731    4735    4739    4743
    4747    4751    4755    4759    4763    4767    4771    4775    4779    4783
    4787    4791    4795    4799    4803    4807    4811    4815    4819    4823
    4827    4831    4835    4839    4843    4847    4851    4855    4859    4863
    4867    4871    4875    4879    4883    4887    4891    4895    4899    4903
    4907    4911    4915    4919    4923    4927    4931    4935    4939    4943
    4947    4951    4955    4959    4963    4967    4971    4975    4979    4983
    4987    4991    4995    4999    5003    5007    5011    5015    5019    5023
    5027    5031    5035    5039    5043    5047    5051    5055    5059    5063
    5067    5071    5075    5079    5083    5087    5091    5095    5099    5103
    5107    5111    5115    5119    5123    5127    5131    5135    5139    5143
    5147    5151    5155    5159    5163    5167    5171    5175    5179    5183
    5187    5191    5195    5199    5203    5207    5211    5215    5219    5223
    5227    5231    5235    5239    5243    5247    5251    5255    5259    5263
    5267    5271    5275    5279    5283    5287    5291    5295    5299    5303
    5307    5311    5315    5319    5323    5327    5331    5335    5339    5343
    5347    5351    5355    5359    5363    5367    5371    5375    5379    5383
    5387    5391    5395    5399    5403    5407    5411    5415    5419    5423
    5427    5431    5435    5439    5443    5447    5451    5455    5459    5463
    5467    5471    5475    5479    5483    5487    5491    5495    5499    5503
    5507    5511    5515    5519    5523    5527    5531    5535    5539    5543
    5547    5551    5555    5559    5563    5567    5571    5575    5579    5583
    5587    5591    5595    5599    5603    5607    5611    5615    5619    5623
    5627    5631    5635    5639    5643    5647    5651    5655    5659    5663
    5667    5671    5675    5679    5683    5687    5691    5695    5699    5703
    5707    5711    5715    5719    5723    5727    5731    5735    5739    5743
    5747    5751    5755    5759    5763    5767    5771    5775    5779    5783
    5787    5791    5795    5799    5803    5807    5811    5815    5819    5823
    5827    5831    5835    5839    5843    5847    5851    5855    5859    5863
    5867    5871    5875    5879    5883    5887    5891    5895    5899    5903
    5907    5911    5915    5919    5923    5927    5931    5935    5939    5943
    5947    5951    5955    5959    5963    5967    5971    5975    5979    5983
    5987    5991    5995    5999    6003    6007    6011    6015    6019    6023
    6027    6031    6035    6039    6043    6047    6051    6055    6059    6063
    6067    6071    6075    6079    6083    6087    6091    6095    6099    6103
    6107    6111    6115    6119    6123    6127    6131    6135    6139    6143
    6147    6151    6155    6159    6163    6167    6171    6175    6179    6183
    6187    6191    6195    6199    6203    6207    6211    6215    6219    6223
    6227    6231    6235    6239    6243    6247    6251    6255    6259    6263
    6267    6271    6275    6279    6283    6287    6291    6295    6299    6303
    6307    6311    6315    6319    6323    6327    6331    6335    6339    6343
    6347    6351    6355    6359    6363    6367    6371    6375    6379    6383
    6387    6391    6395    6399    6403    6407    6411    6415    6419    6423
    6427    6431    6435    6439    6443    6447    6451    6455    6459    6463
    6467    6471    6475    6479    6483    6487    6491    6495    6499    6503
    6507    6511    6515    6519    6523    6527    6531    6535    6539    6543
    6547    6551    6555    6559    6563    6567    6571    6575    6579    6583
    6587    6591    6595    6599    6603    6607    6611    6615    6619    6623
    6627    6631    6635    6639    6643    6647    6651    6655    6659    6663
    6667    6671    6675    6679    6683    6687    6691    6695    6699    6703
    6707    6711    6715    6719    6723    6727    6731    6735    6739    6743
    6747    6751    6755    6759    6763    6767    6771    6775    6779    6783
    6787    6791    6795    6799    6803    6807    6811    6815    6819    6823
    6827    6831    6835    6839    6843    6847    6851    6855    6859    6863
    6867    6871    6875    6879    6883    6887    6891    6895    6899    6903
    6907    6911    6915    6919    6923    6927    6931    6935    6939    6943
    6947    6951    6955    6959    6963    6967    6971    6975    6979    6983
    6987    6991    6995    6999    7003    7007    7011    7015    7019    7023
    7027    7031    7035    7039    7043    7047    7051    7055    7059    7063
    7067    7071    7075    7079    7083    7087    7091    7095    7099    7103
    7107    7111    7115    7119    7123    7127    7131    7135    7139    7143
    7147    7151    7155    7159    7163    7167    7171    7175    7179    7183
    7187    7191    7195    7199    7203    7207    7211    7215    7219    7223
    7227    7231    7235    7239    7243    7247    7251    7255    7259    7263
    7267    7271    7275    7279    7283    7287    7291    7295    7299    7303
    7307    7311    7315    7319    7323    7327    7331    7335    7339    7343
    7347    7351    7355    7359    7363    7367    7371    7375    7379    7383
    7387    7391    7395    7399    7403    7407    7411    7415    7419    7423
    7427    7431    7435    7439    7443    7447    7451    7455    7459    7463
    7467    7471    7475    7479    7483    7487    7491    7495    7499    7503
    7507    7511    7515    7519    7523    7527    7531    7535    7539    7543
    7547    7551    7555    7559    7563    7567    7571    7575    7579    7583
    7587    7591    7595    7599    7603    7607    7611    7615    7619    7623
    7627    7631    7635    7639    7643    7647    7651    7655    7659    7663
    7667    7671    7675    7679    7683    7687    7691    7695    7699    7703
    7707    7711    7715    7719    7723    7727    7731    7735    7739    7743
    7747    7751    7755    7759    7763    7767    7771    7775    7779    7783
    7787    7791    7795    7799    7803    7807    7811    7815    7819    7823
    7827    7831    7835    7839    7843    7847    7851    7855    7859    7863
    7867    7871    7875    7879    7883    7887    7891    7895    7899    7903
    7907    7911    7915    7919    7923    7927    7931    7935    7939    7943
    7947    7951    7955    7959    7963    7967    7971    7975    7979    7983
    7987    7991    7995    7999    8003    8007    8011    8015    8019    8023
    8027    8031    8035    8039    8043    8047    8051    8055    8059    8063
    8067    8071    8075    8079    8083    8087    8091    8095    8099    8103
    8107    8111    8115    8119    8123    8127    8131    8135    8139    8143
    8147    8151    8155    8159    8163    8167    8171    8175    8179    8183
    8187    8191    8195    8199    8203    8207    8211    8215    8219    8223
    8227    8231    8235    8239    8243    8247    8251    8255    8259    8263
    8267    8271    8275    8279    8283    8287    8291    8295    8299    8303
    8307    8311    8315    8319    8323    8327    8331    8335    8339    8343
    8347    8351    8355    8359    8363    8367    8371    8375    8379    8383
    8387    8391    8395    8399    8403    8407    8411    8415    8419    8423
    8427    8431    8435    8439    8443    8447    8451    8455    8459    8463
    8467    8471    8475    8479    8483    8487    8491    8495    8499    8503
    8507    8511    8515    8519    8523    8527    8531    8535    8539    8543
    8547    8551    8555    8559    8563    8567    8571    8575    8579    8583
    8587    8591    8595    8599    8603    8607    8611    8615    8619    8623
    8627    8631    8635    8639    8643    8647    8651    8655    8659    8663
    8667    8671    8675    8679    8683    8687    8691    8695    8699    8703
    8707    8711    8715    8719    8723    8727    8731    8735    8739    8743
    8747    8751    8755    8759    8763    8767    8771    8775    8779    8783
    8787    8791    8795    8799    8803    8807    8811    8815    8819    8823
    8827    8831    8835    8839    8843    8847    8851    8855    8859    8863
    8867    8871    8875    8879    8883    8887    8891    8895    8899    8903
    8907    8911    8915    8919    8923    8927    8931    8935    8939    8943
    8947    8951    8955    8959    8963    8967    8971    8975    8979    8983
    8987    8991    8995    8999    9003    9007    9011    9015    9019    9023
    9027    9031    9035    9039    9043    9047    9051    9055    9059    9063
    9067    9071    9075    9079    9083    9087    9091    9095    9099    9103
    9107    9111    9115    9119    9123    9127    9131    9135    9139    9143
    9147    9151    9155    9159    9163    9167    9171    9175    9179    9183
    9187    9191    9195    9199    9203    9207    9211    9215    9219    9223
    9227    9231    9235    9239    9243    9247    9251    9255    9259    9263
    9267    9271    9275    9279    9283    9287    9291    9295    9299    9303
    9307    9311    9315    9319    9323    9327    9331    9335    9339    9343
    9347    9351    9355    9359    9363    9367    9371    9375    9379    9383
    9387    9391    9395    9399    9403    9407    9411    9415    9419    9423
    9427    9431    9435    9439    9443    9447    9451    9455    9459    9463
    9467    9471    9475    9479    9483    9487    9491    9495    9499    9503
    9507    9511    9515    9519    9523    9527    9531    9535    9539    9543
    9547    9551    9555    9559    9563    9567    9571    9575    9579    9583
    9587    9591    9595    9599    9603    9607    9611    9615    9619    9623
    9627    9631    9635    9639    9643    9647    9651    9655    9659    9663
    9667    9671    9675    9679    9683    9687    9691    9695    9699    9703
    9707    9711    9715    9719    9723    9727    9731    9735    9739    9743
    9747    9751    9755    9759    9763    9767    9771    9775    9779    9783
    9787    9791    9795    9799    9803    9807    9811    9815    9819    9823
    9827    9831    9835    9839    9843    9847    9851    9855    9859    9863
    9867    9871    9875    9879    9883    9887    9891    9895    9899    9903
    9907    9911    9915    9919    9923    9927    9931    9935    9939    9943
    9947    9951    9955    9959    9963    9967    9971    9975    9979    9983
    9987    9991    9995    9999   10003   10007   10011   10015   10019   10023
   10027   10031   10035   10039   10043   10047   10051   10055   10059   10063
   10067   10071   10075   10079   10083   10087   10091   10095   10099   10103
   10107   10111   10115   10119   10123   10127   10131   10135   10139   10143
   10147   10151   10155   10159   10163   10167   10171   10175   10179   10183
   10187   10191   10195   10199   10203   10207   10211   10215   10219   10223
   10227   10231   10235   10239   10243   10247   10251   10255   10259   10263
   10267   10271   10275   10279   10283   10287   10291   10295   10299   10303
   10307   10311   10315   10319   10323   10327   10331   10335   10339   10343
   10347   10351   10355   10359   10363   10367   10371   10375   10379   10383
   10387   10391   10395   10399   10403   10407   10411   10415   10419   10423
   10427   10431   10435   10439   10443   10447   10451   10455   10459   10463
   10467   10471   10475   10479   10483   10487   10491   10495   10499   10503
   10507   10511   10515   10519   10523   10527   10531   10535   10539   10543
   10547   10551   10555   10559   10563   10567   10571   10575   10579   10583
   10587   10591   10595   10599   10603   10607   10611   10615   10619   10623
   10627   10631   10635   10639   10643   10647   10651   10655   10659   10663
   10667   10671   10675   10679   10683   10687   10691   10695   10699   10703
   10707   10711   10715   10719   10723   10727   10731   10735   10739   10743
   10747   10751   10755   10759   10763   10767   10771   10775   10779   10783
   10787   10791   10795   10799   10803   10807   10811   10815   10819   10823
   10827   10831   10835   10839   10843   10847   10851   10855   10859   10863
   10867   10871   10875   10879   10883   10887   10891   10895   10899   10903
   10907   10911   10915   10919   10923   10927   10931   10935   10939   10943
   10947   10951   10955   10959   10963   10967   10971   10975   10979   10983
   10987   10991   10995   10999   11003   11007   11011   11015   11019   11023
   11027   11031   11035   11039   11043   11047   11051   11055   11059   11063
   11067   11071   11075   11079   11083   11087   11091   11095   11099   11103
   11107   11111   11115   11119   11123   11127   11131   11135   11139   11143
   11147   11151   11155   11159   11163   11167   11171   11175   11179   11183
   11187   11191   11195   11199   11203   11207   11211   11215   11219   11223
   11227   11231   11235   11239   11243   11247   11251   11255   11259   11263
   11267   11271   11275   11279   11283   11287   11291   11295   11299   11303
   11307   11311   11315   11319   11323   11327   11331   11335   11339   11343
   11347   11351   11355   11359   11363   11367   11371   11375   11379   11383
   11387   11391   11395   11399   11403   11407   11411   11415   11419   11423
   11427   11431   11435   11439   11443   11447   11451   11455   11459   11463
   11467   11471   11475   11479   11483   11487   11491   11495   11499   11503
   11507   11511   11515   11519   11523   11527   11531   11535   11539   11543
   11547   11551   11555   11559   11563   11567   11571   11575   11579   11583
   11587   11591   11595   11599   11603   11607   11611   11615   11619   11623
   11627   11631   11635   11639   11643   11647   11651   11655   11659   11663
   11667   11671   11675   11679   11683   11687   11691   11695   11699   11703
   11707   11711   11715   11719   11723   11727   11731   11735   11739   11743
   11747   11751   11755   11759   11763   11767   11771   11775   11779   11783
   11787   11791   11795   11799   11803   11807   11811   11815   11819   11823
   11827   11831   11835   11839   11843   11847   11851   11855   11859   11863
   11867   11871   11875   11879   11883   11887   11891   11895   11899   11903
   11907   11911   11915   11919   11923   11927   11931   11935   11939   11943
   11947   11951   11955   11959   11963   11967   11971   11975   11979   11983
   11987   11991   11995   11999   12003   12007   12011   12015   12019   12023
   12027   12031   12035   12039   12043   12047   12051   12055   12059   12063
   12067   12071   12075   12079   12083   12087   12091   12095   12099   12103
   12107   12111   12115   12119   12123   12127   12131   12135   12139   12143
   12147   12151   12155   12159   12163   12167   12171   12175   12179   12183
   12187   12191   12195   12199   12203   12207   12211   12215   12219   12223
   12227   12231   12235   12239   12243   12247   12251   12255   12259   12263
   12267   12271   12275   12279   12283   12287   12291   12295   12299   12303
   12307   12311   12315   12319   12323   12327   12331   12335   12339   12343
   12347   12351   12355   12359   12363   12367   12371   12375   12379   12383
   12387   12391   12395   12399   12403   12407   12411   12415   12419   12423
   12427   12431   12435   12439   12443   12447   12451   12455   12459   12463
   12467   12471   12475   12479   12483   12487   12491   12495   12499   12503
   12507   12511   12515   12519   12523   12527   12531   12535   12539   12543
   12547   12551   12555   12559   12563   12567   12571   12575   12579   12583
   12587   12591   12595   12599   12603   12607   12611   12615   12619   12623
   12627   12631   12635   12639   12643   12647   12651   12655   12659   12663
   12667   12671   12675   12679   12683   12687   12691   12695   12699   12703
   12707   12711   12715   12719   12723   12727   12731   12735   12739   12743
   12747   12751   12755   12759   12763   12767   12771   12775   12779   12783
   12787   12791   12795   12799   12803   12807   12811   12815   12819   12823
   12827   12831   12835   12839   12843   12847   12851   12855   12859   12863
   12867   12871   12875   12879   12883   12887   12891   12895   12899   12903
   12907   12911   12915   12919   12923   12927   12931   12935   12939   12943
   12947   12951   12955   12959   12963   12967   12971   12975   12979   12983
   12987   12991   12995   12999   13003   13007   13011   13015   13019   13023
   13027   13031   13035   13039   13043   13047   13051   13055   13059   13063
   13067   13071   13075   13079   13083   13087   13091   13095   13099   13103
   13107   13111   13115   13119   13123   13127   13131   13135   13139   13143
   13147   13151   13155   13159   13163   13167   13171
%FLAG BOND_FORCE_CONSTANT                                                       
%FORMAT(5E16.8)                                                                 
  2.30000000E+02  5.53000000E+02  3.40000000E+02  3.20000000E+02  3.10000000E+02
  3.20000000E+02  4.61000000E+02  3.67000000E+02  5.02000000E+02  4.34000000E+02
  4.81000000E+02  4.83000000E+02  4.69000000E+02  5.20000000E+02  4.14000000E+02
  3.67000000E+02  5.29000000E+02  4.40000000E+02  4.36000000E+02  3.40000000E+02
  3.37000000E+02  3.40000000E+02  3.10000000E+02  3.20000000E+02  4.34000000E+02
  4.27000000E+02  5.70000000E+02  4.18000000E+02  4.47000000E+02  3.67000000E+02
  5.29000000E+02  4.40000000E+02  3.20000000E+02  5.25000000E+02  4.57000000E+02
  3.67000000E+02  4.27000000E+02  3.67000000E+02  5.49000000E+02  4.48000000E+02
  4.24000000E+02  3.67000000E+02  4.10000000E+02  3.67000000E+02  5.49000000E+02
  4.48000000E+02  5.53000000E+02  5.53000000E+02  5.53000000E+02
%FLAG BOND_EQUIL_VALUE                                                          
%FORMAT(5E16.8)                                                                 
  1.61000000E+00  9.60000000E-01  1.09000000E+00  1.41000000E+00  1.52600000E+00
  1.41000000E+00  1.35400000E+00  1.08000000E+00  1.32400000E+00  1.01000000E+00
  1.34000000E+00  1.33900000E+00  1.40400000E+00  1.37000000E+00  1.39100000E+00
  1.08000000E+00  1.30400000E+00  1.37100000E+00  1.37400000E+00  1.09000000E+00
  1.47500000E+00  1.09000000E+00  1.52600000E+00  1.41000000E+00  1.01000000E+00
  1.38100000E+00  1.22900000E+00  1.38800000E+00  1.41900000E+00  1.08000000E+00
  1.30400000E+00  1.37100000E+00  1.41000000E+00  1.48000000E+00  1.35800000E+00
  1.08000000E+00  1.43300000E+00  1.08000000E+00  1.35000000E+00  1.36500000E+00
  1.38300000E+00  1.08000000E+00  1.44400000E+00  1.08000000E+00  1.35000000E+00
  1.36500000E+00  9.57200000E-01  1.51360000E+00  1.25000000E-01
%FLAG ANGLE_FORCE_CONSTANT                                                      
%FORMAT(5E16.8)                                                                 
  1.00000000E+02  4.50000000E+01  5.00000000E+01  5.00000000E+01  5.50000000E+01
  5.00000000E+01  5.00000000E+01  5.00000000E+01  1.00000000E+02  5.00000000E+01
  7.00000000E+01  7.00000000E+01  3.50000000E+01  7.00000000E+01  6.30000000E+01
  5.00000000E+01  7.00000000E+01  7.00000000E+01  7.00000000E+01  7.00000000E+01
  7.00000000E+01  7.00000000E+01  5.00000000E+01  7.00000000E+01  7.00000000E+01
  5.00000000E+01  5.00000000E+01  7.00000000E+01  7.00000000E+01  7.00000000E+01
  5.00000000E+01  5.00000000E+01  7.00000000E+01  7.00000000E+01  4.00000000E+01
  5.00000000E+01  5.00000000E+01  6.00000000E+01  5.00000000E+01  3.50000000E+01
  5.00000000E+01  5.00000000E+01  4.00000000E+01  5.00000000E+01  5.00000000E+01
  5.50000000E+01  7.00000000E+01  5.00000000E+01  7.00000000E+01  7.00000000E+01
  8.00000000E+01  6.30000000E+01  5.00000000E+01  7.00000000E+01  8.00000000E+01
  7.00000000E+01  7.00000000E+01  5.00000000E+01  7.00000000E+01  7.00000000E+01
  5.00000000E+01  7.00000000E+01  7.00000000E+01  5.00000000E+01  5.00000000E+01
  1.40000000E+02  1.00000000E+02  8.00000000E+01  7.00000000E+01  5.00000000E+01
  7.00000000E+01  7.00000000E+01  5.00000000E+01  7.00000000E+01  5.00000000E+01
  6.30000000E+01  5.00000000E+01  7.00000000E+01  7.00000000E+01  8.00000000E+01
  7.00000000E+01  7.00000000E+01  7.00000000E+01  5.00000000E+01  8.00000000E+01
  7.00000000E+01  5.00000000E+01  7.00000000E+01  5.00000000E+01  6.30000000E+01
  5.00000000E+01  7.00000000E+01  7.00000000E+01  7.00000000E+01
%FLAG ANGLE_EQUIL_VALUE                                                         
%FORMAT(5E16.8)                                                                 
  1.88897066E+00  1.79070858E+00  1.91113635E+00  1.91113635E+00  1.89368305E+00
  1.91113635E+00  1.91113635E+00  1.91113635E+00  2.10312265E+00  2.01498349E+00
  1.93731630E+00  2.25322103E+00  2.09439600E+00  2.08217869E+00  2.04727209E+00
  2.09439600E+00  2.06996138E+00  2.15548255E+00  2.04727209E+00  2.22878641E+00
  2.31081692E+00  1.92684432E+00  2.14762857E+00  1.83957782E+00  1.81165254E+00
  1.91113635E+00  2.14762857E+00  1.98793087E+00  1.85354046E+00  2.20260646E+00
  1.91113635E+00  1.91113635E+00  2.24798504E+00  2.19562514E+00  1.91113635E+00
  1.91113635E+00  1.91113635E+00  1.91113635E+00  1.91113635E+00  1.91113635E+00
  1.91113635E+00  1.91113635E+00  1.91113635E+00  1.91113635E+00  1.91113635E+00
  1.89368305E+00  1.95826026E+00  2.05948940E+00  2.02458280E+00  2.15199189E+00
  2.10486798E+00  2.08043336E+00  2.03854544E+00  2.18515316E+00  2.24798504E+00
  1.94255229E+00  2.26892900E+00  2.14762857E+00  1.83957782E+00  1.81165254E+00
  2.14762857E+00  1.98793087E+00  2.24798504E+00  1.91113635E+00  1.91113635E+00
  2.09265067E+00  2.10312265E+00  2.13802925E+00  2.10312265E+00  2.15199189E+00
  2.09614133E+00  2.12057595E+00  2.08916001E+00  2.12232128E+00  2.08916001E+00
  2.04203610E+00  2.07868803E+00  2.11533996E+00  2.06996138E+00  2.11010397E+00
  2.11533996E+00  2.05250808E+00  2.20609712E+00  2.08916001E+00  2.18689849E+00
  1.99142153E+00  2.08916001E+00  2.12232128E+00  2.08916001E+00  2.10661331E+00
  2.07868803E+00  2.11533996E+00  2.01411082E+00  2.11533996E+00
%FLAG DIHEDRAL_FORCE_CONSTANT                                                   
%FORMAT(5E16.8)                                                                 
  1.85181000E-01  1.25653100E+00  3.54858000E-01  1.17500000E+00  1.44000000E-01
  2.50000000E-01  0.00000000E+00  1.66666667E-01  3.83333333E-01  1.55555556E-01
  1.60000000E-01  2.50000000E-01  1.20000000E+00  0.00000000E+00  6.80000000E+00
  3.50000000E+00  2.40000000E+00  4.80000000E+00  5.45000000E+00  4.15000000E+00
  1.70000000E+00  1.00000000E+01  1.65000000E+00  2.55000000E+00  1.00000000E-01
  3.83000000E-01  9.10000000E-01  1.91000000E+00  4.10000000E-01  6.50000000E-01
  2.00000000E-01  2.50000000E-01  1.80000000E-01  1.17804000E+00  9.21020000E-02
  9.62830000E-01  1.50000000E+00  3.00000000E+00  1.35000000E+00  8.10000000E-01
  1.73000000E+00  4.40000000E-01  4.00000000E+00  1.85000000E+00  6.65000000E+00
  1.45000000E+00  1.03000000E+00  1.52000000E+00  2.60000000E-01  2.17500000E+00
  3.00000000E-01  9.90000000E-01  1.67000000E+00  1.70000000E-01  0.00000000E+00
  1.10000000E+00  1.00000000E+00  1.05000000E+01
%FLAG DIHEDRAL_PERIODICITY                                                      
%FORMAT(5E16.8)                                                                 
  1.00000000E+00  2.00000000E+00  3.00000000E+00  2.00000000E+00  3.00000000E+00
  1.00000000E+00  3.00000000E+00  3.00000000E+00  3.00000000E+00  3.00000000E+00
  3.00000000E+00  3.00000000E+00  2.00000000E+00  2.00000000E+00  2.00000000E+00
  2.00000000E+00  2.00000000E+00  2.00000000E+00  2.00000000E+00  2.00000000E+00
  2.00000000E+00  2.00000000E+00  2.00000000E+00  2.00000000E+00  2.00000000E+00
  3.00000000E+00  1.00000000E+00  2.00000000E+00  3.00000000E+00  2.00000000E+00
  1.00000000E+00  2.00000000E+00  3.00000000E+00  1.00000000E+00  2.00000000E+00
  3.00000000E+00  2.00000000E+00  2.00000000E+00  2.00000000E+00  1.00000000E+00
  2.00000000E+00  3.00000000E+00  2.00000000E+00  2.00000000E+00  2.00000000E+00
  2.00000000E+00  1.00000000E+00  2.00000000E+00  3.00000000E+00  2.00000000E+00
  3.00000000E+00  1.00000000E+00  2.00000000E+00  3.00000000E+00  2.00000000E+00
  2.00000000E+00  2.00000000E+00  2.00000000E+00
%FLAG DIHEDRAL_PHASE                                                            
%FORMAT(5E16.8)                                                                 
  5.54929070E-01  6.14285649E+00  6.23514744E+00  0.00000000E+00  0.00000000E+00
  0.00000000E+00  0.00000000E+00  0.00000000E+00  0.00000000E+00  0.00000000E+00
  0.00000000E+00  0.00000000E+00  0.00000000E+00  0.00000000E+00  3.14159400E+00
  3.14159400E+00  3.14159400E+00  3.14159400E+00  3.14159400E+00  3.14159400E+00
  3.14159400E+00  3.14159400E+00  3.14159400E+00  3.14159400E+00  3.14159400E+00
  0.00000000E+00  2.09614133E+00  1.22173100E-02  3.93397382E+00  0.00000000E+00
  3.14159400E+00  3.14159400E+00  0.00000000E+00  3.33317067E+00  5.15976777E+00
  6.07541257E+00  3.14159400E+00  3.14159400E+00  3.14159400E+00  1.52716375E+00
  6.98132000E-02  3.83623534E+00  3.14159400E+00  3.14159400E+00  3.14159400E+00
  3.14159400E+00  3.22536984E+00  1.36135740E-01  3.65821168E+00  3.14159400E+00
  0.00000000E+00  3.28122040E+00  8.20305100E-02  3.68090097E+00  3.14159400E+00
  3.14159400E+00  3.14159400E+00  3.14159400E+00
%FLAG SCEE_SCALE_FACTOR                                                         
%FORMAT(5E16.8)                                                                 
  1.20000000E+00  1.20000000E+00  1.20000000E+00  1.20000000E+00  1.20000000E+00
  1.20000000E+00  1.20000000E+00  1.20000000E+00  1.20000000E+00  1.20000000E+00
  1.20000000E+00  1.20000000E+00  1.20000000E+00  1.20000000E+00  1.20000000E+00
  1.20000000E+00  1.20000000E+00  1.20000000E+00  1.20000000E+00  1.20000000E+00
  1.20000000E+00  1.20000000E+00  1.20000000E+00  1.20000000E+00  1.20000000E+00
  1.20000000E+00  1.20000000E+00  1.20000000E+00  1.20000000E+00  1.20000000E+00
  1.20000000E+00  1.20000000E+00  1.20000000E+00  1.20000000E+00  1.20000000E+00
  1.20000000E+00  1.20000000E+00  1.20000000E+00  1.20000000E+00  1.20000000E+00
  1.20000000E+00  1.20000000E+00  1.20000000E+00  1.20000000E+00  1.20000000E+00
  1.20000000E+00  1.20000000E+00  1.20000000E+00  1.20000000E+00  1.20000000E+00
  1.20000000E+00  1.20000000E+00  1.20000000E+00  1.20000000E+00  0.00000000E+00
  0.00000000E+00  0.00000000E+00  0.00000000E+00
%FLAG SCNB_SCALE_FACTOR                                                         
%FORMAT(5E16.8)                                                                 
  2.00000000E+00  2.00000000E+00  2.00000000E+00  2.00000000E+00  2.00000000E+00
  2.00000000E+00  2.00000000E+00  2.00000000E+00  2.00000000E+00  2.00000000E+00
  2.00000000E+00  2.00000000E+00  2.00000000E+00  2.00000000E+00  2.00000000E+00
  2.00000000E+00  2.00000000E+00  2.00000000E+00  2.00000000E+00  2.00000000E+00
  2.00000000E+00  2.00000000E+00  2.00000000E+00  2.00000000E+00  2.00000000E+00
  2.00000000E+00  2.00000000E+00  2.00000000E+00  2.00000000E+00  2.00000000E+00
  2.00000000E+00  2.00000000E+00  2.00000000E+00  2.00000000E+00  2.00000000E+00
  2.00000000E+00  2.00000000E+00  2.00000000E+00  2.00000000E+00  2.00000000E+00
  2.00000000E+00  2.00000000E+00  2.00000000E+00  2.00000000E+00  2.00000000E+00
  2.00000000E+00  2.00000000E+00  2.00000000E+00  2.00000000E+00  2.00000000E+00
  2.00000000E+00  2.00000000E+00  2.00000000E+00  2.00000000E+00  0.00000000E+00
  0.00000000E+00  0.00000000E+00  0.00000000E+00
%FLAG SOLTY                                                                     
%FORMAT(5E16.8)                                                                 
  0.00000000E+00  0.00000000E+00  0.00000000E+00  0.00000000E+00  0.00000000E+00
  0.00000000E+00  0.00000000E+00  0.00000000E+00  0.00000000E+00  0.00000000E+00
  0.00000000E+00  0.00000000E+00  0.00000000E+00  0.00000000E+00  0.00000000E+00
  0.00000000E+00  0.00000000E+00  0.00000000E+00  0.00000000E+00  0.00000000E+00
  0.00000000E+00  0.00000000E+00  0.00000000E+00  0.00000000E+00  0.00000000E+00
  0.00000000E+00  0.00000000E+00  0.00000000E+00  0.00000000E+00  0.00000000E+00
  0.00000000E+00  0.00000000E+00
%FLAG LENNARD_JONES_ACOEF                                                       
%FORMAT(5E16.8)                                                                 
  0.00000000E+00  0.00000000E+00  5.81803229E+05  0.00000000E+00  7.91544157E+05
  1.04308023E+06  0.00000000E+00  4.66922514E+04  6.78771368E+04  3.25969625E+03
  0.00000000E+00  4.58874091E+05  6.28541240E+05  3.63097246E+04  3.61397723E+05
  0.00000000E+00  3.15360051E+04  4.68930885E+04  2.09814978E+03  2.44050579E+04
  1.32801250E+03  0.00000000E+00  7.44975864E+05  9.95480466E+05  6.20665997E+04
  5.89818288E+05  4.24594555E+04  9.44293233E+05  0.00000000E+00  7.01803794E+05
  9.24822270E+05  6.01816484E+04  5.57281136E+05  4.15766412E+04  8.82619071E+05
  8.19971662E+05  0.00000000E+00  4.09427581E+04  5.98885646E+04  2.82099197E+03
  3.17965283E+04  1.80748014E+03  5.46147253E+04  5.30987710E+04  2.43828624E+03
  0.00000000E+00  1.40467023E+03  2.56678134E+03  5.94667300E+01  1.03954408E+03
  3.20009193E+01  2.12601181E+03  2.27577561E+03  4.90239937E+01  1.39982777E-01
  0.00000000E+00  1.98683736E+06  2.54188684E+06  1.81087383E+05  1.58759528E+06
  1.27716552E+05  2.45746558E+06  2.25370349E+06  1.60682053E+05  8.41065839E+03
  6.02589390E+06  0.00000000E+00  4.71003287E+05  6.47841731E+05  3.69471530E+04
  3.70622491E+05  2.47595516E+04  6.06829342E+05  5.74393458E+05  3.23283631E+04
  1.02595236E+03  1.64263766E+06  3.79876399E+05  0.00000000E+00  4.96707306E+04
  7.18621074E+04  3.50301067E+03  3.86654993E+04  2.26273716E+03  6.58473870E+04
  6.37148278E+04  3.03448006E+03  6.63368273E+01  1.90880272E+05  3.93690817E+04
  3.76169105E+03  0.00000000E+00  6.00750218E+04  8.59947003E+04  4.33325458E+03
  4.68711055E+04  2.82099197E+03  7.91627154E+04  7.62451550E+04  3.76169105E+03
  8.90987508E+01  2.26202022E+05  4.77908183E+04  4.64559155E+03  5.71629601E+03
  0.00000000E+00  3.16918876E+04  4.64191441E+04  2.17738618E+03  2.46051499E+04
  1.39372096E+03  4.23067750E+04  4.11564297E+04  1.88148489E+03  3.74417059E+01
  1.24696085E+05  2.50122819E+04  2.34265644E+03  2.90541589E+03  1.45174812E+03
  0.00000000E+00  3.24638037E+06  3.82345548E+06  3.50054334E+05  2.63960199E+06
  2.61171322E+05  3.83298374E+06  3.38997584E+06  3.15445504E+05  2.80154991E+04
  8.38547054E+06  2.76037949E+06  3.64590694E+05  4.20665739E+05  2.45618234E+05
  9.33304478E+06  0.00000000E+00  6.18768395E+05  8.33694635E+05  5.06742043E+04
  4.89037676E+05  3.44633020E+04  7.87979792E+05  7.39175513E+05  4.45186479E+04
  1.63574730E+03  2.07390062E+06  5.02600786E+05  5.38277794E+04  6.48912872E+04
  3.44739632E+04  3.30472238E+06  6.56136207E+05  0.00000000E+00  0.00000000E+00
  0.00000000E+00  0.00000000E+00  0.00000000E+00  0.00000000E+00  0.00000000E+00
  0.00000000E+00  0.00000000E+00  0.00000000E+00  0.00000000E+00  0.00000000E+00
  0.00000000E+00  0.00000000E+00  0.00000000E+00  0.00000000E+00  0.00000000E+00
  0.00000000E+00
%FLAG LENNARD_JONES_BCOEF                                                       
%FORMAT(5E16.8)                                                                 
  0.00000000E+00  0.00000000E+00  6.99746810E+02  0.00000000E+00  6.93079947E+02
  6.75612247E+02  0.00000000E+00  1.03606917E+02  1.06076943E+02  1.43076527E+01
  0.00000000E+00  5.89183300E+02  5.85549272E+02  8.66220817E+01  4.95732238E+02
  0.00000000E+00  8.51470647E+01  8.81685417E+01  1.14788417E+01  7.10161395E+01
  9.13231543E+00  0.00000000E+00  7.50714425E+02  7.36907417E+02  1.13252061E+02
  6.33305958E+02  9.36708259E+01  8.01323529E+02  0.00000000E+00  6.14502845E+02
  5.99015525E+02  9.40505980E+01  5.19163331E+02  7.81725398E+01  6.53361429E+02
  5.31102864E+02  0.00000000E+00  9.59185913E+01  9.85097219E+01  1.31591746E+01
  8.01410250E+01  1.05333009E+01  1.05031585E+02  8.73413012E+01  1.20953369E+01
  0.00000000E+00  1.79702257E+01  2.06278363E+01  1.93248820E+00  1.46567808E+01
  1.41762397E+00  2.09604198E+01  1.82891803E+01  1.73473071E+00  9.37598976E-02
  0.00000000E+00  1.27682121E+03  1.22636552E+03  2.01468199E+02  1.08210555E+03
  1.69194406E+02  1.34630496E+03  1.08732781E+03  1.87626421E+02  4.34187588E+01
  2.19561270E+03  0.00000000E+00  6.29300710E+02  6.26720080E+02  9.21192136E+01
  5.29252520E+02  7.54103785E+01  6.77220874E+02  5.55666448E+02  8.51921330E+01
  1.53505284E+01  1.16041466E+03  5.64885984E+02  0.00000000E+00  1.05648788E+02
  1.07908863E+02  1.46638650E+01  8.83744760E+01  1.17854122E+01  1.15327881E+02
  9.56748258E+01  1.34932874E+01  2.01792524E+00  2.04498832E+02  9.40124296E+01
  1.50233639E+01  0.00000000E+00  1.16187983E+02  1.18043746E+02  1.63092814E+01
  9.73010751E+01  1.31591746E+01  1.26451907E+02  1.04660679E+02  1.50233639E+01
  2.33864085E+00  2.22617115E+02  1.03580945E+02  1.66953734E+01  1.85196588E+01
  0.00000000E+00  7.51198867E+01  7.72008943E+01  1.02911067E+01  6.27544713E+01
  8.23345782E+00  8.22880228E+01  6.84483362E+01  9.45785428E+00  1.34949775E+00
  1.47130715E+02  6.67038526E+01  1.05535009E+01  1.17529369E+01  7.39527815E+00
  0.00000000E+00  8.02009911E+02  7.39096166E+02  1.37645254E+02  6.85646169E+02
  1.18892992E+02  8.26226877E+02  6.55302031E+02  1.29182470E+02  3.89397084E+01
  1.27274036E+03  7.39192956E+02  1.38881438E+02  1.49179788E+02  1.01470159E+02
  6.59809978E+02  0.00000000E+00  6.76761650E+02  6.67064884E+02  1.01222865E+02
  5.70418543E+02  8.34763787E+01  7.24069102E+02  5.91437209E+02  9.38002600E+01
  1.81862545E+01  1.22338095E+03  6.09644486E+02  1.03142177E+02  1.13246882E+02
  7.34759640E+01  7.58868174E+02  6.53563058E+02  0.00000000E+00  0.00000000E+00
  0.00000000E+00  0.00000000E+00  0.00000000E+00  0.00000000E+00  0.00000000E+00
  0.00000000E+00  0.00000000E+00  0.00000000E+00  0.00000000E+00  0.00000000E+00
  0.00000000E+00  0.00000000E+00  0.00000000E+00  0.00000000E+00  0.00000000E+00
  0.00000000E+00
%FLAG BONDS_INC_HYDROGEN                                                        
%FORMAT(10I8)                                                                   
      84      87       2      78      81       3      72      75       3      60
      63       8      48      51      10      48      54      10      33      36
      16      24      27      20      15      18       3       6       9      22
       6      12      22       0       3       2     186     189       2     180
     183       3     174     177       3     159     162      10     159     165
      10     150     153      25     132     135      30     123     126      20
     114     117       3     105     108      22     105     111      22     279
     282       2     273     276       3     267     270       3     249     252
      10     249     255      10     240     243      36     234     237      38
     225     228      20     216     219       3     207     210      22     207
     213      22     381     384       2     375     378       3     369     372
       3     354     357      10     354     360      10     345     348      25
     327     330      30     318     321      20     309     312       3     300
     303      22     300     306      22     474     477       2     468     471
       3     462     465       3     444     447      10     444     450      10
     435     438      36     429     432      38     420     423      20     411
     414       3     402     405      22     402     408      22     564     567
       2     558     561       3     552     555       3     540     543      25
     528     531      42     522     525      44     513     516      20     504
     507       3     495     498      22     495     501      22     654     657
       2     648     651       3     642     645       3     630     633      25
     618     621      42     612     615      44     603     606      20     594
     597       3     585     588      22     585     591      22     744     747
       2     738     741       3     732     735       3     720     723      25
     708     711      42     702     705      44     693     696      20     684
     687       3     675     678      22     675     681      22     837     840
       2     831     834       3     825     828       3     807     810      10
     807     813      10     798     801      36     792     795      38     783
     786      20     774     777       3     765     768      22     765     771
      22     939     942       2     933     936       3     927     930       3
     912     915      10     912     918      10     903     906      25     885
     888      30     876     879      20     867     870       3     858     861
      22     858     864      22    1038    1041       2    1032    1035       3
    1026    1029       3    1014    1017       8    1002    1005      10    1002
    1008      10     987     990      16     978     981      20     969     972
       3     960     963      22     960     966      22    1140    1143       2
    1134    1137       3    1128    1131       3    1113    1116      10    1113
    1119      10    1104    1107      25    1086    1089      30    1077    1080
      20    1068    1071       3    1059    1062      22    1059    1065      22
    1233    1236       2    1227    1230       3    1221    1224       3    1203
    1206      10    1203    1209      10    1194    1197      36    1188    1191
      38    1179    1182      20    1170    1173       3    1161    1164      22
    1161    1167      22    1335    1338       2    1329    1332       3    1323
    1326       3    1308    1311      10    1308    1314      10    1299    1302
      25    1281    1284      30    1272    1275      20    1263    1266       3
    1254    1257      22    1254    1260      22    1428    1431       2    1422
    1425       3    1416    1419       3    1398    1401      10    1398    1404
      10    1389    1392      36    1383    1386      38    1374    1377      20
    1365    1368       3    1356    1359      22    1356    1362      22    1524
    1527       2    1518    1521       2    1512    1515       3    1506    1509
       3    1494    1497      25    1482    1485      42    1476    1479      44
    1467    1470      20    1458    1461       3    1449    1452      22    1449
    1455      22    1593    1590      47    1596    1590      47    1596    1593
      48    1605    1602      47    1608    1602      47    1608    1605      48
    1617    1614      47    1620    1614      47    1620    1617      48    1629
    1626      47    1632    1626      47    1632    1629      48    1641    1638
      47    1644    1638      47    1644    1641      48    1653    1650      47
    1656    1650      47    1656    1653      48    1665    1662      47    1668
    1662      47    1668    1665      48    1677    1674      47    1680    1674
      47    1680    1677      48    1689    1686      47    1692    1686      47
    1692    1689      48    1701    1698      47    1704    1698      47    1704
    1701      48    1713    1710      47    1716    1710      47    1716    1713
      48    1725    1722      47    1728    1722      47    1728    1725      48
    1737    1734      47    1740    1734      47    1740    1737      48    1749
    1746      47    1752    1746      47    1752    1749      48    1761    1758
      47    1764    1758      47    1764    1761      48    1773    1770      47
    1776    1770      47    1776    1773      48    1785    1782      47    1788
    1782      47    1788    1785      48    1797    1794      47    1800    1794
      47    1800    1797      48    1809    1806      47    1812    1806      47
    1812    1809      48    1821    1818      47    1824    1818      47    1824
    1821      48    1833    1830      47    1836    1830      47    1836    1833
      48    1845    1842      47    1848    1842      47    1848    1845      48
    1857    1854      47    1860    1854      47    1860    1857      48    1869
    1866      47    1872    1866      47    1872    1869      48    1881    1878
      47    1884    1878      47    1884    1881      48    1893    1890      47
    1896    1890      47    1896    1893      48    1905    1902      47    1908
    1902      47    1908    1905      48    1917    1914      47    1920    1914
      47    1920    1917      48    1929    1926      47    1932    1926      47
    1932    1929      48    1941    1938      47    1944    1938      47    1944
    1941      48    1953    1950      47    1956    1950      47    1956    1953
      48    1965    1962      47    1968    1962      47    1968    1965      48
    1977    1974      47    1980    1974      47    1980    1977      48    1989
    1986      47    1992    1986      47    1992    1989      48    2001    1998
      47    2004    1998      47    2004    2001      48    2013    2010      47
    2016    2010      47    2016    2013      48    2025    2022      47    2028
    2022      47    2028    2025      48    2037    2034      47    2040    2034
      47    2040    2037      48    2049    2046      47    2052    2046      47
    2052    2049      48    2061    2058      47    2064    2058      47    2064
    2061      48    2073    2070      47    2076    2070      47    2076    2073
      48    2085    2082      47    2088    2082      47    2088    2085      48
    2097    2094      47    2100    2094      47    2100    2097      48    2109
    2106      47    2112    2106      47    2112    2109      48    2121    2118
      47    2124    2118      47    2124    2121      48    2133    2130      47
    2136    2130      47    2136    2133      48    2145    2142      47    2148
    2142      47    2148    2145      48    2157    2154      47    2160    2154
      47    2160    2157      48    2169    2166      47    2172    2166      47
    2172    2169      48    2181    2178      47    2184    2178      47    2184
    2181      48    2193    2190      47    2196    2190      47    2196    2193
      48    2205    2202      47    2208    2202      47    2208    2205      48
    2217    2214      47    2220    2214      47    2220    2217      48    2229
    2226      47    2232    2226      47    2232    2229      48    2241    2238
      47    2244    2238      47    2244    2241      48    2253    2250      47
    2256    2250      47    2256    2253      48    2265    2262      47    2268
    2262      47    2268    2265      48    2277    2274      47    2280    2274
      47    2280    2277      48    2289    2286      47    2292    2286      47
    2292    2289      48    2301    2298      47    2304    2298      47    2304
    2301      48    2313    2310      47    2316    2310      47    2316    2313
      48    2325    2322      47    2328    2322      47    2328    2325      48
    2337    2334      47    2340    2334      47    2340    2337      48    2349
    2346      47    2352    2346      47    2352    2349      48    2361    2358
      47    2364    2358      47    2364    2361      48    2373    2370      47
    2376    2370      47    2376    2373      48    2385    2382      47    2388
    2382      47    2388    2385      48    2397    2394      47    2400    2394
      47    2400    2397      48    2409    2406      47    2412    2406      47
    2412    2409      48    2421    2418      47    2424    2418      47    2424
    2421      48    2433    2430      47    2436    2430      47    2436    2433
      48    2445    2442      47    2448    2442      47    2448    2445      48
    2457    2454      47    2460    2454      47    2460    2457      48    2469
    2466      47    2472    2466      47    2472    2469      48    2481    2478
      47    2484    2478      47    2484    2481      48    2493    2490      47
    2496    2490      47    2496    2493      48    2505    2502      47    2508
    2502      47    2508    2505      48    2517    2514      47    2520    2514
      47    2520    2517      48    2529    2526      47    2532    2526      47
    2532    2529      48    2541    2538      47    2544    2538      47    2544
    2541      48    2553    2550      47    2556    2550      47    2556    2553
      48    2565    2562      47    2568    2562      47    2568    2565      48
    2577    2574      47    2580    2574      47    2580    2577      48    2589
    2586      47    2592    2586      47    2592    2589      48    2601    2598
      47    2604    2598      47    2604    2601      48    2613    2610      47
    2616    2610      47    2616    2613      48    2625    2622      47    2628
    2622      47    2628    2625      48    2637    2634      47    2640    2634
      47    2640    2637      48    2649    2646      47    2652    2646      47
    2652    2649      48    2661    2658      47    2664    2658      47    2664
    2661      48    2673    2670      47    2676    2670      47    2676    2673
      48    2685    2682      47    2688    2682      47    2688    2685      48
    2697    2694      47    2700    2694      47    2700    2697      48    2709
    2706      47    2712    2706      47    2712    2709      48    2721    2718
      47    2724    2718      47    2724    2721      48    2733    2730      47
    2736    2730      47    2736    2733      48    2745    2742      47    2748
    2742      47    2748    2745      48    2757    2754      47    2760    2754
      47    2760    2757      48    2769    2766      47    2772    2766      47
    2772    2769      48    2781    2778      47    2784    2778      47    2784
    2781      48    2793    2790      47    2796    2790      47    2796    2793
      48    2805    2802      47    2808    2802      47    2808    2805      48
    2817    2814      47    2820    2814      47    2820    2817      48    2829
    2826      47    2832    2826      47    2832    2829      48    2841    2838
      47    2844    2838      47    2844    2841      48    2853    2850      47
    2856    2850      47    2856    2853      48    2865    2862      47    2868
    2862      47    2868    2865      48    2877    2874      47    2880    2874
      47    2880    2877      48    2889    2886      47    2892    2886      47
    2892    2889      48    2901    2898      47    2904    2898      47    2904
    2901      48    2913    2910      47    2916    2910      47    2916    2913
      48    2925    2922      47    2928    2922      47    2928    2925      48
    2937    2934      47    2940    2934      47    2940    2937      48    2949
    2946      47    2952    2946      47    2952    2949      48    2961    2958
      47    2964    2958      47    2964    2961      48    2973    2970      47
    2976    2970      47    2976    2973      48    2985    2982      47    2988
    2982      47    2988    2985      48    2997    2994      47    3000    2994
      47    3000    2997      48    3009    3006      47    3012    3006      47
    3012    3009      48    3021    3018      47    3024    3018      47    3024
    3021      48    3033    3030      47    3036    3030      47    3036    3033
      48    3045    3042      47    3048    3042      47    3048    3045      48
    3057    3054      47    3060    3054      47    3060    3057      48    3069
    3066      47    3072    3066      47    3072    3069      48    3081    3078
      47    3084    3078      47    3084    3081      48    3093    3090      47
    3096    3090      47    3096    3093      48    3105    3102      47    3108
    3102      47    3108    3105      48    3117    3114      47    3120    3114
      47    3120    3117      48    3129    3126      47    3132    3126      47
    3132    3129      48    3141    3138      47    3144    3138      47    3144
    3141      48    3153    3150      47    3156    3150      47    3156    3153
      48    3165    3162      47    3168    3162      47    3168    3165      48
    3177    3174      47    3180    3174      47    3180    3177      48    3189
    3186      47    3192    3186      47    3192    3189      48    3201    3198
      47    3204    3198      47    3204    3201      48    3213    3210      47
    3216    3210      47    3216    3213      48    3225    3222      47    3228
    3222      47    3228    3225      48    3237    3234      47    3240    3234
      47    3240    3237      48    3249    3246      47    3252    3246      47
    3252    3249      48    3261    3258      47    3264    3258      47    3264
    3261      48    3273    3270      47    3276    3270      47    3276    3273
      48    3285    3282      47    3288    3282      47    3288    3285      48
    3297    3294      47    3300    3294      47    3300    3297      48    3309
    3306      47    3312    3306      47    3312    3309      48    3321    3318
      47    3324    3318      47    3324    3321      48    3333    3330      47
    3336    3330      47    3336    3333      48    3345    3342      47    3348
    3342      47    3348    3345      48    3357    3354      47    3360    3354
      47    3360    3357      48    3369    3366      47    3372    3366      47
    3372    3369      48    3381    3378      47    3384    3378      47    3384
    3381      48    3393    3390      47    3396    3390      47    3396    3393
      48    3405    3402      47    3408    3402      47    3408    3405      48
    3417    3414      47    3420    3414      47    3420    3417      48    3429
    3426      47    3432    3426      47    3432    3429      48    3441    3438
      47    3444    3438      47    3444    3441      48    3453    3450      47
    3456    3450      47    3456    3453      48    3465    3462      47    3468
    3462      47    3468    3465      48    3477    3474      47    3480    3474
      47    3480    3477      48    3489    3486      47    3492    3486      47
    3492    3489      48    3501    3498      47    3504    3498      47    3504
    3501      48    3513    3510      47    3516    3510      47    3516    3513
      48    3525    3522      47    3528    3522      47    3528    3525      48
    3537    3534      47    3540    3534      47    3540    3537      48    3549
    3546      47    3552    3546      47    3552    3549      48    3561    3558
      47    3564    3558      47    3564    3561      48    3573    3570      47
    3576    3570      47    3576    3573      48    3585    3582      47    3588
    3582      47    3588    3585      48    3597    3594      47    3600    3594
      47    3600    3597      48    3609    3606      47    3612    3606      47
    3612    3609      48    3621    3618      47    3624    3618      47    3624
    3621      48    3633    3630      47    3636    3630      47    3636    3633
      48    3645    3642      47    3648    3642      47    3648    3645      48
    3657    3654      47    3660    3654      47    3660    3657      48    3669
    3666      47    3672    3666      47    3672    3669      48    3681    3678
      47    3684    3678      47    3684    3681      48    3693    3690      47
    3696    3690      47    3696    3693      48    3705    3702      47    3708
    3702      47    3708    3705      48    3717    3714      47    3720    3714
      47    3720    3717      48    3729    3726      47    3732    3726      47
    3732    3729      48    3741    3738      47    3744    3738      47    3744
    3741      48    3753    3750      47    3756    3750      47    3756    3753
      48    3765    3762      47    3768    3762      47    3768    3765      48
    3777    3774      47    3780    3774      47    3780    3777      48    3789
    3786      47    3792    3786      47    3792    3789      48    3801    3798
      47    3804    3798      47    3804    3801      48    3813    3810      47
    3816    3810      47    3816    3813      48    3825    3822      47    3828
    3822      47    3828    3825      48    3837    3834      47    3840    3834
      47    3840    3837      48    3849    3846      47    3852    3846      47
    3852    3849      48    3861    3858      47    3864    3858      47    3864
    3861      48    3873    3870      47    3876    3870      47    3876    3873
      48    3885    3882      47    3888    3882      47    3888    3885      48
    3897    3894      47    3900    3894      47    3900    3897      48    3909
    3906      47    3912    3906      47    3912    3909      48    3921    3918
      47    3924    3918      47    3924    3921      48    3933    3930      47
    3936    3930      47    3936    3933      48    3945    3942      47    3948
    3942      47    3948    3945      48    3957    3954      47    3960    3954
      47    3960    3957      48    3969    3966      47    3972    3966      47
    3972    3969      48    3981    3978      47    3984    3978      47    3984
    3981      48    3993    3990      47    3996    3990      47    3996    3993
      48    4005    4002      47    4008    4002      47    4008    4005      48
    4017    4014      47    4020    4014      47    4020    4017      48    4029
    4026      47    4032    4026      47    4032    4029      48    4041    4038
      47    4044    4038      47    4044    4041      48    4053    4050      47
    4056    4050      47    4056    4053      48    4065    4062      47    4068
    4062      47    4068    4065      48    4077    4074      47    4080    4074
      47    4080    4077      48    4089    4086      47    4092    4086      47
    4092    4089      48    4101    4098      47    4104    4098      47    4104
    4101      48    4113    4110      47    4116    4110      47    4116    4113
      48    4125    4122      47    4128    4122      47    4128    4125      48
    4137    4134      47    4140    4134      47    4140    4137      48    4149
    4146      47    4152    4146      47    4152    4149      48    4161    4158
      47    4164    4158      47    4164    4161      48    4173    4170      47
    4176    4170      47    4176    4173      48    4185    4182      47    4188
    4182      47    4188    4185      48    4197    4194      47    4200    4194
      47    4200    4197      48    4209    4206      47    4212    4206      47
    4212    4209      48    4221    4218      47    4224    4218      47    4224
    4221      48    4233    4230      47    4236    4230      47    4236    4233
      48    4245    4242      47    4248    4242      47    4248    4245      48
    4257    4254      47    4260    4254      47    4260    4257      48    4269
    4266      47    4272    4266      47    4272    4269      48    4281    4278
      47    4284    4278      47    4284    4281      48    4293    4290      47
    4296    4290      47    4296    4293      48    4305    4302      47    4308
    4302      47    4308    4305      48    4317    4314      47    4320    4314
      47    4320    4317      48    4329    4326      47    4332    4326      47
    4332    4329      48    4341    4338      47    4344    4338      47    4344
    4341      48    4353    4350      47    4356    4350      47    4356    4353
      48    4365    4362      47    4368    4362      47    4368    4365      48
    4377    4374      47    4380    4374      47    4380    4377      48    4389
    4386      47    4392    4386      47    4392    4389      48    4401    4398
      47    4404    4398      47    4404    4401      48    4413    4410      47
    4416    4410      47    4416    4413      48    4425    4422      47    4428
    4422      47    4428    4425      48    4437    4434      47    4440    4434
      47    4440    4437      48    4449    4446      47    4452    4446      47
    4452    4449      48    4461    4458      47    4464    4458      47    4464
    4461      48    4473    4470      47    4476    4470      47    4476    4473
      48    4485    4482      47    4488    4482      47    4488    4485      48
    4497    4494      47    4500    4494      47    4500    4497      48    4509
    4506      47    4512    4506      47    4512    4509      48    4521    4518
      47    4524    4518      47    4524    4521      48    4533    4530      47
    4536    4530      47    4536    4533      48    4545    4542      47    4548
    4542      47    4548    4545      48    4557    4554      47    4560    4554
      47    4560    4557      48    4569    4566      47    4572    4566      47
    4572    4569      48    4581    4578      47    4584    4578      47    4584
    4581      48    4593    4590      47    4596    4590      47    4596    4593
      48    4605    4602      47    4608    4602      47    4608    4605      48
    4617    4614      47    4620    4614      47    4620    4617      48    4629
    4626      47    4632    4626      47    4632    4629      48    4641    4638
      47    4644    4638      47    4644    4641      48    4653    4650      47
    4656    4650      47    4656    4653      48    4665    4662      47    4668
    4662      47    4668    4665      48    4677    4674      47    4680    4674
      47    4680    4677      48    4689    4686      47    4692    4686      47
    4692    4689      48    4701    4698      47    4704    4698      47    4704
    4701      48    4713    4710      47    4716    4710      47    4716    4713
      48    4725    4722      47    4728    4722      47    4728    4725      48
    4737    4734      47    4740    4734      47    4740    4737      48    4749
    4746      47    4752    4746      47    4752    4749      48    4761    4758
      47    4764    4758      47    4764    4761      48    4773    4770      47
    4776    4770      47    4776    4773      48    4785    4782      47    4788
    4782      47    4788    4785      48    4797    4794      47    4800    4794
      47    4800    4797      48    4809    4806      47    4812    4806      47
    4812    4809      48    4821    4818      47    4824    4818      47    4824
    4821      48    4833    4830      47    4836    4830      47    4836    4833
      48    4845    4842      47    4848    4842      47    4848    4845      48
    4857    4854      47    4860    4854      47    4860    4857      48    4869
    4866      47    4872    4866      47    4872    4869      48    4881    4878
      47    4884    4878      47    4884    4881      48    4893    4890      47
    4896    4890      47    4896    4893      48    4905    4902      47    4908
    4902      47    4908    4905      48    4917    4914      47    4920    4914
      47    4920    4917      48    4929    4926      47    4932    4926      47
    4932    4929      48    4941    4938      47    4944    4938      47    4944
    4941      48    4953    4950      47    4956    4950      47    4956    4953
      48    4965    4962      47    4968    4962      47    4968    4965      48
    4977    4974      47    4980    4974      47    4980    4977      48    4989
    4986      47    4992    4986      47    4992    4989      48    5001    4998
      47    5004    4998      47    5004    5001      48    5013    5010      47
    5016    5010      47    5016    5013      48    5025    5022      47    5028
    5022      47    5028    5025      48    5037    5034      47    5040    5034
      47    5040    5037      48    5049    5046      47    5052    5046      47
    5052    5049      48    5061    5058      47    5064    5058      47    5064
    5061      48    5073    5070      47    5076    5070      47    5076    5073
      48    5085    5082      47    5088    5082      47    5088    5085      48
    5097    5094      47    5100    5094      47    5100    5097      48    5109
    5106      47    5112    5106      47    5112    5109      48    5121    5118
      47    5124    5118      47    5124    5121      48    5133    5130      47
    5136    5130      47    5136    5133      48    5145    5142      47    5148
    5142      47    5148    5145      48    5157    5154      47    5160    5154
      47    5160    5157      48    5169    5166      47    5172    5166      47
    5172    5169      48    5181    5178      47    5184    5178      47    5184
    5181      48    5193    5190      47    5196    5190      47    5196    5193
      48    5205    5202      47    5208    5202      47    5208    5205      48
    5217    5214      47    5220    5214      47    5220    5217      48    5229
    5226      47    5232    5226      47    5232    5229      48    5241    5238
      47    5244    5238      47    5244    5241      48    5253    5250      47
    5256    5250      47    5256    5253      48    5265    5262      47    5268
    5262      47    5268    5265      48    5277    5274      47    5280    5274
      47    5280    5277      48    5289    5286      47    5292    5286      47
    5292    5289      48    5301    5298      47    5304    5298      47    5304
    5301      48    5313    5310      47    5316    5310      47    5316    5313
      48    5325    5322      47    5328    5322      47    5328    5325      48
    5337    5334      47    5340    5334      47    5340    5337      48    5349
    5346      47    5352    5346      47    5352    5349      48    5361    5358
      47    5364    5358      47    5364    5361      48    5373    5370      47
    5376    5370      47    5376    5373      48    5385    5382      47    5388
    5382      47    5388    5385      48    5397    5394      47    5400    5394
      47    5400    5397      48    5409    5406      47    5412    5406      47
    5412    5409      48    5421    5418      47    5424    5418      47    5424
    5421      48    5433    5430      47    5436    5430      47    5436    5433
      48    5445    5442      47    5448    5442      47    5448    5445      48
    5457    5454      47    5460    5454      47    5460    5457      48    5469
    5466      47    5472    5466      47    5472    5469      48    5481    5478
      47    5484    5478      47    5484    5481      48    5493    5490      47
    5496    5490      47    5496    5493      48    5505    5502      47    5508
    5502      47    5508    5505      48    5517    5514      47    5520    5514
      47    5520    5517      48    5529    5526      47    5532    5526      47
    5532    5529      48    5541    5538      47    5544    5538      47    5544
    5541      48    5553    5550      47    5556    5550      47    5556    5553
      48    5565    5562      47    5568    5562      47    5568    5565      48
    5577    5574      47    5580    5574      47    5580    5577      48    5589
    5586      47    5592    5586      47    5592    5589      48    5601    5598
      47    5604    5598      47    5604    5601      48    5613    5610      47
    5616    5610      47    5616    5613      48    5625    5622      47    5628
    5622      47    5628    5625      48    5637    5634      47    5640    5634
      47    5640    5637      48    5649    5646      47    5652    5646      47
    5652    5649      48    5661    5658      47    5664    5658      47    5664
    5661      48    5673    5670      47    5676    5670      47    5676    5673
      48    5685    5682      47    5688    5682      47    5688    5685      48
    5697    5694      47    5700    5694      47    5700    5697      48    5709
    5706      47    5712    5706      47    5712    5709      48    5721    5718
      47    5724    5718      47    5724    5721      48    5733    5730      47
    5736    5730      47    5736    5733      48    5745    5742      47    5748
    5742      47    5748    5745      48    5757    5754      47    5760    5754
      47    5760    5757      48    5769    5766      47    5772    5766      47
    5772    5769      48    5781    5778      47    5784    5778      47    5784
    5781      48    5793    5790      47    5796    5790      47    5796    5793
      48    5805    5802      47    5808    5802      47    5808    5805      48
    5817    5814      47    5820    5814      47    5820    5817      48    5829
    5826      47    5832    5826      47    5832    5829      48    5841    5838
      47    5844    5838      47    5844    5841      48    5853    5850      47
    5856    5850      47    5856    5853      48    5865    5862      47    5868
    5862      47    5868    5865      48    5877    5874      47    5880    5874
      47    5880    5877      48    5889    5886      47    5892    5886      47
    5892    5889      48    5901    5898      47    5904    5898      47    5904
    5901      48    5913    5910      47    5916    5910      47    5916    5913
      48    5925    5922      47    5928    5922      47    5928    5925      48
    5937    5934      47    5940    5934      47    5940    5937      48    5949
    5946      47    5952    5946      47    5952    5949      48    5961    5958
      47    5964    5958      47    5964    5961      48    5973    5970      47
    5976    5970      47    5976    5973      48    5985    5982      47    5988
    5982      47    5988    5985      48    5997    5994      47    6000    5994
      47    6000    5997      48    6009    6006      47    6012    6006      47
    6012    6009      48    6021    6018      47    6024    6018      47    6024
    6021      48    6033    6030      47    6036    6030      47    6036    6033
      48    6045    6042      47    6048    6042      47    6048    6045      48
    6057    6054      47    6060    6054      47    6060    6057      48    6069
    6066      47    6072    6066      47    6072    6069      48    6081    6078
      47    6084    6078      47    6084    6081      48    6093    6090      47
    6096    6090      47    6096    6093      48    6105    6102      47    6108
    6102      47    6108    6105      48    6117    6114      47    6120    6114
      47    6120    6117      48    6129    6126      47    6132    6126      47
    6132    6129      48    6141    6138      47    6144    6138      47    6144
    6141      48    6153    6150      47    6156    6150      47    6156    6153
      48    6165    6162      47    6168    6162      47    6168    6165      48
    6177    6174      47    6180    6174      47    6180    6177      48    6189
    6186      47    6192    6186      47    6192    6189      48    6201    6198
      47    6204    6198      47    6204    6201      48    6213    6210      47
    6216    6210      47    6216    6213      48    6225    6222      47    6228
    6222      47    6228    6225      48    6237    6234      47    6240    6234
      47    6240    6237      48    6249    6246      47    6252    6246      47
    6252    6249      48    6261    6258      47    6264    6258      47    6264
    6261      48    6273    6270      47    6276    6270      47    6276    6273
      48    6285    6282      47    6288    6282      47    6288    6285      48
    6297    6294      47    6300    6294      47    6300    6297      48    6309
    6306      47    6312    6306      47    6312    6309      48    6321    6318
      47    6324    6318      47    6324    6321      48    6333    6330      47
    6336    6330      47    6336    6333      48    6345    6342      47    6348
    6342      47    6348    6345      48    6357    6354      47    6360    6354
      47    6360    6357      48    6369    6366      47    6372    6366      47
    6372    6369      48    6381    6378      47    6384    6378      47    6384
    6381      48    6393    6390      47    6396    6390      47    6396    6393
      48    6405    6402      47    6408    6402      47    6408    6405      48
    6417    6414      47    6420    6414      47    6420    6417      48    6429
    6426      47    6432    6426      47    6432    6429      48    6441    6438
      47    6444    6438      47    6444    6441      48    6453    6450      47
    6456    6450      47    6456    6453      48    6465    6462      47    6468
    6462      47    6468    6465      48    6477    6474      47    6480    6474
      47    6480    6477      48    6489    6486      47    6492    6486      47
    6492    6489      48    6501    6498      47    6504    6498      47    6504
    6501      48    6513    6510      47    6516    6510      47    6516    6513
      48    6525    6522      47    6528    6522      47    6528    6525      48
    6537    6534      47    6540    6534      47    6540    6537      48    6549
    6546      47    6552    6546      47    6552    6549      48    6561    6558
      47    6564    6558      47    6564    6561      48    6573    6570      47
    6576    6570      47    6576    6573      48    6585    6582      47    6588
    6582      47    6588    6585      48    6597    6594      47    6600    6594
      47    6600    6597      48    6609    6606      47    6612    6606      47
    6612    6609      48    6621    6618      47    6624    6618      47    6624
    6621      48    6633    6630      47    6636    6630      47    6636    6633
      48    6645    6642      47    6648    6642      47    6648    6645      48
    6657    6654      47    6660    6654      47    6660    6657      48    6669
    6666      47    6672    6666      47    6672    6669      48    6681    6678
      47    6684    6678      47    6684    6681      48    6693    6690      47
    6696    6690      47    6696    6693      48    6705    6702      47    6708
    6702      47    6708    6705      48    6717    6714      47    6720    6714
      47    6720    6717      48    6729    6726      47    6732    6726      47
    6732    6729      48    6741    6738      47    6744    6738      47    6744
    6741      48    6753    6750      47    6756    6750      47    6756    6753
      48    6765    6762      47    6768    6762      47    6768    6765      48
    6777    6774      47    6780    6774      47    6780    6777      48    6789
    6786      47    6792    6786      47    6792    6789      48    6801    6798
      47    6804    6798      47    6804    6801      48    6813    6810      47
    6816    6810      47    6816    6813      48    6825    6822      47    6828
    6822      47    6828    6825      48    6837    6834      47    6840    6834
      47    6840    6837      48    6849    6846      47    6852    6846      47
    6852    6849      48    6861    6858      47    6864    6858      47    6864
    6861      48    6873    6870      47    6876    6870      47    6876    6873
      48    6885    6882      47    6888    6882      47    6888    6885      48
    6897    6894      47    6900    6894      47    6900    6897      48    6909
    6906      47    6912    6906      47    6912    6909      48    6921    6918
      47    6924    6918      47    6924    6921      48    6933    6930      47
    6936    6930      47    6936    6933      48    6945    6942      47    6948
    6942      47    6948    6945      48    6957    6954      47    6960    6954
      47    6960    6957      48    6969    6966      47    6972    6966      47
    6972    6969      48    6981    6978      47    6984    6978      47    6984
    6981      48    6993    6990      47    6996    6990      47    6996    6993
      48    7005    7002      47    7008    7002      47    7008    7005      48
    7017    7014      47    7020    7014      47    7020    7017      48    7029
    7026      47    7032    7026      47    7032    7029      48    7041    7038
      47    7044    7038      47    7044    7041      48    7053    7050      47
    7056    7050      47    7056    7053      48    7065    7062      47    7068
    7062      47    7068    7065      48    7077    7074      47    7080    7074
      47    7080    7077      48    7089    7086      47    7092    7086      47
    7092    7089      48    7101    7098      47    7104    7098      47    7104
    7101      48    7113    7110      47    7116    7110      47    7116    7113
      48    7125    7122      47    7128    7122      47    7128    7125      48
    7137    7134      47    7140    7134      47    7140    7137      48    7149
    7146      47    7152    7146      47    7152    7149      48    7161    7158
      47    7164    7158      47    7164    7161      48    7173    7170      47
    7176    7170      47    7176    7173      48    7185    7182      47    7188
    7182      47    7188    7185      48    7197    7194      47    7200    7194
      47    7200    7197      48    7209    7206      47    7212    7206      47
    7212    7209      48    7221    7218      47    7224    7218      47    7224
    7221      48    7233    7230      47    7236    7230      47    7236    7233
      48    7245    7242      47    7248    7242      47    7248    7245      48
    7257    7254      47    7260    7254      47    7260    7257      48    7269
    7266      47    7272    7266      47    7272    7269      48    7281    7278
      47    7284    7278      47    7284    7281      48    7293    7290      47
    7296    7290      47    7296    7293      48    7305    7302      47    7308
    7302      47    7308    7305      48    7317    7314      47    7320    7314
      47    7320    7317      48    7329    7326      47    7332    7326      47
    7332    7329      48    7341    7338      47    7344    7338      47    7344
    7341      48    7353    7350      47    7356    7350      47    7356    7353
      48    7365    7362      47    7368    7362      47    7368    7365      48
    7377    7374      47    7380    7374      47    7380    7377      48    7389
    7386      47    7392    7386      47    7392    7389      48    7401    7398
      47    7404    7398      47    7404    7401      48    7413    7410      47
    7416    7410      47    7416    7413      48    7425    7422      47    7428
    7422      47    7428    7425      48    7437    7434      47    7440    7434
      47    7440    7437      48    7449    7446      47    7452    7446      47
    7452    7449      48    7461    7458      47    7464    7458      47    7464
    7461      48    7473    7470      47    7476    7470      47    7476    7473
      48    7485    7482      47    7488    7482      47    7488    7485      48
    7497    7494      47    7500    7494      47    7500    7497      48    7509
    7506      47    7512    7506      47    7512    7509      48    7521    7518
      47    7524    7518      47    7524    7521      48    7533    7530      47
    7536    7530      47    7536    7533      48    7545    7542      47    7548
    7542      47    7548    7545      48    7557    7554      47    7560    7554
      47    7560    7557      48    7569    7566      47    7572    7566      47
    7572    7569      48    7581    7578      47    7584    7578      47    7584
    7581      48    7593    7590      47    7596    7590      47    7596    7593
      48    7605    7602      47    7608    7602      47    7608    7605      48
    7617    7614      47    7620    7614      47    7620    7617      48    7629
    7626      47    7632    7626      47    7632    7629      48    7641    7638
      47    7644    7638      47    7644    7641      48    7653    7650      47
    7656    7650      47    7656    7653      48    7665    7662      47    7668
    7662      47    7668    7665      48    7677    7674      47    7680    7674
      47    7680    7677      48    7689    7686      47    7692    7686      47
    7692    7689      48    7701    7698      47    7704    7698      47    7704
    7701      48    7713    7710      47    7716    7710      47    7716    7713
      48    7725    7722      47    7728    7722      47    7728    7725      48
    7737    7734      47    7740    7734      47    7740    7737      48    7749
    7746      47    7752    7746      47    7752    7749      48    7761    7758
      47    7764    7758      47    7764    7761      48    7773    7770      47
    7776    7770      47    7776    7773      48    7785    7782      47    7788
    7782      47    7788    7785      48    7797    7794      47    7800    7794
      47    7800    7797      48    7809    7806      47    7812    7806      47
    7812    7809      48    7821    7818      47    7824    7818      47    7824
    7821      48    7833    7830      47    7836    7830      47    7836    7833
      48    7845    7842      47    7848    7842      47    7848    7845      48
    7857    7854      47    7860    7854      47    7860    7857      48    7869
    7866      47    7872    7866      47    7872    7869      48    7881    7878
      47    7884    7878      47    7884    7881      48    7893    7890      47
    7896    7890      47    7896    7893      48    7905    7902      47    7908
    7902      47    7908    7905      48    7917    7914      47    7920    7914
      47    7920    7917      48    7929    7926      47    7932    7926      47
    7932    7929      48    7941    7938      47    7944    7938      47    7944
    7941      48    7953    7950      47    7956    7950      47    7956    7953
      48    7965    7962      47    7968    7962      47    7968    7965      48
    7977    7974      47    7980    7974      47    7980    7977      48    7989
    7986      47    7992    7986      47    7992    7989      48    8001    7998
      47    8004    7998      47    8004    8001      48    8013    8010      47
    8016    8010      47    8016    8013      48    8025    8022      47    8028
    8022      47    8028    8025      48    8037    8034      47    8040    8034
      47    8040    8037      48    8049    8046      47    8052    8046      47
    8052    8049      48    8061    8058      47    8064    8058      47    8064
    8061      48    8073    8070      47    8076    8070      47    8076    8073
      48    8085    8082      47    8088    8082      47    8088    8085      48
    8097    8094      47    8100    8094      47    8100    8097      48    8109
    8106      47    8112    8106      47    8112    8109      48    8121    8118
      47    8124    8118      47    8124    8121      48    8133    8130      47
    8136    8130      47    8136    8133      48    8145    8142      47    8148
    8142      47    8148    8145      48    8157    8154      47    8160    8154
      47    8160    8157      48    8169    8166      47    8172    8166      47
    8172    8169      48    8181    8178      47    8184    8178      47    8184
    8181      48    8193    8190      47    8196    8190      47    8196    8193
      48    8205    8202      47    8208    8202      47    8208    8205      48
    8217    8214      47    8220    8214      47    8220    8217      48    8229
    8226      47    8232    8226      47    8232    8229      48    8241    8238
      47    8244    8238      47    8244    8241      48    8253    8250      47
    8256    8250      47    8256    8253      48    8265    8262      47    8268
    8262      47    8268    8265      48    8277    8274      47    8280    8274
      47    8280    8277      48    8289    8286      47    8292    8286      47
    8292    8289      48    8301    8298      47    8304    8298      47    8304
    8301      48    8313    8310      47    8316    8310      47    8316    8313
      48    8325    8322      47    8328    8322      47    8328    8325      48
    8337    8334      47    8340    8334      47    8340    8337      48    8349
    8346      47    8352    8346      47    8352    8349      48    8361    8358
      47    8364    8358      47    8364    8361      48    8373    8370      47
    8376    8370      47    8376    8373      48    8385    8382      47    8388
    8382      47    8388    8385      48    8397    8394      47    8400    8394
      47    8400    8397      48    8409    8406      47    8412    8406      47
    8412    8409      48    8421    8418      47    8424    8418      47    8424
    8421      48    8433    8430      47    8436    8430      47    8436    8433
      48    8445    8442      47    8448    8442      47    8448    8445      48
    8457    8454      47    8460    8454      47    8460    8457      48    8469
    8466      47    8472    8466      47    8472    8469      48    8481    8478
      47    8484    8478      47    8484    8481      48    8493    8490      47
    8496    8490      47    8496    8493      48    8505    8502      47    8508
    8502      47    8508    8505      48    8517    8514      47    8520    8514
      47    8520    8517      48    8529    8526      47    8532    8526      47
    8532    8529      48    8541    8538      47    8544    8538      47    8544
    8541      48    8553    8550      47    8556    8550      47    8556    8553
      48    8565    8562      47    8568    8562      47    8568    8565      48
    8577    8574      47    8580    8574      47    8580    8577      48    8589
    8586      47    8592    8586      47    8592    8589      48    8601    8598
      47    8604    8598      47    8604    8601      48    8613    8610      47
    8616    8610      47    8616    8613      48    8625    8622      47    8628
    8622      47    8628    8625      48    8637    8634      47    8640    8634
      47    8640    8637      48    8649    8646      47    8652    8646      47
    8652    8649      48    8661    8658      47    8664    8658      47    8664
    8661      48    8673    8670      47    8676    8670      47    8676    8673
      48    8685    8682      47    8688    8682      47    8688    8685      48
    8697    8694      47    8700    8694      47    8700    8697      48    8709
    8706      47    8712    8706      47    8712    8709      48    8721    8718
      47    8724    8718      47    8724    8721      48    8733    8730      47
    8736    8730      47    8736    8733      48    8745    8742      47    8748
    8742      47    8748    8745      48    8757    8754      47    8760    8754
      47    8760    8757      48    8769    8766      47    8772    8766      47
    8772    8769      48    8781    8778      47    8784    8778      47    8784
    8781      48    8793    8790      47    8796    8790      47    8796    8793
      48    8805    8802      47    8808    8802      47    8808    8805      48
    8817    8814      47    8820    8814      47    8820    8817      48    8829
    8826      47    8832    8826      47    8832    8829      48    8841    8838
      47    8844    8838      47    8844    8841      48    8853    8850      47
    8856    8850      47    8856    8853      48    8865    8862      47    8868
    8862      47    8868    8865      48    8877    8874      47    8880    8874
      47    8880    8877      48    8889    8886      47    8892    8886      47
    8892    8889      48    8901    8898      47    8904    8898      47    8904
    8901      48    8913    8910      47    8916    8910      47    8916    8913
      48    8925    8922      47    8928    8922      47    8928    8925      48
    8937    8934      47    8940    8934      47    8940    8937      48    8949
    8946      47    8952    8946      47    8952    8949      48    8961    8958
      47    8964    8958      47    8964    8961      48    8973    8970      47
    8976    8970      47    8976    8973      48    8985    8982      47    8988
    8982      47    8988    8985      48    8997    8994      47    9000    8994
      47    9000    8997      48    9009    9006      47    9012    9006      47
    9012    9009      48    9021    9018      47    9024    9018      47    9024
    9021      48    9033    9030      47    9036    9030      47    9036    9033
      48    9045    9042      47    9048    9042      47    9048    9045      48
    9057    9054      47    9060    9054      47    9060    9057      48    9069
    9066      47    9072    9066      47    9072    9069      48    9081    9078
      47    9084    9078      47    9084    9081      48    9093    9090      47
    9096    9090      47    9096    9093      48    9105    9102      47    9108
    9102      47    9108    9105      48    9117    9114      47    9120    9114
      47    9120    9117      48    9129    9126      47    9132    9126      47
    9132    9129      48    9141    9138      47    9144    9138      47    9144
    9141      48    9153    9150      47    9156    9150      47    9156    9153
      48    9165    9162      47    9168    9162      47    9168    9165      48
    9177    9174      47    9180    9174      47    9180    9177      48    9189
    9186      47    9192    9186      47    9192    9189      48    9201    9198
      47    9204    9198      47    9204    9201      48    9213    9210      47
    9216    9210      47    9216    9213      48    9225    9222      47    9228
    9222      47    9228    9225      48    9237    9234      47    9240    9234
      47    9240    9237      48    9249    9246      47    9252    9246      47
    9252    9249      48    9261    9258      47    9264    9258      47    9264
    9261      48    9273    9270      47    9276    9270      47    9276    9273
      48    9285    9282      47    9288    9282      47    9288    9285      48
    9297    9294      47    9300    9294      47    9300    9297      48    9309
    9306      47    9312    9306      47    9312    9309      48    9321    9318
      47    9324    9318      47    9324    9321      48    9333    9330      47
    9336    9330      47    9336    9333      48    9345    9342      47    9348
    9342      47    9348    9345      48    9357    9354      47    9360    9354
      47    9360    9357      48    9369    9366      47    9372    9366      47
    9372    9369      48    9381    9378      47    9384    9378      47    9384
    9381      48    9393    9390      47    9396    9390      47    9396    9393
      48    9405    9402      47    9408    9402      47    9408    9405      48
    9417    9414      47    9420    9414      47    9420    9417      48    9429
    9426      47    9432    9426      47    9432    9429      48    9441    9438
      47    9444    9438      47    9444    9441      48    9453    9450      47
    9456    9450      47    9456    9453      48    9465    9462      47    9468
    9462      47    9468    9465      48    9477    9474      47    9480    9474
      47    9480    9477      48    9489    9486      47    9492    9486      47
    9492    9489      48    9501    9498      47    9504    9498      47    9504
    9501      48    9513    9510      47    9516    9510      47    9516    9513
      48    9525    9522      47    9528    9522      47    9528    9525      48
    9537    9534      47    9540    9534      47    9540    9537      48    9549
    9546      47    9552    9546      47    9552    9549      48    9561    9558
      47    9564    9558      47    9564    9561      48    9573    9570      47
    9576    9570      47    9576    9573      48    9585    9582      47    9588
    9582      47    9588    9585      48    9597    9594      47    9600    9594
      47    9600    9597      48    9609    9606      47    9612    9606      47
    9612    9609      48    9621    9618      47    9624    9618      47    9624
    9621      48    9633    9630      47    9636    9630      47    9636    9633
      48    9645    9642      47    9648    9642      47    9648    9645      48
    9657    9654      47    9660    9654      47    9660    9657      48    9669
    9666      47    9672    9666      47    9672    9669      48    9681    9678
      47    9684    9678      47    9684    9681      48    9693    9690      47
    9696    9690      47    9696    9693      48    9705    9702      47    9708
    9702      47    9708    9705      48    9717    9714      47    9720    9714
      47    9720    9717      48    9729    9726      47    9732    9726      47
    9732    9729      48    9741    9738      47    9744    9738      47    9744
    9741      48    9753    9750      47    9756    9750      47    9756    9753
      48    9765    9762      47    9768    9762      47    9768    9765      48
    9777    9774      47    9780    9774      47    9780    9777      48    9789
    9786      47    9792    9786      47    9792    9789      48    9801    9798
      47    9804    9798      47    9804    9801      48    9813    9810      47
    9816    9810      47    9816    9813      48    9825    9822      47    9828
    9822      47    9828    9825      48    9837    9834      47    9840    9834
      47    9840    9837      48    9849    9846      47    9852    9846      47
    9852    9849      48    9861    9858      47    9864    9858      47    9864
    9861      48    9873    9870      47    9876    9870      47    9876    9873
      48    9885    9882      47    9888    9882      47    9888    9885      48
    9897    9894      47    9900    9894      47    9900    9897      48    9909
    9906      47    9912    9906      47    9912    9909      48    9921    9918
      47    9924    9918      47    9924    9921      48    9933    9930      47
    9936    9930      47    9936    9933      48    9945    9942      47    9948
    9942      47    9948    9945      48    9957    9954      47    9960    9954
      47    9960    9957      48    9969    9966      47    9972    9966      47
    9972    9969      48    9981    9978      47    9984    9978      47    9984
    9981      48    9993    9990      47    9996    9990      47    9996    9993
      48   10005   10002      47   10008   10002      47   10008   10005      48
   10017   10014      47   10020   10014      47   10020   10017      48   10029
   10026      47   10032   10026      47   10032   10029      48   10041   10038
      47   10044   10038      47   10044   10041      48   10053   10050      47
   10056   10050      47   10056   10053      48   10065   10062      47   10068
   10062      47   10068   10065      48   10077   10074      47   10080   10074
      47   10080   10077      48   10089   10086      47   10092   10086      47
   10092   10089      48   10101   10098      47   10104   10098      47   10104
   10101      48   10113   10110      47   10116   10110      47   10116   10113
      48   10125   10122      47   10128   10122      47   10128   10125      48
   10137   10134      47   10140   10134      47   10140   10137      48   10149
   10146      47   10152   10146      47   10152   10149      48   10161   10158
      47   10164   10158      47   10164   10161      48   10173   10170      47
   10176   10170      47   10176   10173      48   10185   10182      47   10188
   10182      47   10188   10185      48   10197   10194      47   10200   10194
      47   10200   10197      48   10209   10206      47   10212   10206      47
   10212   10209      48   10221   10218      47   10224   10218      47   10224
   10221      48   10233   10230      47   10236   10230      47   10236   10233
      48   10245   10242      47   10248   10242      47   10248   10245      48
   10257   10254      47   10260   10254      47   10260   10257      48   10269
   10266      47   10272   10266      47   10272   10269      48   10281   10278
      47   10284   10278      47   10284   10281      48   10293   10290      47
   10296   10290      47   10296   10293      48   10305   10302      47   10308
   10302      47   10308   10305      48   10317   10314      47   10320   10314
      47   10320   10317      48   10329   10326      47   10332   10326      47
   10332   10329      48   10341   10338      47   10344   10338      47   10344
   10341      48   10353   10350      47   10356   10350      47   10356   10353
      48   10365   10362      47   10368   10362      47   10368   10365      48
   10377   10374      47   10380   10374      47   10380   10377      48   10389
   10386      47   10392   10386      47   10392   10389      48   10401   10398
      47   10404   10398      47   10404   10401      48   10413   10410      47
   10416   10410      47   10416   10413      48   10425   10422      47   10428
   10422      47   10428   10425      48   10437   10434      47   10440   10434
      47   10440   10437      48   10449   10446      47   10452   10446      47
   10452   10449      48   10461   10458      47   10464   10458      47   10464
   10461      48   10473   10470      47   10476   10470      47   10476   10473
      48   10485   10482      47   10488   10482      47   10488   10485      48
   10497   10494      47   10500   10494      47   10500   10497      48   10509
   10506      47   10512   10506      47   10512   10509      48   10521   10518
      47   10524   10518      47   10524   10521      48   10533   10530      47
   10536   10530      47   10536   10533      48   10545   10542      47   10548
   10542      47   10548   10545      48   10557   10554      47   10560   10554
      47   10560   10557      48   10569   10566      47   10572   10566      47
   10572   10569      48   10581   10578      47   10584   10578      47   10584
   10581      48   10593   10590      47   10596   10590      47   10596   10593
      48   10605   10602      47   10608   10602      47   10608   10605      48
   10617   10614      47   10620   10614      47   10620   10617      48   10629
   10626      47   10632   10626      47   10632   10629      48   10641   10638
      47   10644   10638      47   10644   10641      48   10653   10650      47
   10656   10650      47   10656   10653      48   10665   10662      47   10668
   10662      47   10668   10665      48   10677   10674      47   10680   10674
      47   10680   10677      48   10689   10686      47   10692   10686      47
   10692   10689      48   10701   10698      47   10704   10698      47   10704
   10701      48   10713   10710      47   10716   10710      47   10716   10713
      48   10725   10722      47   10728   10722      47   10728   10725      48
   10737   10734      47   10740   10734      47   10740   10737      48   10749
   10746      47   10752   10746      47   10752   10749      48   10761   10758
      47   10764   10758      47   10764   10761      48   10773   10770      47
   10776   10770      47   10776   10773      48   10785   10782      47   10788
   10782      47   10788   10785      48   10797   10794      47   10800   10794
      47   10800   10797      48   10809   10806      47   10812   10806      47
   10812   10809      48   10821   10818      47   10824   10818      47   10824
   10821      48   10833   10830      47   10836   10830      47   10836   10833
      48   10845   10842      47   10848   10842      47   10848   10845      48
   10857   10854      47   10860   10854      47   10860   10857      48   10869
   10866      47   10872   10866      47   10872   10869      48   10881   10878
      47   10884   10878      47   10884   10881      48   10893   10890      47
   10896   10890      47   10896   10893      48   10905   10902      47   10908
   10902      47   10908   10905      48   10917   10914      47   10920   10914
      47   10920   10917      48   10929   10926      47   10932   10926      47
   10932   10929      48   10941   10938      47   10944   10938      47   10944
   10941      48   10953   10950      47   10956   10950      47   10956   10953
      48   10965   10962      47   10968   10962      47   10968   10965      48
   10977   10974      47   10980   10974      47   10980   10977      48   10989
   10986      47   10992   10986      47   10992   10989      48   11001   10998
      47   11004   10998      47   11004   11001      48   11013   11010      47
   11016   11010      47   11016   11013      48   11025   11022      47   11028
   11022      47   11028   11025      48   11037   11034      47   11040   11034
      47   11040   11037      48   11049   11046      47   11052   11046      47
   11052   11049      48   11061   11058      47   11064   11058      47   11064
   11061      48   11073   11070      47   11076   11070      47   11076   11073
      48   11085   11082      47   11088   11082      47   11088   11085      48
   11097   11094      47   11100   11094      47   11100   11097      48   11109
   11106      47   11112   11106      47   11112   11109      48   11121   11118
      47   11124   11118      47   11124   11121      48   11133   11130      47
   11136   11130      47   11136   11133      48   11145   11142      47   11148
   11142      47   11148   11145      48   11157   11154      47   11160   11154
      47   11160   11157      48   11169   11166      47   11172   11166      47
   11172   11169      48   11181   11178      47   11184   11178      47   11184
   11181      48   11193   11190      47   11196   11190      47   11196   11193
      48   11205   11202      47   11208   11202      47   11208   11205      48
   11217   11214      47   11220   11214      47   11220   11217      48   11229
   11226      47   11232   11226      47   11232   11229      48   11241   11238
      47   11244   11238      47   11244   11241      48   11253   11250      47
   11256   11250      47   11256   11253      48   11265   11262      47   11268
   11262      47   11268   11265      48   11277   11274      47   11280   11274
      47   11280   11277      48   11289   11286      47   11292   11286      47
   11292   11289      48   11301   11298      47   11304   11298      47   11304
   11301      48   11313   11310      47   11316   11310      47   11316   11313
      48   11325   11322      47   11328   11322      47   11328   11325      48
   11337   11334      47   11340   11334      47   11340   11337      48   11349
   11346      47   11352   11346      47   11352   11349      48   11361   11358
      47   11364   11358      47   11364   11361      48   11373   11370      47
   11376   11370      47   11376   11373      48   11385   11382      47   11388
   11382      47   11388   11385      48   11397   11394      47   11400   11394
      47   11400   11397      48   11409   11406      47   11412   11406      47
   11412   11409      48   11421   11418      47   11424   11418      47   11424
   11421      48   11433   11430      47   11436   11430      47   11436   11433
      48   11445   11442      47   11448   11442      47   11448   11445      48
   11457   11454      47   11460   11454      47   11460   11457      48   11469
   11466      47   11472   11466      47   11472   11469      48   11481   11478
      47   11484   11478      47   11484   11481      48   11493   11490      47
   11496   11490      47   11496   11493      48   11505   11502      47   11508
   11502      47   11508   11505      48   11517   11514      47   11520   11514
      47   11520   11517      48   11529   11526      47   11532   11526      47
   11532   11529      48   11541   11538      47   11544   11538      47   11544
   11541      48   11553   11550      47   11556   11550      47   11556   11553
      48   11565   11562      47   11568   11562      47   11568   11565      48
   11577   11574      47   11580   11574      47   11580   11577      48   11589
   11586      47   11592   11586      47   11592   11589      48   11601   11598
      47   11604   11598      47   11604   11601      48   11613   11610      47
   11616   11610      47   11616   11613      48   11625   11622      47   11628
   11622      47   11628   11625      48   11637   11634      47   11640   11634
      47   11640   11637      48   11649   11646      47   11652   11646      47
   11652   11649      48   11661   11658      47   11664   11658      47   11664
   11661      48   11673   11670      47   11676   11670      47   11676   11673
      48   11685   11682      47   11688   11682      47   11688   11685      48
   11697   11694      47   11700   11694      47   11700   11697      48   11709
   11706      47   11712   11706      47   11712   11709      48   11721   11718
      47   11724   11718      47   11724   11721      48   11733   11730      47
   11736   11730      47   11736   11733      48   11745   11742      47   11748
   11742      47   11748   11745      48   11757   11754      47   11760   11754
      47   11760   11757      48   11769   11766      47   11772   11766      47
   11772   11769      48   11781   11778      47   11784   11778      47   11784
   11781      48   11793   11790      47   11796   11790      47   11796   11793
      48   11805   11802      47   11808   11802      47   11808   11805      48
   11817   11814      47   11820   11814      47   11820   11817      48   11829
   11826      47   11832   11826      47   11832   11829      48   11841   11838
      47   11844   11838      47   11844   11841      48   11853   11850      47
   11856   11850      47   11856   11853      48   11865   11862      47   11868
   11862      47   11868   11865      48   11877   11874      47   11880   11874
      47   11880   11877      48   11889   11886      47   11892   11886      47
   11892   11889      48   11901   11898      47   11904   11898      47   11904
   11901      48   11913   11910      47   11916   11910      47   11916   11913
      48   11925   11922      47   11928   11922      47   11928   11925      48
   11937   11934      47   11940   11934      47   11940   11937      48   11949
   11946      47   11952   11946      47   11952   11949      48   11961   11958
      47   11964   11958      47   11964   11961      48   11973   11970      47
   11976   11970      47   11976   11973      48   11985   11982      47   11988
   11982      47   11988   11985      48   11997   11994      47   12000   11994
      47   12000   11997      48   12009   12006      47   12012   12006      47
   12012   12009      48   12021   12018      47   12024   12018      47   12024
   12021      48   12033   12030      47   12036   12030      47   12036   12033
      48   12045   12042      47   12048   12042      47   12048   12045      48
   12057   12054      47   12060   12054      47   12060   12057      48   12069
   12066      47   12072   12066      47   12072   12069      48   12081   12078
      47   12084   12078      47   12084   12081      48   12093   12090      47
   12096   12090      47   12096   12093      48   12105   12102      47   12108
   12102      47   12108   12105      48   12117   12114      47   12120   12114
      47   12120   12117      48   12129   12126      47   12132   12126      47
   12132   12129      48   12141   12138      47   12144   12138      47   12144
   12141      48   12153   12150      47   12156   12150      47   12156   12153
      48   12165   12162      47   12168   12162      47   12168   12165      48
   12177   12174      47   12180   12174      47   12180   12177      48   12189
   12186      47   12192   12186      47   12192   12189      48   12201   12198
      47   12204   12198      47   12204   12201      48   12213   12210      47
   12216   12210      47   12216   12213      48   12225   12222      47   12228
   12222      47   12228   12225      48   12237   12234      47   12240   12234
      47   12240   12237      48   12249   12246      47   12252   12246      47
   12252   12249      48   12261   12258      47   12264   12258      47   12264
   12261      48   12273   12270      47   12276   12270      47   12276   12273
      48   12285   12282      47   12288   12282      47   12288   12285      48
   12297   12294      47   12300   12294      47   12300   12297      48   12309
   12306      47   12312   12306      47   12312   12309      48   12321   12318
      47   12324   12318      47   12324   12321      48   12333   12330      47
   12336   12330      47   12336   12333      48   12345   12342      47   12348
   12342      47   12348   12345      48   12357   12354      47   12360   12354
      47   12360   12357      48   12369   12366      47   12372   12366      47
   12372   12369      48   12381   12378      47   12384   12378      47   12384
   12381      48   12393   12390      47   12396   12390      47   12396   12393
      48   12405   12402      47   12408   12402      47   12408   12405      48
   12417   12414      47   12420   12414      47   12420   12417      48   12429
   12426      47   12432   12426      47   12432   12429      48   12441   12438
      47   12444   12438      47   12444   12441      48   12453   12450      47
   12456   12450      47   12456   12453      48   12465   12462      47   12468
   12462      47   12468   12465      48   12477   12474      47   12480   12474
      47   12480   12477      48   12489   12486      47   12492   12486      47
   12492   12489      48   12501   12498      47   12504   12498      47   12504
   12501      48   12513   12510      47   12516   12510      47   12516   12513
      48   12525   12522      47   12528   12522      47   12528   12525      48
   12537   12534      47   12540   12534      47   12540   12537      48   12549
   12546      47   12552   12546      47   12552   12549      48   12561   12558
      47   12564   12558      47   12564   12561      48   12573   12570      47
   12576   12570      47   12576   12573      48   12585   12582      47   12588
   12582      47   12588   12585      48   12597   12594      47   12600   12594
      47   12600   12597      48   12609   12606      47   12612   12606      47
   12612   12609      48   12621   12618      47   12624   12618      47   12624
   12621      48   12633   12630      47   12636   12630      47   12636   12633
      48   12645   12642      47   12648   12642      47   12648   12645      48
   12657   12654      47   12660   12654      47   12660   12657      48   12669
   12666      47   12672   12666      47   12672   12669      48   12681   12678
      47   12684   12678      47   12684   12681      48   12693   12690      47
   12696   12690      47   12696   12693      48   12705   12702      47   12708
   12702      47   12708   12705      48   12717   12714      47   12720   12714
      47   12720   12717      48   12729   12726      47   12732   12726      47
   12732   12729      48   12741   12738      47   12744   12738      47   12744
   12741      48   12753   12750      47   12756   12750      47   12756   12753
      48   12765   12762      47   12768   12762      47   12768   12765      48
   12777   12774      47   12780   12774      47   12780   12777      48   12789
   12786      47   12792   12786      47   12792   12789      48   12801   12798
      47   12804   12798      47   12804   12801      48   12813   12810      47
   12816   12810      47   12816   12813      48   12825   12822      47   12828
   12822      47   12828   12825      48   12837   12834      47   12840   12834
      47   12840   12837      48   12849   12846      47   12852   12846      47
   12852   12849      48   12861   12858      47   12864   12858      47   12864
   12861      48   12873   12870      47   12876   12870      47   12876   12873
      48   12885   12882      47   12888   12882      47   12888   12885      48
   12897   12894      47   12900   12894      47   12900   12897      48   12909
   12906      47   12912   12906      47   12912   12909      48   12921   12918
      47   12924   12918      47   12924   12921      48   12933   12930      47
   12936   12930      47   12936   12933      48   12945   12942      47   12948
   12942      47   12948   12945      48   12957   12954      47   12960   12954
      47   12960   12957      48   12969   12966      47   12972   12966      47
   12972   12969      48   12981   12978      47   12984   12978      47   12984
   12981      48   12993   12990      47   12996   12990      47   12996   12993
      48   13005   13002      47   13008   13002      47   13008   13005      48
   13017   13014      47   13020   13014      47   13020   13017      48   13029
   13026      47   13032   13026      47   13032   13029      48   13041   13038
      47   13044   13038      47   13044   13041      48   13053   13050      47
   13056   13050      47   13056   13053      48   13065   13062      47   13068
   13062      47   13068   13065      48   13077   13074      47   13080   13074
      47   13080   13077      48   13089   13086      47   13092   13086      47
   13092   13089      48   13101   13098      47   13104   13098      47   13104
   13101      48   13113   13110      47   13116   13110      47   13116   13113
      48   13125   13122      47   13128   13122      47   13128   13125      48
   13137   13134      47   13140   13134      47   13140   13137      48   13149
   13146      47   13152   13146      47   13152   13149      48   13161   13158
      47   13164   13158      47   13164   13161      48   13173   13170      47
   13176   13170      47   13176   13173      48   13185   13182      47   13188
   13182      47   13188   13185      48   13197   13194      47   13200   13194
      47   13200   13197      48   13209   13206      47   13212   13206      47
   13212   13209      48   13221   13218      47   13224   13218      47   13224
   13221      48   13233   13230      47   13236   13230      47   13236   13233
      48   13245   13242      47   13248   13242      47   13248   13245      48
   13257   13254      47   13260   13254      47   13260   13257      48   13269
   13266      47   13272   13266      47   13272   13269      48   13281   13278
      47   13284   13278      47   13284   13281      48   13293   13290      47
   13296   13290      47   13296   13293      48   13305   13302      47   13308
   13302      47   13308   13305      48   13317   13314      47   13320   13314
      47   13320   13317      48   13329   13326      47   13332   13326      47
   13332   13329      48   13341   13338      47   13344   13338      47   13344
   13341      48   13353   13350      47   13356   13350      47   13356   13353
      48   13365   13362      47   13368   13362      47   13368   13365      48
   13377   13374      47   13380   13374      47   13380   13377      48   13389
   13386      47   13392   13386      47   13392   13389      48   13401   13398
      47   13404   13398      47   13404   13401      48   13413   13410      47
   13416   13410      47   13416   13413      48   13425   13422      47   13428
   13422      47   13428   13425      48   13437   13434      47   13440   13434
      47   13440   13437      48   13449   13446      47   13452   13446      47
   13452   13449      48   13461   13458      47   13464   13458      47   13464
   13461      48   13473   13470      47   13476   13470      47   13476   13473
      48   13485   13482      47   13488   13482      47   13488   13485      48
   13497   13494      47   13500   13494      47   13500   13497      48   13509
   13506      47   13512   13506      47   13512   13509      48   13521   13518
      47   13524   13518      47   13524   13521      48   13533   13530      47
   13536   13530      47   13536   13533      48   13545   13542      47   13548
   13542      47   13548   13545      48   13557   13554      47   13560   13554
      47   13560   13557      48   13569   13566      47   13572   13566      47
   13572   13569      48   13581   13578      47   13584   13578      47   13584
   13581      48   13593   13590      47   13596   13590      47   13596   13593
      48   13605   13602      47   13608   13602      47   13608   13605      48
   13617   13614      47   13620   13614      47   13620   13617      48   13629
   13626      47   13632   13626      47   13632   13629      48   13641   13638
      47   13644   13638      47   13644   13641      48   13653   13650      47
   13656   13650      47   13656   13653      48   13665   13662      47   13668
   13662      47   13668   13665      48   13677   13674      47   13680   13674
      47   13680   13677      48   13689   13686      47   13692   13686      47
   13692   13689      48   13701   13698      47   13704   13698      47   13704
   13701      48   13713   13710      47   13716   13710      47   13716   13713
      48   13725   13722      47   13728   13722      47   13728   13725      48
   13737   13734      47   13740   13734      47   13740   13737      48   13749
   13746      47   13752   13746      47   13752   13749      48   13761   13758
      47   13764   13758      47   13764   13761      48   13773   13770      47
   13776   13770      47   13776   13773      48   13785   13782      47   13788
   13782      47   13788   13785      48   13797   13794      47   13800   13794
      47   13800   13797      48   13809   13806      47   13812   13806      47
   13812   13809      48   13821   13818      47   13824   13818      47   13824
   13821      48   13833   13830      47   13836   13830      47   13836   13833
      48   13845   13842      47   13848   13842      47   13848   13845      48
   13857   13854      47   13860   13854      47   13860   13857      48   13869
   13866      47   13872   13866      47   13872   13869      48   13881   13878
      47   13884   13878      47   13884   13881      48   13893   13890      47
   13896   13890      47   13896   13893      48   13905   13902      47   13908
   13902      47   13908   13905      48   13917   13914      47   13920   13914
      47   13920   13917      48   13929   13926      47   13932   13926      47
   13932   13929      48   13941   13938      47   13944   13938      47   13944
   13941      48   13953   13950      47   13956   13950      47   13956   13953
      48   13965   13962      47   13968   13962      47   13968   13965      48
   13977   13974      47   13980   13974      47   13980   13977      48   13989
   13986      47   13992   13986      47   13992   13989      48   14001   13998
      47   14004   13998      47   14004   14001      48   14013   14010      47
   14016   14010      47   14016   14013      48   14025   14022      47   14028
   14022      47   14028   14025      48   14037   14034      47   14040   14034
      47   14040   14037      48   14049   14046      47   14052   14046      47
   14052   14049      48   14061   14058      47   14064   14058      47   14064
   14061      48   14073   14070      47   14076   14070      47   14076   14073
      48   14085   14082      47   14088   14082      47   14088   14085      48
   14097   14094      47   14100   14094      47   14100   14097      48   14109
   14106      47   14112   14106      47   14112   14109      48   14121   14118
      47   14124   14118      47   14124   14121      48   14133   14130      47
   14136   14130      47   14136   14133      48   14145   14142      47   14148
   14142      47   14148   14145      48   14157   14154      47   14160   14154
      47   14160   14157      48   14169   14166      47   14172   14166      47
   14172   14169      48   14181   14178      47   14184   14178      47   14184
   14181      48   14193   14190      47   14196   14190      47   14196   14193
      48   14205   14202      47   14208   14202      47   14208   14205      48
   14217   14214      47   14220   14214      47   14220   14217      48   14229
   14226      47   14232   14226      47   14232   14229      48   14241   14238
      47   14244   14238      47   14244   14241      48   14253   14250      47
   14256   14250      47   14256   14253      48   14265   14262      47   14268
   14262      47   14268   14265      48   14277   14274      47   14280   14274
      47   14280   14277      48   14289   14286      47   14292   14286      47
   14292   14289      48   14301   14298      47   14304   14298      47   14304
   14301      48   14313   14310      47   14316   14310      47   14316   14313
      48   14325   14322      47   14328   14322      47   14328   14325      48
   14337   14334      47   14340   14334      47   14340   14337      48   14349
   14346      47   14352   14346      47   14352   14349      48   14361   14358
      47   14364   14358      47   14364   14361      48   14373   14370      47
   14376   14370      47   14376   14373      48   14385   14382      47   14388
   14382      47   14388   14385      48   14397   14394      47   14400   14394
      47   14400   14397      48   14409   14406      47   14412   14406      47
   14412   14409      48   14421   14418      47   14424   14418      47   14424
   14421      48   14433   14430      47   14436   14430      47   14436   14433
      48   14445   14442      47   14448   14442      47   14448   14445      48
   14457   14454      47   14460   14454      47   14460   14457      48   14469
   14466      47   14472   14466      47   14472   14469      48   14481   14478
      47   14484   14478      47   14484   14481      48   14493   14490      47
   14496   14490      47   14496   14493      48   14505   14502      47   14508
   14502      47   14508   14505      48   14517   14514      47   14520   14514
      47   14520   14517      48   14529   14526      47   14532   14526      47
   14532   14529      48   14541   14538      47   14544   14538      47   14544
   14541      48   14553   14550      47   14556   14550      47   14556   14553
      48   14565   14562      47   14568   14562      47   14568   14565      48
   14577   14574      47   14580   14574      47   14580   14577      48   14589
   14586      47   14592   14586      47   14592   14589      48   14601   14598
      47   14604   14598      47   14604   14601      48   14613   14610      47
   14616   14610      47   14616   14613      48   14625   14622      47   14628
   14622      47   14628   14625      48   14637   14634      47   14640   14634
      47   14640   14637      48   14649   14646      47   14652   14646      47
   14652   14649      48   14661   14658      47   14664   14658      47   14664
   14661      48   14673   14670      47   14676   14670      47   14676   14673
      48   14685   14682      47   14688   14682      47   14688   14685      48
   14697   14694      47   14700   14694      47   14700   14697      48   14709
   14706      47   14712   14706      47   14712   14709      48   14721   14718
      47   14724   14718      47   14724   14721      48   14733   14730      47
   14736   14730      47   14736   14733      48   14745   14742      47   14748
   14742      47   14748   14745      48   14757   14754      47   14760   14754
      47   14760   14757      48   14769   14766      47   14772   14766      47
   14772   14769      48   14781   14778      47   14784   14778      47   14784
   14781      48   14793   14790      47   14796   14790      47   14796   14793
      48   14805   14802      47   14808   14802      47   14808   14805      48
   14817   14814      47   14820   14814      47   14820   14817      48   14829
   14826      47   14832   14826      47   14832   14829      48   14841   14838
      47   14844   14838      47   14844   14841      48   14853   14850      47
   14856   14850      47   14856   14853      48   14865   14862      47   14868
   14862      47   14868   14865      48   14877   14874      47   14880   14874
      47   14880   14877      48   14889   14886      47   14892   14886      47
   14892   14889      48   14901   14898      47   14904   14898      47   14904
   14901      48   14913   14910      47   14916   14910      47   14916   14913
      48   14925   14922      47   14928   14922      47   14928   14925      48
   14937   14934      47   14940   14934      47   14940   14937      48   14949
   14946      47   14952   14946      47   14952   14949      48   14961   14958
      47   14964   14958      47   14964   14961      48   14973   14970      47
   14976   14970      47   14976   14973      48   14985   14982      47   14988
   14982      47   14988   14985      48   14997   14994      47   15000   14994
      47   15000   14997      48   15009   15006      47   15012   15006      47
   15012   15009      48   15021   15018      47   15024   15018      47   15024
   15021      48   15033   15030      47   15036   15030      47   15036   15033
      48   15045   15042      47   15048   15042      47   15048   15045      48
   15057   15054      47   15060   15054      47   15060   15057      48   15069
   15066      47   15072   15066      47   15072   15069      48   15081   15078
      47   15084   15078      47   15084   15081      48   15093   15090      47
   15096   15090      47   15096   15093      48   15105   15102      47   15108
   15102      47   15108   15105      48   15117   15114      47   15120   15114
      47   15120   15117      48   15129   15126      47   15132   15126      47
   15132   15129      48   15141   15138      47   15144   15138      47   15144
   15141      48   15153   15150      47   15156   15150      47   15156   15153
      48   15165   15162      47   15168   15162      47   15168   15165      48
   15177   15174      47   15180   15174      47   15180   15177      48   15189
   15186      47   15192   15186      47   15192   15189      48   15201   15198
      47   15204   15198      47   15204   15201      48   15213   15210      47
   15216   15210      47   15216   15213      48   15225   15222      47   15228
   15222      47   15228   15225      48   15237   15234      47   15240   15234
      47   15240   15237      48   15249   15246      47   15252   15246      47
   15252   15249      48   15261   15258      47   15264   15258      47   15264
   15261      48   15273   15270      47   15276   15270      47   15276   15273
      48   15285   15282      47   15288   15282      47   15288   15285      48
   15297   15294      47   15300   15294      47   15300   15297      48   15309
   15306      47   15312   15306      47   15312   15309      48   15321   15318
      47   15324   15318      47   15324   15321      48   15333   15330      47
   15336   15330      47   15336   15333      48   15345   15342      47   15348
   15342      47   15348   15345      48   15357   15354      47   15360   15354
      47   15360   15357      48   15369   15366      47   15372   15366      47
   15372   15369      48   15381   15378      47   15384   15378      47   15384
   15381      48   15393   15390      47   15396   15390      47   15396   15393
      48   15405   15402      47   15408   15402      47   15408   15405      48
   15417   15414      47   15420   15414      47   15420   15417      48   15429
   15426      47   15432   15426      47   15432   15429      48   15441   15438
      47   15444   15438      47   15444   15441      48   15453   15450      47
   15456   15450      47   15456   15453      48   15465   15462      47   15468
   15462      47   15468   15465      48   15477   15474      47   15480   15474
      47   15480   15477      48   15489   15486      47   15492   15486      47
   15492   15489      48   15501   15498      47   15504   15498      47   15504
   15501      48   15513   15510      47   15516   15510      47   15516   15513
      48   15525   15522      47   15528   15522      47   15528   15525      48
   15537   15534      47   15540   15534      47   15540   15537      48   15549
   15546      47   15552   15546      47   15552   15549      48   15561   15558
      47   15564   15558      47   15564   15561      48   15573   15570      47
   15576   15570      47   15576   15573      48   15585   15582      47   15588
   15582      47   15588   15585      48   15597   15594      47   15600   15594
      47   15600   15597      48   15609   15606      47   15612   15606      47
   15612   15609      48   15621   15618      47   15624   15618      47   15624
   15621      48   15633   15630      47   15636   15630      47   15636   15633
      48   15645   15642      47   15648   15642      47   15648   15645      48
   15657   15654      47   15660   15654      47   15660   15657      48   15669
   15666      47   15672   15666      47   15672   15669      48   15681   15678
      47   15684   15678      47   15684   15681      48   15693   15690      47
   15696   15690      47   15696   15693      48   15705   15702      47   15708
   15702      47   15708   15705      48   15717   15714      47   15720   15714
      47   15720   15717      48   15729   15726      47   15732   15726      47
   15732   15729      48   15741   15738      47   15744   15738      47   15744
   15741      48   15753   15750      47   15756   15750      47   15756   15753
      48   15765   15762      47   15768   15762      47   15768   15765      48
   15777   15774      47   15780   15774      47   15780   15777      48   15789
   15786      47   15792   15786      47   15792   15789      48   15801   15798
      47   15804   15798      47   15804   15801      48   15813   15810      47
   15816   15810      47   15816   15813      48   15825   15822      47   15828
   15822      47   15828   15825      48   15837   15834      47   15840   15834
      47   15840   15837      48   15849   15846      47   15852   15846      47
   15852   15849      48   15861   15858      47   15864   15858      47   15864
   15861      48   15873   15870      47   15876   15870      47   15876   15873
      48   15885   15882      47   15888   15882      47   15888   15885      48
   15897   15894      47   15900   15894      47   15900   15897      48   15909
   15906      47   15912   15906      47   15912   15909      48   15921   15918
      47   15924   15918      47   15924   15921      48   15933   15930      47
   15936   15930      47   15936   15933      48   15945   15942      47   15948
   15942      47   15948   15945      48   15957   15954      47   15960   15954
      47   15960   15957      48   15969   15966      47   15972   15966      47
   15972   15969      48   15981   15978      47   15984   15978      47   15984
   15981      48   15993   15990      47   15996   15990      47   15996   15993
      48   16005   16002      47   16008   16002      47   16008   16005      48
   16017   16014      47   16020   16014      47   16020   16017      48   16029
   16026      47   16032   16026      47   16032   16029      48   16041   16038
      47   16044   16038      47   16044   16041      48   16053   16050      47
   16056   16050      47   16056   16053      48   16065   16062      47   16068
   16062      47   16068   16065      48   16077   16074      47   16080   16074
      47   16080   16077      48   16089   16086      47   16092   16086      47
   16092   16089      48   16101   16098      47   16104   16098      47   16104
   16101      48   16113   16110      47   16116   16110      47   16116   16113
      48   16125   16122      47   16128   16122      47   16128   16125      48
   16137   16134      47   16140   16134      47   16140   16137      48   16149
   16146      47   16152   16146      47   16152   16149      48   16161   16158
      47   16164   16158      47   16164   16161      48   16173   16170      47
   16176   16170      47   16176   16173      48   16185   16182      47   16188
   16182      47   16188   16185      48   16197   16194      47   16200   16194
      47   16200   16197      48   16209   16206      47   16212   16206      47
   16212   16209      48   16221   16218      47   16224   16218      47   16224
   16221      48   16233   16230      47   16236   16230      47   16236   16233
      48   16245   16242      47   16248   16242      47   16248   16245      48
   16257   16254      47   16260   16254      47   16260   16257      48   16269
   16266      47   16272   16266      47   16272   16269      48   16281   16278
      47   16284   16278      47   16284   16281      48   16293   16290      47
   16296   16290      47   16296   16293      48   16305   16302      47   16308
   16302      47   16308   16305      48   16317   16314      47   16320   16314
      47   16320   16317      48   16329   16326      47   16332   16326      47
   16332   16329      48   16341   16338      47   16344   16338      47   16344
   16341      48   16353   16350      47   16356   16350      47   16356   16353
      48   16365   16362      47   16368   16362      47   16368   16365      48
   16377   16374      47   16380   16374      47   16380   16377      48   16389
   16386      47   16392   16386      47   16392   16389      48   16401   16398
      47   16404   16398      47   16404   16401      48   16413   16410      47
   16416   16410      47   16416   16413      48   16425   16422      47   16428
   16422      47   16428   16425      48   16437   16434      47   16440   16434
      47   16440   16437      48   16449   16446      47   16452   16446      47
   16452   16449      48   16461   16458      47   16464   16458      47   16464
   16461      48   16473   16470      47   16476   16470      47   16476   16473
      48   16485   16482      47   16488   16482      47   16488   16485      48
   16497   16494      47   16500   16494      47   16500   16497      48   16509
   16506      47   16512   16506      47   16512   16509      48   16521   16518
      47   16524   16518      47   16524   16521      48   16533   16530      47
   16536   16530      47   16536   16533      48   16545   16542      47   16548
   16542      47   16548   16545      48   16557   16554      47   16560   16554
      47   16560   16557      48   16569   16566      47   16572   16566      47
   16572   16569      48   16581   16578      47   16584   16578      47   16584
   16581      48   16593   16590      47   16596   16590      47   16596   16593
      48   16605   16602      47   16608   16602      47   16608   16605      48
   16617   16614      47   16620   16614      47   16620   16617      48   16629
   16626      47   16632   16626      47   16632   16629      48   16641   16638
      47   16644   16638      47   16644   16641      48   16653   16650      47
   16656   16650      47   16656   16653      48   16665   16662      47   16668
   16662      47   16668   16665      48   16677   16674      47   16680   16674
      47   16680   16677      48   16689   16686      47   16692   16686      47
   16692   16689      48   16701   16698      47   16704   16698      47   16704
   16701      48   16713   16710      47   16716   16710      47   16716   16713
      48   16725   16722      47   16728   16722      47   16728   16725      48
   16737   16734      47   16740   16734      47   16740   16737      48   16749
   16746      47   16752   16746      47   16752   16749      48   16761   16758
      47   16764   16758      47   16764   16761      48   16773   16770      47
   16776   16770      47   16776   16773      48   16785   16782      47   16788
   16782      47   16788   16785      48   16797   16794      47   16800   16794
      47   16800   16797      48   16809   16806      47   16812   16806      47
   16812   16809      48   16821   16818      47   16824   16818      47   16824
   16821      48   16833   16830      47   16836   16830      47   16836   16833
      48   16845   16842      47   16848   16842      47   16848   16845      48
   16857   16854      47   16860   16854      47   16860   16857      48   16869
   16866      47   16872   16866      47   16872   16869      48   16881   16878
      47   16884   16878      47   16884   16881      48   16893   16890      47
   16896   16890      47   16896   16893      48   16905   16902      47   16908
   16902      47   16908   16905      48   16917   16914      47   16920   16914
      47   16920   16917      48   16929   16926      47   16932   16926      47
   16932   16929      48   16941   16938      47   16944   16938      47   16944
   16941      48   16953   16950      47   16956   16950      47   16956   16953
      48   16965   16962      47   16968   16962      47   16968   16965      48
   16977   16974      47   16980   16974      47   16980   16977      48   16989
   16986      47   16992   16986      47   16992   16989      48   17001   16998
      47   17004   16998      47   17004   17001      48   17013   17010      47
   17016   17010      47   17016   17013      48   17025   17022      47   17028
   17022      47   17028   17025      48   17037   17034      47   17040   17034
      47   17040   17037      48   17049   17046      47   17052   17046      47
   17052   17049      48   17061   17058      47   17064   17058      47   17064
   17061      48   17073   17070      47   17076   17070      47   17076   17073
      48   17085   17082      47   17088   17082      47   17088   17085      48
   17097   17094      47   17100   17094      47   17100   17097      48   17109
   17106      47   17112   17106      47   17112   17109      48   17121   17118
      47   17124   17118      47   17124   17121      48   17133   17130      47
   17136   17130      47   17136   17133      48   17145   17142      47   17148
   17142      47   17148   17145      48   17157   17154      47   17160   17154
      47   17160   17157      48   17169   17166      47   17172   17166      47
   17172   17169      48   17181   17178      47   17184   17178      47   17184
   17181      48   17193   17190      47   17196   17190      47   17196   17193
      48   17205   17202      47   17208   17202      47   17208   17205      48
   17217   17214      47   17220   17214      47   17220   17217      48   17229
   17226      47   17232   17226      47   17232   17229      48   17241   17238
      47   17244   17238      47   17244   17241      48   17253   17250      47
   17256   17250      47   17256   17253      48   17265   17262      47   17268
   17262      47   17268   17265      48   17277   17274      47   17280   17274
      47   17280   17277      48   17289   17286      47   17292   17286      47
   17292   17289      48   17301   17298      47   17304   17298      47   17304
   17301      48   17313   17310      47   17316   17310      47   17316   17313
      48   17325   17322      47   17328   17322      47   17328   17325      48
   17337   17334      47   17340   17334      47   17340   17337      48   17349
   17346      47   17352   17346      47   17352   17349      48   17361   17358
      47   17364   17358      47   17364   17361      48   17373   17370      47
   17376   17370      47   17376   17373      48   17385   17382      47   17388
   17382      47   17388   17385      48   17397   17394      47   17400   17394
      47   17400   17397      48   17409   17406      47   17412   17406      47
   17412   17409      48   17421   17418      47   17424   17418      47   17424
   17421      48   17433   17430      47   17436   17430      47   17436   17433
      48   17445   17442      47   17448   17442      47   17448   17445      48
   17457   17454      47   17460   17454      47   17460   17457      48   17469
   17466      47   17472   17466      47   17472   17469      48   17481   17478
      47   17484   17478      47   17484   17481      48   17493   17490      47
   17496   17490      47   17496   17493      48   17505   17502      47   17508
   17502      47   17508   17505      48   17517   17514      47   17520   17514
      47   17520   17517      48   17529   17526      47   17532   17526      47
   17532   17529      48   17541   17538      47   17544   17538      47   17544
   17541      48   17553   17550      47   17556   17550      47   17556   17553
      48   17565   17562      47   17568   17562      47   17568   17565      48
   17577   17574      47   17580   17574      47   17580   17577      48   17589
   17586      47   17592   17586      47   17592   17589      48   17601   17598
      47   17604   17598      47   17604   17601      48   17613   17610      47
   17616   17610      47   17616   17613      48   17625   17622      47   17628
   17622      47   17628   17625      48   17637   17634      47   17640   17634
      47   17640   17637      48   17649   17646      47   17652   17646      47
   17652   17649      48   17661   17658      47   17664   17658      47   17664
   17661      48   17673   17670      47   17676   17670      47   17676   17673
      48   17685   17682      47   17688   17682      47   17688   17685      48
   17697   17694      47   17700   17694      47   17700   17697      48   17709
   17706      47   17712   17706      47   17712   17709      48   17721   17718
      47   17724   17718      47   17724   17721      48   17733   17730      47
   17736   17730      47   17736   17733      48   17745   17742      47   17748
   17742      47   17748   17745      48   17757   17754      47   17760   17754
      47   17760   17757      48   17769   17766      47   17772   17766      47
   17772   17769      48   17781   17778      47   17784   17778      47   17784
   17781      48   17793   17790      47   17796   17790      47   17796   17793
      48   17805   17802      47   17808   17802      47   17808   17805      48
   17817   17814      47   17820   17814      47   17820   17817      48   17829
   17826      47   17832   17826      47   17832   17829      48   17841   17838
      47   17844   17838      47   17844   17841      48   17853   17850      47
   17856   17850      47   17856   17853      48   17865   17862      47   17868
   17862      47   17868   17865      48   17877   17874      47   17880   17874
      47   17880   17877      48   17889   17886      47   17892   17886      47
   17892   17889      48   17901   17898      47   17904   17898      47   17904
   17901      48   17913   17910      47   17916   17910      47   17916   17913
      48   17925   17922      47   17928   17922      47   17928   17925      48
   17937   17934      47   17940   17934      47   17940   17937      48   17949
   17946      47   17952   17946      47   17952   17949      48   17961   17958
      47   17964   17958      47   17964   17961      48   17973   17970      47
   17976   17970      47   17976   17973      48   17985   17982      47   17988
   17982      47   17988   17985      48   17997   17994      47   18000   17994
      47   18000   17997      48   18009   18006      47   18012   18006      47
   18012   18009      48   18021   18018      47   18024   18018      47   18024
   18021      48   18033   18030      47   18036   18030      47   18036   18033
      48   18045   18042      47   18048   18042      47   18048   18045      48
   18057   18054      47   18060   18054      47   18060   18057      48   18069
   18066      47   18072   18066      47   18072   18069      48   18081   18078
      47   18084   18078      47   18084   18081      48   18093   18090      47
   18096   18090      47   18096   18093      48   18105   18102      47   18108
   18102      47   18108   18105      48   18117   18114      47   18120   18114
      47   18120   18117      48   18129   18126      47   18132   18126      47
   18132   18129      48   18141   18138      47   18144   18138      47   18144
   18141      48   18153   18150      47   18156   18150      47   18156   18153
      48   18165   18162      47   18168   18162      47   18168   18165      48
   18177   18174      47   18180   18174      47   18180   18177      48   18189
   18186      47   18192   18186      47   18192   18189      48   18201   18198
      47   18204   18198      47   18204   18201      48   18213   18210      47
   18216   18210      47   18216   18213      48   18225   18222      47   18228
   18222      47   18228   18225      48   18237   18234      47   18240   18234
      47   18240   18237      48   18249   18246      47   18252   18246      47
   18252   18249      48   18261   18258      47   18264   18258      47   18264
   18261      48   18273   18270      47   18276   18270      47   18276   18273
      48   18285   18282      47   18288   18282      47   18288   18285      48
   18297   18294      47   18300   18294      47   18300   18297      48   18309
   18306      47   18312   18306      47   18312   18309      48   18321   18318
      47   18324   18318      47   18324   18321      48   18333   18330      47
   18336   18330      47   18336   18333      48   18345   18342      47   18348
   18342      47   18348   18345      48   18357   18354      47   18360   18354
      47   18360   18357      48   18369   18366      47   18372   18366      47
   18372   18369      48   18381   18378      47   18384   18378      47   18384
   18381      48   18393   18390      47   18396   18390      47   18396   18393
      48   18405   18402      47   18408   18402      47   18408   18405      48
   18417   18414      47   18420   18414      47   18420   18417      48   18429
   18426      47   18432   18426      47   18432   18429      48   18441   18438
      47   18444   18438      47   18444   18441      48   18453   18450      47
   18456   18450      47   18456   18453      48   18465   18462      47   18468
   18462      47   18468   18465      48   18477   18474      47   18480   18474
      47   18480   18477      48   18489   18486      47   18492   18486      47
   18492   18489      48   18501   18498      47   18504   18498      47   18504
   18501      48   18513   18510      47   18516   18510      47   18516   18513
      48   18525   18522      47   18528   18522      47   18528   18525      48
   18537   18534      47   18540   18534      47   18540   18537      48   18549
   18546      47   18552   18546      47   18552   18549      48   18561   18558
      47   18564   18558      47   18564   18561      48   18573   18570      47
   18576   18570      47   18576   18573      48   18585   18582      47   18588
   18582      47   18588   18585      48   18597   18594      47   18600   18594
      47   18600   18597      48   18609   18606      47   18612   18606      47
   18612   18609      48   18621   18618      47   18624   18618      47   18624
   18621      48   18633   18630      47   18636   18630      47   18636   18633
      48   18645   18642      47   18648   18642      47   18648   18645      48
   18657   18654      47   18660   18654      47   18660   18657      48   18669
   18666      47   18672   18666      47   18672   18669      48   18681   18678
      47   18684   18678      47   18684   18681      48   18693   18690      47
   18696   18690      47   18696   18693      48   18705   18702      47   18708
   18702      47   18708   18705      48   18717   18714      47   18720   18714
      47   18720   18717      48   18729   18726      47   18732   18726      47
   18732   18729      48   18741   18738      47   18744   18738      47   18744
   18741      48   18753   18750      47   18756   18750      47   18756   18753
      48   18765   18762      47   18768   18762      47   18768   18765      48
   18777   18774      47   18780   18774      47   18780   18777      48   18789
   18786      47   18792   18786      47   18792   18789      48   18801   18798
      47   18804   18798      47   18804   18801      48   18813   18810      47
   18816   18810      47   18816   18813      48   18825   18822      47   18828
   18822      47   18828   18825      48   18837   18834      47   18840   18834
      47   18840   18837      48   18849   18846      47   18852   18846      47
   18852   18849      48   18861   18858      47   18864   18858      47   18864
   18861      48   18873   18870      47   18876   18870      47   18876   18873
      48   18885   18882      47   18888   18882      47   18888   18885      48
   18897   18894      47   18900   18894      47   18900   18897      48   18909
   18906      47   18912   18906      47   18912   18909      48   18921   18918
      47   18924   18918      47   18924   18921      48   18933   18930      47
   18936   18930      47   18936   18933      48   18945   18942      47   18948
   18942      47   18948   18945      48   18957   18954      47   18960   18954
      47   18960   18957      48   18969   18966      47   18972   18966      47
   18972   18969      48   18981   18978      47   18984   18978      47   18984
   18981      48   18993   18990      47   18996   18990      47   18996   18993
      48   19005   19002      47   19008   19002      47   19008   19005      48
   19017   19014      47   19020   19014      47   19020   19017      48   19029
   19026      47   19032   19026      47   19032   19029      48   19041   19038
      47   19044   19038      47   19044   19041      48   19053   19050      47
   19056   19050      47   19056   19053      48   19065   19062      47   19068
   19062      47   19068   19065      48   19077   19074      47   19080   19074
      47   19080   19077      48   19089   19086      47   19092   19086      47
   19092   19089      48   19101   19098      47   19104   19098      47   19104
   19101      48   19113   19110      47   19116   19110      47   19116   19113
      48   19125   19122      47   19128   19122      47   19128   19125      48
   19137   19134      47   19140   19134      47   19140   19137      48   19149
   19146      47   19152   19146      47   19152   19149      48   19161   19158
      47   19164   19158      47   19164   19161      48   19173   19170      47
   19176   19170      47   19176   19173      48   19185   19182      47   19188
   19182      47   19188   19185      48   19197   19194      47   19200   19194
      47   19200   19197      48   19209   19206      47   19212   19206      47
   19212   19209      48   19221   19218      47   19224   19218      47   19224
   19221      48   19233   19230      47   19236   19230      47   19236   19233
      48   19245   19242      47   19248   19242      47   19248   19245      48
   19257   19254      47   19260   19254      47   19260   19257      48   19269
   19266      47   19272   19266      47   19272   19269      48   19281   19278
      47   19284   19278      47   19284   19281      48   19293   19290      47
   19296   19290      47   19296   19293      48   19305   19302      47   19308
   19302      47   19308   19305      48   19317   19314      47   19320   19314
      47   19320   19317      48   19329   19326      47   19332   19326      47
   19332   19329      48   19341   19338      47   19344   19338      47   19344
   19341      48   19353   19350      47   19356   19350      47   19356   19353
      48   19365   19362      47   19368   19362      47   19368   19365      48
   19377   19374      47   19380   19374      47   19380   19377      48   19389
   19386      47   19392   19386      47   19392   19389      48   19401   19398
      47   19404   19398      47   19404   19401      48   19413   19410      47
   19416   19410      47   19416   19413      48   19425   19422      47   19428
   19422      47   19428   19425      48   19437   19434      47   19440   19434
      47   19440   19437      48   19449   19446      47   19452   19446      47
   19452   19449      48   19461   19458      47   19464   19458      47   19464
   19461      48   19473   19470      47   19476   19470      47   19476   19473
      48   19485   19482      47   19488   19482      47   19488   19485      48
   19497   19494      47   19500   19494      47   19500   19497      48   19509
   19506      47   19512   19506      47   19512   19509      48   19521   19518
      47   19524   19518      47   19524   19521      48   19533   19530      47
   19536   19530      47   19536   19533      48   19545   19542      47   19548
   19542      47   19548   19545      48   19557   19554      47   19560   19554
      47   19560   19557      48   19569   19566      47   19572   19566      47
   19572   19569      48   19581   19578      47   19584   19578      47   19584
   19581      48   19593   19590      47   19596   19590      47   19596   19593
      48   19605   19602      47   19608   19602      47   19608   19605      48
   19617   19614      47   19620   19614      47   19620   19617      48   19629
   19626      47   19632   19626      47   19632   19629      48   19641   19638
      47   19644   19638      47   19644   19641      48   19653   19650      47
   19656   19650      47   19656   19653      48   19665   19662      47   19668
   19662      47   19668   19665      48   19677   19674      47   19680   19674
      47   19680   19677      48   19689   19686      47   19692   19686      47
   19692   19689      48   19701   19698      47   19704   19698      47   19704
   19701      48   19713   19710      47   19716   19710      47   19716   19713
      48   19725   19722      47   19728   19722      47   19728   19725      48
   19737   19734      47   19740   19734      47   19740   19737      48   19749
   19746      47   19752   19746      47   19752   19749      48   19761   19758
      47   19764   19758      47   19764   19761      48   19773   19770      47
   19776   19770      47   19776   19773      48   19785   19782      47   19788
   19782      47   19788   19785      48   19797   19794      47   19800   19794
      47   19800   19797      48   19809   19806      47   19812   19806      47
   19812   19809      48   19821   19818      47   19824   19818      47   19824
   19821      48   19833   19830      47   19836   19830      47   19836   19833
      48   19845   19842      47   19848   19842      47   19848   19845      48
   19857   19854      47   19860   19854      47   19860   19857      48   19869
   19866      47   19872   19866      47   19872   19869      48   19881   19878
      47   19884   19878      47   19884   19881      48   19893   19890      47
   19896   19890      47   19896   19893      48   19905   19902      47   19908
   19902      47   19908   19905      48   19917   19914      47   19920   19914
      47   19920   19917      48   19929   19926      47   19932   19926      47
   19932   19929      48   19941   19938      47   19944   19938      47   19944
   19941      48   19953   19950      47   19956   19950      47   19956   19953
      48   19965   19962      47   19968   19962      47   19968   19965      48
   19977   19974      47   19980   19974      47   19980   19977      48   19989
   19986      47   19992   19986      47   19992   19989      48   20001   19998
      47   20004   19998      47   20004   20001      48   20013   20010      47
   20016   20010      47   20016   20013      48   20025   20022      47   20028
   20022      47   20028   20025      48   20037   20034      47   20040   20034
      47   20040   20037      48   20049   20046      47   20052   20046      47
   20052   20049      48   20061   20058      47   20064   20058      47   20064
   20061      48   20073   20070      47   20076   20070      47   20076   20073
      48   20085   20082      47   20088   20082      47   20088   20085      48
   20097   20094      47   20100   20094      47   20100   20097      48   20109
   20106      47   20112   20106      47   20112   20109      48   20121   20118
      47   20124   20118      47   20124   20121      48   20133   20130      47
   20136   20130      47   20136   20133      48   20145   20142      47   20148
   20142      47   20148   20145      48   20157   20154      47   20160   20154
      47   20160   20157      48   20169   20166      47   20172   20166      47
   20172   20169      48   20181   20178      47   20184   20178      47   20184
   20181      48   20193   20190      47   20196   20190      47   20196   20193
      48   20205   20202      47   20208   20202      47   20208   20205      48
   20217   20214      47   20220   20214      47   20220   20217      48   20229
   20226      47   20232   20226      47   20232   20229      48   20241   20238
      47   20244   20238      47   20244   20241      48   20253   20250      47
   20256   20250      47   20256   20253      48   20265   20262      47   20268
   20262      47   20268   20265      48   20277   20274      47   20280   20274
      47   20280   20277      48   20289   20286      47   20292   20286      47
   20292   20289      48   20301   20298      47   20304   20298      47   20304
   20301      48   20313   20310      47   20316   20310      47   20316   20313
      48   20325   20322      47   20328   20322      47   20328   20325      48
   20337   20334      47   20340   20334      47   20340   20337      48   20349
   20346      47   20352   20346      47   20352   20349      48   20361   20358
      47   20364   20358      47   20364   20361      48   20373   20370      47
   20376   20370      47   20376   20373      48   20385   20382      47   20388
   20382      47   20388   20385      48   20397   20394      47   20400   20394
      47   20400   20397      48   20409   20406      47   20412   20406      47
   20412   20409      48   20421   20418      47   20424   20418      47   20424
   20421      48   20433   20430      47   20436   20430      47   20436   20433
      48   20445   20442      47   20448   20442      47   20448   20445      48
   20457   20454      47   20460   20454      47   20460   20457      48   20469
   20466      47   20472   20466      47   20472   20469      48   20481   20478
      47   20484   20478      47   20484   20481      48   20493   20490      47
   20496   20490      47   20496   20493      48   20505   20502      47   20508
   20502      47   20508   20505      48   20517   20514      47   20520   20514
      47   20520   20517      48   20529   20526      47   20532   20526      47
   20532   20529      48   20541   20538      47   20544   20538      47   20544
   20541      48   20553   20550      47   20556   20550      47   20556   20553
      48   20565   20562      47   20568   20562      47   20568   20565      48
   20577   20574      47   20580   20574      47   20580   20577      48   20589
   20586      47   20592   20586      47   20592   20589      48   20601   20598
      47   20604   20598      47   20604   20601      48   20613   20610      47
   20616   20610      47   20616   20613      48   20625   20622      47   20628
   20622      47   20628   20625      48   20637   20634      47   20640   20634
      47   20640   20637      48   20649   20646      47   20652   20646      47
   20652   20649      48   20661   20658      47   20664   20658      47   20664
   20661      48   20673   20670      47   20676   20670      47   20676   20673
      48   20685   20682      47   20688   20682      47   20688   20685      48
   20697   20694      47   20700   20694      47   20700   20697      48   20709
   20706      47   20712   20706      47   20712   20709      48   20721   20718
      47   20724   20718      47   20724   20721      48   20733   20730      47
   20736   20730      47   20736   20733      48   20745   20742      47   20748
   20742      47   20748   20745      48   20757   20754      47   20760   20754
      47   20760   20757      48   20769   20766      47   20772   20766      47
   20772   20769      48   20781   20778      47   20784   20778      47   20784
   20781      48   20793   20790      47   20796   20790      47   20796   20793
      48   20805   20802      47   20808   20802      47   20808   20805      48
   20817   20814      47   20820   20814      47   20820   20817      48   20829
   20826      47   20832   20826      47   20832   20829      48   20841   20838
      47   20844   20838      47   20844   20841      48   20853   20850      47
   20856   20850      47   20856   20853      48   20865   20862      47   20868
   20862      47   20868   20865      48   20877   20874      47   20880   20874
      47   20880   20877      48   20889   20886      47   20892   20886      47
   20892   20889      48   20901   20898      47   20904   20898      47   20904
   20901      48   20913   20910      47   20916   20910      47   20916   20913
      48   20925   20922      47   20928   20922      47   20928   20925      48
   20937   20934      47   20940   20934      47   20940   20937      48   20949
   20946      47   20952   20946      47   20952   20949      48   20961   20958
      47   20964   20958      47   20964   20961      48   20973   20970      47
   20976   20970      47   20976   20973      48   20985   20982      47   20988
   20982      47   20988   20985      48   20997   20994      47   21000   20994
      47   21000   20997      48   21009   21006      47   21012   21006      47
   21012   21009      48   21021   21018      47   21024   21018      47   21024
   21021      48   21033   21030      47   21036   21030      47   21036   21033
      48   21045   21042      47   21048   21042      47   21048   21045      48
   21057   21054      47   21060   21054      47   21060   21057      48   21069
   21066      47   21072   21066      47   21072   21069      48   21081   21078
      47   21084   21078      47   21084   21081      48   21093   21090      47
   21096   21090      47   21096   21093      48   21105   21102      47   21108
   21102      47   21108   21105      48   21117   21114      47   21120   21114
      47   21120   21117      48   21129   21126      47   21132   21126      47
   21132   21129      48   21141   21138      47   21144   21138      47   21144
   21141      48   21153   21150      47   21156   21150      47   21156   21153
      48   21165   21162      47   21168   21162      47   21168   21165      48
   21177   21174      47   21180   21174      47   21180   21177      48   21189
   21186      47   21192   21186      47   21192   21189      48   21201   21198
      47   21204   21198      47   21204   21201      48   21213   21210      47
   21216   21210      47   21216   21213      48   21225   21222      47   21228
   21222      47   21228   21225      48   21237   21234      47   21240   21234
      47   21240   21237      48   21249   21246      47   21252   21246      47
   21252   21249      48   21261   21258      47   21264   21258      47   21264
   21261      48   21273   21270      47   21276   21270      47   21276   21273
      48   21285   21282      47   21288   21282      47   21288   21285      48
   21297   21294      47   21300   21294      47   21300   21297      48   21309
   21306      47   21312   21306      47   21312   21309      48   21321   21318
      47   21324   21318      47   21324   21321      48   21333   21330      47
   21336   21330      47   21336   21333      48   21345   21342      47   21348
   21342      47   21348   21345      48   21357   21354      47   21360   21354
      47   21360   21357      48   21369   21366      47   21372   21366      47
   21372   21369      48   21381   21378      47   21384   21378      47   21384
   21381      48   21393   21390      47   21396   21390      47   21396   21393
      48   21405   21402      47   21408   21402      47   21408   21405      48
   21417   21414      47   21420   21414      47   21420   21417      48   21429
   21426      47   21432   21426      47   21432   21429      48   21441   21438
      47   21444   21438      47   21444   21441      48   21453   21450      47
   21456   21450      47   21456   21453      48   21465   21462      47   21468
   21462      47   21468   21465      48   21477   21474      47   21480   21474
      47   21480   21477      48   21489   21486      47   21492   21486      47
   21492   21489      48   21501   21498      47   21504   21498      47   21504
   21501      48   21513   21510      47   21516   21510      47   21516   21513
      48   21525   21522      47   21528   21522      47   21528   21525      48
   21537   21534      47   21540   21534      47   21540   21537      48   21549
   21546      47   21552   21546      47   21552   21549      48   21561   21558
      47   21564   21558      47   21564   21561      48   21573   21570      47
   21576   21570      47   21576   21573      48   21585   21582      47   21588
   21582      47   21588   21585      48   21597   21594      47   21600   21594
      47   21600   21597      48   21609   21606      47   21612   21606      47
   21612   21609      48   21621   21618      47   21624   21618      47   21624
   21621      48   21633   21630      47   21636   21630      47   21636   21633
      48   21645   21642      47   21648   21642      47   21648   21645      48
   21657   21654      47   21660   21654      47   21660   21657      48   21669
   21666      47   21672   21666      47   21672   21669      48   21681   21678
      47   21684   21678      47   21684   21681      48   21693   21690      47
   21696   21690      47   21696   21693      48   21705   21702      47   21708
   21702      47   21708   21705      48   21717   21714      47   21720   21714
      47   21720   21717      48   21729   21726      47   21732   21726      47
   21732   21729      48   21741   21738      47   21744   21738      47   21744
   21741      48   21753   21750      47   21756   21750      47   21756   21753
      48   21765   21762      47   21768   21762      47   21768   21765      48
   21777   21774      47   21780   21774      47   21780   21777      48   21789
   21786      47   21792   21786      47   21792   21789      48   21801   21798
      47   21804   21798      47   21804   21801      48   21813   21810      47
   21816   21810      47   21816   21813      48   21825   21822      47   21828
   21822      47   21828   21825      48   21837   21834      47   21840   21834
      47   21840   21837      48   21849   21846      47   21852   21846      47
   21852   21849      48   21861   21858      47   21864   21858      47   21864
   21861      48   21873   21870      47   21876   21870      47   21876   21873
      48   21885   21882      47   21888   21882      47   21888   21885      48
   21897   21894      47   21900   21894      47   21900   21897      48   21909
   21906      47   21912   21906      47   21912   21909      48   21921   21918
      47   21924   21918      47   21924   21921      48   21933   21930      47
   21936   21930      47   21936   21933      48   21945   21942      47   21948
   21942      47   21948   21945      48   21957   21954      47   21960   21954
      47   21960   21957      48   21969   21966      47   21972   21966      47
   21972   21969      48   21981   21978      47   21984   21978      47   21984
   21981      48   21993   21990      47   21996   21990      47   21996   21993
      48   22005   22002      47   22008   22002      47   22008   22005      48
   22017   22014      47   22020   22014      47   22020   22017      48   22029
   22026      47   22032   22026      47   22032   22029      48   22041   22038
      47   22044   22038      47   22044   22041      48   22053   22050      47
   22056   22050      47   22056   22053      48   22065   22062      47   22068
   22062      47   22068   22065      48   22077   22074      47   22080   22074
      47   22080   22077      48   22089   22086      47   22092   22086      47
   22092   22089      48   22101   22098      47   22104   22098      47   22104
   22101      48   22113   22110      47   22116   22110      47   22116   22113
      48   22125   22122      47   22128   22122      47   22128   22125      48
   22137   22134      47   22140   22134      47   22140   22137      48   22149
   22146      47   22152   22146      47   22152   22149      48   22161   22158
      47   22164   22158      47   22164   22161      48   22173   22170      47
   22176   22170      47   22176   22173      48   22185   22182      47   22188
   22182      47   22188   22185      48   22197   22194      47   22200   22194
      47   22200   22197      48   22209   22206      47   22212   22206      47
   22212   22209      48   22221   22218      47   22224   22218      47   22224
   22221      48   22233   22230      47   22236   22230      47   22236   22233
      48   22245   22242      47   22248   22242      47   22248   22245      48
   22257   22254      47   22260   22254      47   22260   22257      48   22269
   22266      47   22272   22266      47   22272   22269      48   22281   22278
      47   22284   22278      47   22284   22281      48   22293   22290      47
   22296   22290      47   22296   22293      48   22305   22302      47   22308
   22302      47   22308   22305      48   22317   22314      47   22320   22314
      47   22320   22317      48   22329   22326      47   22332   22326      47
   22332   22329      48   22341   22338      47   22344   22338      47   22344
   22341      48   22353   22350      47   22356   22350      47   22356   22353
      48   22365   22362      47   22368   22362      47   22368   22365      48
   22377   22374      47   22380   22374      47   22380   22377      48   22389
   22386      47   22392   22386      47   22392   22389      48   22401   22398
      47   22404   22398      47   22404   22401      48   22413   22410      47
   22416   22410      47   22416   22413      48   22425   22422      47   22428
   22422      47   22428   22425      48   22437   22434      47   22440   22434
      47   22440   22437      48   22449   22446      47   22452   22446      47
   22452   22449      48   22461   22458      47   22464   22458      47   22464
   22461      48   22473   22470      47   22476   22470      47   22476   22473
      48   22485   22482      47   22488   22482      47   22488   22485      48
   22497   22494      47   22500   22494      47   22500   22497      48   22509
   22506      47   22512   22506      47   22512   22509      48   22521   22518
      47   22524   22518      47   22524   22521      48   22533   22530      47
   22536   22530      47   22536   22533      48   22545   22542      47   22548
   22542      47   22548   22545      48   22557   22554      47   22560   22554
      47   22560   22557      48   22569   22566      47   22572   22566      47
   22572   22569      48   22581   22578      47   22584   22578      47   22584
   22581      48   22593   22590      47   22596   22590      47   22596   22593
      48   22605   22602      47   22608   22602      47   22608   22605      48
   22617   22614      47   22620   22614      47   22620   22617      48   22629
   22626      47   22632   22626      47   22632   22629      48   22641   22638
      47   22644   22638      47   22644   22641      48   22653   22650      47
   22656   22650      47   22656   22653      48   22665   22662      47   22668
   22662      47   22668   22665      48   22677   22674      47   22680   22674
      47   22680   22677      48   22689   22686      47   22692   22686      47
   22692   22689      48   22701   22698      47   22704   22698      47   22704
   22701      48   22713   22710      47   22716   22710      47   22716   22713
      48   22725   22722      47   22728   22722      47   22728   22725      48
   22737   22734      47   22740   22734      47   22740   22737      48   22749
   22746      47   22752   22746      47   22752   22749      48   22761   22758
      47   22764   22758      47   22764   22761      48   22773   22770      47
   22776   22770      47   22776   22773      48   22785   22782      47   22788
   22782      47   22788   22785      48   22797   22794      47   22800   22794
      47   22800   22797      48   22809   22806      47   22812   22806      47
   22812   22809      48   22821   22818      47   22824   22818      47   22824
   22821      48   22833   22830      47   22836   22830      47   22836   22833
      48   22845   22842      47   22848   22842      47   22848   22845      48
   22857   22854      47   22860   22854      47   22860   22857      48   22869
   22866      47   22872   22866      47   22872   22869      48   22881   22878
      47   22884   22878      47   22884   22881      48   22893   22890      47
   22896   22890      47   22896   22893      48   22905   22902      47   22908
   22902      47   22908   22905      48   22917   22914      47   22920   22914
      47   22920   22917      48   22929   22926      47   22932   22926      47
   22932   22929      48   22941   22938      47   22944   22938      47   22944
   22941      48   22953   22950      47   22956   22950      47   22956   22953
      48   22965   22962      47   22968   22962      47   22968   22965      48
   22977   22974      47   22980   22974      47   22980   22977      48   22989
   22986      47   22992   22986      47   22992   22989      48   23001   22998
      47   23004   22998      47   23004   23001      48   23013   23010      47
   23016   23010      47   23016   23013      48   23025   23022      47   23028
   23022      47   23028   23025      48   23037   23034      47   23040   23034
      47   23040   23037      48   23049   23046      47   23052   23046      47
   23052   23049      48   23061   23058      47   23064   23058      47   23064
   23061      48   23073   23070      47   23076   23070      47   23076   23073
      48   23085   23082      47   23088   23082      47   23088   23085      48
   23097   23094      47   23100   23094      47   23100   23097      48   23109
   23106      47   23112   23106      47   23112   23109      48   23121   23118
      47   23124   23118      47   23124   23121      48   23133   23130      47
   23136   23130      47   23136   23133      48   23145   23142      47   23148
   23142      47   23148   23145      48   23157   23154      47   23160   23154
      47   23160   23157      48   23169   23166      47   23172   23166      47
   23172   23169      48   23181   23178      47   23184   23178      47   23184
   23181      48   23193   23190      47   23196   23190      47   23196   23193
      48   23205   23202      47   23208   23202      47   23208   23205      48
   23217   23214      47   23220   23214      47   23220   23217      48   23229
   23226      47   23232   23226      47   23232   23229      48   23241   23238
      47   23244   23238      47   23244   23241      48   23253   23250      47
   23256   23250      47   23256   23253      48   23265   23262      47   23268
   23262      47   23268   23265      48   23277   23274      47   23280   23274
      47   23280   23277      48   23289   23286      47   23292   23286      47
   23292   23289      48   23301   23298      47   23304   23298      47   23304
   23301      48   23313   23310      47   23316   23310      47   23316   23313
      48   23325   23322      47   23328   23322      47   23328   23325      48
   23337   23334      47   23340   23334      47   23340   23337      48   23349
   23346      47   23352   23346      47   23352   23349      48   23361   23358
      47   23364   23358      47   23364   23361      48   23373   23370      47
   23376   23370      47   23376   23373      48   23385   23382      47   23388
   23382      47   23388   23385      48   23397   23394      47   23400   23394
      47   23400   23397      48   23409   23406      47   23412   23406      47
   23412   23409      48   23421   23418      47   23424   23418      47   23424
   23421      48   23433   23430      47   23436   23430      47   23436   23433
      48   23445   23442      47   23448   23442      47   23448   23445      48
   23457   23454      47   23460   23454      47   23460   23457      48   23469
   23466      47   23472   23466      47   23472   23469      48   23481   23478
      47   23484   23478      47   23484   23481      48   23493   23490      47
   23496   23490      47   23496   23493      48   23505   23502      47   23508
   23502      47   23508   23505      48   23517   23514      47   23520   23514
      47   23520   23517      48   23529   23526      47   23532   23526      47
   23532   23529      48   23541   23538      47   23544   23538      47   23544
   23541      48   23553   23550      47   23556   23550      47   23556   23553
      48   23565   23562      47   23568   23562      47   23568   23565      48
   23577   23574      47   23580   23574      47   23580   23577      48   23589
   23586      47   23592   23586      47   23592   23589      48   23601   23598
      47   23604   23598      47   23604   23601      48   23613   23610      47
   23616   23610      47   23616   23613      48   23625   23622      47   23628
   23622      47   23628   23625      48   23637   23634      47   23640   23634
      47   23640   23637      48   23649   23646      47   23652   23646      47
   23652   23649      48   23661   23658      47   23664   23658      47   23664
   23661      48   23673   23670      47   23676   23670      47   23676   23673
      48   23685   23682      47   23688   23682      47   23688   23685      48
   23697   23694      47   23700   23694      47   23700   23697      48   23709
   23706      47   23712   23706      47   23712   23709      48   23721   23718
      47   23724   23718      47   23724   23721      48   23733   23730      47
   23736   23730      47   23736   23733      48   23745   23742      47   23748
   23742      47   23748   23745      48   23757   23754      47   23760   23754
      47   23760   23757      48   23769   23766      47   23772   23766      47
   23772   23769      48   23781   23778      47   23784   23778      47   23784
   23781      48   23793   23790      47   23796   23790      47   23796   23793
      48   23805   23802      47   23808   23802      47   23808   23805      48
   23817   23814      47   23820   23814      47   23820   23817      48   23829
   23826      47   23832   23826      47   23832   23829      48   23841   23838
      47   23844   23838      47   23844   23841      48   23853   23850      47
   23856   23850      47   23856   23853      48   23865   23862      47   23868
   23862      47   23868   23865      48   23877   23874      47   23880   23874
      47   23880   23877      48   23889   23886      47   23892   23886      47
   23892   23889      48   23901   23898      47   23904   23898      47   23904
   23901      48   23913   23910      47   23916   23910      47   23916   23913
      48   23925   23922      47   23928   23922      47   23928   23925      48
   23937   23934      47   23940   23934      47   23940   23937      48   23949
   23946      47   23952   23946      47   23952   23949      48   23961   23958
      47   23964   23958      47   23964   23961      48   23973   23970      47
   23976   23970      47   23976   23973      48   23985   23982      47   23988
   23982      47   23988   23985      48   23997   23994      47   24000   23994
      47   24000   23997      48   24009   24006      47   24012   24006      47
   24012   24009      48   24021   24018      47   24024   24018      47   24024
   24021      48   24033   24030      47   24036   24030      47   24036   24033
      48   24045   24042      47   24048   24042      47   24048   24045      48
   24057   24054      47   24060   24054      47   24060   24057      48   24069
   24066      47   24072   24066      47   24072   24069      48   24081   24078
      47   24084   24078      47   24084   24081      48   24093   24090      47
   24096   24090      47   24096   24093      48   24105   24102      47   24108
   24102      47   24108   24105      48   24117   24114      47   24120   24114
      47   24120   24117      48   24129   24126      47   24132   24126      47
   24132   24129      48   24141   24138      47   24144   24138      47   24144
   24141      48   24153   24150      47   24156   24150      47   24156   24153
      48   24165   24162      47   24168   24162      47   24168   24165      48
   24177   24174      47   24180   24174      47   24180   24177      48   24189
   24186      47   24192   24186      47   24192   24189      48   24201   24198
      47   24204   24198      47   24204   24201      48   24213   24210      47
   24216   24210      47   24216   24213      48   24225   24222      47   24228
   24222      47   24228   24225      48   24237   24234      47   24240   24234
      47   24240   24237      48   24249   24246      47   24252   24246      47
   24252   24249      48   24261   24258      47   24264   24258      47   24264
   24261      48   24273   24270      47   24276   24270      47   24276   24273
      48   24285   24282      47   24288   24282      47   24288   24285      48
   24297   24294      47   24300   24294      47   24300   24297      48   24309
   24306      47   24312   24306      47   24312   24309      48   24321   24318
      47   24324   24318      47   24324   24321      48   24333   24330      47
   24336   24330      47   24336   24333      48   24345   24342      47   24348
   24342      47   24348   24345      48   24357   24354      47   24360   24354
      47   24360   24357      48   24369   24366      47   24372   24366      47
   24372   24369      48   24381   24378      47   24384   24378      47   24384
   24381      48   24393   24390      47   24396   24390      47   24396   24393
      48   24405   24402      47   24408   24402      47   24408   24405      48
   24417   24414      47   24420   24414      47   24420   24417      48   24429
   24426      47   24432   24426      47   24432   24429      48   24441   24438
      47   24444   24438      47   24444   24441      48   24453   24450      47
   24456   24450      47   24456   24453      48   24465   24462      47   24468
   24462      47   24468   24465      48   24477   24474      47   24480   24474
      47   24480   24477      48   24489   24486      47   24492   24486      47
   24492   24489      48   24501   24498      47   24504   24498      47   24504
   24501      48   24513   24510      47   24516   24510      47   24516   24513
      48   24525   24522      47   24528   24522      47   24528   24525      48
   24537   24534      47   24540   24534      47   24540   24537      48   24549
   24546      47   24552   24546      47   24552   24549      48   24561   24558
      47   24564   24558      47   24564   24561      48   24573   24570      47
   24576   24570      47   24576   24573      48   24585   24582      47   24588
   24582      47   24588   24585      48   24597   24594      47   24600   24594
      47   24600   24597      48   24609   24606      47   24612   24606      47
   24612   24609      48   24621   24618      47   24624   24618      47   24624
   24621      48   24633   24630      47   24636   24630      47   24636   24633
      48   24645   24642      47   24648   24642      47   24648   24645      48
   24657   24654      47   24660   24654      47   24660   24657      48   24669
   24666      47   24672   24666      47   24672   24669      48   24681   24678
      47   24684   24678      47   24684   24681      48   24693   24690      47
   24696   24690      47   24696   24693      48   24705   24702      47   24708
   24702      47   24708   24705      48   24717   24714      47   24720   24714
      47   24720   24717      48   24729   24726      47   24732   24726      47
   24732   24729      48   24741   24738      47   24744   24738      47   24744
   24741      48   24753   24750      47   24756   24750      47   24756   24753
      48   24765   24762      47   24768   24762      47   24768   24765      48
   24777   24774      47   24780   24774      47   24780   24777      48   24789
   24786      47   24792   24786      47   24792   24789      48   24801   24798
      47   24804   24798      47   24804   24801      48   24813   24810      47
   24816   24810      47   24816   24813      48   24825   24822      47   24828
   24822      47   24828   24825      48   24837   24834      47   24840   24834
      47   24840   24837      48   24849   24846      47   24852   24846      47
   24852   24849      48   24861   24858      47   24864   24858      47   24864
   24861      48   24873   24870      47   24876   24870      47   24876   24873
      48   24885   24882      47   24888   24882      47   24888   24885      48
   24897   24894      47   24900   24894      47   24900   24897      48   24909
   24906      47   24912   24906      47   24912   24909      48   24921   24918
      47   24924   24918      47   24924   24921      48   24933   24930      47
   24936   24930      47   24936   24933      48   24945   24942      47   24948
   24942      47   24948   24945      48   24957   24954      47   24960   24954
      47   24960   24957      48   24969   24966      47   24972   24966      47
   24972   24969      48   24981   24978      47   24984   24978      47   24984
   24981      48   24993   24990      47   24996   24990      47   24996   24993
      48   25005   25002      47   25008   25002      47   25008   25005      48
   25017   25014      47   25020   25014      47   25020   25017      48   25029
   25026      47   25032   25026      47   25032   25029      48   25041   25038
      47   25044   25038      47   25044   25041      48   25053   25050      47
   25056   25050      47   25056   25053      48   25065   25062      47   25068
   25062      47   25068   25065      48   25077   25074      47   25080   25074
      47   25080   25077      48   25089   25086      47   25092   25086      47
   25092   25089      48   25101   25098      47   25104   25098      47   25104
   25101      48   25113   25110      47   25116   25110      47   25116   25113
      48   25125   25122      47   25128   25122      47   25128   25125      48
   25137   25134      47   25140   25134      47   25140   25137      48   25149
   25146      47   25152   25146      47   25152   25149      48   25161   25158
      47   25164   25158      47   25164   25161      48   25173   25170      47
   25176   25170      47   25176   25173      48   25185   25182      47   25188
   25182      47   25188   25185      48   25197   25194      47   25200   25194
      47   25200   25197      48   25209   25206      47   25212   25206      47
   25212   25209      48   25221   25218      47   25224   25218      47   25224
   25221      48   25233   25230      47   25236   25230      47   25236   25233
      48   25245   25242      47   25248   25242      47   25248   25245      48
   25257   25254      47   25260   25254      47   25260   25257      48   25269
   25266      47   25272   25266      47   25272   25269      48   25281   25278
      47   25284   25278      47   25284   25281      48   25293   25290      47
   25296   25290      47   25296   25293      48   25305   25302      47   25308
   25302      47   25308   25305      48   25317   25314      47   25320   25314
      47   25320   25317      48   25329   25326      47   25332   25326      47
   25332   25329      48   25341   25338      47   25344   25338      47   25344
   25341      48   25353   25350      47   25356   25350      47   25356   25353
      48   25365   25362      47   25368   25362      47   25368   25365      48
   25377   25374      47   25380   25374      47   25380   25377      48   25389
   25386      47   25392   25386      47   25392   25389      48   25401   25398
      47   25404   25398      47   25404   25401      48   25413   25410      47
   25416   25410      47   25416   25413      48   25425   25422      47   25428
   25422      47   25428   25425      48   25437   25434      47   25440   25434
      47   25440   25437      48   25449   25446      47   25452   25446      47
   25452   25449      48   25461   25458      47   25464   25458      47   25464
   25461      48   25473   25470      47   25476   25470      47   25476   25473
      48   25485   25482      47   25488   25482      47   25488   25485      48
   25497   25494      47   25500   25494      47   25500   25497      48   25509
   25506      47   25512   25506      47   25512   25509      48   25521   25518
      47   25524   25518      47   25524   25521      48   25533   25530      47
   25536   25530      47   25536   25533      48   25545   25542      47   25548
   25542      47   25548   25545      48   25557   25554      47   25560   25554
      47   25560   25557      48   25569   25566      47   25572   25566      47
   25572   25569      48   25581   25578      47   25584   25578      47   25584
   25581      48   25593   25590      47   25596   25590      47   25596   25593
      48   25605   25602      47   25608   25602      47   25608   25605      48
   25617   25614      47   25620   25614      47   25620   25617      48   25629
   25626      47   25632   25626      47   25632   25629      48   25641   25638
      47   25644   25638      47   25644   25641      48   25653   25650      47
   25656   25650      47   25656   25653      48   25665   25662      47   25668
   25662      47   25668   25665      48   25677   25674      47   25680   25674
      47   25680   25677      48   25689   25686      47   25692   25686      47
   25692   25689      48   25701   25698      47   25704   25698      47   25704
   25701      48   25713   25710      47   25716   25710      47   25716   25713
      48   25725   25722      47   25728   25722      47   25728   25725      48
   25737   25734      47   25740   25734      47   25740   25737      48   25749
   25746      47   25752   25746      47   25752   25749      48   25761   25758
      47   25764   25758      47   25764   25761      48   25773   25770      47
   25776   25770      47   25776   25773      48   25785   25782      47   25788
   25782      47   25788   25785      48   25797   25794      47   25800   25794
      47   25800   25797      48   25809   25806      47   25812   25806      47
   25812   25809      48   25821   25818      47   25824   25818      47   25824
   25821      48   25833   25830      47   25836   25830      47   25836   25833
      48   25845   25842      47   25848   25842      47   25848   25845      48
   25857   25854      47   25860   25854      47   25860   25857      48   25869
   25866      47   25872   25866      47   25872   25869      48   25881   25878
      47   25884   25878      47   25884   25881      48   25893   25890      47
   25896   25890      47   25896   25893      48   25905   25902      47   25908
   25902      47   25908   25905      48   25917   25914      47   25920   25914
      47   25920   25917      48   25929   25926      47   25932   25926      47
   25932   25929      48   25941   25938      47   25944   25938      47   25944
   25941      48   25953   25950      47   25956   25950      47   25956   25953
      48   25965   25962      47   25968   25962      47   25968   25965      48
   25977   25974      47   25980   25974      47   25980   25977      48   25989
   25986      47   25992   25986      47   25992   25989      48   26001   25998
      47   26004   25998      47   26004   26001      48   26013   26010      47
   26016   26010      47   26016   26013      48   26025   26022      47   26028
   26022      47   26028   26025      48   26037   26034      47   26040   26034
      47   26040   26037      48   26049   26046      47   26052   26046      47
   26052   26049      48   26061   26058      47   26064   26058      47   26064
   26061      48   26073   26070      47   26076   26070      47   26076   26073
      48   26085   26082      47   26088   26082      47   26088   26085      48
   26097   26094      47   26100   26094      47   26100   26097      48   26109
   26106      47   26112   26106      47   26112   26109      48   26121   26118
      47   26124   26118      47   26124   26121      48   26133   26130      47
   26136   26130      47   26136   26133      48   26145   26142      47   26148
   26142      47   26148   26145      48   26157   26154      47   26160   26154
      47   26160   26157      48   26169   26166      47   26172   26166      47
   26172   26169      48   26181   26178      47   26184   26178      47   26184
   26181      48   26193   26190      47   26196   26190      47   26196   26193
      48   26205   26202      47   26208   26202      47   26208   26205      48
   26217   26214      47   26220   26214      47   26220   26217      48   26229
   26226      47   26232   26226      47   26232   26229      48   26241   26238
      47   26244   26238      47   26244   26241      48   26253   26250      47
   26256   26250      47   26256   26253      48   26265   26262      47   26268
   26262      47   26268   26265      48   26277   26274      47   26280   26274
      47   26280   26277      48   26289   26286      47   26292   26286      47
   26292   26289      48   26301   26298      47   26304   26298      47   26304
   26301      48   26313   26310      47   26316   26310      47   26316   26313
      48   26325   26322      47   26328   26322      47   26328   26325      48
   26337   26334      47   26340   26334      47   26340   26337      48   26349
   26346      47   26352   26346      47   26352   26349      48   26361   26358
      47   26364   26358      47   26364   26361      48   26373   26370      47
   26376   26370      47   26376   26373      48   26385   26382      47   26388
   26382      47   26388   26385      48   26397   26394      47   26400   26394
      47   26400   26397      48   26409   26406      47   26412   26406      47
   26412   26409      48   26421   26418      47   26424   26418      47   26424
   26421      48   26433   26430      47   26436   26430      47   26436   26433
      48   26445   26442      47   26448   26442      47   26448   26445      48
   26457   26454      47   26460   26454      47   26460   26457      48   26469
   26466      47   26472   26466      47   26472   26469      48   26481   26478
      47   26484   26478      47   26484   26481      48   26493   26490      47
   26496   26490      47   26496   26493      48   26505   26502      47   26508
   26502      47   26508   26505      48   26517   26514      47   26520   26514
      47   26520   26517      48   26529   26526      47   26532   26526      47
   26532   26529      48   26541   26538      47   26544   26538      47   26544
   26541      48   26553   26550      47   26556   26550      47   26556   26553
      48   26565   26562      47   26568   26562      47   26568   26565      48
   26577   26574      47   26580   26574      47   26580   26577      48   26589
   26586      47   26592   26586      47   26592   26589      48   26601   26598
      47   26604   26598      47   26604   26601      48   26613   26610      47
   26616   26610      47   26616   26613      48   26625   26622      47   26628
   26622      47   26628   26625      48   26637   26634      47   26640   26634
      47   26640   26637      48   26649   26646      47   26652   26646      47
   26652   26649      48   26661   26658      47   26664   26658      47   26664
   26661      48   26673   26670      47   26676   26670      47   26676   26673
      48   26685   26682      47   26688   26682      47   26688   26685      48
   26697   26694      47   26700   26694      47   26700   26697      48   26709
   26706      47   26712   26706      47   26712   26709      48   26721   26718
      47   26724   26718      47   26724   26721      48   26733   26730      47
   26736   26730      47   26736   26733      48   26745   26742      47   26748
   26742      47   26748   26745      48   26757   26754      47   26760   26754
      47   26760   26757      48   26769   26766      47   26772   26766      47
   26772   26769      48   26781   26778      47   26784   26778      47   26784
   26781      48   26793   26790      47   26796   26790      47   26796   26793
      48   26805   26802      47   26808   26802      47   26808   26805      48
   26817   26814      47   26820   26814      47   26820   26817      48   26829
   26826      47   26832   26826      47   26832   26829      48   26841   26838
      47   26844   26838      47   26844   26841      48   26853   26850      47
   26856   26850      47   26856   26853      48   26865   26862      47   26868
   26862      47   26868   26865      48   26877   26874      47   26880   26874
      47   26880   26877      48   26889   26886      47   26892   26886      47
   26892   26889      48   26901   26898      47   26904   26898      47   26904
   26901      48   26913   26910      47   26916   26910      47   26916   26913
      48   26925   26922      47   26928   26922      47   26928   26925      48
   26937   26934      47   26940   26934      47   26940   26937      48   26949
   26946      47   26952   26946      47   26952   26949      48   26961   26958
      47   26964   26958      47   26964   26961      48   26973   26970      47
   26976   26970      47   26976   26973      48   26985   26982      47   26988
   26982      47   26988   26985      48   26997   26994      47   27000   26994
      47   27000   26997      48   27009   27006      47   27012   27006      47
   27012   27009      48   27021   27018      47   27024   27018      47   27024
   27021      48   27033   27030      47   27036   27030      47   27036   27033
      48   27045   27042      47   27048   27042      47   27048   27045      48
   27057   27054      47   27060   27054      47   27060   27057      48   27069
   27066      47   27072   27066      47   27072   27069      48   27081   27078
      47   27084   27078      47   27084   27081      48   27093   27090      47
   27096   27090      47   27096   27093      48   27105   27102      47   27108
   27102      47   27108   27105      48   27117   27114      47   27120   27114
      47   27120   27117      48   27129   27126      47   27132   27126      47
   27132   27129      48   27141   27138      47   27144   27138      47   27144
   27141      48   27153   27150      47   27156   27150      47   27156   27153
      48   27165   27162      47   27168   27162      47   27168   27165      48
   27177   27174      47   27180   27174      47   27180   27177      48   27189
   27186      47   27192   27186      47   27192   27189      48   27201   27198
      47   27204   27198      47   27204   27201      48   27213   27210      47
   27216   27210      47   27216   27213      48   27225   27222      47   27228
   27222      47   27228   27225      48   27237   27234      47   27240   27234
      47   27240   27237      48   27249   27246      47   27252   27246      47
   27252   27249      48   27261   27258      47   27264   27258      47   27264
   27261      48   27273   27270      47   27276   27270      47   27276   27273
      48   27285   27282      47   27288   27282      47   27288   27285      48
   27297   27294      47   27300   27294      47   27300   27297      48   27309
   27306      47   27312   27306      47   27312   27309      48   27321   27318
      47   27324   27318      47   27324   27321      48   27333   27330      47
   27336   27330      47   27336   27333      48   27345   27342      47   27348
   27342      47   27348   27345      48   27357   27354      47   27360   27354
      47   27360   27357      48   27369   27366      47   27372   27366      47
   27372   27369      48   27381   27378      47   27384   27378      47   27384
   27381      48   27393   27390      47   27396   27390      47   27396   27393
      48   27405   27402      47   27408   27402      47   27408   27405      48
   27417   27414      47   27420   27414      47   27420   27417      48   27429
   27426      47   27432   27426      47   27432   27429      48   27441   27438
      47   27444   27438      47   27444   27441      48   27453   27450      47
   27456   27450      47   27456   27453      48   27465   27462      47   27468
   27462      47   27468   27465      48   27477   27474      47   27480   27474
      47   27480   27477      48   27489   27486      47   27492   27486      47
   27492   27489      48   27501   27498      47   27504   27498      47   27504
   27501      48   27513   27510      47   27516   27510      47   27516   27513
      48   27525   27522      47   27528   27522      47   27528   27525      48
   27537   27534      47   27540   27534      47   27540   27537      48   27549
   27546      47   27552   27546      47   27552   27549      48   27561   27558
      47   27564   27558      47   27564   27561      48   27573   27570      47
   27576   27570      47   27576   27573      48   27585   27582      47   27588
   27582      47   27588   27585      48   27597   27594      47   27600   27594
      47   27600   27597      48   27609   27606      47   27612   27606      47
   27612   27609      48   27621   27618      47   27624   27618      47   27624
   27621      48   27633   27630      47   27636   27630      47   27636   27633
      48   27645   27642      47   27648   27642      47   27648   27645      48
   27657   27654      47   27660   27654      47   27660   27657      48   27669
   27666      47   27672   27666      47   27672   27669      48   27681   27678
      47   27684   27678      47   27684   27681      48   27693   27690      47
   27696   27690      47   27696   27693      48   27705   27702      47   27708
   27702      47   27708   27705      48   27717   27714      47   27720   27714
      47   27720   27717      48   27729   27726      47   27732   27726      47
   27732   27729      48   27741   27738      47   27744   27738      47   27744
   27741      48   27753   27750      47   27756   27750      47   27756   27753
      48   27765   27762      47   27768   27762      47   27768   27765      48
   27777   27774      47   27780   27774      47   27780   27777      48   27789
   27786      47   27792   27786      47   27792   27789      48   27801   27798
      47   27804   27798      47   27804   27801      48   27813   27810      47
   27816   27810      47   27816   27813      48   27825   27822      47   27828
   27822      47   27828   27825      48   27837   27834      47   27840   27834
      47   27840   27837      48   27849   27846      47   27852   27846      47
   27852   27849      48   27861   27858      47   27864   27858      47   27864
   27861      48   27873   27870      47   27876   27870      47   27876   27873
      48   27885   27882      47   27888   27882      47   27888   27885      48
   27897   27894      47   27900   27894      47   27900   27897      48   27909
   27906      47   27912   27906      47   27912   27909      48   27921   27918
      47   27924   27918      47   27924   27921      48   27933   27930      47
   27936   27930      47   27936   27933      48   27945   27942      47   27948
   27942      47   27948   27945      48   27957   27954      47   27960   27954
      47   27960   27957      48   27969   27966      47   27972   27966      47
   27972   27969      48   27981   27978      47   27984   27978      47   27984
   27981      48   27993   27990      47   27996   27990      47   27996   27993
      48   28005   28002      47   28008   28002      47   28008   28005      48
   28017   28014      47   28020   28014      47   28020   28017      48   28029
   28026      47   28032   28026      47   28032   28029      48   28041   28038
      47   28044   28038      47   28044   28041      48   28053   28050      47
   28056   28050      47   28056   28053      48   28065   28062      47   28068
   28062      47   28068   28065      48   28077   28074      47   28080   28074
      47   28080   28077      48   28089   28086      47   28092   28086      47
   28092   28089      48   28101   28098      47   28104   28098      47   28104
   28101      48   28113   28110      47   28116   28110      47   28116   28113
      48   28125   28122      47   28128   28122      47   28128   28125      48
   28137   28134      47   28140   28134      47   28140   28137      48   28149
   28146      47   28152   28146      47   28152   28149      48   28161   28158
      47   28164   28158      47   28164   28161      48   28173   28170      47
   28176   28170      47   28176   28173      48   28185   28182      47   28188
   28182      47   28188   28185      48   28197   28194      47   28200   28194
      47   28200   28197      48   28209   28206      47   28212   28206      47
   28212   28209      48   28221   28218      47   28224   28218      47   28224
   28221      48   28233   28230      47   28236   28230      47   28236   28233
      48   28245   28242      47   28248   28242      47   28248   28245      48
   28257   28254      47   28260   28254      47   28260   28257      48   28269
   28266      47   28272   28266      47   28272   28269      48   28281   28278
      47   28284   28278      47   28284   28281      48   28293   28290      47
   28296   28290      47   28296   28293      48   28305   28302      47   28308
   28302      47   28308   28305      48   28317   28314      47   28320   28314
      47   28320   28317      48   28329   28326      47   28332   28326      47
   28332   28329      48   28341   28338      47   28344   28338      47   28344
   28341      48   28353   28350      47   28356   28350      47   28356   28353
      48   28365   28362      47   28368   28362      47   28368   28365      48
   28377   28374      47   28380   28374      47   28380   28377      48   28389
   28386      47   28392   28386      47   28392   28389      48   28401   28398
      47   28404   28398      47   28404   28401      48   28413   28410      47
   28416   28410      47   28416   28413      48   28425   28422      47   28428
   28422      47   28428   28425      48   28437   28434      47   28440   28434
      47   28440   28437      48   28449   28446      47   28452   28446      47
   28452   28449      48   28461   28458      47   28464   28458      47   28464
   28461      48   28473   28470      47   28476   28470      47   28476   28473
      48   28485   28482      47   28488   28482      47   28488   28485      48
   28497   28494      47   28500   28494      47   28500   28497      48   28509
   28506      47   28512   28506      47   28512   28509      48   28521   28518
      47   28524   28518      47   28524   28521      48   28533   28530      47
   28536   28530      47   28536   28533      48   28545   28542      47   28548
   28542      47   28548   28545      48   28557   28554      47   28560   28554
      47   28560   28557      48   28569   28566      47   28572   28566      47
   28572   28569      48   28581   28578      47   28584   28578      47   28584
   28581      48   28593   28590      47   28596   28590      47   28596   28593
      48   28605   28602      47   28608   28602      47   28608   28605      48
   28617   28614      47   28620   28614      47   28620   28617      48   28629
   28626      47   28632   28626      47   28632   28629      48   28641   28638
      47   28644   28638      47   28644   28641      48   28653   28650      47
   28656   28650      47   28656   28653      48   28665   28662      47   28668
   28662      47   28668   28665      48   28677   28674      47   28680   28674
      47   28680   28677      48   28689   28686      47   28692   28686      47
   28692   28689      48   28701   28698      47   28704   28698      47   28704
   28701      48   28713   28710      47   28716   28710      47   28716   28713
      48   28725   28722      47   28728   28722      47   28728   28725      48
   28737   28734      47   28740   28734      47   28740   28737      48   28749
   28746      47   28752   28746      47   28752   28749      48   28761   28758
      47   28764   28758      47   28764   28761      48   28773   28770      47
   28776   28770      47   28776   28773      48   28785   28782      47   28788
   28782      47   28788   28785      48   28797   28794      47   28800   28794
      47   28800   28797      48   28809   28806      47   28812   28806      47
   28812   28809      48   28821   28818      47   28824   28818      47   28824
   28821      48   28833   28830      47   28836   28830      47   28836   28833
      48   28845   28842      47   28848   28842      47   28848   28845      48
   28857   28854      47   28860   28854      47   28860   28857      48   28869
   28866      47   28872   28866      47   28872   28869      48   28881   28878
      47   28884   28878      47   28884   28881      48   28893   28890      47
   28896   28890      47   28896   28893      48   28905   28902      47   28908
   28902      47   28908   28905      48   28917   28914      47   28920   28914
      47   28920   28917      48   28929   28926      47   28932   28926      47
   28932   28929      48   28941   28938      47   28944   28938      47   28944
   28941      48   28953   28950      47   28956   28950      47   28956   28953
      48   28965   28962      47   28968   28962      47   28968   28965      48
   28977   28974      47   28980   28974      47   28980   28977      48   28989
   28986      47   28992   28986      47   28992   28989      48   29001   28998
      47   29004   28998      47   29004   29001      48   29013   29010      47
   29016   29010      47   29016   29013      48   29025   29022      47   29028
   29022      47   29028   29025      48   29037   29034      47   29040   29034
      47   29040   29037      48   29049   29046      47   29052   29046      47
   29052   29049      48   29061   29058      47   29064   29058      47   29064
   29061      48   29073   29070      47   29076   29070      47   29076   29073
      48   29085   29082      47   29088   29082      47   29088   29085      48
   29097   29094      47   29100   29094      47   29100   29097      48   29109
   29106      47   29112   29106      47   29112   29109      48   29121   29118
      47   29124   29118      47   29124   29121      48   29133   29130      47
   29136   29130      47   29136   29133      48   29145   29142      47   29148
   29142      47   29148   29145      48   29157   29154      47   29160   29154
      47   29160   29157      48   29169   29166      47   29172   29166      47
   29172   29169      48   29181   29178      47   29184   29178      47   29184
   29181      48   29193   29190      47   29196   29190      47   29196   29193
      48   29205   29202      47   29208   29202      47   29208   29205      48
   29217   29214      47   29220   29214      47   29220   29217      48   29229
   29226      47   29232   29226      47   29232   29229      48   29241   29238
      47   29244   29238      47   29244   29241      48   29253   29250      47
   29256   29250      47   29256   29253      48   29265   29262      47   29268
   29262      47   29268   29265      48   29277   29274      47   29280   29274
      47   29280   29277      48   29289   29286      47   29292   29286      47
   29292   29289      48   29301   29298      47   29304   29298      47   29304
   29301      48   29313   29310      47   29316   29310      47   29316   29313
      48   29325   29322      47   29328   29322      47   29328   29325      48
   29337   29334      47   29340   29334      47   29340   29337      48   29349
   29346      47   29352   29346      47   29352   29349      48   29361   29358
      47   29364   29358      47   29364   29361      48   29373   29370      47
   29376   29370      47   29376   29373      48   29385   29382      47   29388
   29382      47   29388   29385      48   29397   29394      47   29400   29394
      47   29400   29397      48   29409   29406      47   29412   29406      47
   29412   29409      48   29421   29418      47   29424   29418      47   29424
   29421      48   29433   29430      47   29436   29430      47   29436   29433
      48   29445   29442      47   29448   29442      47   29448   29445      48
   29457   29454      47   29460   29454      47   29460   29457      48   29469
   29466      47   29472   29466      47   29472   29469      48   29481   29478
      47   29484   29478      47   29484   29481      48   29493   29490      47
   29496   29490      47   29496   29493      48   29505   29502      47   29508
   29502      47   29508   29505      48   29517   29514      47   29520   29514
      47   29520   29517      48   29529   29526      47   29532   29526      47
   29532   29529      48   29541   29538      47   29544   29538      47   29544
   29541      48   29553   29550      47   29556   29550      47   29556   29553
      48   29565   29562      47   29568   29562      47   29568   29565      48
   29577   29574      47   29580   29574      47   29580   29577      48   29589
   29586      47   29592   29586      47   29592   29589      48   29601   29598
      47   29604   29598      47   29604   29601      48   29613   29610      47
   29616   29610      47   29616   29613      48   29625   29622      47   29628
   29622      47   29628   29625      48   29637   29634      47   29640   29634
      47   29640   29637      48   29649   29646      47   29652   29646      47
   29652   29649      48   29661   29658      47   29664   29658      47   29664
   29661      48   29673   29670      47   29676   29670      47   29676   29673
      48   29685   29682      47   29688   29682      47   29688   29685      48
   29697   29694      47   29700   29694      47   29700   29697      48   29709
   29706      47   29712   29706      47   29712   29709      48   29721   29718
      47   29724   29718      47   29724   29721      48   29733   29730      47
   29736   29730      47   29736   29733      48   29745   29742      47   29748
   29742      47   29748   29745      48   29757   29754      47   29760   29754
      47   29760   29757      48   29769   29766      47   29772   29766      47
   29772   29769      48   29781   29778      47   29784   29778      47   29784
   29781      48   29793   29790      47   29796   29790      47   29796   29793
      48   29805   29802      47   29808   29802      47   29808   29805      48
   29817   29814      47   29820   29814      47   29820   29817      48   29829
   29826      47   29832   29826      47   29832   29829      48   29841   29838
      47   29844   29838      47   29844   29841      48   29853   29850      47
   29856   29850      47   29856   29853      48   29865   29862      47   29868
   29862      47   29868   29865      48   29877   29874      47   29880   29874
      47   29880   29877      48   29889   29886      47   29892   29886      47
   29892   29889      48   29901   29898      47   29904   29898      47   29904
   29901      48   29913   29910      47   29916   29910      47   29916   29913
      48   29925   29922      47   29928   29922      47   29928   29925      48
   29937   29934      47   29940   29934      47   29940   29937      48   29949
   29946      47   29952   29946      47   29952   29949      48   29961   29958
      47   29964   29958      47   29964   29961      48   29973   29970      47
   29976   29970      47   29976   29973      48   29985   29982      47   29988
   29982      47   29988   29985      48   29997   29994      47   30000   29994
      47   30000   29997      48   30009   30006      47   30012   30006      47
   30012   30009      48   30021   30018      47   30024   30018      47   30024
   30021      48   30033   30030      47   30036   30030      47   30036   30033
      48   30045   30042      47   30048   30042      47   30048   30045      48
   30057   30054      47   30060   30054      47   30060   30057      48   30069
   30066      47   30072   30066      47   30072   30069      48   30081   30078
      47   30084   30078      47   30084   30081      48   30093   30090      47
   30096   30090      47   30096   30093      48   30105   30102      47   30108
   30102      47   30108   30105      48   30117   30114      47   30120   30114
      47   30120   30117      48   30129   30126      47   30132   30126      47
   30132   30129      48   30141   30138      47   30144   30138      47   30144
   30141      48   30153   30150      47   30156   30150      47   30156   30153
      48   30165   30162      47   30168   30162      47   30168   30165      48
   30177   30174      47   30180   30174      47   30180   30177      48   30189
   30186      47   30192   30186      47   30192   30189      48   30201   30198
      47   30204   30198      47   30204   30201      48   30213   30210      47
   30216   30210      47   30216   30213      48   30225   30222      47   30228
   30222      47   30228   30225      48   30237   30234      47   30240   30234
      47   30240   30237      48   30249   30246      47   30252   30246      47
   30252   30249      48   30261   30258      47   30264   30258      47   30264
   30261      48   30273   30270      47   30276   30270      47   30276   30273
      48   30285   30282      47   30288   30282      47   30288   30285      48
   30297   30294      47   30300   30294      47   30300   30297      48   30309
   30306      47   30312   30306      47   30312   30309      48   30321   30318
      47   30324   30318      47   30324   30321      48   30333   30330      47
   30336   30330      47   30336   30333      48   30345   30342      47   30348
   30342      47   30348   30345      48   30357   30354      47   30360   30354
      47   30360   30357      48   30369   30366      47   30372   30366      47
   30372   30369      48   30381   30378      47   30384   30378      47   30384
   30381      48   30393   30390      47   30396   30390      47   30396   30393
      48   30405   30402      47   30408   30402      47   30408   30405      48
   30417   30414      47   30420   30414      47   30420   30417      48   30429
   30426      47   30432   30426      47   30432   30429      48   30441   30438
      47   30444   30438      47   30444   30441      48   30453   30450      47
   30456   30450      47   30456   30453      48   30465   30462      47   30468
   30462      47   30468   30465      48   30477   30474      47   30480   30474
      47   30480   30477      48   30489   30486      47   30492   30486      47
   30492   30489      48   30501   30498      47   30504   30498      47   30504
   30501      48   30513   30510      47   30516   30510      47   30516   30513
      48   30525   30522      47   30528   30522      47   30528   30525      48
   30537   30534      47   30540   30534      47   30540   30537      48   30549
   30546      47   30552   30546      47   30552   30549      48   30561   30558
      47   30564   30558      47   30564   30561      48   30573   30570      47
   30576   30570      47   30576   30573      48   30585   30582      47   30588
   30582      47   30588   30585      48   30597   30594      47   30600   30594
      47   30600   30597      48   30609   30606      47   30612   30606      47
   30612   30609      48   30621   30618      47   30624   30618      47   30624
   30621      48   30633   30630      47   30636   30630      47   30636   30633
      48   30645   30642      47   30648   30642      47   30648   30645      48
   30657   30654      47   30660   30654      47   30660   30657      48   30669
   30666      47   30672   30666      47   30672   30669      48   30681   30678
      47   30684   30678      47   30684   30681      48   30693   30690      47
   30696   30690      47   30696   30693      48   30705   30702      47   30708
   30702      47   30708   30705      48   30717   30714      47   30720   30714
      47   30720   30717      48   30729   30726      47   30732   30726      47
   30732   30729      48   30741   30738      47   30744   30738      47   30744
   30741      48   30753   30750      47   30756   30750      47   30756   30753
      48   30765   30762      47   30768   30762      47   30768   30765      48
   30777   30774      47   30780   30774      47   30780   30777      48   30789
   30786      47   30792   30786      47   30792   30789      48   30801   30798
      47   30804   30798      47   30804   30801      48   30813   30810      47
   30816   30810      47   30816   30813      48   30825   30822      47   30828
   30822      47   30828   30825      48   30837   30834      47   30840   30834
      47   30840   30837      48   30849   30846      47   30852   30846      47
   30852   30849      48   30861   30858      47   30864   30858      47   30864
   30861      48   30873   30870      47   30876   30870      47   30876   30873
      48   30885   30882      47   30888   30882      47   30888   30885      48
   30897   30894      47   30900   30894      47   30900   30897      48   30909
   30906      47   30912   30906      47   30912   30909      48   30921   30918
      47   30924   30918      47   30924   30921      48   30933   30930      47
   30936   30930      47   30936   30933      48   30945   30942      47   30948
   30942      47   30948   30945      48   30957   30954      47   30960   30954
      47   30960   30957      48   30969   30966      47   30972   30966      47
   30972   30969      48   30981   30978      47   30984   30978      47   30984
   30981      48   30993   30990      47   30996   30990      47   30996   30993
      48   31005   31002      47   31008   31002      47   31008   31005      48
   31017   31014      47   31020   31014      47   31020   31017      48   31029
   31026      47   31032   31026      47   31032   31029      48   31041   31038
      47   31044   31038      47   31044   31041      48   31053   31050      47
   31056   31050      47   31056   31053      48   31065   31062      47   31068
   31062      47   31068   31065      48   31077   31074      47   31080   31074
      47   31080   31077      48   31089   31086      47   31092   31086      47
   31092   31089      48   31101   31098      47   31104   31098      47   31104
   31101      48   31113   31110      47   31116   31110      47   31116   31113
      48   31125   31122      47   31128   31122      47   31128   31125      48
   31137   31134      47   31140   31134      47   31140   31137      48   31149
   31146      47   31152   31146      47   31152   31149      48   31161   31158
      47   31164   31158      47   31164   31161      48   31173   31170      47
   31176   31170      47   31176   31173      48   31185   31182      47   31188
   31182      47   31188   31185      48   31197   31194      47   31200   31194
      47   31200   31197      48   31209   31206      47   31212   31206      47
   31212   31209      48   31221   31218      47   31224   31218      47   31224
   31221      48   31233   31230      47   31236   31230      47   31236   31233
      48   31245   31242      47   31248   31242      47   31248   31245      48
   31257   31254      47   31260   31254      47   31260   31257      48   31269
   31266      47   31272   31266      47   31272   31269      48   31281   31278
      47   31284   31278      47   31284   31281      48   31293   31290      47
   31296   31290      47   31296   31293      48   31305   31302      47   31308
   31302      47   31308   31305      48   31317   31314      47   31320   31314
      47   31320   31317      48   31329   31326      47   31332   31326      47
   31332   31329      48   31341   31338      47   31344   31338      47   31344
   31341      48   31353   31350      47   31356   31350      47   31356   31353
      48   31365   31362      47   31368   31362      47   31368   31365      48
   31377   31374      47   31380   31374      47   31380   31377      48   31389
   31386      47   31392   31386      47   31392   31389      48   31401   31398
      47   31404   31398      47   31404   31401      48   31413   31410      47
   31416   31410      47   31416   31413      48   31425   31422      47   31428
   31422      47   31428   31425      48   31437   31434      47   31440   31434
      47   31440   31437      48   31449   31446      47   31452   31446      47
   31452   31449      48   31461   31458      47   31464   31458      47   31464
   31461      48   31473   31470      47   31476   31470      47   31476   31473
      48   31485   31482      47   31488   31482      47   31488   31485      48
   31497   31494      47   31500   31494      47   31500   31497      48   31509
   31506      47   31512   31506      47   31512   31509      48   31521   31518
      47   31524   31518      47   31524   31521      48   31533   31530      47
   31536   31530      47   31536   31533      48   31545   31542      47   31548
   31542      47   31548   31545      48   31557   31554      47   31560   31554
      47   31560   31557      48   31569   31566      47   31572   31566      47
   31572   31569      48   31581   31578      47   31584   31578      47   31584
   31581      48   31593   31590      47   31596   31590      47   31596   31593
      48   31605   31602      47   31608   31602      47   31608   31605      48
   31617   31614      47   31620   31614      47   31620   31617      48   31629
   31626      47   31632   31626      47   31632   31629      48   31641   31638
      47   31644   31638      47   31644   31641      48   31653   31650      47
   31656   31650      47   31656   31653      48   31665   31662      47   31668
   31662      47   31668   31665      48   31677   31674      47   31680   31674
      47   31680   31677      48   31689   31686      47   31692   31686      47
   31692   31689      48   31701   31698      47   31704   31698      47   31704
   31701      48   31713   31710      47   31716   31710      47   31716   31713
      48   31725   31722      47   31728   31722      47   31728   31725      48
   31737   31734      47   31740   31734      47   31740   31737      48   31749
   31746      47   31752   31746      47   31752   31749      48   31761   31758
      47   31764   31758      47   31764   31761      48   31773   31770      47
   31776   31770      47   31776   31773      48   31785   31782      47   31788
   31782      47   31788   31785      48   31797   31794      47   31800   31794
      47   31800   31797      48   31809   31806      47   31812   31806      47
   31812   31809      48   31821   31818      47   31824   31818      47   31824
   31821      48   31833   31830      47   31836   31830      47   31836   31833
      48   31845   31842      47   31848   31842      47   31848   31845      48
   31857   31854      47   31860   31854      47   31860   31857      48   31869
   31866      47   31872   31866      47   31872   31869      48   31881   31878
      47   31884   31878      47   31884   31881      48   31893   31890      47
   31896   31890      47   31896   31893      48   31905   31902      47   31908
   31902      47   31908   31905      48   31917   31914      47   31920   31914
      47   31920   31917      48   31929   31926      47   31932   31926      47
   31932   31929      48   31941   31938      47   31944   31938      47   31944
   31941      48   31953   31950      47   31956   31950      47   31956   31953
      48   31965   31962      47   31968   31962      47   31968   31965      48
   31977   31974      47   31980   31974      47   31980   31977      48   31989
   31986      47   31992   31986      47   31992   31989      48   32001   31998
      47   32004   31998      47   32004   32001      48   32013   32010      47
   32016   32010      47   32016   32013      48   32025   32022      47   32028
   32022      47   32028   32025      48   32037   32034      47   32040   32034
      47   32040   32037      48   32049   32046      47   32052   32046      47
   32052   32049      48   32061   32058      47   32064   32058      47   32064
   32061      48   32073   32070      47   32076   32070      47   32076   32073
      48   32085   32082      47   32088   32082      47   32088   32085      48
   32097   32094      47   32100   32094      47   32100   32097      48   32109
   32106      47   32112   32106      47   32112   32109      48   32121   32118
      47   32124   32118      47   32124   32121      48   32133   32130      47
   32136   32130      47   32136   32133      48   32145   32142      47   32148
   32142      47   32148   32145      48   32157   32154      47   32160   32154
      47   32160   32157      48   32169   32166      47   32172   32166      47
   32172   32169      48   32181   32178      47   32184   32178      47   32184
   32181      48   32193   32190      47   32196   32190      47   32196   32193
      48   32205   32202      47   32208   32202      47   32208   32205      48
   32217   32214      47   32220   32214      47   32220   32217      48   32229
   32226      47   32232   32226      47   32232   32229      48   32241   32238
      47   32244   32238      47   32244   32241      48   32253   32250      47
   32256   32250      47   32256   32253      48   32265   32262      47   32268
   32262      47   32268   32265      48   32277   32274      47   32280   32274
      47   32280   32277      48   32289   32286      47   32292   32286      47
   32292   32289      48   32301   32298      47   32304   32298      47   32304
   32301      48   32313   32310      47   32316   32310      47   32316   32313
      48   32325   32322      47   32328   32322      47   32328   32325      48
   32337   32334      47   32340   32334      47   32340   32337      48   32349
   32346      47   32352   32346      47   32352   32349      48   32361   32358
      47   32364   32358      47   32364   32361      48   32373   32370      47
   32376   32370      47   32376   32373      48   32385   32382      47   32388
   32382      47   32388   32385      48   32397   32394      47   32400   32394
      47   32400   32397      48   32409   32406      47   32412   32406      47
   32412   32409      48   32421   32418      47   32424   32418      47   32424
   32421      48   32433   32430      47   32436   32430      47   32436   32433
      48   32445   32442      47   32448   32442      47   32448   32445      48
   32457   32454      47   32460   32454      47   32460   32457      48   32469
   32466      47   32472   32466      47   32472   32469      48   32481   32478
      47   32484   32478      47   32484   32481      48   32493   32490      47
   32496   32490      47   32496   32493      48   32505   32502      47   32508
   32502      47   32508   32505      48   32517   32514      47   32520   32514
      47   32520   32517      48   32529   32526      47   32532   32526      47
   32532   32529      48   32541   32538      47   32544   32538      47   32544
   32541      48   32553   32550      47   32556   32550      47   32556   32553
      48   32565   32562      47   32568   32562      47   32568   32565      48
   32577   32574      47   32580   32574      47   32580   32577      48   32589
   32586      47   32592   32586      47   32592   32589      48   32601   32598
      47   32604   32598      47   32604   32601      48   32613   32610      47
   32616   32610      47   32616   32613      48   32625   32622      47   32628
   32622      47   32628   32625      48   32637   32634      47   32640   32634
      47   32640   32637      48   32649   32646      47   32652   32646      47
   32652   32649      48   32661   32658      47   32664   32658      47   32664
   32661      48   32673   32670      47   32676   32670      47   32676   32673
      48   32685   32682      47   32688   32682      47   32688   32685      48
   32697   32694      47   32700   32694      47   32700   32697      48   32709
   32706      47   32712   32706      47   32712   32709      48   32721   32718
      47   32724   32718      47   32724   32721      48   32733   32730      47
   32736   32730      47   32736   32733      48   32745   32742      47   32748
   32742      47   32748   32745      48   32757   32754      47   32760   32754
      47   32760   32757      48   32769   32766      47   32772   32766      47
   32772   32769      48   32781   32778      47   32784   32778      47   32784
   32781      48   32793   32790      47   32796   32790      47   32796   32793
      48   32805   32802      47   32808   32802      47   32808   32805      48
   32817   32814      47   32820   32814      47   32820   32817      48   32829
   32826      47   32832   32826      47   32832   32829      48   32841   32838
      47   32844   32838      47   32844   32841      48   32853   32850      47
   32856   32850      47   32856   32853      48   32865   32862      47   32868
   32862      47   32868   32865      48   32877   32874      47   32880   32874
      47   32880   32877      48   32889   32886      47   32892   32886      47
   32892   32889      48   32901   32898      47   32904   32898      47   32904
   32901      48   32913   32910      47   32916   32910      47   32916   32913
      48   32925   32922      47   32928   32922      47   32928   32925      48
   32937   32934      47   32940   32934      47   32940   32937      48   32949
   32946      47   32952   32946      47   32952   32949      48   32961   32958
      47   32964   32958      47   32964   32961      48   32973   32970      47
   32976   32970      47   32976   32973      48   32985   32982      47   32988
   32982      47   32988   32985      48   32997   32994      47   33000   32994
      47   33000   32997      48   33009   33006      47   33012   33006      47
   33012   33009      48   33021   33018      47   33024   33018      47   33024
   33021      48   33033   33030      47   33036   33030      47   33036   33033
      48   33045   33042      47   33048   33042      47   33048   33045      48
   33057   33054      47   33060   33054      47   33060   33057      48   33069
   33066      47   33072   33066      47   33072   33069      48   33081   33078
      47   33084   33078      47   33084   33081      48   33093   33090      47
   33096   33090      47   33096   33093      48   33105   33102      47   33108
   33102      47   33108   33105      48   33117   33114      47   33120   33114
      47   33120   33117      48   33129   33126      47   33132   33126      47
   33132   33129      48   33141   33138      47   33144   33138      47   33144
   33141      48   33153   33150      47   33156   33150      47   33156   33153
      48   33165   33162      47   33168   33162      47   33168   33165      48
   33177   33174      47   33180   33174      47   33180   33177      48   33189
   33186      47   33192   33186      47   33192   33189      48   33201   33198
      47   33204   33198      47   33204   33201      48   33213   33210      47
   33216   33210      47   33216   33213      48   33225   33222      47   33228
   33222      47   33228   33225      48   33237   33234      47   33240   33234
      47   33240   33237      48   33249   33246      47   33252   33246      47
   33252   33249      48   33261   33258      47   33264   33258      47   33264
   33261      48   33273   33270      47   33276   33270      47   33276   33273
      48   33285   33282      47   33288   33282      47   33288   33285      48
   33297   33294      47   33300   33294      47   33300   33297      48   33309
   33306      47   33312   33306      47   33312   33309      48   33321   33318
      47   33324   33318      47   33324   33321      48   33333   33330      47
   33336   33330      47   33336   33333      48   33345   33342      47   33348
   33342      47   33348   33345      48   33357   33354      47   33360   33354
      47   33360   33357      48   33369   33366      47   33372   33366      47
   33372   33369      48   33381   33378      47   33384   33378      47   33384
   33381      48   33393   33390      47   33396   33390      47   33396   33393
      48   33405   33402      47   33408   33402      47   33408   33405      48
   33417   33414      47   33420   33414      47   33420   33417      48   33429
   33426      47   33432   33426      47   33432   33429      48   33441   33438
      47   33444   33438      47   33444   33441      48   33453   33450      47
   33456   33450      47   33456   33453      48   33465   33462      47   33468
   33462      47   33468   33465      48   33477   33474      47   33480   33474
      47   33480   33477      48   33489   33486      47   33492   33486      47
   33492   33489      48   33501   33498      47   33504   33498      47   33504
   33501      48   33513   33510      47   33516   33510      47   33516   33513
      48   33525   33522      47   33528   33522      47   33528   33525      48
   33537   33534      47   33540   33534      47   33540   33537      48   33549
   33546      47   33552   33546      47   33552   33549      48   33561   33558
      47   33564   33558      47   33564   33561      48   33573   33570      47
   33576   33570      47   33576   33573      48   33585   33582      47   33588
   33582      47   33588   33585      48   33597   33594      47   33600   33594
      47   33600   33597      48   33609   33606      47   33612   33606      47
   33612   33609      48   33621   33618      47   33624   33618      47   33624
   33621      48   33633   33630      47   33636   33630      47   33636   33633
      48   33645   33642      47   33648   33642      47   33648   33645      48
   33657   33654      47   33660   33654      47   33660   33657      48   33669
   33666      47   33672   33666      47   33672   33669      48   33681   33678
      47   33684   33678      47   33684   33681      48   33693   33690      47
   33696   33690      47   33696   33693      48   33705   33702      47   33708
   33702      47   33708   33705      48   33717   33714      47   33720   33714
      47   33720   33717      48   33729   33726      47   33732   33726      47
   33732   33729      48   33741   33738      47   33744   33738      47   33744
   33741      48   33753   33750      47   33756   33750      47   33756   33753
      48   33765   33762      47   33768   33762      47   33768   33765      48
   33777   33774      47   33780   33774      47   33780   33777      48   33789
   33786      47   33792   33786      47   33792   33789      48   33801   33798
      47   33804   33798      47   33804   33801      48   33813   33810      47
   33816   33810      47   33816   33813      48   33825   33822      47   33828
   33822      47   33828   33825      48   33837   33834      47   33840   33834
      47   33840   33837      48   33849   33846      47   33852   33846      47
   33852   33849      48   33861   33858      47   33864   33858      47   33864
   33861      48   33873   33870      47   33876   33870      47   33876   33873
      48   33885   33882      47   33888   33882      47   33888   33885      48
   33897   33894      47   33900   33894      47   33900   33897      48   33909
   33906      47   33912   33906      47   33912   33909      48   33921   33918
      47   33924   33918      47   33924   33921      48   33933   33930      47
   33936   33930      47   33936   33933      48   33945   33942      47   33948
   33942      47   33948   33945      48   33957   33954      47   33960   33954
      47   33960   33957      48   33969   33966      47   33972   33966      47
   33972   33969      48   33981   33978      47   33984   33978      47   33984
   33981      48   33993   33990      47   33996   33990      47   33996   33993
      48   34005   34002      47   34008   34002      47   34008   34005      48
   34017   34014      47   34020   34014      47   34020   34017      48   34029
   34026      47   34032   34026      47   34032   34029      48   34041   34038
      47   34044   34038      47   34044   34041      48   34053   34050      47
   34056   34050      47   34056   34053      48   34065   34062      47   34068
   34062      47   34068   34065      48   34077   34074      47   34080   34074
      47   34080   34077      48   34089   34086      47   34092   34086      47
   34092   34089      48   34101   34098      47   34104   34098      47   34104
   34101      48   34113   34110      47   34116   34110      47   34116   34113
      48   34125   34122      47   34128   34122      47   34128   34125      48
   34137   34134      47   34140   34134      47   34140   34137      48   34149
   34146      47   34152   34146      47   34152   34149      48   34161   34158
      47   34164   34158      47   34164   34161      48   34173   34170      47
   34176   34170      47   34176   34173      48   34185   34182      47   34188
   34182      47   34188   34185      48   34197   34194      47   34200   34194
      47   34200   34197      48   34209   34206      47   34212   34206      47
   34212   34209      48   34221   34218      47   34224   34218      47   34224
   34221      48   34233   34230      47   34236   34230      47   34236   34233
      48   34245   34242      47   34248   34242      47   34248   34245      48
   34257   34254      47   34260   34254      47   34260   34257      48   34269
   34266      47   34272   34266      47   34272   34269      48   34281   34278
      47   34284   34278      47   34284   34281      48   34293   34290      47
   34296   34290      47   34296   34293      48   34305   34302      47   34308
   34302      47   34308   34305      48   34317   34314      47   34320   34314
      47   34320   34317      48   34329   34326      47   34332   34326      47
   34332   34329      48   34341   34338      47   34344   34338      47   34344
   34341      48   34353   34350      47   34356   34350      47   34356   34353
      48   34365   34362      47   34368   34362      47   34368   34365      48
   34377   34374      47   34380   34374      47   34380   34377      48   34389
   34386      47   34392   34386      47   34392   34389      48   34401   34398
      47   34404   34398      47   34404   34401      48   34413   34410      47
   34416   34410      47   34416   34413      48   34425   34422      47   34428
   34422      47   34428   34425      48   34437   34434      47   34440   34434
      47   34440   34437      48   34449   34446      47   34452   34446      47
   34452   34449      48   34461   34458      47   34464   34458      47   34464
   34461      48   34473   34470      47   34476   34470      47   34476   34473
      48   34485   34482      47   34488   34482      47   34488   34485      48
   34497   34494      47   34500   34494      47   34500   34497      48   34509
   34506      47   34512   34506      47   34512   34509      48   34521   34518
      47   34524   34518      47   34524   34521      48   34533   34530      47
   34536   34530      47   34536   34533      48   34545   34542      47   34548
   34542      47   34548   34545      48   34557   34554      47   34560   34554
      47   34560   34557      48   34569   34566      47   34572   34566      47
   34572   34569      48   34581   34578      47   34584   34578      47   34584
   34581      48   34593   34590      47   34596   34590      47   34596   34593
      48   34605   34602      47   34608   34602      47   34608   34605      48
   34617   34614      47   34620   34614      47   34620   34617      48   34629
   34626      47   34632   34626      47   34632   34629      48   34641   34638
      47   34644   34638      47   34644   34641      48   34653   34650      47
   34656   34650      47   34656   34653      48   34665   34662      47   34668
   34662      47   34668   34665      48   34677   34674      47   34680   34674
      47   34680   34677      48   34689   34686      47   34692   34686      47
   34692   34689      48   34701   34698      47   34704   34698      47   34704
   34701      48   34713   34710      47   34716   34710      47   34716   34713
      48   34725   34722      47   34728   34722      47   34728   34725      48
   34737   34734      47   34740   34734      47   34740   34737      48   34749
   34746      47   34752   34746      47   34752   34749      48   34761   34758
      47   34764   34758      47   34764   34761      48   34773   34770      47
   34776   34770      47   34776   34773      48   34785   34782      47   34788
   34782      47   34788   34785      48   34797   34794      47   34800   34794
      47   34800   34797      48   34809   34806      47   34812   34806      47
   34812   34809      48   34821   34818      47   34824   34818      47   34824
   34821      48   34833   34830      47   34836   34830      47   34836   34833
      48   34845   34842      47   34848   34842      47   34848   34845      48
   34857   34854      47   34860   34854      47   34860   34857      48   34869
   34866      47   34872   34866      47   34872   34869      48   34881   34878
      47   34884   34878      47   34884   34881      48   34893   34890      47
   34896   34890      47   34896   34893      48   34905   34902      47   34908
   34902      47   34908   34905      48   34917   34914      47   34920   34914
      47   34920   34917      48   34929   34926      47   34932   34926      47
   34932   34929      48   34941   34938      47   34944   34938      47   34944
   34941      48   34953   34950      47   34956   34950      47   34956   34953
      48   34965   34962      47   34968   34962      47   34968   34965      48
   34977   34974      47   34980   34974      47   34980   34977      48   34989
   34986      47   34992   34986      47   34992   34989      48   35001   34998
      47   35004   34998      47   35004   35001      48   35013   35010      47
   35016   35010      47   35016   35013      48   35025   35022      47   35028
   35022      47   35028   35025      48   35037   35034      47   35040   35034
      47   35040   35037      48   35049   35046      47   35052   35046      47
   35052   35049      48   35061   35058      47   35064   35058      47   35064
   35061      48   35073   35070      47   35076   35070      47   35076   35073
      48   35085   35082      47   35088   35082      47   35088   35085      48
   35097   35094      47   35100   35094      47   35100   35097      48   35109
   35106      47   35112   35106      47   35112   35109      48   35121   35118
      47   35124   35118      47   35124   35121      48   35133   35130      47
   35136   35130      47   35136   35133      48   35145   35142      47   35148
   35142      47   35148   35145      48   35157   35154      47   35160   35154
      47   35160   35157      48   35169   35166      47   35172   35166      47
   35172   35169      48   35181   35178      47   35184   35178      47   35184
   35181      48   35193   35190      47   35196   35190      47   35196   35193
      48   35205   35202      47   35208   35202      47   35208   35205      48
   35217   35214      47   35220   35214      47   35220   35217      48   35229
   35226      47   35232   35226      47   35232   35229      48   35241   35238
      47   35244   35238      47   35244   35241      48   35253   35250      47
   35256   35250      47   35256   35253      48   35265   35262      47   35268
   35262      47   35268   35265      48   35277   35274      47   35280   35274
      47   35280   35277      48   35289   35286      47   35292   35286      47
   35292   35289      48   35301   35298      47   35304   35298      47   35304
   35301      48   35313   35310      47   35316   35310      47   35316   35313
      48   35325   35322      47   35328   35322      47   35328   35325      48
   35337   35334      47   35340   35334      47   35340   35337      48   35349
   35346      47   35352   35346      47   35352   35349      48   35361   35358
      47   35364   35358      47   35364   35361      48   35373   35370      47
   35376   35370      47   35376   35373      48   35385   35382      47   35388
   35382      47   35388   35385      48   35397   35394      47   35400   35394
      47   35400   35397      48   35409   35406      47   35412   35406      47
   35412   35409      48   35421   35418      47   35424   35418      47   35424
   35421      48   35433   35430      47   35436   35430      47   35436   35433
      48   35445   35442      47   35448   35442      47   35448   35445      48
   35457   35454      47   35460   35454      47   35460   35457      48   35469
   35466      47   35472   35466      47   35472   35469      48   35481   35478
      47   35484   35478      47   35484   35481      48   35493   35490      47
   35496   35490      47   35496   35493      48   35505   35502      47   35508
   35502      47   35508   35505      48   35517   35514      47   35520   35514
      47   35520   35517      48   35529   35526      47   35532   35526      47
   35532   35529      48   35541   35538      47   35544   35538      47   35544
   35541      48   35553   35550      47   35556   35550      47   35556   35553
      48   35565   35562      47   35568   35562      47   35568   35565      48
   35577   35574      47   35580   35574      47   35580   35577      48   35589
   35586      47   35592   35586      47   35592   35589      48   35601   35598
      47   35604   35598      47   35604   35601      48   35613   35610      47
   35616   35610      47   35616   35613      48   35625   35622      47   35628
   35622      47   35628   35625      48   35637   35634      47   35640   35634
      47   35640   35637      48   35649   35646      47   35652   35646      47
   35652   35649      48   35661   35658      47   35664   35658      47   35664
   35661      48   35673   35670      47   35676   35670      47   35676   35673
      48   35685   35682      47   35688   35682      47   35688   35685      48
   35697   35694      47   35700   35694      47   35700   35697      48   35709
   35706      47   35712   35706      47   35712   35709      48   35721   35718
      47   35724   35718      47   35724   35721      48   35733   35730      47
   35736   35730      47   35736   35733      48   35745   35742      47   35748
   35742      47   35748   35745      48   35757   35754      47   35760   35754
      47   35760   35757      48   35769   35766      47   35772   35766      47
   35772   35769      48   35781   35778      47   35784   35778      47   35784
   35781      48   35793   35790      47   35796   35790      47   35796   35793
      48   35805   35802      47   35808   35802      47   35808   35805      48
   35817   35814      47   35820   35814      47   35820   35817      48   35829
   35826      47   35832   35826      47   35832   35829      48   35841   35838
      47   35844   35838      47   35844   35841      48   35853   35850      47
   35856   35850      47   35856   35853      48   35865   35862      47   35868
   35862      47   35868   35865      48   35877   35874      47   35880   35874
      47   35880   35877      48   35889   35886      47   35892   35886      47
   35892   35889      48   35901   35898      47   35904   35898      47   35904
   35901      48   35913   35910      47   35916   35910      47   35916   35913
      48   35925   35922      47   35928   35922      47   35928   35925      48
   35937   35934      47   35940   35934      47   35940   35937      48   35949
   35946      47   35952   35946      47   35952   35949      48   35961   35958
      47   35964   35958      47   35964   35961      48   35973   35970      47
   35976   35970      47   35976   35973      48   35985   35982      47   35988
   35982      47   35988   35985      48   35997   35994      47   36000   35994
      47   36000   35997      48   36009   36006      47   36012   36006      47
   36012   36009      48   36021   36018      47   36024   36018      47   36024
   36021      48   36033   36030      47   36036   36030      47   36036   36033
      48   36045   36042      47   36048   36042      47   36048   36045      48
   36057   36054      47   36060   36054      47   36060   36057      48   36069
   36066      47   36072   36066      47   36072   36069      48   36081   36078
      47   36084   36078      47   36084   36081      48   36093   36090      47
   36096   36090      47   36096   36093      48   36105   36102      47   36108
   36102      47   36108   36105      48   36117   36114      47   36120   36114
      47   36120   36117      48   36129   36126      47   36132   36126      47
   36132   36129      48   36141   36138      47   36144   36138      47   36144
   36141      48   36153   36150      47   36156   36150      47   36156   36153
      48   36165   36162      47   36168   36162      47   36168   36165      48
   36177   36174      47   36180   36174      47   36180   36177      48   36189
   36186      47   36192   36186      47   36192   36189      48   36201   36198
      47   36204   36198      47   36204   36201      48   36213   36210      47
   36216   36210      47   36216   36213      48   36225   36222      47   36228
   36222      47   36228   36225      48   36237   36234      47   36240   36234
      47   36240   36237      48   36249   36246      47   36252   36246      47
   36252   36249      48   36261   36258      47   36264   36258      47   36264
   36261      48   36273   36270      47   36276   36270      47   36276   36273
      48   36285   36282      47   36288   36282      47   36288   36285      48
   36297   36294      47   36300   36294      47   36300   36297      48   36309
   36306      47   36312   36306      47   36312   36309      48   36321   36318
      47   36324   36318      47   36324   36321      48   36333   36330      47
   36336   36330      47   36336   36333      48   36345   36342      47   36348
   36342      47   36348   36345      48   36357   36354      47   36360   36354
      47   36360   36357      48   36369   36366      47   36372   36366      47
   36372   36369      48   36381   36378      47   36384   36378      47   36384
   36381      48   36393   36390      47   36396   36390      47   36396   36393
      48   36405   36402      47   36408   36402      47   36408   36405      48
   36417   36414      47   36420   36414      47   36420   36417      48   36429
   36426      47   36432   36426      47   36432   36429      48   36441   36438
      47   36444   36438      47   36444   36441      48   36453   36450      47
   36456   36450      47   36456   36453      48   36465   36462      47   36468
   36462      47   36468   36465      48   36477   36474      47   36480   36474
      47   36480   36477      48   36489   36486      47   36492   36486      47
   36492   36489      48   36501   36498      47   36504   36498      47   36504
   36501      48   36513   36510      47   36516   36510      47   36516   36513
      48   36525   36522      47   36528   36522      47   36528   36525      48
   36537   36534      47   36540   36534      47   36540   36537      48   36549
   36546      47   36552   36546      47   36552   36549      48   36561   36558
      47   36564   36558      47   36564   36561      48   36573   36570      47
   36576   36570      47   36576   36573      48   36585   36582      47   36588
   36582      47   36588   36585      48   36597   36594      47   36600   36594
      47   36600   36597      48   36609   36606      47   36612   36606      47
   36612   36609      48   36621   36618      47   36624   36618      47   36624
   36621      48   36633   36630      47   36636   36630      47   36636   36633
      48   36645   36642      47   36648   36642      47   36648   36645      48
   36657   36654      47   36660   36654      47   36660   36657      48   36669
   36666      47   36672   36666      47   36672   36669      48   36681   36678
      47   36684   36678      47   36684   36681      48   36693   36690      47
   36696   36690      47   36696   36693      48   36705   36702      47   36708
   36702      47   36708   36705      48   36717   36714      47   36720   36714
      47   36720   36717      48   36729   36726      47   36732   36726      47
   36732   36729      48   36741   36738      47   36744   36738      47   36744
   36741      48   36753   36750      47   36756   36750      47   36756   36753
      48   36765   36762      47   36768   36762      47   36768   36765      48
   36777   36774      47   36780   36774      47   36780   36777      48   36789
   36786      47   36792   36786      47   36792   36789      48   36801   36798
      47   36804   36798      47   36804   36801      48   36813   36810      47
   36816   36810      47   36816   36813      48   36825   36822      47   36828
   36822      47   36828   36825      48   36837   36834      47   36840   36834
      47   36840   36837      48   36849   36846      47   36852   36846      47
   36852   36849      48   36861   36858      47   36864   36858      47   36864
   36861      48   36873   36870      47   36876   36870      47   36876   36873
      48   36885   36882      47   36888   36882      47   36888   36885      48
   36897   36894      47   36900   36894      47   36900   36897      48   36909
   36906      47   36912   36906      47   36912   36909      48   36921   36918
      47   36924   36918      47   36924   36921      48   36933   36930      47
   36936   36930      47   36936   36933      48   36945   36942      47   36948
   36942      47   36948   36945      48   36957   36954      47   36960   36954
      47   36960   36957      48   36969   36966      47   36972   36966      47
   36972   36969      48   36981   36978      47   36984   36978      47   36984
   36981      48   36993   36990      47   36996   36990      47   36996   36993
      48   37005   37002      47   37008   37002      47   37008   37005      48
   37017   37014      47   37020   37014      47   37020   37017      48   37029
   37026      47   37032   37026      47   37032   37029      48   37041   37038
      47   37044   37038      47   37044   37041      48   37053   37050      47
   37056   37050      47   37056   37053      48   37065   37062      47   37068
   37062      47   37068   37065      48   37077   37074      47   37080   37074
      47   37080   37077      48   37089   37086      47   37092   37086      47
   37092   37089      48   37101   37098      47   37104   37098      47   37104
   37101      48   37113   37110      47   37116   37110      47   37116   37113
      48   37125   37122      47   37128   37122      47   37128   37125      48
   37137   37134      47   37140   37134      47   37140   37137      48   37149
   37146      47   37152   37146      47   37152   37149      48   37161   37158
      47   37164   37158      47   37164   37161      48   37173   37170      47
   37176   37170      47   37176   37173      48   37185   37182      47   37188
   37182      47   37188   37185      48   37197   37194      47   37200   37194
      47   37200   37197      48   37209   37206      47   37212   37206      47
   37212   37209      48   37221   37218      47   37224   37218      47   37224
   37221      48   37233   37230      47   37236   37230      47   37236   37233
      48   37245   37242      47   37248   37242      47   37248   37245      48
   37257   37254      47   37260   37254      47   37260   37257      48   37269
   37266      47   37272   37266      47   37272   37269      48   37281   37278
      47   37284   37278      47   37284   37281      48   37293   37290      47
   37296   37290      47   37296   37293      48   37305   37302      47   37308
   37302      47   37308   37305      48   37317   37314      47   37320   37314
      47   37320   37317      48   37329   37326      47   37332   37326      47
   37332   37329      48   37341   37338      47   37344   37338      47   37344
   37341      48   37353   37350      47   37356   37350      47   37356   37353
      48   37365   37362      47   37368   37362      47   37368   37365      48
   37377   37374      47   37380   37374      47   37380   37377      48   37389
   37386      47   37392   37386      47   37392   37389      48   37401   37398
      47   37404   37398      47   37404   37401      48   37413   37410      47
   37416   37410      47   37416   37413      48   37425   37422      47   37428
   37422      47   37428   37425      48   37437   37434      47   37440   37434
      47   37440   37437      48   37449   37446      47   37452   37446      47
   37452   37449      48   37461   37458      47   37464   37458      47   37464
   37461      48   37473   37470      47   37476   37470      47   37476   37473
      48   37485   37482      47   37488   37482      47   37488   37485      48
   37497   37494      47   37500   37494      47   37500   37497      48   37509
   37506      47   37512   37506      47   37512   37509      48   37521   37518
      47   37524   37518      47   37524   37521      48   37533   37530      47
   37536   37530      47   37536   37533      48   37545   37542      47   37548
   37542      47   37548   37545      48   37557   37554      47   37560   37554
      47   37560   37557      48   37569   37566      47   37572   37566      47
   37572   37569      48   37581   37578      47   37584   37578      47   37584
   37581      48   37593   37590      47   37596   37590      47   37596   37593
      48   37605   37602      47   37608   37602      47   37608   37605      48
   37617   37614      47   37620   37614      47   37620   37617      48   37629
   37626      47   37632   37626      47   37632   37629      48   37641   37638
      47   37644   37638      47   37644   37641      48   37653   37650      47
   37656   37650      47   37656   37653      48   37665   37662      47   37668
   37662      47   37668   37665      48   37677   37674      47   37680   37674
      47   37680   37677      48   37689   37686      47   37692   37686      47
   37692   37689      48   37701   37698      47   37704   37698      47   37704
   37701      48   37713   37710      47   37716   37710      47   37716   37713
      48   37725   37722      47   37728   37722      47   37728   37725      48
   37737   37734      47   37740   37734      47   37740   37737      48   37749
   37746      47   37752   37746      47   37752   37749      48   37761   37758
      47   37764   37758      47   37764   37761      48   37773   37770      47
   37776   37770      47   37776   37773      48   37785   37782      47   37788
   37782      47   37788   37785      48   37797   37794      47   37800   37794
      47   37800   37797      48   37809   37806      47   37812   37806      47
   37812   37809      48   37821   37818      47   37824   37818      47   37824
   37821      48   37833   37830      47   37836   37830      47   37836   37833
      48   37845   37842      47   37848   37842      47   37848   37845      48
   37857   37854      47   37860   37854      47   37860   37857      48   37869
   37866      47   37872   37866      47   37872   37869      48   37881   37878
      47   37884   37878      47   37884   37881      48   37893   37890      47
   37896   37890      47   37896   37893      48   37905   37902      47   37908
   37902      47   37908   37905      48   37917   37914      47   37920   37914
      47   37920   37917      48   37929   37926      47   37932   37926      47
   37932   37929      48   37941   37938      47   37944   37938      47   37944
   37941      48   37953   37950      47   37956   37950      47   37956   37953
      48   37965   37962      47   37968   37962      47   37968   37965      48
   37977   37974      47   37980   37974      47   37980   37977      48   37989
   37986      47   37992   37986      47   37992   37989      48   38001   37998
      47   38004   37998      47   38004   38001      48   38013   38010      47
   38016   38010      47   38016   38013      48   38025   38022      47   38028
   38022      47   38028   38025      48   38037   38034      47   38040   38034
      47   38040   38037      48   38049   38046      47   38052   38046      47
   38052   38049      48   38061   38058      47   38064   38058      47   38064
   38061      48   38073   38070      47   38076   38070      47   38076   38073
      48   38085   38082      47   38088   38082      47   38088   38085      48
   38097   38094      47   38100   38094      47   38100   38097      48   38109
   38106      47   38112   38106      47   38112   38109      48   38121   38118
      47   38124   38118      47   38124   38121      48   38133   38130      47
   38136   38130      47   38136   38133      48   38145   38142      47   38148
   38142      47   38148   38145      48   38157   38154      47   38160   38154
      47   38160   38157      48   38169   38166      47   38172   38166      47
   38172   38169      48   38181   38178      47   38184   38178      47   38184
   38181      48   38193   38190      47   38196   38190      47   38196   38193
      48   38205   38202      47   38208   38202      47   38208   38205      48
   38217   38214      47   38220   38214      47   38220   38217      48   38229
   38226      47   38232   38226      47   38232   38229      48   38241   38238
      47   38244   38238      47   38244   38241      48   38253   38250      47
   38256   38250      47   38256   38253      48   38265   38262      47   38268
   38262      47   38268   38265      48   38277   38274      47   38280   38274
      47   38280   38277      48   38289   38286      47   38292   38286      47
   38292   38289      48   38301   38298      47   38304   38298      47   38304
   38301      48   38313   38310      47   38316   38310      47   38316   38313
      48   38325   38322      47   38328   38322      47   38328   38325      48
   38337   38334      47   38340   38334      47   38340   38337      48   38349
   38346      47   38352   38346      47   38352   38349      48   38361   38358
      47   38364   38358      47   38364   38361      48   38373   38370      47
   38376   38370      47   38376   38373      48   38385   38382      47   38388
   38382      47   38388   38385      48   38397   38394      47   38400   38394
      47   38400   38397      48   38409   38406      47   38412   38406      47
   38412   38409      48   38421   38418      47   38424   38418      47   38424
   38421      48   38433   38430      47   38436   38430      47   38436   38433
      48   38445   38442      47   38448   38442      47   38448   38445      48
   38457   38454      47   38460   38454      47   38460   38457      48   38469
   38466      47   38472   38466      47   38472   38469      48   38481   38478
      47   38484   38478      47   38484   38481      48   38493   38490      47
   38496   38490      47   38496   38493      48   38505   38502      47   38508
   38502      47   38508   38505      48   38517   38514      47   38520   38514
      47   38520   38517      48   38529   38526      47   38532   38526      47
   38532   38529      48   38541   38538      47   38544   38538      47   38544
   38541      48   38553   38550      47   38556   38550      47   38556   38553
      48   38565   38562      47   38568   38562      47   38568   38565      48
   38577   38574      47   38580   38574      47   38580   38577      48   38589
   38586      47   38592   38586      47   38592   38589      48   38601   38598
      47   38604   38598      47   38604   38601      48   38613   38610      47
   38616   38610      47   38616   38613      48   38625   38622      47   38628
   38622      47   38628   38625      48   38637   38634      47   38640   38634
      47   38640   38637      48   38649   38646      47   38652   38646      47
   38652   38649      48   38661   38658      47   38664   38658      47   38664
   38661      48   38673   38670      47   38676   38670      47   38676   38673
      48   38685   38682      47   38688   38682      47   38688   38685      48
   38697   38694      47   38700   38694      47   38700   38697      48   38709
   38706      47   38712   38706      47   38712   38709      48   38721   38718
      47   38724   38718      47   38724   38721      48   38733   38730      47
   38736   38730      47   38736   38733      48   38745   38742      47   38748
   38742      47   38748   38745      48   38757   38754      47   38760   38754
      47   38760   38757      48   38769   38766      47   38772   38766      47
   38772   38769      48   38781   38778      47   38784   38778      47   38784
   38781      48   38793   38790      47   38796   38790      47   38796   38793
      48   38805   38802      47   38808   38802      47   38808   38805      48
   38817   38814      47   38820   38814      47   38820   38817      48   38829
   38826      47   38832   38826      47   38832   38829      48   38841   38838
      47   38844   38838      47   38844   38841      48   38853   38850      47
   38856   38850      47   38856   38853      48   38865   38862      47   38868
   38862      47   38868   38865      48   38877   38874      47   38880   38874
      47   38880   38877      48   38889   38886      47   38892   38886      47
   38892   38889      48   38901   38898      47   38904   38898      47   38904
   38901      48   38913   38910      47   38916   38910      47   38916   38913
      48   38925   38922      47   38928   38922      47   38928   38925      48
   38937   38934      47   38940   38934      47   38940   38937      48   38949
   38946      47   38952   38946      47   38952   38949      48   38961   38958
      47   38964   38958      47   38964   38961      48   38973   38970      47
   38976   38970      47   38976   38973      48   38985   38982      47   38988
   38982      47   38988   38985      48   38997   38994      47   39000   38994
      47   39000   38997      48   39009   39006      47   39012   39006      47
   39012   39009      48   39021   39018      47   39024   39018      47   39024
   39021      48   39033   39030      47   39036   39030      47   39036   39033
      48   39045   39042      47   39048   39042      47   39048   39045      48
   39057   39054      47   39060   39054      47   39060   39057      48   39069
   39066      47   39072   39066      47   39072   39069      48   39081   39078
      47   39084   39078      47   39084   39081      48   39093   39090      47
   39096   39090      47   39096   39093      48   39105   39102      47   39108
   39102      47   39108   39105      48   39117   39114      47   39120   39114
      47   39120   39117      48   39129   39126      47   39132   39126      47
   39132   39129      48   39141   39138      47   39144   39138      47   39144
   39141      48   39153   39150      47   39156   39150      47   39156   39153
      48   39165   39162      47   39168   39162      47   39168   39165      48
   39177   39174      47   39180   39174      47   39180   39177      48   39189
   39186      47   39192   39186      47   39192   39189      48   39201   39198
      47   39204   39198      47   39204   39201      48   39213   39210      47
   39216   39210      47   39216   39213      48   39225   39222      47   39228
   39222      47   39228   39225      48   39237   39234      47   39240   39234
      47   39240   39237      48   39249   39246      47   39252   39246      47
   39252   39249      48   39261   39258      47   39264   39258      47   39264
   39261      48   39273   39270      47   39276   39270      47   39276   39273
      48   39285   39282      47   39288   39282      47   39288   39285      48
   39297   39294      47   39300   39294      47   39300   39297      48   39309
   39306      47   39312   39306      47   39312   39309      48   39321   39318
      47   39324   39318      47   39324   39321      48   39333   39330      47
   39336   39330      47   39336   39333      48   39345   39342      47   39348
   39342      47   39348   39345      48   39357   39354      47   39360   39354
      47   39360   39357      48   39369   39366      47   39372   39366      47
   39372   39369      48   39381   39378      47   39384   39378      47   39384
   39381      48   39393   39390      47   39396   39390      47   39396   39393
      48   39405   39402      47   39408   39402      47   39408   39405      48
   39417   39414      47   39420   39414      47   39420   39417      48   39429
   39426      47   39432   39426      47   39432   39429      48   39441   39438
      47   39444   39438      47   39444   39441      48   39453   39450      47
   39456   39450      47   39456   39453      48   39465   39462      47   39468
   39462      47   39468   39465      48   39477   39474      47   39480   39474
      47   39480   39477      48   39489   39486      47   39492   39486      47
   39492   39489      48   39501   39498      47   39504   39498      47   39504
   39501      48   39513   39510      47   39516   39510      47   39516   39513
      48
%FLAG BONDS_WITHOUT_HYDROGEN                                                    
%FORMAT(10I8)                                                                   
      90      93       1      78      84       4      72      78       5      72
      90       6      66      69       7      60      66       9      57      60
       9      45      48      11      45      57      12      42      45      13
      42      69      14      39      42      15      33      39      17      30
      33      18      30      69      19      24      30      21      24      78
       5      21      24       6      15      21       6      15      72       5
       6      15      23       3       6      24     192     195       1     180
     186       4     174     180       5     174     192       6     168     171
       7     156     159      11     156     168      12     150     156      26
     144     147      27     144     150      28     141     144      29     141
     171      14     138     141      15     132     138      31     129     132
      32     129     171      19     123     129      21     123     180       5
     120     123       6     114     120       6     114     174       5     105
     114      23     102     105      33      93      96      34      93      99
      34      93     102       1     285     288       1     273     279       4
     267     273       5     267     285       6     261     264      27     258
     261      35     246     249      11     246     258      12     240     246
      37     234     240      39     231     234      40     231     261      41
     225     231      21     225     273       5     222     225       6     216
     222       6     216     267       5     207     216      23     204     207
      33     195     198      34     195     201      34     195     204       1
     387     390       1     375     381       4     369     375       5     369
     387       6     363     366       7     351     354      11     351     363
      12     345     351      26     339     342      27     339     345      28
     336     339      29     336     366      14     333     336      15     327
     333      31     324     327      32     324     366      19     318     324
      21     318     375       5     315     318       6     309     315       6
     309     369       5     300     309      23     297     300      33     288
     291      34     288     294      34     288     297       1     480     483
       1     468     474       4     462     468       5     462     480       6
     456     459      27     453     456      35     441     444      11     441
     453      12     435     441      37     429     435      39     426     429
      40     426     456      41     420     426      21     420     468       5
     417     420       6     411     417       6     411     462       5     402
     411      23     399     402      33     390     393      34     390     396
      34     390     399       1     570     573       1     558     564       4
     552     558       5     552     570       6     546     549      27     540
     546      28     534     537      27     534     540      28     528     534
      43     522     528      45     519     522      46     519     546      41
     513     519      21     513     558       5     510     513       6     504
     510       6     504     552       5     495     504      23     492     495
      33     483     486      34     483     489      34     483     492       1
     660     663       1     648     654       4     642     648       5     642
     660       6     636     639      27     630     636      28     624     627
      27     624     630      28     618     624      43     612     618      45
     609     612      46     609     636      41     603     609      21     603
     648       5     600     603       6     594     600       6     594     642
       5     585     594      23     582     585      33     573     576      34
     573     579      34     573     582       1     750     753       1     738
     744       4     732     738       5     732     750       6     726     729
      27     720     726      28     714     717      27     714     720      28
     708     714      43     702     708      45     699     702      46     699
     726      41     693     699      21     693     738       5     690     693
       6     684     690       6     684     732       5     675     684      23
     672     675      33     663     666      34     663     669      34     663
     672       1     843     846       1     831     837       4     825     831
       5     825     843       6     819     822      27     816     819      35
     804     807      11     804     816      12     798     804      37     792
     798      39     789     792      40     789     819      41     783     789
      21     783     831       5     780     783       6     774     780       6
     774     825       5     765     774      23     762     765      33     753
     756      34     753     759      34     753     762       1     945     948
       1     933     939       4     927     933       5     927     945       6
     921     924       7     909     912      11     909     921      12     903
     909      26     897     900      27     897     903      28     894     897
      29     894     924      14     891     894      15     885     891      31
     882     885      32     882     924      19     876     882      21     876
     933       5     873     876       6     867     873       6     867     927
       5     858     867      23     855     858      33     846     849      34
     846     852      34     846     855       1    1044    1047       1    1032
    1038       4    1026    1032       5    1026    1044       6    1020    1023
       7    1014    1020       9    1011    1014       9     999    1002      11
     999    1011      12     996     999      13     996    1023      14     993
     996      15     987     993      17     984     987      18     984    1023
      19     978     984      21     978    1032       5     975     978       6
     969     975       6     969    1026       5     960     969      23     957
     960      33     948     951      34     948     954      34     948     957
       1    1146    1149       1    1134    1140       4    1128    1134       5
    1128    1146       6    1122    1125       7    1110    1113      11    1110
    1122      12    1104    1110      26    1098    1101      27    1098    1104
      28    1095    1098      29    1095    1125      14    1092    1095      15
    1086    1092      31    1083    1086      32    1083    1125      19    1077
    1083      21    1077    1134       5    1074    1077       6    1068    1074
       6    1068    1128       5    1059    1068      23    1056    1059      33
    1047    1050      34    1047    1053      34    1047    1056       1    1239
    1242       1    1227    1233       4    1221    1227       5    1221    1239
       6    1215    1218      27    1212    1215      35    1200    1203      11
    1200    1212      12    1194    1200      37    1188    1194      39    1185
    1188      40    1185    1215      41    1179    1185      21    1179    1227
       5    1176    1179       6    1170    1176       6    1170    1221       5
    1161    1170      23    1158    1161      33    1149    1152      34    1149
    1155      34    1149    1158       1    1341    1344       1    1329    1335
       4    1323    1329       5    1323    1341       6    1317    1320       7
    1305    1308      11    1305    1317      12    1299    1305      26    1293
    1296      27    1293    1299      28    1290    1293      29    1290    1320
      14    1287    1290      15    1281    1287      31    1278    1281      32
    1278    1320      19    1272    1278      21    1272    1329       5    1269
    1272       6    1263    1269       6    1263    1323       5    1254    1263
      23    1251    1254      33    1242    1245      34    1242    1248      34
    1242    1251       1    1434    1437       1    1422    1428       4    1416
    1422       5    1416    1434       6    1410    1413      27    1407    1410
      35    1395    1398      11    1395    1407      12    1389    1395      37
    1383    1389      39    1380    1383      40    1380    1410      41    1374
    1380      21    1374    1422       5    1371    1374       6    1365    1371
       6    1365    1416       5    1356    1365      23    1353    1356      33
    1344    1347      34    1344    1350      34    1344    1353       1    1512
    1518       4    1506    1512       5    1506    1524       4    1500    1503
      27    1494    1500      28    1488    1491      27    1488    1494      28
    1482    1488      43    1476    1482      45    1473    1476      46    1473
    1500      41    1467    1473      21    1467    1512       5    1464    1467
       6    1458    1464       6    1458    1506       5    1449    1458      23
    1446    1449      33    1437    1440      34    1437    1443      34    1437
    1446       1    1599    1590      49    1611    1602      49    1623    1614
      49    1635    1626      49    1647    1638      49    1659    1650      49
    1671    1662      49    1683    1674      49    1695    1686      49    1707
    1698      49    1719    1710      49    1731    1722      49    1743    1734
      49    1755    1746      49    1767    1758      49    1779    1770      49
    1791    1782      49    1803    1794      49    1815    1806      49    1827
    1818      49    1839    1830      49    1851    1842      49    1863    1854
      49    1875    1866      49    1887    1878      49    1899    1890      49
    1911    1902      49    1923    1914      49    1935    1926      49    1947
    1938      49    1959    1950      49    1971    1962      49    1983    1974
      49    1995    1986      49    2007    1998      49    2019    2010      49
    2031    2022      49    2043    2034      49    2055    2046      49    2067
    2058      49    2079    2070      49    2091    2082      49    2103    2094
      49    2115    2106      49    2127    2118      49    2139    2130      49
    2151    2142      49    2163    2154      49    2175    2166      49    2187
    2178      49    2199    2190      49    2211    2202      49    2223    2214
      49    2235    2226      49    2247    2238      49    2259    2250      49
    2271    2262      49    2283    2274      49    2295    2286      49    2307
    2298      49    2319    2310      49    2331    2322      49    2343    2334
      49    2355    2346      49    2367    2358      49    2379    2370      49
    2391    2382      49    2403    2394      49    2415    2406      49    2427
    2418      49    2439    2430      49    2451    2442      49    2463    2454
      49    2475    2466      49    2487    2478      49    2499    2490      49
    2511    2502      49    2523    2514      49    2535    2526      49    2547
    2538      49    2559    2550      49    2571    2562      49    2583    2574
      49    2595    2586      49    2607    2598      49    2619    2610      49
    2631    2622      49    2643    2634      49    2655    2646      49    2667
    2658      49    2679    2670      49    2691    2682      49    2703    2694
      49    2715    2706      49    2727    2718      49    2739    2730      49
    2751    2742      49    2763    2754      49    2775    2766      49    2787
    2778      49    2799    2790      49    2811    2802      49    2823    2814
      49    2835    2826      49    2847    2838      49    2859    2850      49
    2871    2862      49    2883    2874      49    2895    2886      49    2907
    2898      49    2919    2910      49    2931    2922      49    2943    2934
      49    2955    2946      49    2967    2958      49    2979    2970      49
    2991    2982      49    3003    2994      49    3015    3006      49    3027
    3018      49    3039    3030      49    3051    3042      49    3063    3054
      49    3075    3066      49    3087    3078      49    3099    3090      49
    3111    3102      49    3123    3114      49    3135    3126      49    3147
    3138      49    3159    3150      49    3171    3162      49    3183    3174
      49    3195    3186      49    3207    3198      49    3219    3210      49
    3231    3222      49    3243    3234      49    3255    3246      49    3267
    3258      49    3279    3270      49    3291    3282      49    3303    3294
      49    3315    3306      49    3327    3318      49    3339    3330      49
    3351    3342      49    3363    3354      49    3375    3366      49    3387
    3378      49    3399    3390      49    3411    3402      49    3423    3414
      49    3435    3426      49    3447    3438      49    3459    3450      49
    3471    3462      49    3483    3474      49    3495    3486      49    3507
    3498      49    3519    3510      49    3531    3522      49    3543    3534
      49    3555    3546      49    3567    3558      49    3579    3570      49
    3591    3582      49    3603    3594      49    3615    3606      49    3627
    3618      49    3639    3630      49    3651    3642      49    3663    3654
      49    3675    3666      49    3687    3678      49    3699    3690      49
    3711    3702      49    3723    3714      49    3735    3726      49    3747
    3738      49    3759    3750      49    3771    3762      49    3783    3774
      49    3795    3786      49    3807    3798      49    3819    3810      49
    3831    3822      49    3843    3834      49    3855    3846      49    3867
    3858      49    3879    3870      49    3891    3882      49    3903    3894
      49    3915    3906      49    3927    3918      49    3939    3930      49
    3951    3942      49    3963    3954      49    3975    3966      49    3987
    3978      49    3999    3990      49    4011    4002      49    4023    4014
      49    4035    4026      49    4047    4038      49    4059    4050      49
    4071    4062      49    4083    4074      49    4095    4086      49    4107
    4098      49    4119    4110      49    4131    4122      49    4143    4134
      49    4155    4146      49    4167    4158      49    4179    4170      49
    4191    4182      49    4203    4194      49    4215    4206      49    4227
    4218      49    4239    4230      49    4251    4242      49    4263    4254
      49    4275    4266      49    4287    4278      49    4299    4290      49
    4311    4302      49    4323    4314      49    4335    4326      49    4347
    4338      49    4359    4350      49    4371    4362      49    4383    4374
      49    4395    4386      49    4407    4398      49    4419    4410      49
    4431    4422      49    4443    4434      49    4455    4446      49    4467
    4458      49    4479    4470      49    4491    4482      49    4503    4494
      49    4515    4506      49    4527    4518      49    4539    4530      49
    4551    4542      49    4563    4554      49    4575    4566      49    4587
    4578      49    4599    4590      49    4611    4602      49    4623    4614
      49    4635    4626      49    4647    4638      49    4659    4650      49
    4671    4662      49    4683    4674      49    4695    4686      49    4707
    4698      49    4719    4710      49    4731    4722      49    4743    4734
      49    4755    4746      49    4767    4758      49    4779    4770      49
    4791    4782      49    4803    4794      49    4815    4806      49    4827
    4818      49    4839    4830      49    4851    4842      49    4863    4854
      49    4875    4866      49    4887    4878      49    4899    4890      49
    4911    4902      49    4923    4914      49    4935    4926      49    4947
    4938      49    4959    4950      49    4971    4962      49    4983    4974
      49    4995    4986      49    5007    4998      49    5019    5010      49
    5031    5022      49    5043    5034      49    5055    5046      49    5067
    5058      49    5079    5070      49    5091    5082      49    5103    5094
      49    5115    5106      49    5127    5118      49    5139    5130      49
    5151    5142      49    5163    5154      49    5175    5166      49    5187
    5178      49    5199    5190      49    5211    5202      49    5223    5214
      49    5235    5226      49    5247    5238      49    5259    5250      49
    5271    5262      49    5283    5274      49    5295    5286      49    5307
    5298      49    5319    5310      49    5331    5322      49    5343    5334
      49    5355    5346      49    5367    5358      49    5379    5370      49
    5391    5382      49    5403    5394      49    5415    5406      49    5427
    5418      49    5439    5430      49    5451    5442      49    5463    5454
      49    5475    5466      49    5487    5478      49    5499    5490      49
    5511    5502      49    5523    5514      49    5535    5526      49    5547
    5538      49    5559    5550      49    5571    5562      49    5583    5574
      49    5595    5586      49    5607    5598      49    5619    5610      49
    5631    5622      49    5643    5634      49    5655    5646      49    5667
    5658      49    5679    5670      49    5691    5682      49    5703    5694
      49    5715    5706      49    5727    5718      49    5739    5730      49
    5751    5742      49    5763    5754      49    5775    5766      49    5787
    5778      49    5799    5790      49    5811    5802      49    5823    5814
      49    5835    5826      49    5847    5838      49    5859    5850      49
    5871    5862      49    5883    5874      49    5895    5886      49    5907
    5898      49    5919    5910      49    5931    5922      49    5943    5934
      49    5955    5946      49    5967    5958      49    5979    5970      49
    5991    5982      49    6003    5994      49    6015    6006      49    6027
    6018      49    6039    6030      49    6051    6042      49    6063    6054
      49    6075    6066      49    6087    6078      49    6099    6090      49
    6111    6102      49    6123    6114      49    6135    6126      49    6147
    6138      49    6159    6150      49    6171    6162      49    6183    6174
      49    6195    6186      49    6207    6198      49    6219    6210      49
    6231    6222      49    6243    6234      49    6255    6246      49    6267
    6258      49    6279    6270      49    6291    6282      49    6303    6294
      49    6315    6306      49    6327    6318      49    6339    6330      49
    6351    6342      49    6363    6354      49    6375    6366      49    6387
    6378      49    6399    6390      49    6411    6402      49    6423    6414
      49    6435    6426      49    6447    6438      49    6459    6450      49
    6471    6462      49    6483    6474      49    6495    6486      49    6507
    6498      49    6519    6510      49    6531    6522      49    6543    6534
      49    6555    6546      49    6567    6558      49    6579    6570      49
    6591    6582      49    6603    6594      49    6615    6606      49    6627
    6618      49    6639    6630      49    6651    6642      49    6663    6654
      49    6675    6666      49    6687    6678      49    6699    6690      49
    6711    6702      49    6723    6714      49    6735    6726      49    6747
    6738      49    6759    6750      49    6771    6762      49    6783    6774
      49    6795    6786      49    6807    6798      49    6819    6810      49
    6831    6822      49    6843    6834      49    6855    6846      49    6867
    6858      49    6879    6870      49    6891    6882      49    6903    6894
      49    6915    6906      49    6927    6918      49    6939    6930      49
    6951    6942      49    6963    6954      49    6975    6966      49    6987
    6978      49    6999    6990      49    7011    7002      49    7023    7014
      49    7035    7026      49    7047    7038      49    7059    7050      49
    7071    7062      49    7083    7074      49    7095    7086      49    7107
    7098      49    7119    7110      49    7131    7122      49    7143    7134
      49    7155    7146      49    7167    7158      49    7179    7170      49
    7191    7182      49    7203    7194      49    7215    7206      49    7227
    7218      49    7239    7230      49    7251    7242      49    7263    7254
      49    7275    7266      49    7287    7278      49    7299    7290      49
    7311    7302      49    7323    7314      49    7335    7326      49    7347
    7338      49    7359    7350      49    7371    7362      49    7383    7374
      49    7395    7386      49    7407    7398      49    7419    7410      49
    7431    7422      49    7443    7434      49    7455    7446      49    7467
    7458      49    7479    7470      49    7491    7482      49    7503    7494
      49    7515    7506      49    7527    7518      49    7539    7530      49
    7551    7542      49    7563    7554      49    7575    7566      49    7587
    7578      49    7599    7590      49    7611    7602      49    7623    7614
      49    7635    7626      49    7647    7638      49    7659    7650      49
    7671    7662      49    7683    7674      49    7695    7686      49    7707
    7698      49    7719    7710      49    7731    7722      49    7743    7734
      49    7755    7746      49    7767    7758      49    7779    7770      49
    7791    7782      49    7803    7794      49    7815    7806      49    7827
    7818      49    7839    7830      49    7851    7842      49    7863    7854
      49    7875    7866      49    7887    7878      49    7899    7890      49
    7911    7902      49    7923    7914      49    7935    7926      49    7947
    7938      49    7959    7950      49    7971    7962      49    7983    7974
      49    7995    7986      49    8007    7998      49    8019    8010      49
    8031    8022      49    8043    8034      49    8055    8046      49    8067
    8058      49    8079    8070      49    8091    8082      49    8103    8094
      49    8115    8106      49    8127    8118      49    8139    8130      49
    8151    8142      49    8163    8154      49    8175    8166      49    8187
    8178      49    8199    8190      49    8211    8202      49    8223    8214
      49    8235    8226      49    8247    8238      49    8259    8250      49
    8271    8262      49    8283    8274      49    8295    8286      49    8307
    8298      49    8319    8310      49    8331    8322      49    8343    8334
      49    8355    8346      49    8367    8358      49    8379    8370      49
    8391    8382      49    8403    8394      49    8415    8406      49    8427
    8418      49    8439    8430      49    8451    8442      49    8463    8454
      49    8475    8466      49    8487    8478      49    8499    8490      49
    8511    8502      49    8523    8514      49    8535    8526      49    8547
    8538      49    8559    8550      49    8571    8562      49    8583    8574
      49    8595    8586      49    8607    8598      49    8619    8610      49
    8631    8622      49    8643    8634      49    8655    8646      49    8667
    8658      49    8679    8670      49    8691    8682      49    8703    8694
      49    8715    8706      49    8727    8718      49    8739    8730      49
    8751    8742      49    8763    8754      49    8775    8766      49    8787
    8778      49    8799    8790      49    8811    8802      49    8823    8814
      49    8835    8826      49    8847    8838      49    8859    8850      49
    8871    8862      49    8883    8874      49    8895    8886      49    8907
    8898      49    8919    8910      49    8931    8922      49    8943    8934
      49    8955    8946      49    8967    8958      49    8979    8970      49
    8991    8982      49    9003    8994      49    9015    9006      49    9027
    9018      49    9039    9030      49    9051    9042      49    9063    9054
      49    9075    9066      49    9087    9078      49    9099    9090      49
    9111    9102      49    9123    9114      49    9135    9126      49    9147
    9138      49    9159    9150      49    9171    9162      49    9183    9174
      49    9195    9186      49    9207    9198      49    9219    9210      49
    9231    9222      49    9243    9234      49    9255    9246      49    9267
    9258      49    9279    9270      49    9291    9282      49    9303    9294
      49    9315    9306      49    9327    9318      49    9339    9330      49
    9351    9342      49    9363    9354      49    9375    9366      49    9387
    9378      49    9399    9390      49    9411    9402      49    9423    9414
      49    9435    9426      49    9447    9438      49    9459    9450      49
    9471    9462      49    9483    9474      49    9495    9486      49    9507
    9498      49    9519    9510      49    9531    9522      49    9543    9534
      49    9555    9546      49    9567    9558      49    9579    9570      49
    9591    9582      49    9603    9594      49    9615    9606      49    9627
    9618      49    9639    9630      49    9651    9642      49    9663    9654
      49    9675    9666      49    9687    9678      49    9699    9690      49
    9711    9702      49    9723    9714      49    9735    9726      49    9747
    9738      49    9759    9750      49    9771    9762      49    9783    9774
      49    9795    9786      49    9807    9798      49    9819    9810      49
    9831    9822      49    9843    9834      49    9855    9846      49    9867
    9858      49    9879    9870      49    9891    9882      49    9903    9894
      49    9915    9906      49    9927    9918      49    9939    9930      49
    9951    9942      49    9963    9954      49    9975    9966      49    9987
    9978      49    9999    9990      49   10011   10002      49   10023   10014
      49   10035   10026      49   10047   10038      49   10059   10050      49
   10071   10062      49   10083   10074      49   10095   10086      49   10107
   10098      49   10119   10110      49   10131   10122      49   10143   10134
      49   10155   10146      49   10167   10158      49   10179   10170      49
   10191   10182      49   10203   10194      49   10215   10206      49   10227
   10218      49   10239   10230      49   10251   10242      49   10263   10254
      49   10275   10266      49   10287   10278      49   10299   10290      49
   10311   10302      49   10323   10314      49   10335   10326      49   10347
   10338      49   10359   10350      49   10371   10362      49   10383   10374
      49   10395   10386      49   10407   10398      49   10419   10410      49
   10431   10422      49   10443   10434      49   10455   10446      49   10467
   10458      49   10479   10470      49   10491   10482      49   10503   10494
      49   10515   10506      49   10527   10518      49   10539   10530      49
   10551   10542      49   10563   10554      49   10575   10566      49   10587
   10578      49   10599   10590      49   10611   10602      49   10623   10614
      49   10635   10626      49   10647   10638      49   10659   10650      49
   10671   10662      49   10683   10674      49   10695   10686      49   10707
   10698      49   10719   10710      49   10731   10722      49   10743   10734
      49   10755   10746      49   10767   10758      49   10779   10770      49
   10791   10782      49   10803   10794      49   10815   10806      49   10827
   10818      49   10839   10830      49   10851   10842      49   10863   10854
      49   10875   10866      49   10887   10878      49   10899   10890      49
   10911   10902      49   10923   10914      49   10935   10926      49   10947
   10938      49   10959   10950      49   10971   10962      49   10983   10974
      49   10995   10986      49   11007   10998      49   11019   11010      49
   11031   11022      49   11043   11034      49   11055   11046      49   11067
   11058      49   11079   11070      49   11091   11082      49   11103   11094
      49   11115   11106      49   11127   11118      49   11139   11130      49
   11151   11142      49   11163   11154      49   11175   11166      49   11187
   11178      49   11199   11190      49   11211   11202      49   11223   11214
      49   11235   11226      49   11247   11238      49   11259   11250      49
   11271   11262      49   11283   11274      49   11295   11286      49   11307
   11298      49   11319   11310      49   11331   11322      49   11343   11334
      49   11355   11346      49   11367   11358      49   11379   11370      49
   11391   11382      49   11403   11394      49   11415   11406      49   11427
   11418      49   11439   11430      49   11451   11442      49   11463   11454
      49   11475   11466      49   11487   11478      49   11499   11490      49
   11511   11502      49   11523   11514      49   11535   11526      49   11547
   11538      49   11559   11550      49   11571   11562      49   11583   11574
      49   11595   11586      49   11607   11598      49   11619   11610      49
   11631   11622      49   11643   11634      49   11655   11646      49   11667
   11658      49   11679   11670      49   11691   11682      49   11703   11694
      49   11715   11706      49   11727   11718      49   11739   11730      49
   11751   11742      49   11763   11754      49   11775   11766      49   11787
   11778      49   11799   11790      49   11811   11802      49   11823   11814
      49   11835   11826      49   11847   11838      49   11859   11850      49
   11871   11862      49   11883   11874      49   11895   11886      49   11907
   11898      49   11919   11910      49   11931   11922      49   11943   11934
      49   11955   11946      49   11967   11958      49   11979   11970      49
   11991   11982      49   12003   11994      49   12015   12006      49   12027
   12018      49   12039   12030      49   12051   12042      49   12063   12054
      49   12075   12066      49   12087   12078      49   12099   12090      49
   12111   12102      49   12123   12114      49   12135   12126      49   12147
   12138      49   12159   12150      49   12171   12162      49   12183   12174
      49   12195   12186      49   12207   12198      49   12219   12210      49
   12231   12222      49   12243   12234      49   12255   12246      49   12267
   12258      49   12279   12270      49   12291   12282      49   12303   12294
      49   12315   12306      49   12327   12318      49   12339   12330      49
   12351   12342      49   12363   12354      49   12375   12366      49   12387
   12378      49   12399   12390      49   12411   12402      49   12423   12414
      49   12435   12426      49   12447   12438      49   12459   12450      49
   12471   12462      49   12483   12474      49   12495   12486      49   12507
   12498      49   12519   12510      49   12531   12522      49   12543   12534
      49   12555   12546      49   12567   12558      49   12579   12570      49
   12591   12582      49   12603   12594      49   12615   12606      49   12627
   12618      49   12639   12630      49   12651   12642      49   12663   12654
      49   12675   12666      49   12687   12678      49   12699   12690      49
   12711   12702      49   12723   12714      49   12735   12726      49   12747
   12738      49   12759   12750      49   12771   12762      49   12783   12774
      49   12795   12786      49   12807   12798      49   12819   12810      49
   12831   12822      49   12843   12834      49   12855   12846      49   12867
   12858      49   12879   12870      49   12891   12882      49   12903   12894
      49   12915   12906      49   12927   12918      49   12939   12930      49
   12951   12942      49   12963   12954      49   12975   12966      49   12987
   12978      49   12999   12990      49   13011   13002      49   13023   13014
      49   13035   13026      49   13047   13038      49   13059   13050      49
   13071   13062      49   13083   13074      49   13095   13086      49   13107
   13098      49   13119   13110      49   13131   13122      49   13143   13134
      49   13155   13146      49   13167   13158      49   13179   13170      49
   13191   13182      49   13203   13194      49   13215   13206      49   13227
   13218      49   13239   13230      49   13251   13242      49   13263   13254
      49   13275   13266      49   13287   13278      49   13299   13290      49
   13311   13302      49   13323   13314      49   13335   13326      49   13347
   13338      49   13359   13350      49   13371   13362      49   13383   13374
      49   13395   13386      49   13407   13398      49   13419   13410      49
   13431   13422      49   13443   13434      49   13455   13446      49   13467
   13458      49   13479   13470      49   13491   13482      49   13503   13494
      49   13515   13506      49   13527   13518      49   13539   13530      49
   13551   13542      49   13563   13554      49   13575   13566      49   13587
   13578      49   13599   13590      49   13611   13602      49   13623   13614
      49   13635   13626      49   13647   13638      49   13659   13650      49
   13671   13662      49   13683   13674      49   13695   13686      49   13707
   13698      49   13719   13710      49   13731   13722      49   13743   13734
      49   13755   13746      49   13767   13758      49   13779   13770      49
   13791   13782      49   13803   13794      49   13815   13806      49   13827
   13818      49   13839   13830      49   13851   13842      49   13863   13854
      49   13875   13866      49   13887   13878      49   13899   13890      49
   13911   13902      49   13923   13914      49   13935   13926      49   13947
   13938      49   13959   13950      49   13971   13962      49   13983   13974
      49   13995   13986      49   14007   13998      49   14019   14010      49
   14031   14022      49   14043   14034      49   14055   14046      49   14067
   14058      49   14079   14070      49   14091   14082      49   14103   14094
      49   14115   14106      49   14127   14118      49   14139   14130      49
   14151   14142      49   14163   14154      49   14175   14166      49   14187
   14178      49   14199   14190      49   14211   14202      49   14223   14214
      49   14235   14226      49   14247   14238      49   14259   14250      49
   14271   14262      49   14283   14274      49   14295   14286      49   14307
   14298      49   14319   14310      49   14331   14322      49   14343   14334
      49   14355   14346      49   14367   14358      49   14379   14370      49
   14391   14382      49   14403   14394      49   14415   14406      49   14427
   14418      49   14439   14430      49   14451   14442      49   14463   14454
      49   14475   14466      49   14487   14478      49   14499   14490      49
   14511   14502      49   14523   14514      49   14535   14526      49   14547
   14538      49   14559   14550      49   14571   14562      49   14583   14574
      49   14595   14586      49   14607   14598      49   14619   14610      49
   14631   14622      49   14643   14634      49   14655   14646      49   14667
   14658      49   14679   14670      49   14691   14682      49   14703   14694
      49   14715   14706      49   14727   14718      49   14739   14730      49
   14751   14742      49   14763   14754      49   14775   14766      49   14787
   14778      49   14799   14790      49   14811   14802      49   14823   14814
      49   14835   14826      49   14847   14838      49   14859   14850      49
   14871   14862      49   14883   14874      49   14895   14886      49   14907
   14898      49   14919   14910      49   14931   14922      49   14943   14934
      49   14955   14946      49   14967   14958      49   14979   14970      49
   14991   14982      49   15003   14994      49   15015   15006      49   15027
   15018      49   15039   15030      49   15051   15042      49   15063   15054
      49   15075   15066      49   15087   15078      49   15099   15090      49
   15111   15102      49   15123   15114      49   15135   15126      49   15147
   15138      49   15159   15150      49   15171   15162      49   15183   15174
      49   15195   15186      49   15207   15198      49   15219   15210      49
   15231   15222      49   15243   15234      49   15255   15246      49   15267
   15258      49   15279   15270      49   15291   15282      49   15303   15294
      49   15315   15306      49   15327   15318      49   15339   15330      49
   15351   15342      49   15363   15354      49   15375   15366      49   15387
   15378      49   15399   15390      49   15411   15402      49   15423   15414
      49   15435   15426      49   15447   15438      49   15459   15450      49
   15471   15462      49   15483   15474      49   15495   15486      49   15507
   15498      49   15519   15510      49   15531   15522      49   15543   15534
      49   15555   15546      49   15567   15558      49   15579   15570      49
   15591   15582      49   15603   15594      49   15615   15606      49   15627
   15618      49   15639   15630      49   15651   15642      49   15663   15654
      49   15675   15666      49   15687   15678      49   15699   15690      49
   15711   15702      49   15723   15714      49   15735   15726      49   15747
   15738      49   15759   15750      49   15771   15762      49   15783   15774
      49   15795   15786      49   15807   15798      49   15819   15810      49
   15831   15822      49   15843   15834      49   15855   15846      49   15867
   15858      49   15879   15870      49   15891   15882      49   15903   15894
      49   15915   15906      49   15927   15918      49   15939   15930      49
   15951   15942      49   15963   15954      49   15975   15966      49   15987
   15978      49   15999   15990      49   16011   16002      49   16023   16014
      49   16035   16026      49   16047   16038      49   16059   16050      49
   16071   16062      49   16083   16074      49   16095   16086      49   16107
   16098      49   16119   16110      49   16131   16122      49   16143   16134
      49   16155   16146      49   16167   16158      49   16179   16170      49
   16191   16182      49   16203   16194      49   16215   16206      49   16227
   16218      49   16239   16230      49   16251   16242      49   16263   16254
      49   16275   16266      49   16287   16278      49   16299   16290      49
   16311   16302      49   16323   16314      49   16335   16326      49   16347
   16338      49   16359   16350      49   16371   16362      49   16383   16374
      49   16395   16386      49   16407   16398      49   16419   16410      49
   16431   16422      49   16443   16434      49   16455   16446      49   16467
   16458      49   16479   16470      49   16491   16482      49   16503   16494
      49   16515   16506      49   16527   16518      49   16539   16530      49
   16551   16542      49   16563   16554      49   16575   16566      49   16587
   16578      49   16599   16590      49   16611   16602      49   16623   16614
      49   16635   16626      49   16647   16638      49   16659   16650      49
   16671   16662      49   16683   16674      49   16695   16686      49   16707
   16698      49   16719   16710      49   16731   16722      49   16743   16734
      49   16755   16746      49   16767   16758      49   16779   16770      49
   16791   16782      49   16803   16794      49   16815   16806      49   16827
   16818      49   16839   16830      49   16851   16842      49   16863   16854
      49   16875   16866      49   16887   16878      49   16899   16890      49
   16911   16902      49   16923   16914      49   16935   16926      49   16947
   16938      49   16959   16950      49   16971   16962      49   16983   16974
      49   16995   16986      49   17007   16998      49   17019   17010      49
   17031   17022      49   17043   17034      49   17055   17046      49   17067
   17058      49   17079   17070      49   17091   17082      49   17103   17094
      49   17115   17106      49   17127   17118      49   17139   17130      49
   17151   17142      49   17163   17154      49   17175   17166      49   17187
   17178      49   17199   17190      49   17211   17202      49   17223   17214
      49   17235   17226      49   17247   17238      49   17259   17250      49
   17271   17262      49   17283   17274      49   17295   17286      49   17307
   17298      49   17319   17310      49   17331   17322      49   17343   17334
      49   17355   17346      49   17367   17358      49   17379   17370      49
   17391   17382      49   17403   17394      49   17415   17406      49   17427
   17418      49   17439   17430      49   17451   17442      49   17463   17454
      49   17475   17466      49   17487   17478      49   17499   17490      49
   17511   17502      49   17523   17514      49   17535   17526      49   17547
   17538      49   17559   17550      49   17571   17562      49   17583   17574
      49   17595   17586      49   17607   17598      49   17619   17610      49
   17631   17622      49   17643   17634      49   17655   17646      49   17667
   17658      49   17679   17670      49   17691   17682      49   17703   17694
      49   17715   17706      49   17727   17718      49   17739   17730      49
   17751   17742      49   17763   17754      49   17775   17766      49   17787
   17778      49   17799   17790      49   17811   17802      49   17823   17814
      49   17835   17826      49   17847   17838      49   17859   17850      49
   17871   17862      49   17883   17874      49   17895   17886      49   17907
   17898      49   17919   17910      49   17931   17922      49   17943   17934
      49   17955   17946      49   17967   17958      49   17979   17970      49
   17991   17982      49   18003   17994      49   18015   18006      49   18027
   18018      49   18039   18030      49   18051   18042      49   18063   18054
      49   18075   18066      49   18087   18078      49   18099   18090      49
   18111   18102      49   18123   18114      49   18135   18126      49   18147
   18138      49   18159   18150      49   18171   18162      49   18183   18174
      49   18195   18186      49   18207   18198      49   18219   18210      49
   18231   18222      49   18243   18234      49   18255   18246      49   18267
   18258      49   18279   18270      49   18291   18282      49   18303   18294
      49   18315   18306      49   18327   18318      49   18339   18330      49
   18351   18342      49   18363   18354      49   18375   18366      49   18387
   18378      49   18399   18390      49   18411   18402      49   18423   18414
      49   18435   18426      49   18447   18438      49   18459   18450      49
   18471   18462      49   18483   18474      49   18495   18486      49   18507
   18498      49   18519   18510      49   18531   18522      49   18543   18534
      49   18555   18546      49   18567   18558      49   18579   18570      49
   18591   18582      49   18603   18594      49   18615   18606      49   18627
   18618      49   18639   18630      49   18651   18642      49   18663   18654
      49   18675   18666      49   18687   18678      49   18699   18690      49
   18711   18702      49   18723   18714      49   18735   18726      49   18747
   18738      49   18759   18750      49   18771   18762      49   18783   18774
      49   18795   18786      49   18807   18798      49   18819   18810      49
   18831   18822      49   18843   18834      49   18855   18846      49   18867
   18858      49   18879   18870      49   18891   18882      49   18903   18894
      49   18915   18906      49   18927   18918      49   18939   18930      49
   18951   18942      49   18963   18954      49   18975   18966      49   18987
   18978      49   18999   18990      49   19011   19002      49   19023   19014
      49   19035   19026      49   19047   19038      49   19059   19050      49
   19071   19062      49   19083   19074      49   19095   19086      49   19107
   19098      49   19119   19110      49   19131   19122      49   19143   19134
      49   19155   19146      49   19167   19158      49   19179   19170      49
   19191   19182      49   19203   19194      49   19215   19206      49   19227
   19218      49   19239   19230      49   19251   19242      49   19263   19254
      49   19275   19266      49   19287   19278      49   19299   19290      49
   19311   19302      49   19323   19314      49   19335   19326      49   19347
   19338      49   19359   19350      49   19371   19362      49   19383   19374
      49   19395   19386      49   19407   19398      49   19419   19410      49
   19431   19422      49   19443   19434      49   19455   19446      49   19467
   19458      49   19479   19470      49   19491   19482      49   19503   19494
      49   19515   19506      49   19527   19518      49   19539   19530      49
   19551   19542      49   19563   19554      49   19575   19566      49   19587
   19578      49   19599   19590      49   19611   19602      49   19623   19614
      49   19635   19626      49   19647   19638      49   19659   19650      49
   19671   19662      49   19683   19674      49   19695   19686      49   19707
   19698      49   19719   19710      49   19731   19722      49   19743   19734
      49   19755   19746      49   19767   19758      49   19779   19770      49
   19791   19782      49   19803   19794      49   19815   19806      49   19827
   19818      49   19839   19830      49   19851   19842      49   19863   19854
      49   19875   19866      49   19887   19878      49   19899   19890      49
   19911   19902      49   19923   19914      49   19935   19926      49   19947
   19938      49   19959   19950      49   19971   19962      49   19983   19974
      49   19995   19986      49   20007   19998      49   20019   20010      49
   20031   20022      49   20043   20034      49   20055   20046      49   20067
   20058      49   20079   20070      49   20091   20082      49   20103   20094
      49   20115   20106      49   20127   20118      49   20139   20130      49
   20151   20142      49   20163   20154      49   20175   20166      49   20187
   20178      49   20199   20190      49   20211   20202      49   20223   20214
      49   20235   20226      49   20247   20238      49   20259   20250      49
   20271   20262      49   20283   20274      49   20295   20286      49   20307
   20298      49   20319   20310      49   20331   20322      49   20343   20334
      49   20355   20346      49   20367   20358      49   20379   20370      49
   20391   20382      49   20403   20394      49   20415   20406      49   20427
   20418      49   20439   20430      49   20451   20442      49   20463   20454
      49   20475   20466      49   20487   20478      49   20499   20490      49
   20511   20502      49   20523   20514      49   20535   20526      49   20547
   20538      49   20559   20550      49   20571   20562      49   20583   20574
      49   20595   20586      49   20607   20598      49   20619   20610      49
   20631   20622      49   20643   20634      49   20655   20646      49   20667
   20658      49   20679   20670      49   20691   20682      49   20703   20694
      49   20715   20706      49   20727   20718      49   20739   20730      49
   20751   20742      49   20763   20754      49   20775   20766      49   20787
   20778      49   20799   20790      49   20811   20802      49   20823   20814
      49   20835   20826      49   20847   20838      49   20859   20850      49
   20871   20862      49   20883   20874      49   20895   20886      49   20907
   20898      49   20919   20910      49   20931   20922      49   20943   20934
      49   20955   20946      49   20967   20958      49   20979   20970      49
   20991   20982      49   21003   20994      49   21015   21006      49   21027
   21018      49   21039   21030      49   21051   21042      49   21063   21054
      49   21075   21066      49   21087   21078      49   21099   21090      49
   21111   21102      49   21123   21114      49   21135   21126      49   21147
   21138      49   21159   21150      49   21171   21162      49   21183   21174
      49   21195   21186      49   21207   21198      49   21219   21210      49
   21231   21222      49   21243   21234      49   21255   21246      49   21267
   21258      49   21279   21270      49   21291   21282      49   21303   21294
      49   21315   21306      49   21327   21318      49   21339   21330      49
   21351   21342      49   21363   21354      49   21375   21366      49   21387
   21378      49   21399   21390      49   21411   21402      49   21423   21414
      49   21435   21426      49   21447   21438      49   21459   21450      49
   21471   21462      49   21483   21474      49   21495   21486      49   21507
   21498      49   21519   21510      49   21531   21522      49   21543   21534
      49   21555   21546      49   21567   21558      49   21579   21570      49
   21591   21582      49   21603   21594      49   21615   21606      49   21627
   21618      49   21639   21630      49   21651   21642      49   21663   21654
      49   21675   21666      49   21687   21678      49   21699   21690      49
   21711   21702      49   21723   21714      49   21735   21726      49   21747
   21738      49   21759   21750      49   21771   21762      49   21783   21774
      49   21795   21786      49   21807   21798      49   21819   21810      49
   21831   21822      49   21843   21834      49   21855   21846      49   21867
   21858      49   21879   21870      49   21891   21882      49   21903   21894
      49   21915   21906      49   21927   21918      49   21939   21930      49
   21951   21942      49   21963   21954      49   21975   21966      49   21987
   21978      49   21999   21990      49   22011   22002      49   22023   22014
      49   22035   22026      49   22047   22038      49   22059   22050      49
   22071   22062      49   22083   22074      49   22095   22086      49   22107
   22098      49   22119   22110      49   22131   22122      49   22143   22134
      49   22155   22146      49   22167   22158      49   22179   22170      49
   22191   22182      49   22203   22194      49   22215   22206      49   22227
   22218      49   22239   22230      49   22251   22242      49   22263   22254
      49   22275   22266      49   22287   22278      49   22299   22290      49
   22311   22302      49   22323   22314      49   22335   22326      49   22347
   22338      49   22359   22350      49   22371   22362      49   22383   22374
      49   22395   22386      49   22407   22398      49   22419   22410      49
   22431   22422      49   22443   22434      49   22455   22446      49   22467
   22458      49   22479   22470      49   22491   22482      49   22503   22494
      49   22515   22506      49   22527   22518      49   22539   22530      49
   22551   22542      49   22563   22554      49   22575   22566      49   22587
   22578      49   22599   22590      49   22611   22602      49   22623   22614
      49   22635   22626      49   22647   22638      49   22659   22650      49
   22671   22662      49   22683   22674      49   22695   22686      49   22707
   22698      49   22719   22710      49   22731   22722      49   22743   22734
      49   22755   22746      49   22767   22758      49   22779   22770      49
   22791   22782      49   22803   22794      49   22815   22806      49   22827
   22818      49   22839   22830      49   22851   22842      49   22863   22854
      49   22875   22866      49   22887   22878      49   22899   22890      49
   22911   22902      49   22923   22914      49   22935   22926      49   22947
   22938      49   22959   22950      49   22971   22962      49   22983   22974
      49   22995   22986      49   23007   22998      49   23019   23010      49
   23031   23022      49   23043   23034      49   23055   23046      49   23067
   23058      49   23079   23070      49   23091   23082      49   23103   23094
      49   23115   23106      49   23127   23118      49   23139   23130      49
   23151   23142      49   23163   23154      49   23175   23166      49   23187
   23178      49   23199   23190      49   23211   23202      49   23223   23214
      49   23235   23226      49   23247   23238      49   23259   23250      49
   23271   23262      49   23283   23274      49   23295   23286      49   23307
   23298      49   23319   23310      49   23331   23322      49   23343   23334
      49   23355   23346      49   23367   23358      49   23379   23370      49
   23391   23382      49   23403   23394      49   23415   23406      49   23427
   23418      49   23439   23430      49   23451   23442      49   23463   23454
      49   23475   23466      49   23487   23478      49   23499   23490      49
   23511   23502      49   23523   23514      49   23535   23526      49   23547
   23538      49   23559   23550      49   23571   23562      49   23583   23574
      49   23595   23586      49   23607   23598      49   23619   23610      49
   23631   23622      49   23643   23634      49   23655   23646      49   23667
   23658      49   23679   23670      49   23691   23682      49   23703   23694
      49   23715   23706      49   23727   23718      49   23739   23730      49
   23751   23742      49   23763   23754      49   23775   23766      49   23787
   23778      49   23799   23790      49   23811   23802      49   23823   23814
      49   23835   23826      49   23847   23838      49   23859   23850      49
   23871   23862      49   23883   23874      49   23895   23886      49   23907
   23898      49   23919   23910      49   23931   23922      49   23943   23934
      49   23955   23946      49   23967   23958      49   23979   23970      49
   23991   23982      49   24003   23994      49   24015   24006      49   24027
   24018      49   24039   24030      49   24051   24042      49   24063   24054
      49   24075   24066      49   24087   24078      49   24099   24090      49
   24111   24102      49   24123   24114      49   24135   24126      49   24147
   24138      49   24159   24150      49   24171   24162      49   24183   24174
      49   24195   24186      49   24207   24198      49   24219   24210      49
   24231   24222      49   24243   24234      49   24255   24246      49   24267
   24258      49   24279   24270      49   24291   24282      49   24303   24294
      49   24315   24306      49   24327   24318      49   24339   24330      49
   24351   24342      49   24363   24354      49   24375   24366      49   24387
   24378      49   24399   24390      49   24411   24402      49   24423   24414
      49   24435   24426      49   24447   24438      49   24459   24450      49
   24471   24462      49   24483   24474      49   24495   24486      49   24507
   24498      49   24519   24510      49   24531   24522      49   24543   24534
      49   24555   24546      49   24567   24558      49   24579   24570      49
   24591   24582      49   24603   24594      49   24615   24606      49   24627
   24618      49   24639   24630      49   24651   24642      49   24663   24654
      49   24675   24666      49   24687   24678      49   24699   24690      49
   24711   24702      49   24723   24714      49   24735   24726      49   24747
   24738      49   24759   24750      49   24771   24762      49   24783   24774
      49   24795   24786      49   24807   24798      49   24819   24810      49
   24831   24822      49   24843   24834      49   24855   24846      49   24867
   24858      49   24879   24870      49   24891   24882      49   24903   24894
      49   24915   24906      49   24927   24918      49   24939   24930      49
   24951   24942      49   24963   24954      49   24975   24966      49   24987
   24978      49   24999   24990      49   25011   25002      49   25023   25014
      49   25035   25026      49   25047   25038      49   25059   25050      49
   25071   25062      49   25083   25074      49   25095   25086      49   25107
   25098      49   25119   25110      49   25131   25122      49   25143   25134
      49   25155   25146      49   25167   25158      49   25179   25170      49
   25191   25182      49   25203   25194      49   25215   25206      49   25227
   25218      49   25239   25230      49   25251   25242      49   25263   25254
      49   25275   25266      49   25287   25278      49   25299   25290      49
   25311   25302      49   25323   25314      49   25335   25326      49   25347
   25338      49   25359   25350      49   25371   25362      49   25383   25374
      49   25395   25386      49   25407   25398      49   25419   25410      49
   25431   25422      49   25443   25434      49   25455   25446      49   25467
   25458      49   25479   25470      49   25491   25482      49   25503   25494
      49   25515   25506      49   25527   25518      49   25539   25530      49
   25551   25542      49   25563   25554      49   25575   25566      49   25587
   25578      49   25599   25590      49   25611   25602      49   25623   25614
      49   25635   25626      49   25647   25638      49   25659   25650      49
   25671   25662      49   25683   25674      49   25695   25686      49   25707
   25698      49   25719   25710      49   25731   25722      49   25743   25734
      49   25755   25746      49   25767   25758      49   25779   25770      49
   25791   25782      49   25803   25794      49   25815   25806      49   25827
   25818      49   25839   25830      49   25851   25842      49   25863   25854
      49   25875   25866      49   25887   25878      49   25899   25890      49
   25911   25902      49   25923   25914      49   25935   25926      49   25947
   25938      49   25959   25950      49   25971   25962      49   25983   25974
      49   25995   25986      49   26007   25998      49   26019   26010      49
   26031   26022      49   26043   26034      49   26055   26046      49   26067
   26058      49   26079   26070      49   26091   26082      49   26103   26094
      49   26115   26106      49   26127   26118      49   26139   26130      49
   26151   26142      49   26163   26154      49   26175   26166      49   26187
   26178      49   26199   26190      49   26211   26202      49   26223   26214
      49   26235   26226      49   26247   26238      49   26259   26250      49
   26271   26262      49   26283   26274      49   26295   26286      49   26307
   26298      49   26319   26310      49   26331   26322      49   26343   26334
      49   26355   26346      49   26367   26358      49   26379   26370      49
   26391   26382      49   26403   26394      49   26415   26406      49   26427
   26418      49   26439   26430      49   26451   26442      49   26463   26454
      49   26475   26466      49   26487   26478      49   26499   26490      49
   26511   26502      49   26523   26514      49   26535   26526      49   26547
   26538      49   26559   26550      49   26571   26562      49   26583   26574
      49   26595   26586      49   26607   26598      49   26619   26610      49
   26631   26622      49   26643   26634      49   26655   26646      49   26667
   26658      49   26679   26670      49   26691   26682      49   26703   26694
      49   26715   26706      49   26727   26718      49   26739   26730      49
   26751   26742      49   26763   26754      49   26775   26766      49   26787
   26778      49   26799   26790      49   26811   26802      49   26823   26814
      49   26835   26826      49   26847   26838      49   26859   26850      49
   26871   26862      49   26883   26874      49   26895   26886      49   26907
   26898      49   26919   26910      49   26931   26922      49   26943   26934
      49   26955   26946      49   26967   26958      49   26979   26970      49
   26991   26982      49   27003   26994      49   27015   27006      49   27027
   27018      49   27039   27030      49   27051   27042      49   27063   27054
      49   27075   27066      49   27087   27078      49   27099   27090      49
   27111   27102      49   27123   27114      49   27135   27126      49   27147
   27138      49   27159   27150      49   27171   27162      49   27183   27174
      49   27195   27186      49   27207   27198      49   27219   27210      49
   27231   27222      49   27243   27234      49   27255   27246      49   27267
   27258      49   27279   27270      49   27291   27282      49   27303   27294
      49   27315   27306      49   27327   27318      49   27339   27330      49
   27351   27342      49   27363   27354      49   27375   27366      49   27387
   27378      49   27399   27390      49   27411   27402      49   27423   27414
      49   27435   27426      49   27447   27438      49   27459   27450      49
   27471   27462      49   27483   27474      49   27495   27486      49   27507
   27498      49   27519   27510      49   27531   27522      49   27543   27534
      49   27555   27546      49   27567   27558      49   27579   27570      49
   27591   27582      49   27603   27594      49   27615   27606      49   27627
   27618      49   27639   27630      49   27651   27642      49   27663   27654
      49   27675   27666      49   27687   27678      49   27699   27690      49
   27711   27702      49   27723   27714      49   27735   27726      49   27747
   27738      49   27759   27750      49   27771   27762      49   27783   27774
      49   27795   27786      49   27807   27798      49   27819   27810      49
   27831   27822      49   27843   27834      49   27855   27846      49   27867
   27858      49   27879   27870      49   27891   27882      49   27903   27894
      49   27915   27906      49   27927   27918      49   27939   27930      49
   27951   27942      49   27963   27954      49   27975   27966      49   27987
   27978      49   27999   27990      49   28011   28002      49   28023   28014
      49   28035   28026      49   28047   28038      49   28059   28050      49
   28071   28062      49   28083   28074      49   28095   28086      49   28107
   28098      49   28119   28110      49   28131   28122      49   28143   28134
      49   28155   28146      49   28167   28158      49   28179   28170      49
   28191   28182      49   28203   28194      49   28215   28206      49   28227
   28218      49   28239   28230      49   28251   28242      49   28263   28254
      49   28275   28266      49   28287   28278      49   28299   28290      49
   28311   28302      49   28323   28314      49   28335   28326      49   28347
   28338      49   28359   28350      49   28371   28362      49   28383   28374
      49   28395   28386      49   28407   28398      49   28419   28410      49
   28431   28422      49   28443   28434      49   28455   28446      49   28467
   28458      49   28479   28470      49   28491   28482      49   28503   28494
      49   28515   28506      49   28527   28518      49   28539   28530      49
   28551   28542      49   28563   28554      49   28575   28566      49   28587
   28578      49   28599   28590      49   28611   28602      49   28623   28614
      49   28635   28626      49   28647   28638      49   28659   28650      49
   28671   28662      49   28683   28674      49   28695   28686      49   28707
   28698      49   28719   28710      49   28731   28722      49   28743   28734
      49   28755   28746      49   28767   28758      49   28779   28770      49
   28791   28782      49   28803   28794      49   28815   28806      49   28827
   28818      49   28839   28830      49   28851   28842      49   28863   28854
      49   28875   28866      49   28887   28878      49   28899   28890      49
   28911   28902      49   28923   28914      49   28935   28926      49   28947
   28938      49   28959   28950      49   28971   28962      49   28983   28974
      49   28995   28986      49   29007   28998      49   29019   29010      49
   29031   29022      49   29043   29034      49   29055   29046      49   29067
   29058      49   29079   29070      49   29091   29082      49   29103   29094
      49   29115   29106      49   29127   29118      49   29139   29130      49
   29151   29142      49   29163   29154      49   29175   29166      49   29187
   29178      49   29199   29190      49   29211   29202      49   29223   29214
      49   29235   29226      49   29247   29238      49   29259   29250      49
   29271   29262      49   29283   29274      49   29295   29286      49   29307
   29298      49   29319   29310      49   29331   29322      49   29343   29334
      49   29355   29346      49   29367   29358      49   29379   29370      49
   29391   29382      49   29403   29394      49   29415   29406      49   29427
   29418      49   29439   29430      49   29451   29442      49   29463   29454
      49   29475   29466      49   29487   29478      49   29499   29490      49
   29511   29502      49   29523   29514      49   29535   29526      49   29547
   29538      49   29559   29550      49   29571   29562      49   29583   29574
      49   29595   29586      49   29607   29598      49   29619   29610      49
   29631   29622      49   29643   29634      49   29655   29646      49   29667
   29658      49   29679   29670      49   29691   29682      49   29703   29694
      49   29715   29706      49   29727   29718      49   29739   29730      49
   29751   29742      49   29763   29754      49   29775   29766      49   29787
   29778      49   29799   29790      49   29811   29802      49   29823   29814
      49   29835   29826      49   29847   29838      49   29859   29850      49
   29871   29862      49   29883   29874      49   29895   29886      49   29907
   29898      49   29919   29910      49   29931   29922      49   29943   29934
      49   29955   29946      49   29967   29958      49   29979   29970      49
   29991   29982      49   30003   29994      49   30015   30006      49   30027
   30018      49   30039   30030      49   30051   30042      49   30063   30054
      49   30075   30066      49   30087   30078      49   30099   30090      49
   30111   30102      49   30123   30114      49   30135   30126      49   30147
   30138      49   30159   30150      49   30171   30162      49   30183   30174
      49   30195   30186      49   30207   30198      49   30219   30210      49
   30231   30222      49   30243   30234      49   30255   30246      49   30267
   30258      49   30279   30270      49   30291   30282      49   30303   30294
      49   30315   30306      49   30327   30318      49   30339   30330      49
   30351   30342      49   30363   30354      49   30375   30366      49   30387
   30378      49   30399   30390      49   30411   30402      49   30423   30414
      49   30435   30426      49   30447   30438      49   30459   30450      49
   30471   30462      49   30483   30474      49   30495   30486      49   30507
   30498      49   30519   30510      49   30531   30522      49   30543   30534
      49   30555   30546      49   30567   30558      49   30579   30570      49
   30591   30582      49   30603   30594      49   30615   30606      49   30627
   30618      49   30639   30630      49   30651   30642      49   30663   30654
      49   30675   30666      49   30687   30678      49   30699   30690      49
   30711   30702      49   30723   30714      49   30735   30726      49   30747
   30738      49   30759   30750      49   30771   30762      49   30783   30774
      49   30795   30786      49   30807   30798      49   30819   30810      49
   30831   30822      49   30843   30834      49   30855   30846      49   30867
   30858      49   30879   30870      49   30891   30882      49   30903   30894
      49   30915   30906      49   30927   30918      49   30939   30930      49
   30951   30942      49   30963   30954      49   30975   30966      49   30987
   30978      49   30999   30990      49   31011   31002      49   31023   31014
      49   31035   31026      49   31047   31038      49   31059   31050      49
   31071   31062      49   31083   31074      49   31095   31086      49   31107
   31098      49   31119   31110      49   31131   31122      49   31143   31134
      49   31155   31146      49   31167   31158      49   31179   31170      49
   31191   31182      49   31203   31194      49   31215   31206      49   31227
   31218      49   31239   31230      49   31251   31242      49   31263   31254
      49   31275   31266      49   31287   31278      49   31299   31290      49
   31311   31302      49   31323   31314      49   31335   31326      49   31347
   31338      49   31359   31350      49   31371   31362      49   31383   31374
      49   31395   31386      49   31407   31398      49   31419   31410      49
   31431   31422      49   31443   31434      49   31455   31446      49   31467
   31458      49   31479   31470      49   31491   31482      49   31503   31494
      49   31515   31506      49   31527   31518      49   31539   31530      49
   31551   31542      49   31563   31554      49   31575   31566      49   31587
   31578      49   31599   31590      49   31611   31602      49   31623   31614
      49   31635   31626      49   31647   31638      49   31659   31650      49
   31671   31662      49   31683   31674      49   31695   31686      49   31707
   31698      49   31719   31710      49   31731   31722      49   31743   31734
      49   31755   31746      49   31767   31758      49   31779   31770      49
   31791   31782      49   31803   31794      49   31815   31806      49   31827
   31818      49   31839   31830      49   31851   31842      49   31863   31854
      49   31875   31866      49   31887   31878      49   31899   31890      49
   31911   31902      49   31923   31914      49   31935   31926      49   31947
   31938      49   31959   31950      49   31971   31962      49   31983   31974
      49   31995   31986      49   32007   31998      49   32019   32010      49
   32031   32022      49   32043   32034      49   32055   32046      49   32067
   32058      49   32079   32070      49   32091   32082      49   32103   32094
      49   32115   32106      49   32127   32118      49   32139   32130      49
   32151   32142      49   32163   32154      49   32175   32166      49   32187
   32178      49   32199   32190      49   32211   32202      49   32223   32214
      49   32235   32226      49   32247   32238      49   32259   32250      49
   32271   32262      49   32283   32274      49   32295   32286      49   32307
   32298      49   32319   32310      49   32331   32322      49   32343   32334
      49   32355   32346      49   32367   32358      49   32379   32370      49
   32391   32382      49   32403   32394      49   32415   32406      49   32427
   32418      49   32439   32430      49   32451   32442      49   32463   32454
      49   32475   32466      49   32487   32478      49   32499   32490      49
   32511   32502      49   32523   32514      49   32535   32526      49   32547
   32538      49   32559   32550      49   32571   32562      49   32583   32574
      49   32595   32586      49   32607   32598      49   32619   32610      49
   32631   32622      49   32643   32634      49   32655   32646      49   32667
   32658      49   32679   32670      49   32691   32682      49   32703   32694
      49   32715   32706      49   32727   32718      49   32739   32730      49
   32751   32742      49   32763   32754      49   32775   32766      49   32787
   32778      49   32799   32790      49   32811   32802      49   32823   32814
      49   32835   32826      49   32847   32838      49   32859   32850      49
   32871   32862      49   32883   32874      49   32895   32886      49   32907
   32898      49   32919   32910      49   32931   32922      49   32943   32934
      49   32955   32946      49   32967   32958      49   32979   32970      49
   32991   32982      49   33003   32994      49   33015   33006      49   33027
   33018      49   33039   33030      49   33051   33042      49   33063   33054
      49   33075   33066      49   33087   33078      49   33099   33090      49
   33111   33102      49   33123   33114      49   33135   33126      49   33147
   33138      49   33159   33150      49   33171   33162      49   33183   33174
      49   33195   33186      49   33207   33198      49   33219   33210      49
   33231   33222      49   33243   33234      49   33255   33246      49   33267
   33258      49   33279   33270      49   33291   33282      49   33303   33294
      49   33315   33306      49   33327   33318      49   33339   33330      49
   33351   33342      49   33363   33354      49   33375   33366      49   33387
   33378      49   33399   33390      49   33411   33402      49   33423   33414
      49   33435   33426      49   33447   33438      49   33459   33450      49
   33471   33462      49   33483   33474      49   33495   33486      49   33507
   33498      49   33519   33510      49   33531   33522      49   33543   33534
      49   33555   33546      49   33567   33558      49   33579   33570      49
   33591   33582      49   33603   33594      49   33615   33606      49   33627
   33618      49   33639   33630      49   33651   33642      49   33663   33654
      49   33675   33666      49   33687   33678      49   33699   33690      49
   33711   33702      49   33723   33714      49   33735   33726      49   33747
   33738      49   33759   33750      49   33771   33762      49   33783   33774
      49   33795   33786      49   33807   33798      49   33819   33810      49
   33831   33822      49   33843   33834      49   33855   33846      49   33867
   33858      49   33879   33870      49   33891   33882      49   33903   33894
      49   33915   33906      49   33927   33918      49   33939   33930      49
   33951   33942      49   33963   33954      49   33975   33966      49   33987
   33978      49   33999   33990      49   34011   34002      49   34023   34014
      49   34035   34026      49   34047   34038      49   34059   34050      49
   34071   34062      49   34083   34074      49   34095   34086      49   34107
   34098      49   34119   34110      49   34131   34122      49   34143   34134
      49   34155   34146      49   34167   34158      49   34179   34170      49
   34191   34182      49   34203   34194      49   34215   34206      49   34227
   34218      49   34239   34230      49   34251   34242      49   34263   34254
      49   34275   34266      49   34287   34278      49   34299   34290      49
   34311   34302      49   34323   34314      49   34335   34326      49   34347
   34338      49   34359   34350      49   34371   34362      49   34383   34374
      49   34395   34386      49   34407   34398      49   34419   34410      49
   34431   34422      49   34443   34434      49   34455   34446      49   34467
   34458      49   34479   34470      49   34491   34482      49   34503   34494
      49   34515   34506      49   34527   34518      49   34539   34530      49
   34551   34542      49   34563   34554      49   34575   34566      49   34587
   34578      49   34599   34590      49   34611   34602      49   34623   34614
      49   34635   34626      49   34647   34638      49   34659   34650      49
   34671   34662      49   34683   34674      49   34695   34686      49   34707
   34698      49   34719   34710      49   34731   34722      49   34743   34734
      49   34755   34746      49   34767   34758      49   34779   34770      49
   34791   34782      49   34803   34794      49   34815   34806      49   34827
   34818      49   34839   34830      49   34851   34842      49   34863   34854
      49   34875   34866      49   34887   34878      49   34899   34890      49
   34911   34902      49   34923   34914      49   34935   34926      49   34947
   34938      49   34959   34950      49   34971   34962      49   34983   34974
      49   34995   34986      49   35007   34998      49   35019   35010      49
   35031   35022      49   35043   35034      49   35055   35046      49   35067
   35058      49   35079   35070      49   35091   35082      49   35103   35094
      49   35115   35106      49   35127   35118      49   35139   35130      49
   35151   35142      49   35163   35154      49   35175   35166      49   35187
   35178      49   35199   35190      49   35211   35202      49   35223   35214
      49   35235   35226      49   35247   35238      49   35259   35250      49
   35271   35262      49   35283   35274      49   35295   35286      49   35307
   35298      49   35319   35310      49   35331   35322      49   35343   35334
      49   35355   35346      49   35367   35358      49   35379   35370      49
   35391   35382      49   35403   35394      49   35415   35406      49   35427
   35418      49   35439   35430      49   35451   35442      49   35463   35454
      49   35475   35466      49   35487   35478      49   35499   35490      49
   35511   35502      49   35523   35514      49   35535   35526      49   35547
   35538      49   35559   35550      49   35571   35562      49   35583   35574
      49   35595   35586      49   35607   35598      49   35619   35610      49
   35631   35622      49   35643   35634      49   35655   35646      49   35667
   35658      49   35679   35670      49   35691   35682      49   35703   35694
      49   35715   35706      49   35727   35718      49   35739   35730      49
   35751   35742      49   35763   35754      49   35775   35766      49   35787
   35778      49   35799   35790      49   35811   35802      49   35823   35814
      49   35835   35826      49   35847   35838      49   35859   35850      49
   35871   35862      49   35883   35874      49   35895   35886      49   35907
   35898      49   35919   35910      49   35931   35922      49   35943   35934
      49   35955   35946      49   35967   35958      49   35979   35970      49
   35991   35982      49   36003   35994      49   36015   36006      49   36027
   36018      49   36039   36030      49   36051   36042      49   36063   36054
      49   36075   36066      49   36087   36078      49   36099   36090      49
   36111   36102      49   36123   36114      49   36135   36126      49   36147
   36138      49   36159   36150      49   36171   36162      49   36183   36174
      49   36195   36186      49   36207   36198      49   36219   36210      49
   36231   36222      49   36243   36234      49   36255   36246      49   36267
   36258      49   36279   36270      49   36291   36282      49   36303   36294
      49   36315   36306      49   36327   36318      49   36339   36330      49
   36351   36342      49   36363   36354      49   36375   36366      49   36387
   36378      49   36399   36390      49   36411   36402      49   36423   36414
      49   36435   36426      49   36447   36438      49   36459   36450      49
   36471   36462      49   36483   36474      49   36495   36486      49   36507
   36498      49   36519   36510      49   36531   36522      49   36543   36534
      49   36555   36546      49   36567   36558      49   36579   36570      49
   36591   36582      49   36603   36594      49   36615   36606      49   36627
   36618      49   36639   36630      49   36651   36642      49   36663   36654
      49   36675   36666      49   36687   36678      49   36699   36690      49
   36711   36702      49   36723   36714      49   36735   36726      49   36747
   36738      49   36759   36750      49   36771   36762      49   36783   36774
      49   36795   36786      49   36807   36798      49   36819   36810      49
   36831   36822      49   36843   36834      49   36855   36846      49   36867
   36858      49   36879   36870      49   36891   36882      49   36903   36894
      49   36915   36906      49   36927   36918      49   36939   36930      49
   36951   36942      49   36963   36954      49   36975   36966      49   36987
   36978      49   36999   36990      49   37011   37002      49   37023   37014
      49   37035   37026      49   37047   37038      49   37059   37050      49
   37071   37062      49   37083   37074      49   37095   37086      49   37107
   37098      49   37119   37110      49   37131   37122      49   37143   37134
      49   37155   37146      49   37167   37158      49   37179   37170      49
   37191   37182      49   37203   37194      49   37215   37206      49   37227
   37218      49   37239   37230      49   37251   37242      49   37263   37254
      49   37275   37266      49   37287   37278      49   37299   37290      49
   37311   37302      49   37323   37314      49   37335   37326      49   37347
   37338      49   37359   37350      49   37371   37362      49   37383   37374
      49   37395   37386      49   37407   37398      49   37419   37410      49
   37431   37422      49   37443   37434      49   37455   37446      49   37467
   37458      49   37479   37470      49   37491   37482      49   37503   37494
      49   37515   37506      49   37527   37518      49   37539   37530      49
   37551   37542      49   37563   37554      49   37575   37566      49   37587
   37578      49   37599   37590      49   37611   37602      49   37623   37614
      49   37635   37626      49   37647   37638      49   37659   37650      49
   37671   37662      49   37683   37674      49   37695   37686      49   37707
   37698      49   37719   37710      49   37731   37722      49   37743   37734
      49   37755   37746      49   37767   37758      49   37779   37770      49
   37791   37782      49   37803   37794      49   37815   37806      49   37827
   37818      49   37839   37830      49   37851   37842      49   37863   37854
      49   37875   37866      49   37887   37878      49   37899   37890      49
   37911   37902      49   37923   37914      49   37935   37926      49   37947
   37938      49   37959   37950      49   37971   37962      49   37983   37974
      49   37995   37986      49   38007   37998      49   38019   38010      49
   38031   38022      49   38043   38034      49   38055   38046      49   38067
   38058      49   38079   38070      49   38091   38082      49   38103   38094
      49   38115   38106      49   38127   38118      49   38139   38130      49
   38151   38142      49   38163   38154      49   38175   38166      49   38187
   38178      49   38199   38190      49   38211   38202      49   38223   38214
      49   38235   38226      49   38247   38238      49   38259   38250      49
   38271   38262      49   38283   38274      49   38295   38286      49   38307
   38298      49   38319   38310      49   38331   38322      49   38343   38334
      49   38355   38346      49   38367   38358      49   38379   38370      49
   38391   38382      49   38403   38394      49   38415   38406      49   38427
   38418      49   38439   38430      49   38451   38442      49   38463   38454
      49   38475   38466      49   38487   38478      49   38499   38490      49
   38511   38502      49   38523   38514      49   38535   38526      49   38547
   38538      49   38559   38550      49   38571   38562      49   38583   38574
      49   38595   38586      49   38607   38598      49   38619   38610      49
   38631   38622      49   38643   38634      49   38655   38646      49   38667
   38658      49   38679   38670      49   38691   38682      49   38703   38694
      49   38715   38706      49   38727   38718      49   38739   38730      49
   38751   38742      49   38763   38754      49   38775   38766      49   38787
   38778      49   38799   38790      49   38811   38802      49   38823   38814
      49   38835   38826      49   38847   38838      49   38859   38850      49
   38871   38862      49   38883   38874      49   38895   38886      49   38907
   38898      49   38919   38910      49   38931   38922      49   38943   38934
      49   38955   38946      49   38967   38958      49   38979   38970      49
   38991   38982      49   39003   38994      49   39015   39006      49   39027
   39018      49   39039   39030      49   39051   39042      49   39063   39054
      49   39075   39066      49   39087   39078      49   39099   39090      49
   39111   39102      49   39123   39114      49   39135   39126      49   39147
   39138      49   39159   39150      49   39171   39162      49   39183   39174
      49   39195   39186      49   39207   39198      49   39219   39210      49
   39231   39222      49   39243   39234      49   39255   39246      49   39267
   39258      49   39279   39270      49   39291   39282      49   39303   39294
      49   39315   39306      49   39327   39318      49   39339   39330      49
   39351   39342      49   39363   39354      49   39375   39366      49   39387
   39378      49   39399   39390      49   39411   39402      49   39423   39414
      49   39435   39426      49   39447   39438      49   39459   39450      49
   39471   39462      49   39483   39474      49   39495   39486      49   39507
   39498      49   39519   39510      49
%FLAG ANGLES_INC_HYDROGEN                                                       
%FORMAT(10I8)                                                                   
      81      78      84       3      78      84      87       5      75      72
      78       6      75      72      90       7      72      78      81       6
      63      60      66      10      57      60      63      10      51      48
      54      13      45      48      51      16      45      48      54      16
      36      33      39      23      30      33      36      27      27      24
      30      31      27      24      78      32      24      78      81       6
      21      24      27      36      18      15      21       7      18      15
      72       6      15      72      75       6      12       6      15      39
       9       6      12      40       9       6      15      39       6      15
      18      41       3       6       9      44       3       6      12      44
       0       3       6      46     183     180     186       3     180     186
     189       5     177     174     180       6     177     174     192       7
     174     180     183       6     162     159     165      13     156     159
     162      16     156     159     165      16     153     150     156      48
     144     150     153      53     135     132     138      58     129     132
     135      61     126     123     129      31     126     123     180      32
     123     180     183       6     120     123     126      36     117     114
     120       7     117     114     174       6     114     174     177       6
     111     105     114      39     108     105     111      40     108     105
     114      39     105     114     117      41     102     105     108      64
     102     105     111      64     276     273     279       3     273     279
     282       5     270     267     273       6     270     267     285       7
     267     273     276       6     252     249     255      13     246     249
     252      16     246     249     255      16     243     240     246      70
     237     234     240      73     234     240     243      75     231     234
     237      77     228     225     231      31     228     225     273      32
     225     273     276       6     222     225     228      36     219     216
     222       7     219     216     267       6     216     267     270       6
     213     207     216      39     210     207     213      40     210     207
     216      39     207     216     219      41     204     207     210      64
     204     207     213      64     378     375     381       3     375     381
     384       5     372     369     375       6     372     369     387       7
     369     375     378       6     357     354     360      13     351     354
     357      16     351     354     360      16     348     345     351      48
     339     345     348      53     330     327     333      58     324     327
     330      61     321     318     324      31     321     318     375      32
     318     375     378       6     315     318     321      36     312     309
     315       7     312     309     369       6     309     369     372       6
     306     300     309      39     303     300     306      40     303     300
     309      39     300     309     312      41     297     300     303      64
     297     300     306      64     471     468     474       3     468     474
     477       5     465     462     468       6     465     462     480       7
     462     468     471       6     447     444     450      13     441     444
     447      16     441     444     450      16     438     435     441      70
     432     429     435      73     429     435     438      75     426     429
     432      77     423     420     426      31     423     420     468      32
     420     468     471       6     417     420     423      36     414     411
     417       7     414     411     462       6     411     462     465       6
     408     402     411      39     405     402     408      40     405     402
     411      39     402     411     414      41     399     402     405      64
     399     402     408      64     561     558     564       3     558     564
     567       5     555     552     558       6     555     552     570       7
     552     558     561       6     543     540     546      53     534     540
     543      53     531     528     534      84     525     522     528      87
     522     528     531      89     519     522     525      91     516     513
     519      31     516     513     558      32     513     558     561       6
     510     513     516      36     507     504     510       7     507     504
     552       6     504     552     555       6     501     495     504      39
     498     495     501      40     498     495     504      39     495     504
     507      41     492     495     498      64     492     495     501      64
     651     648     654       3     648     654     657       5     645     642
     648       6     645     642     660       7     642     648     651       6
     633     630     636      53     624     630     633      53     621     618
     624      84     615     612     618      87     612     618     621      89
     609     612     615      91     606     603     609      31     606     603
     648      32     603     648     651       6     600     603     606      36
     597     594     600       7     597     594     642       6     594     642
     645       6     591     585     594      39     588     585     591      40
     588     585     594      39     585     594     597      41     582     585
     588      64     582     585     591      64     741     738     744       3
     738     744     747       5     735     732     738       6     735     732
     750       7     732     738     741       6     723     720     726      53
     714     720     723      53     711     708     714      84     705     702
     708      87     702     708     711      89     699     702     705      91
     696     693     699      31     696     693     738      32     693     738
     741       6     690     693     696      36     687     684     690       7
     687     684     732       6     684     732     735       6     681     675
     684      39     678     675     681      40     678     675     684      39
     675     684     687      41     672     675     678      64     672     675
     681      64     834     831     837       3     831     837     840       5
     828     825     831       6     828     825     843       7     825     831
     834       6     810     807     813      13     804     807     810      16
     804     807     813      16     801     798     804      70     795     792
     798      73     792     798     801      75     789     792     795      77
     786     783     789      31     786     783     831      32     783     831
     834       6     780     783     786      36     777     774     780       7
     777     774     825       6     774     825     828       6     771     765
     774      39     768     765     771      40     768     765     774      39
     765     774     777      41     762     765     768      64     762     765
     771      64     936     933     939       3     933     939     942       5
     930     927     933       6     930     927     945       7     927     933
     936       6     915     912     918      13     909     912     915      16
     909     912     918      16     906     903     909      48     897     903
     906      53     888     885     891      58     882     885     888      61
     879     876     882      31     879     876     933      32     876     933
     936       6     873     876     879      36     870     867     873       7
     870     867     927       6     867     927     930       6     864     858
     867      39     861     858     864      40     861     858     867      39
     858     867     870      41     855     858     861      64     855     858
     864      64    1035    1032    1038       3    1032    1038    1041       5
    1029    1026    1032       6    1029    1026    1044       7    1026    1032
    1035       6    1017    1014    1020      10    1011    1014    1017      10
    1005    1002    1008      13     999    1002    1005      16     999    1002
    1008      16     990     987     993      23     984     987     990      27
     981     978     984      31     981     978    1032      32     978    1032
    1035       6     975     978     981      36     972     969     975       7
     972     969    1026       6     969    1026    1029       6     966     960
     969      39     963     960     966      40     963     960     969      39
     960     969     972      41     957     960     963      64     957     960
     966      64    1137    1134    1140       3    1134    1140    1143       5
    1131    1128    1134       6    1131    1128    1146       7    1128    1134
    1137       6    1116    1113    1119      13    1110    1113    1116      16
    1110    1113    1119      16    1107    1104    1110      48    1098    1104
    1107      53    1089    1086    1092      58    1083    1086    1089      61
    1080    1077    1083      31    1080    1077    1134      32    1077    1134
    1137       6    1074    1077    1080      36    1071    1068    1074       7
    1071    1068    1128       6    1068    1128    1131       6    1065    1059
    1068      39    1062    1059    1065      40    1062    1059    1068      39
    1059    1068    1071      41    1056    1059    1062      64    1056    1059
    1065      64    1230    1227    1233       3    1227    1233    1236       5
    1224    1221    1227       6    1224    1221    1239       7    1221    1227
    1230       6    1206    1203    1209      13    1200    1203    1206      16
    1200    1203    1209      16    1197    1194    1200      70    1191    1188
    1194      73    1188    1194    1197      75    1185    1188    1191      77
    1182    1179    1185      31    1182    1179    1227      32    1179    1227
    1230       6    1176    1179    1182      36    1173    1170    1176       7
    1173    1170    1221       6    1170    1221    1224       6    1167    1161
    1170      39    1164    1161    1167      40    1164    1161    1170      39
    1161    1170    1173      41    1158    1161    1164      64    1158    1161
    1167      64    1332    1329    1335       3    1329    1335    1338       5
    1326    1323    1329       6    1326    1323    1341       7    1323    1329
    1332       6    1311    1308    1314      13    1305    1308    1311      16
    1305    1308    1314      16    1302    1299    1305      48    1293    1299
    1302      53    1284    1281    1287      58    1278    1281    1284      61
    1275    1272    1278      31    1275    1272    1329      32    1272    1329
    1332       6    1269    1272    1275      36    1266    1263    1269       7
    1266    1263    1323       6    1263    1323    1326       6    1260    1254
    1263      39    1257    1254    1260      40    1257    1254    1263      39
    1254    1263    1266      41    1251    1254    1257      64    1251    1254
    1260      64    1425    1422    1428       3    1422    1428    1431       5
    1419    1416    1422       6    1419    1416    1434       7    1416    1422
    1425       6    1401    1398    1404      13    1395    1398    1401      16
    1395    1398    1404      16    1392    1389    1395      70    1386    1383
    1389      73    1383    1389    1392      75    1380    1383    1386      77
    1377    1374    1380      31    1377    1374    1422      32    1374    1422
    1425       6    1371    1374    1377      36    1368    1365    1371       7
    1368    1365    1416       6    1365    1416    1419       6    1362    1356
    1365      39    1359    1356    1362      40    1359    1356    1365      39
    1356    1365    1368      41    1353    1356    1359      64    1353    1356
    1362      64    1515    1512    1518       3    1512    1518    1521       5
    1509    1506    1512       6    1509    1506    1524       3    1506    1512
    1515       6    1506    1524    1527       5    1497    1494    1500      53
    1488    1494    1497      53    1485    1482    1488      84    1479    1476
    1482      87    1476    1482    1485      89    1473    1476    1479      91
    1470    1467    1473      31    1470    1467    1512      32    1467    1512
    1515       6    1464    1467    1470      36    1461    1458    1464       7
    1461    1458    1506       6    1458    1506    1509       6    1455    1449
    1458      39    1452    1449    1455      40    1452    1449    1458      39
    1449    1458    1461      41    1446    1449    1452      64    1446    1449
    1455      64
%FLAG ANGLES_WITHOUT_HYDROGEN                                                   
%FORMAT(10I8)                                                                   
      90      93      96       1      90      93      99       1      90      93
     102       2      78      72      90       4      72      78      84       8
      72      90      93       9      60      66      69      11      57      60
      66      12      48      45      57      14      45      42      69      15
      45      57      60      17      42      45      48      18      42      45
      57      19      42      69      66      20      39      42      45      21
      39      42      69      22      33      30      69      24      33      39
      42      25      30      24      78      26      30      33      39      28
      30      69      42      29      30      69      66      30      24      30
      33      33      24      30      69      34      24      78      72      35
      24      78      84       8      21      15      72       4      21      24
      30      37      21      24      78       4      15      21      24      38
      15      72      78      35      15      72      90       4       6      15
      21      42       6      15      72      43       3       6      15      45
     192     195     198       1     192     195     201       1     192     195
     204       2     180     174     192       4     174     180     186       8
     174     192     195       9     159     156     168      14     156     168
     171      47     150     156     159      49     150     156     168      50
     147     144     150      51     144     141     171      52     144     150
     156      54     141     144     147      55     141     144     150      56
     141     171     168      20     138     141     144      57     138     141
     171      22     132     129     171      59     132     138     141      60
     129     123     180      26     129     132     138      62     129     171
     141      29     129     171     168      30     123     129     132      63
     123     129     171      34     123     180     174      35     123     180
     186       8     120     114     174       4     120     123     129      37
     120     123     180       4     114     120     123      38     114     174
     180      35     114     174     192       4     105     114     120      42
     105     114     174      43     102     105     114      65      99      93
     102       1      96      93      99      66      96      93     102       1
      93     102     105      67     285     288     291       1     285     288
     294       1     285     288     297       2     273     267     285       4
     267     273     279       8     267     285     288       9     258     261
     264      68     249     246     258      14     246     258     261      69
     240     246     249      71     240     246     258      72     234     231
     261      74     234     240     246      76     231     225     273      26
     231     234     240      78     231     261     258      79     231     261
     264      80     225     231     234      81     225     231     261      82
     225     273     267      35     225     273     279       8     222     216
     267       4     222     225     231      37     222     225     273       4
     216     222     225      38     216     267     273      35     216     267
     285       4     207     216     222      42     207     216     267      43
     204     207     216      65     201     195     204       1     198     195
     201      66     198     195     204       1     195     204     207      67
     387     390     393       1     387     390     396       1     387     390
     399       2     375     369     387       4     369     375     381       8
     369     387     390       9     354     351     363      14     351     363
     366      47     345     351     354      49     345     351     363      50
     342     339     345      51     339     336     366      52     339     345
     351      54     336     339     342      55     336     339     345      56
     336     366     363      20     333     336     339      57     333     336
     366      22     327     324     366      59     327     333     336      60
     324     318     375      26     324     327     333      62     324     366
     336      29     324     366     363      30     318     324     327      63
     318     324     366      34     318     375     369      35     318     375
     381       8     315     309     369       4     315     318     324      37
     315     318     375       4     309     315     318      38     309     369
     375      35     309     369     387       4     300     309     315      42
     300     309     369      43     297     300     309      65     294     288
     297       1     291     288     294      66     291     288     297       1
     288     297     300      67     480     483     486       1     480     483
     489       1     480     483     492       2     468     462     480       4
     462     468     474       8     462     480     483       9     453     456
     459      68     444     441     453      14     441     453     456      69
     435     441     444      71     435     441     453      72     429     426
     456      74     429     435     441      76     426     420     468      26
     426     429     435      78     426     456     453      79     426     456
     459      80     420     426     429      81     420     426     456      82
     420     468     462      35     420     468     474       8     417     411
     462       4     417     420     426      37     417     420     468       4
     411     417     420      38     411     462     468      35     411     462
     480       4     402     411     417      42     402     411     462      43
     399     402     411      65     396     390     399       1     393     390
     396      66     393     390     399       1     390     399     402      67
     570     573     576       1     570     573     579       1     570     573
     582       2     558     552     570       4     552     558     564       8
     552     570     573       9     540     546     549      51     537     534
     540      51     534     540     546      83     528     534     537      85
     528     534     540      86     522     519     546      88     522     528
     534      90     519     513     558      26     519     522     528      92
     519     546     540      93     519     546     549      80     513     519
     522      94     513     519     546      82     513     558     552      35
     513     558     564       8     510     504     552       4     510     513
     519      37     510     513     558       4     504     510     513      38
     504     552     558      35     504     552     570       4     495     504
     510      42     495     504     552      43     492     495     504      65
     489     483     492       1     486     483     489      66     486     483
     492       1     483     492     495      67     660     663     666       1
     660     663     669       1     660     663     672       2     648     642
     660       4     642     648     654       8     642     660     663       9
     630     636     639      51     627     624     630      51     624     630
     636      83     618     624     627      85     618     624     630      86
     612     609     636      88     612     618     624      90     609     603
     648      26     609     612     618      92     609     636     630      93
     609     636     639      80     603     609     612      94     603     609
     636      82     603     648     642      35     603     648     654       8
     600     594     642       4     600     603     609      37     600     603
     648       4     594     600     603      38     594     642     648      35
     594     642     660       4     585     594     600      42     585     594
     642      43     582     585     594      65     579     573     582       1
     576     573     579      66     576     573     582       1     573     582
     585      67     750     753     756       1     750     753     759       1
     750     753     762       2     738     732     750       4     732     738
     744       8     732     750     753       9     720     726     729      51
     717     714     720      51     714     720     726      83     708     714
     717      85     708     714     720      86     702     699     726      88
     702     708     714      90     699     693     738      26     699     702
     708      92     699     726     720      93     699     726     729      80
     693     699     702      94     693     699     726      82     693     738
     732      35     693     738     744       8     690     684     732       4
     690     693     699      37     690     693     738       4     684     690
     693      38     684     732     738      35     684     732     750       4
     675     684     690      42     675     684     732      43     672     675
     684      65     669     663     672       1     666     663     669      66
     666     663     672       1     663     672     675      67     843     846
     849       1     843     846     852       1     843     846     855       2
     831     825     843       4     825     831     837       8     825     843
     846       9     816     819     822      68     807     804     816      14
     804     816     819      69     798     804     807      71     798     804
     816      72     792     789     819      74     792     798     804      76
     789     783     831      26     789     792     798      78     789     819
     816      79     789     819     822      80     783     789     792      81
     783     789     819      82     783     831     825      35     783     831
     837       8     780     774     825       4     780     783     789      37
     780     783     831       4     774     780     783      38     774     825
     831      35     774     825     843       4     765     774     780      42
     765     774     825      43     762     765     774      65     759     753
     762       1     756     753     759      66     756     753     762       1
     753     762     765      67     945     948     951       1     945     948
     954       1     945     948     957       2     933     927     945       4
     927     933     939       8     927     945     948       9     912     909
     921      14     909     921     924      47     903     909     912      49
     903     909     921      50     900     897     903      51     897     894
     924      52     897     903     909      54     894     897     900      55
     894     897     903      56     894     924     921      20     891     894
     897      57     891     894     924      22     885     882     924      59
     885     891     894      60     882     876     933      26     882     885
     891      62     882     924     894      29     882     924     921      30
     876     882     885      63     876     882     924      34     876     933
     927      35     876     933     939       8     873     867     927       4
     873     876     882      37     873     876     933       4     867     873
     876      38     867     927     933      35     867     927     945       4
     858     867     873      42     858     867     927      43     855     858
     867      65     852     846     855       1     849     846     852      66
     849     846     855       1     846     855     858      67    1044    1047
    1050       1    1044    1047    1053       1    1044    1047    1056       2
    1032    1026    1044       4    1026    1032    1038       8    1026    1044
    1047       9    1014    1020    1023      11    1011    1014    1020      12
    1002     999    1011      14     999     996    1023      15     999    1011
    1014      17     996     999    1002      18     996     999    1011      19
     996    1023    1020      20     993     996     999      21     993     996
    1023      22     987     984    1023      24     987     993     996      25
     984     978    1032      26     984     987     993      28     984    1023
     996      29     984    1023    1020      30     978     984     987      33
     978     984    1023      34     978    1032    1026      35     978    1032
    1038       8     975     969    1026       4     975     978     984      37
     975     978    1032       4     969     975     978      38     969    1026
    1032      35     969    1026    1044       4     960     969     975      42
     960     969    1026      43     957     960     969      65     954     948
     957       1     951     948     954      66     951     948     957       1
     948     957     960      67    1146    1149    1152       1    1146    1149
    1155       1    1146    1149    1158       2    1134    1128    1146       4
    1128    1134    1140       8    1128    1146    1149       9    1113    1110
    1122      14    1110    1122    1125      47    1104    1110    1113      49
    1104    1110    1122      50    1101    1098    1104      51    1098    1095
    1125      52    1098    1104    1110      54    1095    1098    1101      55
    1095    1098    1104      56    1095    1125    1122      20    1092    1095
    1098      57    1092    1095    1125      22    1086    1083    1125      59
    1086    1092    1095      60    1083    1077    1134      26    1083    1086
    1092      62    1083    1125    1095      29    1083    1125    1122      30
    1077    1083    1086      63    1077    1083    1125      34    1077    1134
    1128      35    1077    1134    1140       8    1074    1068    1128       4
    1074    1077    1083      37    1074    1077    1134       4    1068    1074
    1077      38    1068    1128    1134      35    1068    1128    1146       4
    1059    1068    1074      42    1059    1068    1128      43    1056    1059
    1068      65    1053    1047    1056       1    1050    1047    1053      66
    1050    1047    1056       1    1047    1056    1059      67    1239    1242
    1245       1    1239    1242    1248       1    1239    1242    1251       2
    1227    1221    1239       4    1221    1227    1233       8    1221    1239
    1242       9    1212    1215    1218      68    1203    1200    1212      14
    1200    1212    1215      69    1194    1200    1203      71    1194    1200
    1212      72    1188    1185    1215      74    1188    1194    1200      76
    1185    1179    1227      26    1185    1188    1194      78    1185    1215
    1212      79    1185    1215    1218      80    1179    1185    1188      81
    1179    1185    1215      82    1179    1227    1221      35    1179    1227
    1233       8    1176    1170    1221       4    1176    1179    1185      37
    1176    1179    1227       4    1170    1176    1179      38    1170    1221
    1227      35    1170    1221    1239       4    1161    1170    1176      42
    1161    1170    1221      43    1158    1161    1170      65    1155    1149
    1158       1    1152    1149    1155      66    1152    1149    1158       1
    1149    1158    1161      67    1341    1344    1347       1    1341    1344
    1350       1    1341    1344    1353       2    1329    1323    1341       4
    1323    1329    1335       8    1323    1341    1344       9    1308    1305
    1317      14    1305    1317    1320      47    1299    1305    1308      49
    1299    1305    1317      50    1296    1293    1299      51    1293    1290
    1320      52    1293    1299    1305      54    1290    1293    1296      55
    1290    1293    1299      56    1290    1320    1317      20    1287    1290
    1293      57    1287    1290    1320      22    1281    1278    1320      59
    1281    1287    1290      60    1278    1272    1329      26    1278    1281
    1287      62    1278    1320    1290      29    1278    1320    1317      30
    1272    1278    1281      63    1272    1278    1320      34    1272    1329
    1323      35    1272    1329    1335       8    1269    1263    1323       4
    1269    1272    1278      37    1269    1272    1329       4    1263    1269
    1272      38    1263    1323    1329      35    1263    1323    1341       4
    1254    1263    1269      42    1254    1263    1323      43    1251    1254
    1263      65    1248    1242    1251       1    1245    1242    1248      66
    1245    1242    1251       1    1242    1251    1254      67    1434    1437
    1440       1    1434    1437    1443       1    1434    1437    1446       2
    1422    1416    1434       4    1416    1422    1428       8    1416    1434
    1437       9    1407    1410    1413      68    1398    1395    1407      14
    1395    1407    1410      69    1389    1395    1398      71    1389    1395
    1407      72    1383    1380    1410      74    1383    1389    1395      76
    1380    1374    1422      26    1380    1383    1389      78    1380    1410
    1407      79    1380    1410    1413      80    1374    1380    1383      81
    1374    1380    1410      82    1374    1422    1416      35    1374    1422
    1428       8    1371    1365    1416       4    1371    1374    1380      37
    1371    1374    1422       4    1365    1371    1374      38    1365    1416
    1422      35    1365    1416    1434       4    1356    1365    1371      42
    1356    1365    1416      43    1353    1356    1365      65    1350    1344
    1353       1    1347    1344    1350      66    1347    1344    1353       1
    1344    1353    1356      67    1512    1506    1524       8    1506    1512
    1518       8    1494    1500    1503      51    1491    1488    1494      51
    1488    1494    1500      83    1482    1488    1491      85    1482    1488
    1494      86    1476    1473    1500      88    1476    1482    1488      90
    1473    1467    1512      26    1473    1476    1482      92    1473    1500
    1494      93    1473    1500    1503      80    1467    1473    1476      94
    1467    1473    1500      82    1467    1512    1506      35    1467    1512
    1518       8    1464    1458    1506       4    1464    1467    1473      37
    1464    1467    1512       4    1458    1464    1467      38    1458    1506
    1512      35    1458    1506    1524       8    1449    1458    1464      42
    1449    1458    1506      43    1446    1449    1458      65    1443    1437
    1446       1    1440    1437    1443      66    1440    1437    1446       1
    1437    1446    1449      67
%FLAG DIHEDRALS_INC_HYDROGEN                                                    
%FORMAT(10I8)                                                                   
      81      78      72      90       6      81      78     -72      90       7
      81      78      84      87       8      75      72      78      81      10
      75      72      78      84       6      75      72     -78      84       7
      75      72      90      93       9      72      78      84      87       6
      72      78     -84      87      11      63      60      66      69      15
      54      48      45      57      17      51      48      45      57      17
      45      57      60      63      15      42      45      48      51      17
      42      45      48      54      17      36      33      30      69      21
      36      33      39      42      22      30      24      78      81      10
      27      24      30      33      14      27      24      30      69      14
      27      24      78      72      10      27      24      78      81      10
      27      24      78      84      10      24      30      33      36      21
      24      78      72      75      10      24      78      84      87       6
      24      78     -84      87      11      21      15      72      75       6
      21      15     -72      75       7      21      24      78      81       6
      21      24     -78      81       7      18      15      21      24       9
      18      15      72      75      10      18      15      72      78      10
      18      15      72      90       6      18      15     -72      90       7
      15      21      24      27       9      15      72      78      81      10
      12       6      15      18      10      12       6      15      21       6
      12       6     -15      21       7      12       6      15      72      10
       9       6      15      18      10       9       6      15      21       6
       9       6     -15      21       7       9       6      15      72      10
       6      15      72      75      10       3       6      15      18       6
       3       6     -15      18       7       0       3       6       9       8
       0       3       6      12       8       0       3       6      15       8
     183     180     174     192       6     183     180    -174     192       7
     183     180     186     189       8     177     174     180     183      10
     177     174     180     186       6     177     174    -180     186       7
     177     174     192     195       9     174     180     186     189       6
     174     180    -186     189      11     165     159     156     168      17
     162     159     156     168      17     153     150     156     159      37
     153     150     156     168      37     150     156     159     162      17
     150     156     159     165      17     147     144     150     153      39
     141     144     150     153      39     135     132     129     171      21
     135     132     138     141      22     129     123     180     183      10
     126     123     129     132      14     126     123     129     171      14
     126     123     180     174      10     126     123     180     183      10
     126     123     180     186      10     123     129     132     135      21
     123     180     174     177      10     123     180     186     189       6
     123     180    -186     189      11     120     114     174     177       6
     120     114    -174     177       7     120     123     180     183       6
     120     123    -180     183       7     117     114     120     123       9
     117     114     174     177      10     117     114     174     180      10
     117     114     174     192       6     117     114    -174     192       7
     114     120     123     126       9     114     174     180     183      10
     111     105     114     117      10     111     105     114     120       6
     111     105    -114     120       7     111     105     114     174      10
     108     105     114     117      10     108     105     114     120       6
     108     105    -114     120       7     108     105     114     174      10
     105     114     174     177      10     102     105     114     117       6
     102     105    -114     117       7      93     102     105     108       9
      93     102     105     111       9     276     273     267     285       6
     276     273    -267     285       7     276     273     279     282       8
     270     267     273     276      10     270     267     273     279       6
     270     267    -273     279       7     270     267     285     288       9
     267     273     279     282       6     267     273    -279     282      11
     255     249     246     258      17     252     249     246     258      17
     243     240     246     249      24     243     240     246     258      24
     240     246     249     252      17     240     246     249     255      17
     237     234     231     261      44     237     234     240     243      45
     237     234     240     246      45     231     225     273     276      10
     231     234     240     243      45     228     225     231     234      14
     228     225     231     261      14     228     225     273     267      10
     228     225     273     276      10     228     225     273     279      10
     225     231     234     237      44     225     273     267     270      10
     225     273     279     282       6     225     273    -279     282      11
     222     216     267     270       6     222     216    -267     270       7
     222     225     273     276       6     222     225    -273     276       7
     219     216     222     225       9     219     216     267     270      10
     219     216     267     273      10     219     216     267     285       6
     219     216    -267     285       7     216     222     225     228       9
     216     267     273     276      10     213     207     216     219      10
     213     207     216     222       6     213     207    -216     222       7
     213     207     216     267      10     210     207     216     219      10
     210     207     216     222       6     210     207    -216     222       7
     210     207     216     267      10     207     216     267     270      10
     204     207     216     219       6     204     207    -216     219       7
     195     204     207     210       9     195     204     207     213       9
     378     375     369     387       6     378     375    -369     387       7
     378     375     381     384       8     372     369     375     378      10
     372     369     375     381       6     372     369    -375     381       7
     372     369     387     390       9     369     375     381     384       6
     369     375    -381     384      11     360     354     351     363      17
     357     354     351     363      17     348     345     351     354      37
     348     345     351     363      37     345     351     354     357      17
     345     351     354     360      17     342     339     345     348      39
     336     339     345     348      39     330     327     324     366      21
     330     327     333     336      22     324     318     375     378      10
     321     318     324     327      14     321     318     324     366      14
     321     318     375     369      10     321     318     375     378      10
     321     318     375     381      10     318     324     327     330      21
     318     375     369     372      10     318     375     381     384       6
     318     375    -381     384      11     315     309     369     372       6
     315     309    -369     372       7     315     318     375     378       6
     315     318    -375     378       7     312     309     315     318       9
     312     309     369     372      10     312     309     369     375      10
     312     309     369     387       6     312     309    -369     387       7
     309     315     318     321       9     309     369     375     378      10
     306     300     309     312      10     306     300     309     315       6
     306     300    -309     315       7     306     300     309     369      10
     303     300     309     312      10     303     300     309     315       6
     303     300    -309     315       7     303     300     309     369      10
     300     309     369     372      10     297     300     309     312       6
     297     300    -309     312       7     288     297     300     303       9
     288     297     300     306       9     471     468     462     480       6
     471     468    -462     480       7     471     468     474     477       8
     465     462     468     471      10     465     462     468     474       6
     465     462    -468     474       7     465     462     480     483       9
     462     468     474     477       6     462     468    -474     477      11
     450     444     441     453      17     447     444     441     453      17
     438     435     441     444      24     438     435     441     453      24
     435     441     444     447      17     435     441     444     450      17
     432     429     426     456      44     432     429     435     438      45
     432     429     435     441      45     426     420     468     471      10
     426     429     435     438      45     423     420     426     429      14
     423     420     426     456      14     423     420     468     462      10
     423     420     468     471      10     423     420     468     474      10
     420     426     429     432      44     420     468     462     465      10
     420     468     474     477       6     420     468    -474     477      11
     417     411     462     465       6     417     411    -462     465       7
     417     420     468     471       6     417     420    -468     471       7
     414     411     417     420       9     414     411     462     465      10
     414     411     462     468      10     414     411     462     480       6
     414     411    -462     480       7     411     417     420     423       9
     411     462     468     471      10     408     402     411     414      10
     408     402     411     417       6     408     402    -411     417       7
     408     402     411     462      10     405     402     411     414      10
     405     402     411     417       6     405     402    -411     417       7
     405     402     411     462      10     402     411     462     465      10
     399     402     411     414       6     399     402    -411     414       7
     390     399     402     405       9     390     399     402     408       9
     561     558     552     570       6     561     558    -552     570       7
     561     558     564     567       8     555     552     558     561      10
     555     552     558     564       6     555     552    -558     564       7
     555     552     570     573       9     552     558     564     567       6
     552     558    -564     567      11     543     540     546     549      39
     537     534     540     543      39     531     528     534     537      50
     531     528     534     540      50     528     534     540     543      39
     525     522     519     546      44     525     522     528     531      45
     525     522     528     534      45     519     513     558     561      10
     519     522     528     531      45     519     546     540     543      39
     516     513     519     522      14     516     513     519     546      14
     516     513     558     552      10     516     513     558     561      10
     516     513     558     564      10     513     519     522     525      44
     513     558     552     555      10     513     558     564     567       6
     513     558    -564     567      11     510     504     552     555       6
     510     504    -552     555       7     510     513     558     561       6
     510     513    -558     561       7     507     504     510     513       9
     507     504     552     555      10     507     504     552     558      10
     507     504     552     570       6     507     504    -552     570       7
     504     510     513     516       9     504     552     558     561      10
     501     495     504     507      10     501     495     504     510       6
     501     495    -504     510       7     501     495     504     552      10
     498     495     504     507      10     498     495     504     510       6
     498     495    -504     510       7     498     495     504     552      10
     495     504     552     555      10     492     495     504     507       6
     492     495    -504     507       7     483     492     495     498       9
     483     492     495     501       9     651     648     642     660       6
     651     648    -642     660       7     651     648     654     657       8
     645     642     648     651      10     645     642     648     654       6
     645     642    -648     654       7     645     642     660     663       9
     642     648     654     657       6     642     648    -654     657      11
     633     630     636     639      39     627     624     630     633      39
     621     618     624     627      50     621     618     624     630      50
     618     624     630     633      39     615     612     609     636      44
     615     612     618     621      45     615     612     618     624      45
     609     603     648     651      10     609     612     618     621      45
     609     636     630     633      39     606     603     609     612      14
     606     603     609     636      14     606     603     648     642      10
     606     603     648     651      10     606     603     648     654      10
     603     609     612     615      44     603     648     642     645      10
     603     648     654     657       6     603     648    -654     657      11
     600     594     642     645       6     600     594    -642     645       7
     600     603     648     651       6     600     603    -648     651       7
     597     594     600     603       9     597     594     642     645      10
     597     594     642     648      10     597     594     642     660       6
     597     594    -642     660       7     594     600     603     606       9
     594     642     648     651      10     591     585     594     597      10
     591     585     594     600       6     591     585    -594     600       7
     591     585     594     642      10     588     585     594     597      10
     588     585     594     600       6     588     585    -594     600       7
     588     585     594     642      10     585     594     642     645      10
     582     585     594     597       6     582     585    -594     597       7
     573     582     585     588       9     573     582     585     591       9
     741     738     732     750       6     741     738    -732     750       7
     741     738     744     747       8     735     732     738     741      10
     735     732     738     744       6     735     732    -738     744       7
     735     732     750     753       9     732     738     744     747       6
     732     738    -744     747      11     723     720     726     729      39
     717     714     720     723      39     711     708     714     717      50
     711     708     714     720      50     708     714     720     723      39
     705     702     699     726      44     705     702     708     711      45
     705     702     708     714      45     699     693     738     741      10
     699     702     708     711      45     699     726     720     723      39
     696     693     699     702      14     696     693     699     726      14
     696     693     738     732      10     696     693     738     741      10
     696     693     738     744      10     693     699     702     705      44
     693     738     732     735      10     693     738     744     747       6
     693     738    -744     747      11     690     684     732     735       6
     690     684    -732     735       7     690     693     738     741       6
     690     693    -738     741       7     687     684     690     693       9
     687     684     732     735      10     687     684     732     738      10
     687     684     732     750       6     687     684    -732     750       7
     684     690     693     696       9     684     732     738     741      10
     681     675     684     687      10     681     675     684     690       6
     681     675    -684     690       7     681     675     684     732      10
     678     675     684     687      10     678     675     684     690       6
     678     675    -684     690       7     678     675     684     732      10
     675     684     732     735      10     672     675     684     687       6
     672     675    -684     687       7     663     672     675     678       9
     663     672     675     681       9     834     831     825     843       6
     834     831    -825     843       7     834     831     837     840       8
     828     825     831     834      10     828     825     831     837       6
     828     825    -831     837       7     828     825     843     846       9
     825     831     837     840       6     825     831    -837     840      11
     813     807     804     816      17     810     807     804     816      17
     801     798     804     807      24     801     798     804     816      24
     798     804     807     810      17     798     804     807     813      17
     795     792     789     819      44     795     792     798     801      45
     795     792     798     804      45     789     783     831     834      10
     789     792     798     801      45     786     783     789     792      14
     786     783     789     819      14     786     783     831     825      10
     786     783     831     834      10     786     783     831     837      10
     783     789     792     795      44     783     831     825     828      10
     783     831     837     840       6     783     831    -837     840      11
     780     774     825     828       6     780     774    -825     828       7
     780     783     831     834       6     780     783    -831     834       7
     777     774     780     783       9     777     774     825     828      10
     777     774     825     831      10     777     774     825     843       6
     777     774    -825     843       7     774     780     783     786       9
     774     825     831     834      10     771     765     774     777      10
     771     765     774     780       6     771     765    -774     780       7
     771     765     774     825      10     768     765     774     777      10
     768     765     774     780       6     768     765    -774     780       7
     768     765     774     825      10     765     774     825     828      10
     762     765     774     777       6     762     765    -774     777       7
     753     762     765     768       9     753     762     765     771       9
     936     933     927     945       6     936     933    -927     945       7
     936     933     939     942       8     930     927     933     936      10
     930     927     933     939       6     930     927    -933     939       7
     930     927     945     948       9     927     933     939     942       6
     927     933    -939     942      11     918     912     909     921      17
     915     912     909     921      17     906     903     909     912      37
     906     903     909     921      37     903     909     912     915      17
     903     909     912     918      17     900     897     903     906      39
     894     897     903     906      39     888     885     882     924      21
     888     885     891     894      22     882     876     933     936      10
     879     876     882     885      14     879     876     882     924      14
     879     876     933     927      10     879     876     933     936      10
     879     876     933     939      10     876     882     885     888      21
     876     933     927     930      10     876     933     939     942       6
     876     933    -939     942      11     873     867     927     930       6
     873     867    -927     930       7     873     876     933     936       6
     873     876    -933     936       7     870     867     873     876       9
     870     867     927     930      10     870     867     927     933      10
     870     867     927     945       6     870     867    -927     945       7
     867     873     876     879       9     867     927     933     936      10
     864     858     867     870      10     864     858     867     873       6
     864     858    -867     873       7     864     858     867     927      10
     861     858     867     870      10     861     858     867     873       6
     861     858    -867     873       7     861     858     867     927      10
     858     867     927     930      10     855     858     867     870       6
     855     858    -867     870       7     846     855     858     861       9
     846     855     858     864       9    1035    1032    1026    1044       6
    1035    1032   -1026    1044       7    1035    1032    1038    1041       8
    1029    1026    1032    1035      10    1029    1026    1032    1038       6
    1029    1026   -1032    1038       7    1029    1026    1044    1047       9
    1026    1032    1038    1041       6    1026    1032   -1038    1041      11
    1017    1014    1020    1023      15    1008    1002     999    1011      17
    1005    1002     999    1011      17     999    1011    1014    1017      15
     996     999    1002    1005      17     996     999    1002    1008      17
     990     987     984    1023      21     990     987     993     996      22
     984     978    1032    1035      10     981     978     984     987      14
     981     978     984    1023      14     981     978    1032    1026      10
     981     978    1032    1035      10     981     978    1032    1038      10
     978     984     987     990      21     978    1032    1026    1029      10
     978    1032    1038    1041       6     978    1032   -1038    1041      11
     975     969    1026    1029       6     975     969   -1026    1029       7
     975     978    1032    1035       6     975     978   -1032    1035       7
     972     969     975     978       9     972     969    1026    1029      10
     972     969    1026    1032      10     972     969    1026    1044       6
     972     969   -1026    1044       7     969     975     978     981       9
     969    1026    1032    1035      10     966     960     969     972      10
     966     960     969     975       6     966     960    -969     975       7
     966     960     969    1026      10     963     960     969     972      10
     963     960     969     975       6     963     960    -969     975       7
     963     960     969    1026      10     960     969    1026    1029      10
     957     960     969     972       6     957     960    -969     972       7
     948     957     960     963       9     948     957     960     966       9
    1137    1134    1128    1146       6    1137    1134   -1128    1146       7
    1137    1134    1140    1143       8    1131    1128    1134    1137      10
    1131    1128    1134    1140       6    1131    1128   -1134    1140       7
    1131    1128    1146    1149       9    1128    1134    1140    1143       6
    1128    1134   -1140    1143      11    1119    1113    1110    1122      17
    1116    1113    1110    1122      17    1107    1104    1110    1113      37
    1107    1104    1110    1122      37    1104    1110    1113    1116      17
    1104    1110    1113    1119      17    1101    1098    1104    1107      39
    1095    1098    1104    1107      39    1089    1086    1083    1125      21
    1089    1086    1092    1095      22    1083    1077    1134    1137      10
    1080    1077    1083    1086      14    1080    1077    1083    1125      14
    1080    1077    1134    1128      10    1080    1077    1134    1137      10
    1080    1077    1134    1140      10    1077    1083    1086    1089      21
    1077    1134    1128    1131      10    1077    1134    1140    1143       6
    1077    1134   -1140    1143      11    1074    1068    1128    1131       6
    1074    1068   -1128    1131       7    1074    1077    1134    1137       6
    1074    1077   -1134    1137       7    1071    1068    1074    1077       9
    1071    1068    1128    1131      10    1071    1068    1128    1134      10
    1071    1068    1128    1146       6    1071    1068   -1128    1146       7
    1068    1074    1077    1080       9    1068    1128    1134    1137      10
    1065    1059    1068    1071      10    1065    1059    1068    1074       6
    1065    1059   -1068    1074       7    1065    1059    1068    1128      10
    1062    1059    1068    1071      10    1062    1059    1068    1074       6
    1062    1059   -1068    1074       7    1062    1059    1068    1128      10
    1059    1068    1128    1131      10    1056    1059    1068    1071       6
    1056    1059   -1068    1071       7    1047    1056    1059    1062       9
    1047    1056    1059    1065       9    1230    1227    1221    1239       6
    1230    1227   -1221    1239       7    1230    1227    1233    1236       8
    1224    1221    1227    1230      10    1224    1221    1227    1233       6
    1224    1221   -1227    1233       7    1224    1221    1239    1242       9
    1221    1227    1233    1236       6    1221    1227   -1233    1236      11
    1209    1203    1200    1212      17    1206    1203    1200    1212      17
    1197    1194    1200    1203      24    1197    1194    1200    1212      24
    1194    1200    1203    1206      17    1194    1200    1203    1209      17
    1191    1188    1185    1215      44    1191    1188    1194    1197      45
    1191    1188    1194    1200      45    1185    1179    1227    1230      10
    1185    1188    1194    1197      45    1182    1179    1185    1188      14
    1182    1179    1185    1215      14    1182    1179    1227    1221      10
    1182    1179    1227    1230      10    1182    1179    1227    1233      10
    1179    1185    1188    1191      44    1179    1227    1221    1224      10
    1179    1227    1233    1236       6    1179    1227   -1233    1236      11
    1176    1170    1221    1224       6    1176    1170   -1221    1224       7
    1176    1179    1227    1230       6    1176    1179   -1227    1230       7
    1173    1170    1176    1179       9    1173    1170    1221    1224      10
    1173    1170    1221    1227      10    1173    1170    1221    1239       6
    1173    1170   -1221    1239       7    1170    1176    1179    1182       9
    1170    1221    1227    1230      10    1167    1161    1170    1173      10
    1167    1161    1170    1176       6    1167    1161   -1170    1176       7
    1167    1161    1170    1221      10    1164    1161    1170    1173      10
    1164    1161    1170    1176       6    1164    1161   -1170    1176       7
    1164    1161    1170    1221      10    1161    1170    1221    1224      10
    1158    1161    1170    1173       6    1158    1161   -1170    1173       7
    1149    1158    1161    1164       9    1149    1158    1161    1167       9
    1332    1329    1323    1341       6    1332    1329   -1323    1341       7
    1332    1329    1335    1338       8    1326    1323    1329    1332      10
    1326    1323    1329    1335       6    1326    1323   -1329    1335       7
    1326    1323    1341    1344       9    1323    1329    1335    1338       6
    1323    1329   -1335    1338      11    1314    1308    1305    1317      17
    1311    1308    1305    1317      17    1302    1299    1305    1308      37
    1302    1299    1305    1317      37    1299    1305    1308    1311      17
    1299    1305    1308    1314      17    1296    1293    1299    1302      39
    1290    1293    1299    1302      39    1284    1281    1278    1320      21
    1284    1281    1287    1290      22    1278    1272    1329    1332      10
    1275    1272    1278    1281      14    1275    1272    1278    1320      14
    1275    1272    1329    1323      10    1275    1272    1329    1332      10
    1275    1272    1329    1335      10    1272    1278    1281    1284      21
    1272    1329    1323    1326      10    1272    1329    1335    1338       6
    1272    1329   -1335    1338      11    1269    1263    1323    1326       6
    1269    1263   -1323    1326       7    1269    1272    1329    1332       6
    1269    1272   -1329    1332       7    1266    1263    1269    1272       9
    1266    1263    1323    1326      10    1266    1263    1323    1329      10
    1266    1263    1323    1341       6    1266    1263   -1323    1341       7
    1263    1269    1272    1275       9    1263    1323    1329    1332      10
    1260    1254    1263    1266      10    1260    1254    1263    1269       6
    1260    1254   -1263    1269       7    1260    1254    1263    1323      10
    1257    1254    1263    1266      10    1257    1254    1263    1269       6
    1257    1254   -1263    1269       7    1257    1254    1263    1323      10
    1254    1263    1323    1326      10    1251    1254    1263    1266       6
    1251    1254   -1263    1266       7    1242    1251    1254    1257       9
    1242    1251    1254    1260       9    1425    1422    1416    1434       6
    1425    1422   -1416    1434       7    1425    1422    1428    1431       8
    1419    1416    1422    1425      10    1419    1416    1422    1428       6
    1419    1416   -1422    1428       7    1419    1416    1434    1437       9
    1416    1422    1428    1431       6    1416    1422   -1428    1431      11
    1404    1398    1395    1407      17    1401    1398    1395    1407      17
    1392    1389    1395    1398      24    1392    1389    1395    1407      24
    1389    1395    1398    1401      17    1389    1395    1398    1404      17
    1386    1383    1380    1410      44    1386    1383    1389    1392      45
    1386    1383    1389    1395      45    1380    1374    1422    1425      10
    1380    1383    1389    1392      45    1377    1374    1380    1383      14
    1377    1374    1380    1410      14    1377    1374    1422    1416      10
    1377    1374    1422    1425      10    1377    1374    1422    1428      10
    1374    1380    1383    1386      44    1374    1422    1416    1419      10
    1374    1422    1428    1431       6    1374    1422   -1428    1431      11
    1371    1365    1416    1419       6    1371    1365   -1416    1419       7
    1371    1374    1422    1425       6    1371    1374   -1422    1425       7
    1368    1365    1371    1374       9    1368    1365    1416    1419      10
    1368    1365    1416    1422      10    1368    1365    1416    1434       6
    1368    1365   -1416    1434       7    1365    1371    1374    1377       9
    1365    1416    1422    1425      10    1362    1356    1365    1368      10
    1362    1356    1365    1371       6    1362    1356   -1365    1371       7
    1362    1356    1365    1416      10    1359    1356    1365    1368      10
    1359    1356    1365    1371       6    1359    1356   -1365    1371       7
    1359    1356    1365    1416      10    1356    1365    1416    1419      10
    1353    1356    1365    1368       6    1353    1356   -1365    1368       7
    1344    1353    1356    1359       9    1344    1353    1356    1362       9
    1515    1512    1506    1524       6    1515    1512   -1506    1524       7
    1515    1512    1518    1521       8    1512    1506    1524    1527       6
    1512    1506   -1524    1527      11    1509    1506    1512    1515      10
    1509    1506    1512    1518       6    1509    1506   -1512    1518       7
    1509    1506    1524    1527       8    1506    1512    1518    1521       6
    1506    1512   -1518    1521      11    1497    1494    1500    1503      39
    1491    1488    1494    1497      39    1485    1482    1488    1491      50
    1485    1482    1488    1494      50    1482    1488    1494    1497      39
    1479    1476    1473    1500      44    1479    1476    1482    1485      45
    1479    1476    1482    1488      45    1473    1467    1512    1515      10
    1473    1476    1482    1485      45    1473    1500    1494    1497      39
    1470    1467    1473    1476      14    1470    1467    1473    1500      14
    1470    1467    1512    1506      10    1470    1467    1512    1515      10
    1470    1467    1512    1518      10    1467    1473    1476    1479      44
    1467    1512    1506    1509      10    1467    1512    1518    1521       6
    1467    1512   -1518    1521      11    1464    1458    1506    1509       6
    1464    1458   -1506    1509       7    1464    1467    1512    1515       6
    1464    1467   -1512    1515       7    1461    1458    1464    1467       9
    1461    1458    1506    1509      10    1461    1458    1506    1512      10
    1461    1458    1506    1524       6    1461    1458   -1506    1524       7
    1458    1464    1467    1470       9    1458    1506    1512    1515      10
    1458    1506    1524    1527       6    1458    1506   -1524    1527      11
    1455    1449    1458    1461      10    1455    1449    1458    1464       6
    1455    1449   -1458    1464       7    1455    1449    1458    1506      10
    1452    1449    1458    1461      10    1452    1449    1458    1464       6
    1452    1449   -1458    1464       7    1452    1449    1458    1506      10
    1449    1458    1506    1509      10    1446    1449    1458    1461       6
    1446    1449   -1458    1461       7    1437    1446    1449    1452       9
    1437    1446    1449    1455       9      57      66     -60     -63      56
      45      51     -48     -54      57      30      39     -33     -36      56
     156     162    -159    -165      57     144     156    -150    -153      57
     129     138    -132    -135      56     246     252    -249    -255      57
     234     246    -240    -243      56     231     240    -234    -237      56
     351     357    -354    -360      57     339     351    -345    -348      57
     324     333    -327    -330      56     441     447    -444    -450      57
     429     441    -435    -438      56     426     435    -429    -432      56
     534     546    -540    -543      57     522     534    -528    -531      56
     519     528    -522    -525      56     624     636    -630    -633      57
     612     624    -618    -621      56     609     618    -612    -615      56
     714     726    -720    -723      57     702     714    -708    -711      56
     699     708    -702    -705      56     804     810    -807    -813      57
     792     804    -798    -801      56     789     798    -792    -795      56
     909     915    -912    -918      57     897     909    -903    -906      57
     882     891    -885    -888      56    1011    1020   -1014   -1017      56
     999    1005   -1002   -1008      57     984     993    -987    -990      56
    1110    1116   -1113   -1119      57    1098    1110   -1104   -1107      57
    1083    1092   -1086   -1089      56    1200    1206   -1203   -1209      57
    1188    1200   -1194   -1197      56    1185    1194   -1188   -1191      56
    1305    1311   -1308   -1314      57    1293    1305   -1299   -1302      57
    1278    1287   -1281   -1284      56    1395    1401   -1398   -1404      57
    1383    1395   -1389   -1392      56    1380    1389   -1383   -1386      56
    1488    1500   -1494   -1497      57    1476    1488   -1482   -1485      56
    1473    1482   -1476   -1479      56
%FLAG DIHEDRALS_WITHOUT_HYDROGEN                                                
%FORMAT(10I8)                                                                   
      90      93     102     105       1      90      93    -102     105       2
      90      93    -102     105       3      84      78      72      90       4
      84      78     -72      90       5      78      72      90      93       9
      72      90      93      96      12      72      90      93      99      12
      72      90      93     102      13      72      90     -93     102      12
      69      30      24      78      14      57      45      42      69      16
      57      60     -66      69      15      48      45      42      69      16
      48      45      57      60      18      45      42      69      66      19
      45      57     -60      66      15      42      45      57      60      18
      42      69     -66      60      20      39      33     -30      69      21
      39      42      45      48      16      39      42      45      57      16
      39      42      69      66      19      33      30      24      78      14
      33      30     -69      42      23      33      30      69      66      23
      33      39      42      45      24      33      39     -42      69      24
      30      24      78      72      10      30      24      78      84      10
      30      33     -39      42      22      30      69     -42      39      19
      30      69      42      45      19      30      69      66      60      20
      24      21     -15      72      25      24      21     -15      72      26
      24      30      33      39      21      24      30      69      42      23
      24      30      69      66      23      24      78      72      90      10
      21      15     -72      78      10      21      15      72      90       4
      21      15     -72      90       5      21      24      30      33      27
      21      24     -30      33      28      21      24     -30      33      29
      21      24      30      69      14      21      24     -78      72      10
      21      24      78      84       4      21      24     -78      84       5
      15      21      24      30      30      15      21     -24      30      26
      15      21     -24      78      25      15      21     -24      78      26
      15      72     -78      24      31      15      72     -78      24      32
      15      72     -78      24      33      15      72      78      84      10
      15      72      90      93       9       6      15      21      24      25
       6      15     -21      24      26       6      15      72      78      31
       6      15     -72      78      32       6      15     -72      78      33
       6      15      72      90      10       3       6      15      21      10
       3       6      15      72      34       3       6     -15      72      35
       3       6     -15      72      36     192     195     204     207       1
     192     195    -204     207       2     192     195    -204     207       3
     186     180     174     192       4     186     180    -174     192       5
     180     174     192     195       9     174     192     195     198      12
     174     192     195     201      12     174     192     195     204      13
     174     192    -195     204      12     171     129     123     180      14
     159     156     168     171      18     150     144     141     171      38
     150     156    -168     171      18     147     144     141     171      38
     147     144     150     156      39     144     141     171     168      19
     144     150     156     159      37     144     150    -156     168      37
     141     144     150     156      39     141     171    -168     156      20
     138     132    -129     171      21     138     141     144     147      38
     138     141     144     150      38     138     141     171     168      19
     132     129     123     180      14     132     129    -171     141      23
     132     129     171     168      23     132     138     141     144      24
     132     138    -141     171      24     129     123     180     174      10
     129     123     180     186      10     129     132    -138     141      22
     129     171    -141     138      19     129     171     141     144      19
     129     171     168     156      20     123     120    -114     174      25
     123     120    -114     174      26     123     129     132     138      21
     123     129     171     141      23     123     129     171     168      23
     123     180     174     192      10     120     114    -174     180      10
     120     114     174     192       4     120     114    -174     192       5
     120     123     129     132      40     120     123    -129     132      41
     120     123    -129     132      42     120     123     129     171      14
     120     123    -180     174      10     120     123     180     186       4
     120     123    -180     186       5     114     120     123     129      30
     114     120    -123     129      26     114     120    -123     180      25
     114     120    -123     180      26     114     174    -180     123      31
     114     174    -180     123      32     114     174    -180     123      33
     114     174     180     186      10     114     174     192     195       9
     105     114     120     123      25     105     114    -120     123      26
     105     114     174     180      31     105     114    -174     180      32
     105     114    -174     180      33     105     114     174     192      10
     102     105     114     120      10     102     105     114     174      34
     102     105    -114     174      35     102     105    -114     174      36
      99      93     102     105      12      96      93     102     105      12
      93     102     105     114       9     285     288     297     300       1
     285     288    -297     300       2     285     288    -297     300       3
     279     273     267     285       4     279     273    -267     285       5
     273     267     285     288       9     267     285     288     291      12
     267     285     288     294      12     267     285     288     297      13
     267     285    -288     297      12     261     231     225     273      14
     249     246     258     261      18     246     258     261     264      43
     240     234     231     261      44     240     246    -258     261      18
     234     231     225     273      14     234     231     261     258      46
     234     231     261     264      46     234     240     246     249      24
     234     240    -246     258      24     231     225     273     267      10
     231     225     273     279      10     231     234     240     246      45
     231     261    -258     246      43     225     222    -216     267      25
     225     222    -216     267      26     225     231     234     240      44
     225     231     261     258      46     225     231     261     264      46
     225     273     267     285      10     222     216    -267     273      10
     222     216     267     285       4     222     216    -267     285       5
     222     225     231     234      47     222     225    -231     234      48
     222     225    -231     234      49     222     225     231     261      14
     222     225    -273     267      10     222     225     273     279       4
     222     225    -273     279       5     216     222     225     231      30
     216     222    -225     231      26     216     222    -225     273      25
     216     222    -225     273      26     216     267    -273     225      31
     216     267    -273     225      32     216     267    -273     225      33
     216     267     273     279      10     216     267     285     288       9
     207     216     222     225      25     207     216    -222     225      26
     207     216     267     273      31     207     216    -267     273      32
     207     216    -267     273      33     207     216     267     285      10
     204     207     216     222      10     204     207     216     267      34
     204     207    -216     267      35     204     207    -216     267      36
     201     195     204     207      12     198     195     204     207      12
     195     204     207     216       9     387     390     399     402       1
     387     390    -399     402       2     387     390    -399     402       3
     381     375     369     387       4     381     375    -369     387       5
     375     369     387     390       9     369     387     390     393      12
     369     387     390     396      12     369     387     390     399      13
     369     387    -390     399      12     366     324     318     375      14
     354     351     363     366      18     345     339     336     366      38
     345     351    -363     366      18     342     339     336     366      38
     342     339     345     351      39     339     336     366     363      19
     339     345     351     354      37     339     345    -351     363      37
     336     339     345     351      39     336     366    -363     351      20
     333     327    -324     366      21     333     336     339     342      38
     333     336     339     345      38     333     336     366     363      19
     327     324     318     375      14     327     324    -366     336      23
     327     324     366     363      23     327     333     336     339      24
     327     333    -336     366      24     324     318     375     369      10
     324     318     375     381      10     324     327    -333     336      22
     324     366    -336     333      19     324     366     336     339      19
     324     366     363     351      20     318     315    -309     369      25
     318     315    -309     369      26     318     324     327     333      21
     318     324     366     336      23     318     324     366     363      23
     318     375     369     387      10     315     309    -369     375      10
     315     309     369     387       4     315     309    -369     387       5
     315     318     324     327      40     315     318    -324     327      41
     315     318    -324     327      42     315     318     324     366      14
     315     318    -375     369      10     315     318     375     381       4
     315     318    -375     381       5     309     315     318     324      30
     309     315    -318     324      26     309     315    -318     375      25
     309     315    -318     375      26     309     369    -375     318      31
     309     369    -375     318      32     309     369    -375     318      33
     309     369     375     381      10     309     369     387     390       9
     300     309     315     318      25     300     309    -315     318      26
     300     309     369     375      31     300     309    -369     375      32
     300     309    -369     375      33     300     309     369     387      10
     297     300     309     315      10     297     300     309     369      34
     297     300    -309     369      35     297     300    -309     369      36
     294     288     297     300      12     291     288     297     300      12
     288     297     300     309       9     480     483     492     495       1
     480     483    -492     495       2     480     483    -492     495       3
     474     468     462     480       4     474     468    -462     480       5
     468     462     480     483       9     462     480     483     486      12
     462     480     483     489      12     462     480     483     492      13
     462     480    -483     492      12     456     426     420     468      14
     444     441     453     456      18     441     453     456     459      43
     435     429     426     456      44     435     441    -453     456      18
     429     426     420     468      14     429     426     456     453      46
     429     426     456     459      46     429     435     441     444      24
     429     435    -441     453      24     426     420     468     462      10
     426     420     468     474      10     426     429     435     441      45
     426     456    -453     441      43     420     417    -411     462      25
     420     417    -411     462      26     420     426     429     435      44
     420     426     456     453      46     420     426     456     459      46
     420     468     462     480      10     417     411    -462     468      10
     417     411     462     480       4     417     411    -462     480       5
     417     420     426     429      47     417     420    -426     429      48
     417     420    -426     429      49     417     420     426     456      14
     417     420    -468     462      10     417     420     468     474       4
     417     420    -468     474       5     411     417     420     426      30
     411     417    -420     426      26     411     417    -420     468      25
     411     417    -420     468      26     411     462    -468     420      31
     411     462    -468     420      32     411     462    -468     420      33
     411     462     468     474      10     411     462     480     483       9
     402     411     417     420      25     402     411    -417     420      26
     402     411     462     468      31     402     411    -462     468      32
     402     411    -462     468      33     402     411     462     480      10
     399     402     411     417      10     399     402     411     462      34
     399     402    -411     462      35     399     402    -411     462      36
     396     390     399     402      12     393     390     399     402      12
     390     399     402     411       9     570     573     582     585       1
     570     573    -582     585       2     570     573    -582     585       3
     564     558     552     570       4     564     558    -552     570       5
     558     552     570     573       9     552     570     573     576      12
     552     570     573     579      12     552     570     573     582      13
     552     570    -573     582      12     546     519     513     558      14
     537     534     540     546      39     534     540     546     549      39
     528     522     519     546      44     528     534    -540     546      39
     522     519     513     558      14     522     519     546     540      46
     522     519     546     549      46     522     528     534     537      50
     522     528    -534     537      51     522     528    -534     540      50
     519     513     558     552      10     519     513     558     564      10
     519     522     528     534      45     519     546    -540     534      39
     513     510    -504     552      25     513     510    -504     552      26
     513     519     522     528      44     513     519     546     540      46
     513     519     546     549      46     513     558     552     570      10
     510     504    -552     558      10     510     504     552     570       4
     510     504    -552     570       5     510     513     519     522      52
     510     513    -519     522      53     510     513    -519     522      54
     510     513     519     546      14     510     513    -558     552      10
     510     513     558     564       4     510     513    -558     564       5
     504     510     513     519      30     504     510    -513     519      26
     504     510    -513     558      25     504     510    -513     558      26
     504     552    -558     513      31     504     552    -558     513      32
     504     552    -558     513      33     504     552     558     564      10
     504     552     570     573       9     495     504     510     513      25
     495     504    -510     513      26     495     504     552     558      31
     495     504    -552     558      32     495     504    -552     558      33
     495     504     552     570      10     492     495     504     510      10
     492     495     504     552      34     492     495    -504     552      35
     492     495    -504     552      36     489     483     492     495      12
     486     483     492     495      12     483     492     495     504       9
     660     663     672     675       1     660     663    -672     675       2
     660     663    -672     675       3     654     648     642     660       4
     654     648    -642     660       5     648     642     660     663       9
     642     660     663     666      12     642     660     663     669      12
     642     660     663     672      13     642     660    -663     672      12
     636     609     603     648      14     627     624     630     636      39
     624     630     636     639      39     618     612     609     636      44
     618     624    -630     636      39     612     609     603     648      14
     612     609     636     630      46     612     609     636     639      46
     612     618     624     627      50     612     618    -624     627      51
     612     618    -624     630      50     609     603     648     642      10
     609     603     648     654      10     609     612     618     624      45
     609     636    -630     624      39     603     600    -594     642      25
     603     600    -594     642      26     603     609     612     618      44
     603     609     636     630      46     603     609     636     639      46
     603     648     642     660      10     600     594    -642     648      10
     600     594     642     660       4     600     594    -642     660       5
     600     603     609     612      52     600     603    -609     612      53
     600     603    -609     612      54     600     603     609     636      14
     600     603    -648     642      10     600     603     648     654       4
     600     603    -648     654       5     594     600     603     609      30
     594     600    -603     609      26     594     600    -603     648      25
     594     600    -603     648      26     594     642    -648     603      31
     594     642    -648     603      32     594     642    -648     603      33
     594     642     648     654      10     594     642     660     663       9
     585     594     600     603      25     585     594    -600     603      26
     585     594     642     648      31     585     594    -642     648      32
     585     594    -642     648      33     585     594     642     660      10
     582     585     594     600      10     582     585     594     642      34
     582     585    -594     642      35     582     585    -594     642      36
     579     573     582     585      12     576     573     582     585      12
     573     582     585     594       9     750     753     762     765       1
     750     753    -762     765       2     750     753    -762     765       3
     744     738     732     750       4     744     738    -732     750       5
     738     732     750     753       9     732     750     753     756      12
     732     750     753     759      12     732     750     753     762      13
     732     750    -753     762      12     726     699     693     738      14
     717     714     720     726      39     714     720     726     729      39
     708     702     699     726      44     708     714    -720     726      39
     702     699     693     738      14     702     699     726     720      46
     702     699     726     729      46     702     708     714     717      50
     702     708    -714     717      51     702     708    -714     720      50
     699     693     738     732      10     699     693     738     744      10
     699     702     708     714      45     699     726    -720     714      39
     693     690    -684     732      25     693     690    -684     732      26
     693     699     702     708      44     693     699     726     720      46
     693     699     726     729      46     693     738     732     750      10
     690     684    -732     738      10     690     684     732     750       4
     690     684    -732     750       5     690     693     699     702      52
     690     693    -699     702      53     690     693    -699     702      54
     690     693     699     726      14     690     693    -738     732      10
     690     693     738     744       4     690     693    -738     744       5
     684     690     693     699      30     684     690    -693     699      26
     684     690    -693     738      25     684     690    -693     738      26
     684     732    -738     693      31     684     732    -738     693      32
     684     732    -738     693      33     684     732     738     744      10
     684     732     750     753       9     675     684     690     693      25
     675     684    -690     693      26     675     684     732     738      31
     675     684    -732     738      32     675     684    -732     738      33
     675     684     732     750      10     672     675     684     690      10
     672     675     684     732      34     672     675    -684     732      35
     672     675    -684     732      36     669     663     672     675      12
     666     663     672     675      12     663     672     675     684       9
     843     846     855     858       1     843     846    -855     858       2
     843     846    -855     858       3     837     831     825     843       4
     837     831    -825     843       5     831     825     843     846       9
     825     843     846     849      12     825     843     846     852      12
     825     843     846     855      13     825     843    -846     855      12
     819     789     783     831      14     807     804     816     819      18
     804     816     819     822      43     798     792     789     819      44
     798     804    -816     819      18     792     789     783     831      14
     792     789     819     816      46     792     789     819     822      46
     792     798     804     807      24     792     798    -804     816      24
     789     783     831     825      10     789     783     831     837      10
     789     792     798     804      45     789     819    -816     804      43
     783     780    -774     825      25     783     780    -774     825      26
     783     789     792     798      44     783     789     819     816      46
     783     789     819     822      46     783     831     825     843      10
     780     774    -825     831      10     780     774     825     843       4
     780     774    -825     843       5     780     783     789     792      47
     780     783    -789     792      48     780     783    -789     792      49
     780     783     789     819      14     780     783    -831     825      10
     780     783     831     837       4     780     783    -831     837       5
     774     780     783     789      30     774     780    -783     789      26
     774     780    -783     831      25     774     780    -783     831      26
     774     825    -831     783      31     774     825    -831     783      32
     774     825    -831     783      33     774     825     831     837      10
     774     825     843     846       9     765     774     780     783      25
     765     774    -780     783      26     765     774     825     831      31
     765     774    -825     831      32     765     774    -825     831      33
     765     774     825     843      10     762     765     774     780      10
     762     765     774     825      34     762     765    -774     825      35
     762     765    -774     825      36     759     753     762     765      12
     756     753     762     765      12     753     762     765     774       9
     945     948     957     960       1     945     948    -957     960       2
     945     948    -957     960       3     939     933     927     945       4
     939     933    -927     945       5     933     927     945     948       9
     927     945     948     951      12     927     945     948     954      12
     927     945     948     957      13     927     945    -948     957      12
     924     882     876     933      14     912     909     921     924      18
     903     897     894     924      38     903     909    -921     924      18
     900     897     894     924      38     900     897     903     909      39
     897     894     924     921      19     897     903     909     912      37
     897     903    -909     921      37     894     897     903     909      39
     894     924    -921     909      20     891     885    -882     924      21
     891     894     897     900      38     891     894     897     903      38
     891     894     924     921      19     885     882     876     933      14
     885     882    -924     894      23     885     882     924     921      23
     885     891     894     897      24     885     891    -894     924      24
     882     876     933     927      10     882     876     933     939      10
     882     885    -891     894      22     882     924    -894     891      19
     882     924     894     897      19     882     924     921     909      20
     876     873    -867     927      25     876     873    -867     927      26
     876     882     885     891      21     876     882     924     894      23
     876     882     924     921      23     876     933     927     945      10
     873     867    -927     933      10     873     867     927     945       4
     873     867    -927     945       5     873     876     882     885      40
     873     876    -882     885      41     873     876    -882     885      42
     873     876     882     924      14     873     876    -933     927      10
     873     876     933     939       4     873     876    -933     939       5
     867     873     876     882      30     867     873    -876     882      26
     867     873    -876     933      25     867     873    -876     933      26
     867     927    -933     876      31     867     927    -933     876      32
     867     927    -933     876      33     867     927     933     939      10
     867     927     945     948       9     858     867     873     876      25
     858     867    -873     876      26     858     867     927     933      31
     858     867    -927     933      32     858     867    -927     933      33
     858     867     927     945      10     855     858     867     873      10
     855     858     867     927      34     855     858    -867     927      35
     855     858    -867     927      36     852     846     855     858      12
     849     846     855     858      12     846     855     858     867       9
    1044    1047    1056    1059       1    1044    1047   -1056    1059       2
    1044    1047   -1056    1059       3    1038    1032    1026    1044       4
    1038    1032   -1026    1044       5    1032    1026    1044    1047       9
    1026    1044    1047    1050      12    1026    1044    1047    1053      12
    1026    1044    1047    1056      13    1026    1044   -1047    1056      12
    1023     984     978    1032      14    1011     999     996    1023      16
    1011    1014   -1020    1023      15    1002     999     996    1023      16
    1002     999    1011    1014      18     999     996    1023    1020      19
     999    1011   -1014    1020      15     996     999    1011    1014      18
     996    1023   -1020    1014      20     993     987    -984    1023      21
     993     996     999    1002      16     993     996     999    1011      16
     993     996    1023    1020      19     987     984     978    1032      14
     987     984   -1023     996      23     987     984    1023    1020      23
     987     993     996     999      24     987     993    -996    1023      24
     984     978    1032    1026      10     984     978    1032    1038      10
     984     987    -993     996      22     984    1023    -996     993      19
     984    1023     996     999      19     984    1023    1020    1014      20
     978     975    -969    1026      25     978     975    -969    1026      26
     978     984     987     993      21     978     984    1023     996      23
     978     984    1023    1020      23     978    1032    1026    1044      10
     975     969   -1026    1032      10     975     969    1026    1044       4
     975     969   -1026    1044       5     975     978     984     987      27
     975     978    -984     987      28     975     978    -984     987      29
     975     978     984    1023      14     975     978   -1032    1026      10
     975     978    1032    1038       4     975     978   -1032    1038       5
     969     975     978     984      30     969     975    -978     984      26
     969     975    -978    1032      25     969     975    -978    1032      26
     969    1026   -1032     978      31     969    1026   -1032     978      32
     969    1026   -1032     978      33     969    1026    1032    1038      10
     969    1026    1044    1047       9     960     969     975     978      25
     960     969    -975     978      26     960     969    1026    1032      31
     960     969   -1026    1032      32     960     969   -1026    1032      33
     960     969    1026    1044      10     957     960     969     975      10
     957     960     969    1026      34     957     960    -969    1026      35
     957     960    -969    1026      36     954     948     957     960      12
     951     948     957     960      12     948     957     960     969       9
    1146    1149    1158    1161       1    1146    1149   -1158    1161       2
    1146    1149   -1158    1161       3    1140    1134    1128    1146       4
    1140    1134   -1128    1146       5    1134    1128    1146    1149       9
    1128    1146    1149    1152      12    1128    1146    1149    1155      12
    1128    1146    1149    1158      13    1128    1146   -1149    1158      12
    1125    1083    1077    1134      14    1113    1110    1122    1125      18
    1104    1098    1095    1125      38    1104    1110   -1122    1125      18
    1101    1098    1095    1125      38    1101    1098    1104    1110      39
    1098    1095    1125    1122      19    1098    1104    1110    1113      37
    1098    1104   -1110    1122      37    1095    1098    1104    1110      39
    1095    1125   -1122    1110      20    1092    1086   -1083    1125      21
    1092    1095    1098    1101      38    1092    1095    1098    1104      38
    1092    1095    1125    1122      19    1086    1083    1077    1134      14
    1086    1083   -1125    1095      23    1086    1083    1125    1122      23
    1086    1092    1095    1098      24    1086    1092   -1095    1125      24
    1083    1077    1134    1128      10    1083    1077    1134    1140      10
    1083    1086   -1092    1095      22    1083    1125   -1095    1092      19
    1083    1125    1095    1098      19    1083    1125    1122    1110      20
    1077    1074   -1068    1128      25    1077    1074   -1068    1128      26
    1077    1083    1086    1092      21    1077    1083    1125    1095      23
    1077    1083    1125    1122      23    1077    1134    1128    1146      10
    1074    1068   -1128    1134      10    1074    1068    1128    1146       4
    1074    1068   -1128    1146       5    1074    1077    1083    1086      40
    1074    1077   -1083    1086      41    1074    1077   -1083    1086      42
    1074    1077    1083    1125      14    1074    1077   -1134    1128      10
    1074    1077    1134    1140       4    1074    1077   -1134    1140       5
    1068    1074    1077    1083      30    1068    1074   -1077    1083      26
    1068    1074   -1077    1134      25    1068    1074   -1077    1134      26
    1068    1128   -1134    1077      31    1068    1128   -1134    1077      32
    1068    1128   -1134    1077      33    1068    1128    1134    1140      10
    1068    1128    1146    1149       9    1059    1068    1074    1077      25
    1059    1068   -1074    1077      26    1059    1068    1128    1134      31
    1059    1068   -1128    1134      32    1059    1068   -1128    1134      33
    1059    1068    1128    1146      10    1056    1059    1068    1074      10
    1056    1059    1068    1128      34    1056    1059   -1068    1128      35
    1056    1059   -1068    1128      36    1053    1047    1056    1059      12
    1050    1047    1056    1059      12    1047    1056    1059    1068       9
    1239    1242    1251    1254       1    1239    1242   -1251    1254       2
    1239    1242   -1251    1254       3    1233    1227    1221    1239       4
    1233    1227   -1221    1239       5    1227    1221    1239    1242       9
    1221    1239    1242    1245      12    1221    1239    1242    1248      12
    1221    1239    1242    1251      13    1221    1239   -1242    1251      12
    1215    1185    1179    1227      14    1203    1200    1212    1215      18
    1200    1212    1215    1218      43    1194    1188    1185    1215      44
    1194    1200   -1212    1215      18    1188    1185    1179    1227      14
    1188    1185    1215    1212      46    1188    1185    1215    1218      46
    1188    1194    1200    1203      24    1188    1194   -1200    1212      24
    1185    1179    1227    1221      10    1185    1179    1227    1233      10
    1185    1188    1194    1200      45    1185    1215   -1212    1200      43
    1179    1176   -1170    1221      25    1179    1176   -1170    1221      26
    1179    1185    1188    1194      44    1179    1185    1215    1212      46
    1179    1185    1215    1218      46    1179    1227    1221    1239      10
    1176    1170   -1221    1227      10    1176    1170    1221    1239       4
    1176    1170   -1221    1239       5    1176    1179    1185    1188      47
    1176    1179   -1185    1188      48    1176    1179   -1185    1188      49
    1176    1179    1185    1215      14    1176    1179   -1227    1221      10
    1176    1179    1227    1233       4    1176    1179   -1227    1233       5
    1170    1176    1179    1185      30    1170    1176   -1179    1185      26
    1170    1176   -1179    1227      25    1170    1176   -1179    1227      26
    1170    1221   -1227    1179      31    1170    1221   -1227    1179      32
    1170    1221   -1227    1179      33    1170    1221    1227    1233      10
    1170    1221    1239    1242       9    1161    1170    1176    1179      25
    1161    1170   -1176    1179      26    1161    1170    1221    1227      31
    1161    1170   -1221    1227      32    1161    1170   -1221    1227      33
    1161    1170    1221    1239      10    1158    1161    1170    1176      10
    1158    1161    1170    1221      34    1158    1161   -1170    1221      35
    1158    1161   -1170    1221      36    1155    1149    1158    1161      12
    1152    1149    1158    1161      12    1149    1158    1161    1170       9
    1341    1344    1353    1356       1    1341    1344   -1353    1356       2
    1341    1344   -1353    1356       3    1335    1329    1323    1341       4
    1335    1329   -1323    1341       5    1329    1323    1341    1344       9
    1323    1341    1344    1347      12    1323    1341    1344    1350      12
    1323    1341    1344    1353      13    1323    1341   -1344    1353      12
    1320    1278    1272    1329      14    1308    1305    1317    1320      18
    1299    1293    1290    1320      38    1299    1305   -1317    1320      18
    1296    1293    1290    1320      38    1296    1293    1299    1305      39
    1293    1290    1320    1317      19    1293    1299    1305    1308      37
    1293    1299   -1305    1317      37    1290    1293    1299    1305      39
    1290    1320   -1317    1305      20    1287    1281   -1278    1320      21
    1287    1290    1293    1296      38    1287    1290    1293    1299      38
    1287    1290    1320    1317      19    1281    1278    1272    1329      14
    1281    1278   -1320    1290      23    1281    1278    1320    1317      23
    1281    1287    1290    1293      24    1281    1287   -1290    1320      24
    1278    1272    1329    1323      10    1278    1272    1329    1335      10
    1278    1281   -1287    1290      22    1278    1320   -1290    1287      19
    1278    1320    1290    1293      19    1278    1320    1317    1305      20
    1272    1269   -1263    1323      25    1272    1269   -1263    1323      26
    1272    1278    1281    1287      21    1272    1278    1320    1290      23
    1272    1278    1320    1317      23    1272    1329    1323    1341      10
    1269    1263   -1323    1329      10    1269    1263    1323    1341       4
    1269    1263   -1323    1341       5    1269    1272    1278    1281      40
    1269    1272   -1278    1281      41    1269    1272   -1278    1281      42
    1269    1272    1278    1320      14    1269    1272   -1329    1323      10
    1269    1272    1329    1335       4    1269    1272   -1329    1335       5
    1263    1269    1272    1278      30    1263    1269   -1272    1278      26
    1263    1269   -1272    1329      25    1263    1269   -1272    1329      26
    1263    1323   -1329    1272      31    1263    1323   -1329    1272      32
    1263    1323   -1329    1272      33    1263    1323    1329    1335      10
    1263    1323    1341    1344       9    1254    1263    1269    1272      25
    1254    1263   -1269    1272      26    1254    1263    1323    1329      31
    1254    1263   -1323    1329      32    1254    1263   -1323    1329      33
    1254    1263    1323    1341      10    1251    1254    1263    1269      10
    1251    1254    1263    1323      34    1251    1254   -1263    1323      35
    1251    1254   -1263    1323      36    1248    1242    1251    1254      12
    1245    1242    1251    1254      12    1242    1251    1254    1263       9
    1434    1437    1446    1449       1    1434    1437   -1446    1449       2
    1434    1437   -1446    1449       3    1428    1422    1416    1434       4
    1428    1422   -1416    1434       5    1422    1416    1434    1437       9
    1416    1434    1437    1440      12    1416    1434    1437    1443      12
    1416    1434    1437    1446      13    1416    1434   -1437    1446      12
    1410    1380    1374    1422      14    1398    1395    1407    1410      18
    1395    1407    1410    1413      43    1389    1383    1380    1410      44
    1389    1395   -1407    1410      18    1383    1380    1374    1422      14
    1383    1380    1410    1407      46    1383    1380    1410    1413      46
    1383    1389    1395    1398      24    1383    1389   -1395    1407      24
    1380    1374    1422    1416      10    1380    1374    1422    1428      10
    1380    1383    1389    1395      45    1380    1410   -1407    1395      43
    1374    1371   -1365    1416      25    1374    1371   -1365    1416      26
    1374    1380    1383    1389      44    1374    1380    1410    1407      46
    1374    1380    1410    1413      46    1374    1422    1416    1434      10
    1371    1365   -1416    1422      10    1371    1365    1416    1434       4
    1371    1365   -1416    1434       5    1371    1374    1380    1383      47
    1371    1374   -1380    1383      48    1371    1374   -1380    1383      49
    1371    1374    1380    1410      14    1371    1374   -1422    1416      10
    1371    1374    1422    1428       4    1371    1374   -1422    1428       5
    1365    1371    1374    1380      30    1365    1371   -1374    1380      26
    1365    1371   -1374    1422      25    1365    1371   -1374    1422      26
    1365    1416   -1422    1374      31    1365    1416   -1422    1374      32
    1365    1416   -1422    1374      33    1365    1416    1422    1428      10
    1365    1416    1434    1437       9    1356    1365    1371    1374      25
    1356    1365   -1371    1374      26    1356    1365    1416    1422      31
    1356    1365   -1416    1422      32    1356    1365   -1416    1422      33
    1356    1365    1416    1434      10    1353    1356    1365    1371      10
    1353    1356    1365    1416      34    1353    1356   -1365    1416      35
    1353    1356   -1365    1416      36    1350    1344    1353    1356      12
    1347    1344    1353    1356      12    1344    1353    1356    1365       9
    1518    1512    1506    1524       4    1518    1512   -1506    1524       5
    1500    1473    1467    1512      14    1491    1488    1494    1500      39
    1488    1494    1500    1503      39    1482    1476    1473    1500      44
    1482    1488   -1494    1500      39    1476    1473    1467    1512      14
    1476    1473    1500    1494      46    1476    1473    1500    1503      46
    1476    1482    1488    1491      50    1476    1482   -1488    1491      51
    1476    1482   -1488    1494      50    1473    1467    1512    1506      10
    1473    1467    1512    1518      10    1473    1476    1482    1488      45
    1473    1500   -1494    1488      39    1467    1464   -1458    1506      25
    1467    1464   -1458    1506      26    1467    1473    1476    1482      44
    1467    1473    1500    1494      46    1467    1473    1500    1503      46
    1467    1512    1506    1524      10    1464    1458   -1506    1512      10
    1464    1458    1506    1524       4    1464    1458   -1506    1524       5
    1464    1467    1473    1476      52    1464    1467   -1473    1476      53
    1464    1467   -1473    1476      54    1464    1467    1473    1500      14
    1464    1467   -1512    1506      10    1464    1467    1512    1518       4
    1464    1467   -1512    1518       5    1458    1464    1467    1473      30
    1458    1464   -1467    1473      26    1458    1464   -1467    1512      25
    1458    1464   -1467    1512      26    1458    1506   -1512    1467      31
    1458    1506   -1512    1467      32    1458    1506   -1512    1467      33
    1458    1506    1512    1518      10    1449    1458    1464    1467      25
    1449    1458   -1464    1467      26    1449    1458    1506    1512      31
    1449    1458   -1506    1512      32    1449    1458   -1506    1512      33
    1449    1458    1506    1524      10    1446    1449    1458    1464      10
    1446    1449    1458    1506      34    1446    1449   -1458    1506      35
    1446    1449   -1458    1506      36    1443    1437    1446    1449      12
    1440    1437    1446    1449      12    1437    1446    1449    1458       9
      30      42     -69     -66      55      42      48     -45     -57      56
      39      45     -42     -69      55      69      33     -30     -24      57
     141     129    -171    -168      55     159     150    -156    -168      56
     141     150    -144    -147      58     138     144    -141    -171      55
     171     132    -129    -123      57     231     258    -261    -264      58
     240     249    -246    -258      56     261     234    -231    -225      57
     336     324    -366    -363      55     354     345    -351    -363      56
     336     345    -339    -342      58     339     366    -336    -333      55
     366     327    -324    -318      57     426     453    -456    -459      58
     435     444    -441    -453      56     456     429    -426    -420      57
     519     540    -546    -549      58     528     540    -534    -537      58
     546     522    -519    -513      57     609     630    -636    -639      58
     618     630    -624    -627      58     636     612    -609    -603      57
     699     720    -726    -729      58     708     720    -714    -717      58
     726     702    -699    -693      57     789     816    -819    -822      58
     798     807    -804    -816      56     819     792    -789    -783      57
     894     882    -924    -921      55     912     903    -909    -921      56
     894     903    -897    -900      58     897     924    -894    -891      55
     924     885    -882    -876      57     996     984   -1023   -1020      55
     996    1002    -999   -1011      56     999    1023    -996    -993      55
     987    1023    -984    -978      57    1095    1083   -1125   -1122      55
    1113    1104   -1110   -1122      56    1095    1104   -1098   -1101      58
    1098    1125   -1095   -1092      55    1125    1086   -1083   -1077      57
    1185    1212   -1215   -1218      58    1194    1203   -1200   -1212      56
    1215    1188   -1185   -1179      57    1290    1278   -1320   -1317      55
    1308    1299   -1305   -1317      56    1290    1299   -1293   -1296      58
    1293    1320   -1290   -1287      55    1320    1281   -1278   -1272      57
    1380    1407   -1410   -1413      58    1389    1398   -1395   -1407      56
    1410    1383   -1380   -1374      57    1473    1494   -1500   -1503      58
    1482    1494   -1488   -1491      58    1500    1476   -1473   -1467      57
%FLAG EXCLUDED_ATOMS_LIST                                                       
%FORMAT(10I8)                                                                   
       2       3       4       5       6       3       4       5       6       7
       8      25       4       5       6       7       8       9      25      26
      27      31       5       6       7       8      25       6       7       8
      25       7       8       9      10      11      25      26      27      28
      29      31      32       8       9      25      26      27      31       9
      10      11      12      24      25      26      27      28      29      31
      10      11      12      13      14      15      23      24      25      26
      27      28      29      30      31      11      12      24      25      27
      28      29      12      13      14      15      16      21      23      24
      25      27      28      29      13      14      15      16      23      24
      27      14      15      24      15      16      17      20      23      24
      16      17      18      19      20      21      23      24      17      18
      19      20      21      22      23      24      18      19      20      21
      24      19      20      20      21      22      23      24      22      23
      24      23      24      24      27      26      27      28      29      30
      31      32      33      34      35      27      28      29      31      32
      28      29      30      31      32      29      30      31      30      31
       0      32      33      34      35      36      33      34      35      36
      37      38      39      34      35      36      35      36      36      37
      38      39      40      41      59      37      38      39      40      41
      42      59      60      61      65      38      39      40      41      59
      39      40      41      59      40      41      42      43      44      59
      60      61      62      63      65      66      41      42      59      60
      61      65      42      43      44      45      58      59      60      61
      62      63      65      43      44      45      46      47      48      57
      58      59      60      61      62      63      64      65      44      45
      58      59      61      62      63      45      46      47      48      49
      53      57      58      59      61      62      63      46      47      48
      49      57      58      61      47      48      58      48      49      50
      51      57      58      49      50      51      52      53      57      58
      50      51      52      53      54      57      58      51      52      53
      58      52      53      54      55      56      57      58      53      54
      57      54      55      56      57      58      55      56      57      58
      56      57      57      58      61      60      61      62      63      64
      65      66      67      68      69      61      62      63      65      66
      62      63      64      65      66      63      64      65      64      65
       0      66      67      68      69      70      67      68      69      70
      71      72      73      68      69      70      69      70      70      71
      72      73      74      75      90      71      72      73      74      75
      76      90      91      92      96      72      73      74      75      90
      73      74      75      90      74      75      76      77      78      90
      91      92      93      94      96      97      75      76      90      91
      92      96      76      77      78      79      88      90      91      92
      93      94      96      77      78      79      80      81      87      88
      89      90      91      92      93      94      95      96      78      79
      88      90      92      93      94      79      80      81      82      83
      87      88      89      90      92      93      94      80      81      82
      83      84      87      88      89      92      81      82      83      88
      82      83      84      85      86      87      88      83      84      87
      84      85      86      87      88      89      85      86      87      88
      86      87      87      88      89      89      92       0      91      92
      93      94      95      96      97      98      99     100      92      93
      94      96      97      93      94      95      96      97      94      95
      96      95      96       0      97      98      99     100     101      98
      99     100     101     102     103     104      99     100     101     100
     101     101     102     103     104     105     106     124     102     103
     104     105     106     107     124     125     126     130     103     104
     105     106     124     104     105     106     124     105     106     107
     108     109     124     125     126     127     128     130     131     106
     107     124     125     126     130     107     108     109     110     123
     124     125     126     127     128     130     108     109     110     111
     112     113     122     123     124     125     126     127     128     129
     130     109     110     123     124     126     127     128     110     111
     112     113     114     118     122     123     124     126     127     128
     111     112     113     114     122     123     126     112     113     123
     113     114     115     116     122     123     114     115     116     117
     118     122     123     115     116     117     118     119     122     123
     116     117     118     123     117     118     119     120     121     122
     123     118     119     122     119     120     121     122     123     120
     121     122     123     121     122     122     123     126     125     126
     127     128     129     130     131     132     133     134     126     127
     128     130     131     127     128     129     130     131     128     129
     130     129     130       0     131     132     133     134     135     132
     133     134     135     136     137     138     133     134     135     134
     135     135     136     137     138     139     140     155     136     137
     138     139     140     141     155     156     157     161     137     138
     139     140     155     138     139     140     155     139     140     141
     142     143     155     156     157     158     159     161     162     140
     141     155     156     157     161     141     142     143     144     153
     155     156     157     158     159     161     142     143     144     145
     146     152     153     154     155     156     157     158     159     160
     161     143     144     153     155     157     158     159     144     145
     146     147     148     152     153     154     155     157     158     159
     145     146     147     148     149     152     153     154     157     146
     147     148     153     147     148     149     150     151     152     153
     148     149     152     149     150     151     152     153     154     150
     151     152     153     151     152     152     153     154     154     157
       0     156     157     158     159     160     161     162     163     164
     165     157     158     159     161     162     158     159     160     161
     162     159     160     161     160     161       0     162     163     164
     165     166     163     164     165     166     167     168     169     164
     165     166     165     166     166     167     168     169     170     171
     185     167     168     169     170     171     172     185     186     187
     191     168     169     170     171     185     169     170     171     185
     170     171     172     173     174     185     186     187     188     189
     191     192     171     172     185     186     187     191     172     173
     174     175     183     185     186     187     188     189     191     173
     174     175     176     177     181     183     184     185     186     187
     188     189     190     191     174     175     183     185     187     188
     189     175     176     177     178     179     181     182     183     184
     185     187     188     189     176     177     178     179     180     181
     183     184     187     177     178     179     183     178     179     180
     181     182     183     179     180     181     180     181     182     183
     184     181     182     183     182     183     184     183     184     184
     187       0     186     187     188     189     190     191     192     193
     194     195     187     188     189     191     192     188     189     190
     191     192     189     190     191     190     191       0     192     193
     194     195     196     193     194     195     196     197     198     199
     194     195     196     195     196     196     197     198     199     200
     201     215     197     198     199     200     201     202     215     216
     217     221     198     199     200     201     215     199     200     201
     215     200     201     202     203     204     215     216     217     218
     219     221     222     201     202     215     216     217     221     202
     203     204     205     213     215     216     217     218     219     221
     203     204     205     206     207     211     213     214     215     216
     217     218     219     220     221     204     205     213     215     217
     218     219     205     206     207     208     209     211     212     213
     214     215     217     218     219     206     207     208     209     210
     211     213     214     217     207     208     209     213     208     209
     210     211     212     213     209     210     211     210     211     212
     213     214     211     212     213     212     213     214     213     214
     214     217       0     216     217     218     219     220     221     222
     223     224     225     217     218     219     221     222     218     219
     220     221     222     219     220     221     220     221       0     222
     223     224     225     226     223     224     225     226     227     228
     229     224     225     226     225     226     226     227     228     229
     230     231     245     227     228     229     230     231     232     245
     246     247     251     228     229     230     231     245     229     230
     231     245     230     231     232     233     234     245     246     247
     248     249     251     252     231     232     245     246     247     251
     232     233     234     235     243     245     246     247     248     249
     251     233     234     235     236     237     241     243     244     245
     246     247     248     249     250     251     234     235     243     245
     247     248     249     235     236     237     238     239     241     242
     243     244     245     247     248     249     236     237     238     239
     240     241     243     244     247     237     238     239     243     238
     239     240     241     242     243     239     240     241     240     241
     242     243     244     241     242     243     242     243     244     243
     244     244     247       0     246     247     248     249     250     251
     252     253     254     255     247     248     249     251     252     248
     249     250     251     252     249     250     251     250     251       0
     252     253     254     255     256     253     254     255     256     257
     258     259     254     255     256     255     256     256     257     258
     259     260     261     276     257     258     259     260     261     262
     276     277     278     282     258     259     260     261     276     259
     260     261     276     260     261     262     263     264     276     277
     278     279     280     282     283     261     262     276     277     278
     282     262     263     264     265     274     276     277     278     279
     280     282     263     264     265     266     267     273     274     275
     276     277     278     279     280     281     282     264     265     274
     276     278     279     280     265     266     267     268     269     273
     274     275     276     278     279     280     266     267     268     269
     270     273     274     275     278     267     268     269     274     268
     269     270     271     272     273     274     269     270     273     270
     271     272     273     274     275     271     272     273     274     272
     273     273     274     275     275     278       0     277     278     279
     280     281     282     283     284     285     286     278     279     280
     282     283     279     280     281     282     283     280     281     282
     281     282       0     283     284     285     286     287     284     285
     286     287     288     289     290     285     286     287     286     287
     287     288     289     290     291     292     310     288     289     290
     291     292     293     310     311     312     316     289     290     291
     292     310     290     291     292     310     291     292     293     294
     295     310     311     312     313     314     316     317     292     293
     310     311     312     316     293     294     295     296     309     310
     311     312     313     314     316     294     295     296     297     298
     299     308     309     310     311     312     313     314     315     316
     295     296     309     310     312     313     314     296     297     298
     299     300     304     308     309     310     312     313     314     297
     298     299     300     308     309     312     298     299     309     299
     300     301     302     308     309     300     301     302     303     304
     308     309     301     302     303     304     305     308     309     302
     303     304     309     303     304     305     306     307     308     309
     304     305     308     305     306     307     308     309     306     307
     308     309     307     308     308     309     312     311     312     313
     314     315     316     317     318     319     320     312     313     314
     316     317     313     314     315     316     317     314     315     316
     315     316       0     317     318     319     320     321     318     319
     320     321     322     323     324     319     320     321     320     321
     321     322     323     324     325     326     343     322     323     324
     325     326     327     343     344     345     349     323     324     325
     326     343     324     325     326     343     325     326     327     328
     329     343     344     345     346     347     349     350     326     327
     343     344     345     349     327     328     329     330     342     343
     344     345     346     347     349     328     329     330     331     332
     333     341     342     343     344     345     346     347     348     349
     329     330     342     343     345     346     347     330     331     332
     333     334     339     341     342     343     345     346     347     331
     332     333     334     341     342     345     332     333     342     333
     334     335     338     341     342     334     335     336     337     338
     339     341     342     335     336     337     338     339     340     341
     342     336     337     338     339     342     337     338     338     339
     340     341     342     340     341     342     341     342     342     345
     344     345     346     347     348     349     350     351     352     353
     345     346     347     349     350     346     347     348     349     350
     347     348     349     348     349       0     350     351     352     353
     354     351     352     353     354     355     356     357     352     353
     354     353     354     354     355     356     357     358     359     377
     355     356     357     358     359     360     377     378     379     383
     356     357     358     359     377     357     358     359     377     358
     359     360     361     362     377     378     379     380     381     383
     384     359     360     377     378     379     383     360     361     362
     363     376     377     378     379     380     381     383     361     362
     363     364     365     366     375     376     377     378     379     380
     381     382     383     362     363     376     377     379     380     381
     363     364     365     366     367     371     375     376     377     379
     380     381     364     365     366     367     375     376     379     365
     366     376     366     367     368     369     375     376     367     368
     369     370     371     375     376     368     369     370     371     372
     375     376     369     370     371     376     370     371     372     373
     374     375     376     371     372     375     372     373     374     375
     376     373     374     375     376     374     375     375     376     379
     378     379     380     381     382     383     384     385     386     387
     379     380     381     383     384     380     381     382     383     384
     381     382     383     382     383       0     384     385     386     387
     388     385     386     387     388     389     390     391     386     387
     388     387     388     388     389     390     391     392     393     408
     389     390     391     392     393     394     408     409     410     414
     390     391     392     393     408     391     392     393     408     392
     393     394     395     396     408     409     410     411     412     414
     415     393     394     408     409     410     414     394     395     396
     397     406     408     409     410     411     412     414     395     396
     397     398     399     405     406     407     408     409     410     411
     412     413     414     396     397     406     408     410     411     412
     397     398     399     400     401     405     406     407     408     410
     411     412     398     399     400     401     402     405     406     407
     410     399     400     401     406     400     401     402     403     404
     405     406     401     402     405     402     403     404     405     406
     407     403     404     405     406     404     405     405     406     407
     407     410       0     409     410     411     412     413     414     415
     416     417     418     410     411     412     414     415     411     412
     413     414     415     412     413     414     413     414       0     415
     416     417     418     419     416     417     418     419     420     421
     422     417     418     419     418     419     419     420     421     422
     423     424     442     420     421     422     423     424     425     442
     443     444     448     421     422     423     424     442     422     423
     424     442     423     424     425     426     427     442     443     444
     445     446     448     449     424     425     442     443     444     448
     425     426     427     428     441     442     443     444     445     446
     448     426     427     428     429     430     431     440     441     442
     443     444     445     446     447     448     427     428     441     442
     444     445     446     428     429     430     431     432     436     440
     441     442     444     445     446     429     430     431     432     440
     441     444     430     431     441     431     432     433     434     440
     441     432     433     434     435     436     440     441     433     434
     435     436     437     440     441     434     435     436     441     435
     436     437     438     439     440     441     436     437     440     437
     438     439     440     441     438     439     440     441     439     440
     440     441     444     443     444     445     446     447     448     449
     450     451     452     444     445     446     448     449     445     446
     447     448     449     446     447     448     447     448       0     449
     450     451     452     453     450     451     452     453     454     455
     456     451     452     453     452     453     453     454     455     456
     457     458     473     454     455     456     457     458     459     473
     474     475     479     455     456     457     458     473     456     457
     458     473     457     458     459     460     461     473     474     475
     476     477     479     480     458     459     473     474     475     479
     459     460     461     462     471     473     474     475     476     477
     479     460     461     462     463     464     470     471     472     473
     474     475     476     477     478     479     461     462     471     473
     475     476     477     462     463     464     465     466     470     471
     472     473     475     476     477     463     464     465     466     467
     470     471     472     475     464     465     466     471     465     466
     467     468     469     470     471     466     467     470     467     468
     469     470     471     472     468     469     470     471     469     470
     470     471     472     472     475       0     474     475     476     477
     478     479     480     481     482     483     475     476     477     479
     480     476     477     478     479     480     477     478     479     478
     479       0     480     481     482     483     484     481     482     483
     484     485     486     487     482     483     484     483     484     484
     485     486     487     488     489     503     485     486     487     488
     489     490     503     504     505     509     486     487     488     489
     503     487     488     489     503     488     489     490     491     492
     503     504     505     506     507     509     510     489     490     503
     504     505     509     490     491     492     493     501     503     504
     505     506     507     509     491     492     493     494     495     499
     501     502     503     504     505     506     507     508     509     492
     493     501     503     505     506     507     493     494     495     496
     497     499     500     501     502     503     505     506     507     494
     495     496     497     498     499     501     502     505     495     496
     497     501     496     497     498     499     500     501     497     498
     499     498     499     500     501     502     499     500     501     500
     501     502     501     502     502     505       0     504     505     506
     507     508     509     510     505     506     507     509     510     506
     507     508     509     510     507     508     509     508     509       0
     510       0       0       0       0       0       0       0       0       0
       0       0       0       0       0       0       0       0       0       0
       0       0     532     533     534     533     534     534       0     536
     537     538     537     538     538       0     540     541     542     541
     542     542       0     544     545     546     545     546     546       0
     548     549     550     549     550     550       0     552     553     554
     553     554     554       0     556     557     558     557     558     558
       0     560     561     562     561     562     562       0     564     565
     566     565     566     566       0     568     569     570     569     570
     570       0     572     573     574     573     574     574       0     576
     577     578     577     578     578       0     580     581     582     581
     582     582       0     584     585     586     585     586     586       0
     588     589     590     589     590     590       0     592     593     594
     593     594     594       0     596     597     598     597     598     598
       0     600     601     602     601     602     602       0     604     605
     606     605     606     606       0     608     609     610     609     610
     610       0     612     613     614     613     614     614       0     616
     617     618     617     618     618       0     620     621     622     621
     622     622       0     624     625     626     625     626     626       0
     628     629     630     629     630     630       0     632     633     634
     633     634     634       0     636     637     638     637     638     638
       0     640     641     642     641     642     642       0     644     645
     646     645     646     646       0     648     649     650     649     650
     650       0     652     653     654     653     654     654       0     656
     657     658     657     658     658       0     660     661     662     661
     662     662       0     664     665     666     665     666     666       0
     668     669     670     669     670     670       0     672     673     674
     673     674     674       0     676     677     678     677     678     678
       0     680     681     682     681     682     682       0     684     685
     686     685     686     686       0     688     689     690     689     690
     690       0     692     693     694     693     694     694       0     696
     697     698     697     698     698       0     700     701     702     701
     702     702       0     704     705     706     705     706     706       0
     708     709     710     709     710     710       0     712     713     714
     713     714     714       0     716     717     718     717     718     718
       0     720     721     722     721     722     722       0     724     725
     726     725     726     726       0     728     729     730     729     730
     730       0     732     733     734     733     734     734       0     736
     737     738     737     738     738       0     740     741     742     741
     742     742       0     744     745     746     745     746     746       0
     748     749     750     749     750     750       0     752     753     754
     753     754     754       0     756     757     758     757     758     758
       0     760     761     762     761     762     762       0     764     765
     766     765     766     766       0     768     769     770     769     770
     770       0     772     773     774     773     774     774       0     776
     777     778     777     778     778       0     780     781     782     781
     782     782       0     784     785     786     785     786     786       0
     788     789     790     789     790     790       0     792     793     794
     793     794     794       0     796     797     798     797     798     798
       0     800     801     802     801     802     802       0     804     805
     806     805     806     806       0     808     809     810     809     810
     810       0     812     813     814     813     814     814       0     816
     817     818     817     818     818       0     820     821     822     821
     822     822       0     824     825     826     825     826     826       0
     828     829     830     829     830     830       0     832     833     834
     833     834     834       0     836     837     838     837     838     838
       0     840     841     842     841     842     842       0     844     845
     846     845     846     846       0     848     849     850     849     850
     850       0     852     853     854     853     854     854       0     856
     857     858     857     858     858       0     860     861     862     861
     862     862       0     864     865     866     865     866     866       0
     868     869     870     869     870     870       0     872     873     874
     873     874     874       0     876     877     878     877     878     878
       0     880     881     882     881     882     882       0     884     885
     886     885     886     886       0     888     889     890     889     890
     890       0     892     893     894     893     894     894       0     896
     897     898     897     898     898       0     900     901     902     901
     902     902       0     904     905     906     905     906     906       0
     908     909     910     909     910     910       0     912     913     914
     913     914     914       0     916     917     918     917     918     918
       0     920     921     922     921     922     922       0     924     925
     926     925     926     926       0     928     929     930     929     930
     930       0     932     933     934     933     934     934       0     936
     937     938     937     938     938       0     940     941     942     941
     942     942       0     944     945     946     945     946     946       0
     948     949     950     949     950     950       0     952     953     954
     953     954     954       0     956     957     958     957     958     958
       0     960     961     962     961     962     962       0     964     965
     966     965     966     966       0     968     969     970     969     970
     970       0     972     973     974     973     974     974       0     976
     977     978     977     978     978       0     980     981     982     981
     982     982       0     984     985     986     985     986     986       0
     988     989     990     989     990     990       0     992     993     994
     993     994     994       0     996     997     998     997     998     998
       0    1000    1001    1002    1001    1002    1002       0    1004    1005
    1006    1005    1006    1006       0    1008    1009    1010    1009    1010
    1010       0    1012    1013    1014    1013    1014    1014       0    1016
    1017    1018    1017    1018    1018       0    1020    1021    1022    1021
    1022    1022       0    1024    1025    1026    1025    1026    1026       0
    1028    1029    1030    1029    1030    1030       0    1032    1033    1034
    1033    1034    1034       0    1036    1037    1038    1037    1038    1038
       0    1040    1041    1042    1041    1042    1042       0    1044    1045
    1046    1045    1046    1046       0    1048    1049    1050    1049    1050
    1050       0    1052    1053    1054    1053    1054    1054       0    1056
    1057    1058    1057    1058    1058       0    1060    1061    1062    1061
    1062    1062       0    1064    1065    1066    1065    1066    1066       0
    1068    1069    1070    1069    1070    1070       0    1072    1073    1074
    1073    1074    1074       0    1076    1077    1078    1077    1078    1078
       0    1080    1081    1082    1081    1082    1082       0    1084    1085
    1086    1085    1086    1086       0    1088    1089    1090    1089    1090
    1090       0    1092    1093    1094    1093    1094    1094       0    1096
    1097    1098    1097    1098    1098       0    1100    1101    1102    1101
    1102    1102       0    1104    1105    1106    1105    1106    1106       0
    1108    1109    1110    1109    1110    1110       0    1112    1113    1114
    1113    1114    1114       0    1116    1117    1118    1117    1118    1118
       0    1120    1121    1122    1121    1122    1122       0    1124    1125
    1126    1125    1126    1126       0    1128    1129    1130    1129    1130
    1130       0    1132    1133    1134    1133    1134    1134       0    1136
    1137    1138    1137    1138    1138       0    1140    1141    1142    1141
    1142    1142       0    1144    1145    1146    1145    1146    1146       0
    1148    1149    1150    1149    1150    1150       0    1152    1153    1154
    1153    1154    1154       0    1156    1157    1158    1157    1158    1158
       0    1160    1161    1162    1161    1162    1162       0    1164    1165
    1166    1165    1166    1166       0    1168    1169    1170    1169    1170
    1170       0    1172    1173    1174    1173    1174    1174       0    1176
    1177    1178    1177    1178    1178       0    1180    1181    1182    1181
    1182    1182       0    1184    1185    1186    1185    1186    1186       0
    1188    1189    1190    1189    1190    1190       0    1192    1193    1194
    1193    1194    1194       0    1196    1197    1198    1197    1198    1198
       0    1200    1201    1202    1201    1202    1202       0    1204    1205
    1206    1205    1206    1206       0    1208    1209    1210    1209    1210
    1210       0    1212    1213    1214    1213    1214    1214       0    1216
    1217    1218    1217    1218    1218       0    1220    1221    1222    1221
    1222    1222       0    1224    1225    1226    1225    1226    1226       0
    1228    1229    1230    1229    1230    1230       0    1232    1233    1234
    1233    1234    1234       0    1236    1237    1238    1237    1238    1238
       0    1240    1241    1242    1241    1242    1242       0    1244    1245
    1246    1245    1246    1246       0    1248    1249    1250    1249    1250
    1250       0    1252    1253    1254    1253    1254    1254       0    1256
    1257    1258    1257    1258    1258       0    1260    1261    1262    1261
    1262    1262       0    1264    1265    1266    1265    1266    1266       0
    1268    1269    1270    1269    1270    1270       0    1272    1273    1274
    1273    1274    1274       0    1276    1277    1278    1277    1278    1278
       0    1280    1281    1282    1281    1282    1282       0    1284    1285
    1286    1285    1286    1286       0    1288    1289    1290    1289    1290
    1290       0    1292    1293    1294    1293    1294    1294       0    1296
    1297    1298    1297    1298    1298       0    1300    1301    1302    1301
    1302    1302       0    1304    1305    1306    1305    1306    1306       0
    1308    1309    1310    1309    1310    1310       0    1312    1313    1314
    1313    1314    1314       0    1316    1317    1318    1317    1318    1318
       0    1320    1321    1322    1321    1322    1322       0    1324    1325
    1326    1325    1326    1326       0    1328    1329    1330    1329    1330
    1330       0    1332    1333    1334    1333    1334    1334       0    1336
    1337    1338    1337    1338    1338       0    1340    1341    1342    1341
    1342    1342       0    1344    1345    1346    1345    1346    1346       0
    1348    1349    1350    1349    1350    1350       0    1352    1353    1354
    1353    1354    1354       0    1356    1357    1358    1357    1358    1358
       0    1360    1361    1362    1361    1362    1362       0    1364    1365
    1366    1365    1366    1366       0    1368    1369    1370    1369    1370
    1370       0    1372    1373    1374    1373    1374    1374       0    1376
    1377    1378    1377    1378    1378       0    1380    1381    1382    1381
    1382    1382       0    1384    1385    1386    1385    1386    1386       0
    1388    1389    1390    1389    1390    1390       0    1392    1393    1394
    1393    1394    1394       0    1396    1397    1398    1397    1398    1398
       0    1400    1401    1402    1401    1402    1402       0    1404    1405
    1406    1405    1406    1406       0    1408    1409    1410    1409    1410
    1410       0    1412    1413    1414    1413    1414    1414       0    1416
    1417    1418    1417    1418    1418       0    1420    1421    1422    1421
    1422    1422       0    1424    1425    1426    1425    1426    1426       0
    1428    1429    1430    1429    1430    1430       0    1432    1433    1434
    1433    1434    1434       0    1436    1437    1438    1437    1438    1438
       0    1440    1441    1442    1441    1442    1442       0    1444    1445
    1446    1445    1446    1446       0    1448    1449    1450    1449    1450
    1450       0    1452    1453    1454    1453    1454    1454       0    1456
    1457    1458    1457    1458    1458       0    1460    1461    1462    1461
    1462    1462       0    1464    1465    1466    1465    1466    1466       0
    1468    1469    1470    1469    1470    1470       0    1472    1473    1474
    1473    1474    1474       0    1476    1477    1478    1477    1478    1478
       0    1480    1481    1482    1481    1482    1482       0    1484    1485
    1486    1485    1486    1486       0    1488    1489    1490    1489    1490
    1490       0    1492    1493    1494    1493    1494    1494       0    1496
    1497    1498    1497    1498    1498       0    1500    1501    1502    1501
    1502    1502       0    1504    1505    1506    1505    1506    1506       0
    1508    1509    1510    1509    1510    1510       0    1512    1513    1514
    1513    1514    1514       0    1516    1517    1518    1517    1518    1518
       0    1520    1521    1522    1521    1522    1522       0    1524    1525
    1526    1525    1526    1526       0    1528    1529    1530    1529    1530
    1530       0    1532    1533    1534    1533    1534    1534       0    1536
    1537    1538    1537    1538    1538       0    1540    1541    1542    1541
    1542    1542       0    1544    1545    1546    1545    1546    1546       0
    1548    1549    1550    1549    1550    1550       0    1552    1553    1554
    1553    1554    1554       0    1556    1557    1558    1557    1558    1558
       0    1560    1561    1562    1561    1562    1562       0    1564    1565
    1566    1565    1566    1566       0    1568    1569    1570    1569    1570
    1570       0    1572    1573    1574    1573    1574    1574       0    1576
    1577    1578    1577    1578    1578       0    1580    1581    1582    1581
    1582    1582       0    1584    1585    1586    1585    1586    1586       0
    1588    1589    1590    1589    1590    1590       0    1592    1593    1594
    1593    1594    1594       0    1596    1597    1598    1597    1598    1598
       0    1600    1601    1602    1601    1602    1602       0    1604    1605
    1606    1605    1606    1606       0    1608    1609    1610    1609    1610
    1610       0    1612    1613    1614    1613    1614    1614       0    1616
    1617    1618    1617    1618    1618       0    1620    1621    1622    1621
    1622    1622       0    1624    1625    1626    1625    1626    1626       0
    1628    1629    1630    1629    1630    1630       0    1632    1633    1634
    1633    1634    1634       0    1636    1637    1638    1637    1638    1638
       0    1640    1641    1642    1641    1642    1642       0    1644    1645
    1646    1645    1646    1646       0    1648    1649    1650    1649    1650
    1650       0    1652    1653    1654    1653    1654    1654       0    1656
    1657    1658    1657    1658    1658       0    1660    1661    1662    1661
    1662    1662       0    1664    1665    1666    1665    1666    1666       0
    1668    1669    1670    1669    1670    1670       0    1672    1673    1674
    1673    1674    1674       0    1676    1677    1678    1677    1678    1678
       0    1680    1681    1682    1681    1682    1682       0    1684    1685
    1686    1685    1686    1686       0    1688    1689    1690    1689    1690
    1690       0    1692    1693    1694    1693    1694    1694       0    1696
    1697    1698    1697    1698    1698       0    1700    1701    1702    1701
    1702    1702       0    1704    1705    1706    1705    1706    1706       0
    1708    1709    1710    1709    1710    1710       0    1712    1713    1714
    1713    1714    1714       0    1716    1717    1718    1717    1718    1718
       0    1720    1721    1722    1721    1722    1722       0    1724    1725
    1726    1725    1726    1726       0    1728    1729    1730    1729    1730
    1730       0    1732    1733    1734    1733    1734    1734       0    1736
    1737    1738    1737    1738    1738       0    1740    1741    1742    1741
    1742    1742       0    1744    1745    1746    1745    1746    1746       0
    1748    1749    1750    1749    1750    1750       0    1752    1753    1754
    1753    1754    1754       0    1756    1757    1758    1757    1758    1758
       0    1760    1761    1762    1761    1762    1762       0    1764    1765
    1766    1765    1766    1766       0    1768    1769    1770    1769    1770
    1770       0    1772    1773    1774    1773    1774    1774       0    1776
    1777    1778    1777    1778    1778       0    1780    1781    1782    1781
    1782    1782       0    1784    1785    1786    1785    1786    1786       0
    1788    1789    1790    1789    1790    1790       0    1792    1793    1794
    1793    1794    1794       0    1796    1797    1798    1797    1798    1798
       0    1800    1801    1802    1801    1802    1802       0    1804    1805
    1806    1805    1806    1806       0    1808    1809    1810    1809    1810
    1810       0    1812    1813    1814    1813    1814    1814       0    1816
    1817    1818    1817    1818    1818       0    1820    1821    1822    1821
    1822    1822       0    1824    1825    1826    1825    1826    1826       0
    1828    1829    1830    1829    1830    1830       0    1832    1833    1834
    1833    1834    1834       0    1836    1837    1838    1837    1838    1838
       0    1840    1841    1842    1841    1842    1842       0    1844    1845
    1846    1845    1846    1846       0    1848    1849    1850    1849    1850
    1850       0    1852    1853    1854    1853    1854    1854       0    1856
    1857    1858    1857    1858    1858       0    1860    1861    1862    1861
    1862    1862       0    1864    1865    1866    1865    1866    1866       0
    1868    1869    1870    1869    1870    1870       0    1872    1873    1874
    1873    1874    1874       0    1876    1877    1878    1877    1878    1878
       0    1880    1881    1882    1881    1882    1882       0    1884    1885
    1886    1885    1886    1886       0    1888    1889    1890    1889    1890
    1890       0    1892    1893    1894    1893    1894    1894       0    1896
    1897    1898    1897    1898    1898       0    1900    1901    1902    1901
    1902    1902       0    1904    1905    1906    1905    1906    1906       0
    1908    1909    1910    1909    1910    1910       0    1912    1913    1914
    1913    1914    1914       0    1916    1917    1918    1917    1918    1918
       0    1920    1921    1922    1921    1922    1922       0    1924    1925
    1926    1925    1926    1926       0    1928    1929    1930    1929    1930
    1930       0    1932    1933    1934    1933    1934    1934       0    1936
    1937    1938    1937    1938    1938       0    1940    1941    1942    1941
    1942    1942       0    1944    1945    1946    1945    1946    1946       0
    1948    1949    1950    1949    1950    1950       0    1952    1953    1954
    1953    1954    1954       0    1956    1957    1958    1957    1958    1958
       0    1960    1961    1962    1961    1962    1962       0    1964    1965
    1966    1965    1966    1966       0    1968    1969    1970    1969    1970
    1970       0    1972    1973    1974    1973    1974    1974       0    1976
    1977    1978    1977    1978    1978       0    1980    1981    1982    1981
    1982    1982       0    1984    1985    1986    1985    1986    1986       0
    1988    1989    1990    1989    1990    1990       0    1992    1993    1994
    1993    1994    1994       0    1996    1997    1998    1997    1998    1998
       0    2000    2001    2002    2001    2002    2002       0    2004    2005
    2006    2005    2006    2006       0    2008    2009    2010    2009    2010
    2010       0    2012    2013    2014    2013    2014    2014       0    2016
    2017    2018    2017    2018    2018       0    2020    2021    2022    2021
    2022    2022       0    2024    2025    2026    2025    2026    2026       0
    2028    2029    2030    2029    2030    2030       0    2032    2033    2034
    2033    2034    2034       0    2036    2037    2038    2037    2038    2038
       0    2040    2041    2042    2041    2042    2042       0    2044    2045
    2046    2045    2046    2046       0    2048    2049    2050    2049    2050
    2050       0    2052    2053    2054    2053    2054    2054       0    2056
    2057    2058    2057    2058    2058       0    2060    2061    2062    2061
    2062    2062       0    2064    2065    2066    2065    2066    2066       0
    2068    2069    2070    2069    2070    2070       0    2072    2073    2074
    2073    2074    2074       0    2076    2077    2078    2077    2078    2078
       0    2080    2081    2082    2081    2082    2082       0    2084    2085
    2086    2085    2086    2086       0    2088    2089    2090    2089    2090
    2090       0    2092    2093    2094    2093    2094    2094       0    2096
    2097    2098    2097    2098    2098       0    2100    2101    2102    2101
    2102    2102       0    2104    2105    2106    2105    2106    2106       0
    2108    2109    2110    2109    2110    2110       0    2112    2113    2114
    2113    2114    2114       0    2116    2117    2118    2117    2118    2118
       0    2120    2121    2122    2121    2122    2122       0    2124    2125
    2126    2125    2126    2126       0    2128    2129    2130    2129    2130
    2130       0    2132    2133    2134    2133    2134    2134       0    2136
    2137    2138    2137    2138    2138       0    2140    2141    2142    2141
    2142    2142       0    2144    2145    2146    2145    2146    2146       0
    2148    2149    2150    2149    2150    2150       0    2152    2153    2154
    2153    2154    2154       0    2156    2157    2158    2157    2158    2158
       0    2160    2161    2162    2161    2162    2162       0    2164    2165
    2166    2165    2166    2166       0    2168    2169    2170    2169    2170
    2170       0    2172    2173    2174    2173    2174    2174       0    2176
    2177    2178    2177    2178    2178       0    2180    2181    2182    2181
    2182    2182       0    2184    2185    2186    2185    2186    2186       0
    2188    2189    2190    2189    2190    2190       0    2192    2193    2194
    2193    2194    2194       0    2196    2197    2198    2197    2198    2198
       0    2200    2201    2202    2201    2202    2202       0    2204    2205
    2206    2205    2206    2206       0    2208    2209    2210    2209    2210
    2210       0    2212    2213    2214    2213    2214    2214       0    2216
    2217    2218    2217    2218    2218       0    2220    2221    2222    2221
    2222    2222       0    2224    2225    2226    2225    2226    2226       0
    2228    2229    2230    2229    2230    2230       0    2232    2233    2234
    2233    2234    2234       0    2236    2237    2238    2237    2238    2238
       0    2240    2241    2242    2241    2242    2242       0    2244    2245
    2246    2245    2246    2246       0    2248    2249    2250    2249    2250
    2250       0    2252    2253    2254    2253    2254    2254       0    2256
    2257    2258    2257    2258    2258       0    2260    2261    2262    2261
    2262    2262       0    2264    2265    2266    2265    2266    2266       0
    2268    2269    2270    2269    2270    2270       0    2272    2273    2274
    2273    2274    2274       0    2276    2277    2278    2277    2278    2278
       0    2280    2281    2282    2281    2282    2282       0    2284    2285
    2286    2285    2286    2286       0    2288    2289    2290    2289    2290
    2290       0    2292    2293    2294    2293    2294    2294       0    2296
    2297    2298    2297    2298    2298       0    2300    2301    2302    2301
    2302    2302       0    2304    2305    2306    2305    2306    2306       0
    2308    2309    2310    2309    2310    2310       0    2312    2313    2314
    2313    2314    2314       0    2316    2317    2318    2317    2318    2318
       0    2320    2321    2322    2321    2322    2322       0    2324    2325
    2326    2325    2326    2326       0    2328    2329    2330    2329    2330
    2330       0    2332    2333    2334    2333    2334    2334       0    2336
    2337    2338    2337    2338    2338       0    2340    2341    2342    2341
    2342    2342       0    2344    2345    2346    2345    2346    2346       0
    2348    2349    2350    2349    2350    2350       0    2352    2353    2354
    2353    2354    2354       0    2356    2357    2358    2357    2358    2358
       0    2360    2361    2362    2361    2362    2362       0    2364    2365
    2366    2365    2366    2366       0    2368    2369    2370    2369    2370
    2370       0    2372    2373    2374    2373    2374    2374       0    2376
    2377    2378    2377    2378    2378       0    2380    2381    2382    2381
    2382    2382       0    2384    2385    2386    2385    2386    2386       0
    2388    2389    2390    2389    2390    2390       0    2392    2393    2394
    2393    2394    2394       0    2396    2397    2398    2397    2398    2398
       0    2400    2401    2402    2401    2402    2402       0    2404    2405
    2406    2405    2406    2406       0    2408    2409    2410    2409    2410
    2410       0    2412    2413    2414    2413    2414    2414       0    2416
    2417    2418    2417    2418    2418       0    2420    2421    2422    2421
    2422    2422       0    2424    2425    2426    2425    2426    2426       0
    2428    2429    2430    2429    2430    2430       0    2432    2433    2434
    2433    2434    2434       0    2436    2437    2438    2437    2438    2438
       0    2440    2441    2442    2441    2442    2442       0    2444    2445
    2446    2445    2446    2446       0    2448    2449    2450    2449    2450
    2450       0    2452    2453    2454    2453    2454    2454       0    2456
    2457    2458    2457    2458    2458       0    2460    2461    2462    2461
    2462    2462       0    2464    2465    2466    2465    2466    2466       0
    2468    2469    2470    2469    2470    2470       0    2472    2473    2474
    2473    2474    2474       0    2476    2477    2478    2477    2478    2478
       0    2480    2481    2482    2481    2482    2482       0    2484    2485
    2486    2485    2486    2486       0    2488    2489    2490    2489    2490
    2490       0    2492    2493    2494    2493    2494    2494       0    2496
    2497    2498    2497    2498    2498       0    2500    2501    2502    2501
    2502    2502       0    2504    2505    2506    2505    2506    2506       0
    2508    2509    2510    2509    2510    2510       0    2512    2513    2514
    2513    2514    2514       0    2516    2517    2518    2517    2518    2518
       0    2520    2521    2522    2521    2522    2522       0    2524    2525
    2526    2525    2526    2526       0    2528    2529    2530    2529    2530
    2530       0    2532    2533    2534    2533    2534    2534       0    2536
    2537    2538    2537    2538    2538       0    2540    2541    2542    2541
    2542    2542       0    2544    2545    2546    2545    2546    2546       0
    2548    2549    2550    2549    2550    2550       0    2552    2553    2554
    2553    2554    2554       0    2556    2557    2558    2557    2558    2558
       0    2560    2561    2562    2561    2562    2562       0    2564    2565
    2566    2565    2566    2566       0    2568    2569    2570    2569    2570
    2570       0    2572    2573    2574    2573    2574    2574       0    2576
    2577    2578    2577    2578    2578       0    2580    2581    2582    2581
    2582    2582       0    2584    2585    2586    2585    2586    2586       0
    2588    2589    2590    2589    2590    2590       0    2592    2593    2594
    2593    2594    2594       0    2596    2597    2598    2597    2598    2598
       0    2600    2601    2602    2601    2602    2602       0    2604    2605
    2606    2605    2606    2606       0    2608    2609    2610    2609    2610
    2610       0    2612    2613    2614    2613    2614    2614       0    2616
    2617    2618    2617    2618    2618       0    2620    2621    2622    2621
    2622    2622       0    2624    2625    2626    2625    2626    2626       0
    2628    2629    2630    2629    2630    2630       0    2632    2633    2634
    2633    2634    2634       0    2636    2637    2638    2637    2638    2638
       0    2640    2641    2642    2641    2642    2642       0    2644    2645
    2646    2645    2646    2646       0    2648    2649    2650    2649    2650
    2650       0    2652    2653    2654    2653    2654    2654       0    2656
    2657    2658    2657    2658    2658       0    2660    2661    2662    2661
    2662    2662       0    2664    2665    2666    2665    2666    2666       0
    2668    2669    2670    2669    2670    2670       0    2672    2673    2674
    2673    2674    2674       0    2676    2677    2678    2677    2678    2678
       0    2680    2681    2682    2681    2682    2682       0    2684    2685
    2686    2685    2686    2686       0    2688    2689    2690    2689    2690
    2690       0    2692    2693    2694    2693    2694    2694       0    2696
    2697    2698    2697    2698    2698       0    2700    2701    2702    2701
    2702    2702       0    2704    2705    2706    2705    2706    2706       0
    2708    2709    2710    2709    2710    2710       0    2712    2713    2714
    2713    2714    2714       0    2716    2717    2718    2717    2718    2718
       0    2720    2721    2722    2721    2722    2722       0    2724    2725
    2726    2725    2726    2726       0    2728    2729    2730    2729    2730
    2730       0    2732    2733    2734    2733    2734    2734       0    2736
    2737    2738    2737    2738    2738       0    2740    2741    2742    2741
    2742    2742       0    2744    2745    2746    2745    2746    2746       0
    2748    2749    2750    2749    2750    2750       0    2752    2753    2754
    2753    2754    2754       0    2756    2757    2758    2757    2758    2758
       0    2760    2761    2762    2761    2762    2762       0    2764    2765
    2766    2765    2766    2766       0    2768    2769    2770    2769    2770
    2770       0    2772    2773    2774    2773    2774    2774       0    2776
    2777    2778    2777    2778    2778       0    2780    2781    2782    2781
    2782    2782       0    2784    2785    2786    2785    2786    2786       0
    2788    2789    2790    2789    2790    2790       0    2792    2793    2794
    2793    2794    2794       0    2796    2797    2798    2797    2798    2798
       0    2800    2801    2802    2801    2802    2802       0    2804    2805
    2806    2805    2806    2806       0    2808    2809    2810    2809    2810
    2810       0    2812    2813    2814    2813    2814    2814       0    2816
    2817    2818    2817    2818    2818       0    2820    2821    2822    2821
    2822    2822       0    2824    2825    2826    2825    2826    2826       0
    2828    2829    2830    2829    2830    2830       0    2832    2833    2834
    2833    2834    2834       0    2836    2837    2838    2837    2838    2838
       0    2840    2841    2842    2841    2842    2842       0    2844    2845
    2846    2845    2846    2846       0    2848    2849    2850    2849    2850
    2850       0    2852    2853    2854    2853    2854    2854       0    2856
    2857    2858    2857    2858    2858       0    2860    2861    2862    2861
    2862    2862       0    2864    2865    2866    2865    2866    2866       0
    2868    2869    2870    2869    2870    2870       0    2872    2873    2874
    2873    2874    2874       0    2876    2877    2878    2877    2878    2878
       0    2880    2881    2882    2881    2882    2882       0    2884    2885
    2886    2885    2886    2886       0    2888    2889    2890    2889    2890
    2890       0    2892    2893    2894    2893    2894    2894       0    2896
    2897    2898    2897    2898    2898       0    2900    2901    2902    2901
    2902    2902       0    2904    2905    2906    2905    2906    2906       0
    2908    2909    2910    2909    2910    2910       0    2912    2913    2914
    2913    2914    2914       0    2916    2917    2918    2917    2918    2918
       0    2920    2921    2922    2921    2922    2922       0    2924    2925
    2926    2925    2926    2926       0    2928    2929    2930    2929    2930
    2930       0    2932    2933    2934    2933    2934    2934       0    2936
    2937    2938    2937    2938    2938       0    2940    2941    2942    2941
    2942    2942       0    2944    2945    2946    2945    2946    2946       0
    2948    2949    2950    2949    2950    2950       0    2952    2953    2954
    2953    2954    2954       0    2956    2957    2958    2957    2958    2958
       0    2960    2961    2962    2961    2962    2962       0    2964    2965
    2966    2965    2966    2966       0    2968    2969    2970    2969    2970
    2970       0    2972    2973    2974    2973    2974    2974       0    2976
    2977    2978    2977    2978    2978       0    2980    2981    2982    2981
    2982    2982       0    2984    2985    2986    2985    2986    2986       0
    2988    2989    2990    2989    2990    2990       0    2992    2993    2994
    2993    2994    2994       0    2996    2997    2998    2997    2998    2998
       0    3000    3001    3002    3001    3002    3002       0    3004    3005
    3006    3005    3006    3006       0    3008    3009    3010    3009    3010
    3010       0    3012    3013    3014    3013    3014    3014       0    3016
    3017    3018    3017    3018    3018       0    3020    3021    3022    3021
    3022    3022       0    3024    3025    3026    3025    3026    3026       0
    3028    3029    3030    3029    3030    3030       0    3032    3033    3034
    3033    3034    3034       0    3036    3037    3038    3037    3038    3038
       0    3040    3041    3042    3041    3042    3042       0    3044    3045
    3046    3045    3046    3046       0    3048    3049    3050    3049    3050
    3050       0    3052    3053    3054    3053    3054    3054       0    3056
    3057    3058    3057    3058    3058       0    3060    3061    3062    3061
    3062    3062       0    3064    3065    3066    3065    3066    3066       0
    3068    3069    3070    3069    3070    3070       0    3072    3073    3074
    3073    3074    3074       0    3076    3077    3078    3077    3078    3078
       0    3080    3081    3082    3081    3082    3082       0    3084    3085
    3086    3085    3086    3086       0    3088    3089    3090    3089    3090
    3090       0    3092    3093    3094    3093    3094    3094       0    3096
    3097    3098    3097    3098    3098       0    3100    3101    3102    3101
    3102    3102       0    3104    3105    3106    3105    3106    3106       0
    3108    3109    3110    3109    3110    3110       0    3112    3113    3114
    3113    3114    3114       0    3116    3117    3118    3117    3118    3118
       0    3120    3121    3122    3121    3122    3122       0    3124    3125
    3126    3125    3126    3126       0    3128    3129    3130    3129    3130
    3130       0    3132    3133    3134    3133    3134    3134       0    3136
    3137    3138    3137    3138    3138       0    3140    3141    3142    3141
    3142    3142       0    3144    3145    3146    3145    3146    3146       0
    3148    3149    3150    3149    3150    3150       0    3152    3153    3154
    3153    3154    3154       0    3156    3157    3158    3157    3158    3158
       0    3160    3161    3162    3161    3162    3162       0    3164    3165
    3166    3165    3166    3166       0    3168    3169    3170    3169    3170
    3170       0    3172    3173    3174    3173    3174    3174       0    3176
    3177    3178    3177    3178    3178       0    3180    3181    3182    3181
    3182    3182       0    3184    3185    3186    3185    3186    3186       0
    3188    3189    3190    3189    3190    3190       0    3192    3193    3194
    3193    3194    3194       0    3196    3197    3198    3197    3198    3198
       0    3200    3201    3202    3201    3202    3202       0    3204    3205
    3206    3205    3206    3206       0    3208    3209    3210    3209    3210
    3210       0    3212    3213    3214    3213    3214    3214       0    3216
    3217    3218    3217    3218    3218       0    3220    3221    3222    3221
    3222    3222       0    3224    3225    3226    3225    3226    3226       0
    3228    3229    3230    3229    3230    3230       0    3232    3233    3234
    3233    3234    3234       0    3236    3237    3238    3237    3238    3238
       0    3240    3241    3242    3241    3242    3242       0    3244    3245
    3246    3245    3246    3246       0    3248    3249    3250    3249    3250
    3250       0    3252    3253    3254    3253    3254    3254       0    3256
    3257    3258    3257    3258    3258       0    3260    3261    3262    3261
    3262    3262       0    3264    3265    3266    3265    3266    3266       0
    3268    3269    3270    3269    3270    3270       0    3272    3273    3274
    3273    3274    3274       0    3276    3277    3278    3277    3278    3278
       0    3280    3281    3282    3281    3282    3282       0    3284    3285
    3286    3285    3286    3286       0    3288    3289    3290    3289    3290
    3290       0    3292    3293    3294    3293    3294    3294       0    3296
    3297    3298    3297    3298    3298       0    3300    3301    3302    3301
    3302    3302       0    3304    3305    3306    3305    3306    3306       0
    3308    3309    3310    3309    3310    3310       0    3312    3313    3314
    3313    3314    3314       0    3316    3317    3318    3317    3318    3318
       0    3320    3321    3322    3321    3322    3322       0    3324    3325
    3326    3325    3326    3326       0    3328    3329    3330    3329    3330
    3330       0    3332    3333    3334    3333    3334    3334       0    3336
    3337    3338    3337    3338    3338       0    3340    3341    3342    3341
    3342    3342       0    3344    3345    3346    3345    3346    3346       0
    3348    3349    3350    3349    3350    3350       0    3352    3353    3354
    3353    3354    3354       0    3356    3357    3358    3357    3358    3358
       0    3360    3361    3362    3361    3362    3362       0    3364    3365
    3366    3365    3366    3366       0    3368    3369    3370    3369    3370
    3370       0    3372    3373    3374    3373    3374    3374       0    3376
    3377    3378    3377    3378    3378       0    3380    3381    3382    3381
    3382    3382       0    3384    3385    3386    3385    3386    3386       0
    3388    3389    3390    3389    3390    3390       0    3392    3393    3394
    3393    3394    3394       0    3396    3397    3398    3397    3398    3398
       0    3400    3401    3402    3401    3402    3402       0    3404    3405
    3406    3405    3406    3406       0    3408    3409    3410    3409    3410
    3410       0    3412    3413    3414    3413    3414    3414       0    3416
    3417    3418    3417    3418    3418       0    3420    3421    3422    3421
    3422    3422       0    3424    3425    3426    3425    3426    3426       0
    3428    3429    3430    3429    3430    3430       0    3432    3433    3434
    3433    3434    3434       0    3436    3437    3438    3437    3438    3438
       0    3440    3441    3442    3441    3442    3442       0    3444    3445
    3446    3445    3446    3446       0    3448    3449    3450    3449    3450
    3450       0    3452    3453    3454    3453    3454    3454       0    3456
    3457    3458    3457    3458    3458       0    3460    3461    3462    3461
    3462    3462       0    3464    3465    3466    3465    3466    3466       0
    3468    3469    3470    3469    3470    3470       0    3472    3473    3474
    3473    3474    3474       0    3476    3477    3478    3477    3478    3478
       0    3480    3481    3482    3481    3482    3482       0    3484    3485
    3486    3485    3486    3486       0    3488    3489    3490    3489    3490
    3490       0    3492    3493    3494    3493    3494    3494       0    3496
    3497    3498    3497    3498    3498       0    3500    3501    3502    3501
    3502    3502       0    3504    3505    3506    3505    3506    3506       0
    3508    3509    3510    3509    3510    3510       0    3512    3513    3514
    3513    3514    3514       0    3516    3517    3518    3517    3518    3518
       0    3520    3521    3522    3521    3522    3522       0    3524    3525
    3526    3525    3526    3526       0    3528    3529    3530    3529    3530
    3530       0    3532    3533    3534    3533    3534    3534       0    3536
    3537    3538    3537    3538    3538       0    3540    3541    3542    3541
    3542    3542       0    3544    3545    3546    3545    3546    3546       0
    3548    3549    3550    3549    3550    3550       0    3552    3553    3554
    3553    3554    3554       0    3556    3557    3558    3557    3558    3558
       0    3560    3561    3562    3561    3562    3562       0    3564    3565
    3566    3565    3566    3566       0    3568    3569    3570    3569    3570
    3570       0    3572    3573    3574    3573    3574    3574       0    3576
    3577    3578    3577    3578    3578       0    3580    3581    3582    3581
    3582    3582       0    3584    3585    3586    3585    3586    3586       0
    3588    3589    3590    3589    3590    3590       0    3592    3593    3594
    3593    3594    3594       0    3596    3597    3598    3597    3598    3598
       0    3600    3601    3602    3601    3602    3602       0    3604    3605
    3606    3605    3606    3606       0    3608    3609    3610    3609    3610
    3610       0    3612    3613    3614    3613    3614    3614       0    3616
    3617    3618    3617    3618    3618       0    3620    3621    3622    3621
    3622    3622       0    3624    3625    3626    3625    3626    3626       0
    3628    3629    3630    3629    3630    3630       0    3632    3633    3634
    3633    3634    3634       0    3636    3637    3638    3637    3638    3638
       0    3640    3641    3642    3641    3642    3642       0    3644    3645
    3646    3645    3646    3646       0    3648    3649    3650    3649    3650
    3650       0    3652    3653    3654    3653    3654    3654       0    3656
    3657    3658    3657    3658    3658       0    3660    3661    3662    3661
    3662    3662       0    3664    3665    3666    3665    3666    3666       0
    3668    3669    3670    3669    3670    3670       0    3672    3673    3674
    3673    3674    3674       0    3676    3677    3678    3677    3678    3678
       0    3680    3681    3682    3681    3682    3682       0    3684    3685
    3686    3685    3686    3686       0    3688    3689    3690    3689    3690
    3690       0    3692    3693    3694    3693    3694    3694       0    3696
    3697    3698    3697    3698    3698       0    3700    3701    3702    3701
    3702    3702       0    3704    3705    3706    3705    3706    3706       0
    3708    3709    3710    3709    3710    3710       0    3712    3713    3714
    3713    3714    3714       0    3716    3717    3718    3717    3718    3718
       0    3720    3721    3722    3721    3722    3722       0    3724    3725
    3726    3725    3726    3726       0    3728    3729    3730    3729    3730
    3730       0    3732    3733    3734    3733    3734    3734       0    3736
    3737    3738    3737    3738    3738       0    3740    3741    3742    3741
    3742    3742       0    3744    3745    3746    3745    3746    3746       0
    3748    3749    3750    3749    3750    3750       0    3752    3753    3754
    3753    3754    3754       0    3756    3757    3758    3757    3758    3758
       0    3760    3761    3762    3761    3762    3762       0    3764    3765
    3766    3765    3766    3766       0    3768    3769    3770    3769    3770
    3770       0    3772    3773    3774    3773    3774    3774       0    3776
    3777    3778    3777    3778    3778       0    3780    3781    3782    3781
    3782    3782       0    3784    3785    3786    3785    3786    3786       0
    3788    3789    3790    3789    3790    3790       0    3792    3793    3794
    3793    3794    3794       0    3796    3797    3798    3797    3798    3798
       0    3800    3801    3802    3801    3802    3802       0    3804    3805
    3806    3805    3806    3806       0    3808    3809    3810    3809    3810
    3810       0    3812    3813    3814    3813    3814    3814       0    3816
    3817    3818    3817    3818    3818       0    3820    3821    3822    3821
    3822    3822       0    3824    3825    3826    3825    3826    3826       0
    3828    3829    3830    3829    3830    3830       0    3832    3833    3834
    3833    3834    3834       0    3836    3837    3838    3837    3838    3838
       0    3840    3841    3842    3841    3842    3842       0    3844    3845
    3846    3845    3846    3846       0    3848    3849    3850    3849    3850
    3850       0    3852    3853    3854    3853    3854    3854       0    3856
    3857    3858    3857    3858    3858       0    3860    3861    3862    3861
    3862    3862       0    3864    3865    3866    3865    3866    3866       0
    3868    3869    3870    3869    3870    3870       0    3872    3873    3874
    3873    3874    3874       0    3876    3877    3878    3877    3878    3878
       0    3880    3881    3882    3881    3882    3882       0    3884    3885
    3886    3885    3886    3886       0    3888    3889    3890    3889    3890
    3890       0    3892    3893    3894    3893    3894    3894       0    3896
    3897    3898    3897    3898    3898       0    3900    3901    3902    3901
    3902    3902       0    3904    3905    3906    3905    3906    3906       0
    3908    3909    3910    3909    3910    3910       0    3912    3913    3914
    3913    3914    3914       0    3916    3917    3918    3917    3918    3918
       0    3920    3921    3922    3921    3922    3922       0    3924    3925
    3926    3925    3926    3926       0    3928    3929    3930    3929    3930
    3930       0    3932    3933    3934    3933    3934    3934       0    3936
    3937    3938    3937    3938    3938       0    3940    3941    3942    3941
    3942    3942       0    3944    3945    3946    3945    3946    3946       0
    3948    3949    3950    3949    3950    3950       0    3952    3953    3954
    3953    3954    3954       0    3956    3957    3958    3957    3958    3958
       0    3960    3961    3962    3961    3962    3962       0    3964    3965
    3966    3965    3966    3966       0    3968    3969    3970    3969    3970
    3970       0    3972    3973    3974    3973    3974    3974       0    3976
    3977    3978    3977    3978    3978       0    3980    3981    3982    3981
    3982    3982       0    3984    3985    3986    3985    3986    3986       0
    3988    3989    3990    3989    3990    3990       0    3992    3993    3994
    3993    3994    3994       0    3996    3997    3998    3997    3998    3998
       0    4000    4001    4002    4001    4002    4002       0    4004    4005
    4006    4005    4006    4006       0    4008    4009    4010    4009    4010
    4010       0    4012    4013    4014    4013    4014    4014       0    4016
    4017    4018    4017    4018    4018       0    4020    4021    4022    4021
    4022    4022       0    4024    4025    4026    4025    4026    4026       0
    4028    4029    4030    4029    4030    4030       0    4032    4033    4034
    4033    4034    4034       0    4036    4037    4038    4037    4038    4038
       0    4040    4041    4042    4041    4042    4042       0    4044    4045
    4046    4045    4046    4046       0    4048    4049    4050    4049    4050
    4050       0    4052    4053    4054    4053    4054    4054       0    4056
    4057    4058    4057    4058    4058       0    4060    4061    4062    4061
    4062    4062       0    4064    4065    4066    4065    4066    4066       0
    4068    4069    4070    4069    4070    4070       0    4072    4073    4074
    4073    4074    4074       0    4076    4077    4078    4077    4078    4078
       0    4080    4081    4082    4081    4082    4082       0    4084    4085
    4086    4085    4086    4086       0    4088    4089    4090    4089    4090
    4090       0    4092    4093    4094    4093    4094    4094       0    4096
    4097    4098    4097    4098    4098       0    4100    4101    4102    4101
    4102    4102       0    4104    4105    4106    4105    4106    4106       0
    4108    4109    4110    4109    4110    4110       0    4112    4113    4114
    4113    4114    4114       0    4116    4117    4118    4117    4118    4118
       0    4120    4121    4122    4121    4122    4122       0    4124    4125
    4126    4125    4126    4126       0    4128    4129    4130    4129    4130
    4130       0    4132    4133    4134    4133    4134    4134       0    4136
    4137    4138    4137    4138    4138       0    4140    4141    4142    4141
    4142    4142       0    4144    4145    4146    4145    4146    4146       0
    4148    4149    4150    4149    4150    4150       0    4152    4153    4154
    4153    4154    4154       0    4156    4157    4158    4157    4158    4158
       0    4160    4161    4162    4161    4162    4162       0    4164    4165
    4166    4165    4166    4166       0    4168    4169    4170    4169    4170
    4170       0    4172    4173    4174    4173    4174    4174       0    4176
    4177    4178    4177    4178    4178       0    4180    4181    4182    4181
    4182    4182       0    4184    4185    4186    4185    4186    4186       0
    4188    4189    4190    4189    4190    4190       0    4192    4193    4194
    4193    4194    4194       0    4196    4197    4198    4197    4198    4198
       0    4200    4201    4202    4201    4202    4202       0    4204    4205
    4206    4205    4206    4206       0    4208    4209    4210    4209    4210
    4210       0    4212    4213    4214    4213    4214    4214       0    4216
    4217    4218    4217    4218    4218       0    4220    4221    4222    4221
    4222    4222       0    4224    4225    4226    4225    4226    4226       0
    4228    4229    4230    4229    4230    4230       0    4232    4233    4234
    4233    4234    4234       0    4236    4237    4238    4237    4238    4238
       0    4240    4241    4242    4241    4242    4242       0    4244    4245
    4246    4245    4246    4246       0    4248    4249    4250    4249    4250
    4250       0    4252    4253    4254    4253    4254    4254       0    4256
    4257    4258    4257    4258    4258       0    4260    4261    4262    4261
    4262    4262       0    4264    4265    4266    4265    4266    4266       0
    4268    4269    4270    4269    4270    4270       0    4272    4273    4274
    4273    4274    4274       0    4276    4277    4278    4277    4278    4278
       0    4280    4281    4282    4281    4282    4282       0    4284    4285
    4286    4285    4286    4286       0    4288    4289    4290    4289    4290
    4290       0    4292    4293    4294    4293    4294    4294       0    4296
    4297    4298    4297    4298    4298       0    4300    4301    4302    4301
    4302    4302       0    4304    4305    4306    4305    4306    4306       0
    4308    4309    4310    4309    4310    4310       0    4312    4313    4314
    4313    4314    4314       0    4316    4317    4318    4317    4318    4318
       0    4320    4321    4322    4321    4322    4322       0    4324    4325
    4326    4325    4326    4326       0    4328    4329    4330    4329    4330
    4330       0    4332    4333    4334    4333    4334    4334       0    4336
    4337    4338    4337    4338    4338       0    4340    4341    4342    4341
    4342    4342       0    4344    4345    4346    4345    4346    4346       0
    4348    4349    4350    4349    4350    4350       0    4352    4353    4354
    4353    4354    4354       0    4356    4357    4358    4357    4358    4358
       0    4360    4361    4362    4361    4362    4362       0    4364    4365
    4366    4365    4366    4366       0    4368    4369    4370    4369    4370
    4370       0    4372    4373    4374    4373    4374    4374       0    4376
    4377    4378    4377    4378    4378       0    4380    4381    4382    4381
    4382    4382       0    4384    4385    4386    4385    4386    4386       0
    4388    4389    4390    4389    4390    4390       0    4392    4393    4394
    4393    4394    4394       0    4396    4397    4398    4397    4398    4398
       0    4400    4401    4402    4401    4402    4402       0    4404    4405
    4406    4405    4406    4406       0    4408    4409    4410    4409    4410
    4410       0    4412    4413    4414    4413    4414    4414       0    4416
    4417    4418    4417    4418    4418       0    4420    4421    4422    4421
    4422    4422       0    4424    4425    4426    4425    4426    4426       0
    4428    4429    4430    4429    4430    4430       0    4432    4433    4434
    4433    4434    4434       0    4436    4437    4438    4437    4438    4438
       0    4440    4441    4442    4441    4442    4442       0    4444    4445
    4446    4445    4446    4446       0    4448    4449    4450    4449    4450
    4450       0    4452    4453    4454    4453    4454    4454       0    4456
    4457    4458    4457    4458    4458       0    4460    4461    4462    4461
    4462    4462       0    4464    4465    4466    4465    4466    4466       0
    4468    4469    4470    4469    4470    4470       0    4472    4473    4474
    4473    4474    4474       0    4476    4477    4478    4477    4478    4478
       0    4480    4481    4482    4481    4482    4482       0    4484    4485
    4486    4485    4486    4486       0    4488    4489    4490    4489    4490
    4490       0    4492    4493    4494    4493    4494    4494       0    4496
    4497    4498    4497    4498    4498       0    4500    4501    4502    4501
    4502    4502       0    4504    4505    4506    4505    4506    4506       0
    4508    4509    4510    4509    4510    4510       0    4512    4513    4514
    4513    4514    4514       0    4516    4517    4518    4517    4518    4518
       0    4520    4521    4522    4521    4522    4522       0    4524    4525
    4526    4525    4526    4526       0    4528    4529    4530    4529    4530
    4530       0    4532    4533    4534    4533    4534    4534       0    4536
    4537    4538    4537    4538    4538       0    4540    4541    4542    4541
    4542    4542       0    4544    4545    4546    4545    4546    4546       0
    4548    4549    4550    4549    4550    4550       0    4552    4553    4554
    4553    4554    4554       0    4556    4557    4558    4557    4558    4558
       0    4560    4561    4562    4561    4562    4562       0    4564    4565
    4566    4565    4566    4566       0    4568    4569    4570    4569    4570
    4570       0    4572    4573    4574    4573    4574    4574       0    4576
    4577    4578    4577    4578    4578       0    4580    4581    4582    4581
    4582    4582       0    4584    4585    4586    4585    4586    4586       0
    4588    4589    4590    4589    4590    4590       0    4592    4593    4594
    4593    4594    4594       0    4596    4597    4598    4597    4598    4598
       0    4600    4601    4602    4601    4602    4602       0    4604    4605
    4606    4605    4606    4606       0    4608    4609    4610    4609    4610
    4610       0    4612    4613    4614    4613    4614    4614       0    4616
    4617    4618    4617    4618    4618       0    4620    4621    4622    4621
    4622    4622       0    4624    4625    4626    4625    4626    4626       0
    4628    4629    4630    4629    4630    4630       0    4632    4633    4634
    4633    4634    4634       0    4636    4637    4638    4637    4638    4638
       0    4640    4641    4642    4641    4642    4642       0    4644    4645
    4646    4645    4646    4646       0    4648    4649    4650    4649    4650
    4650       0    4652    4653    4654    4653    4654    4654       0    4656
    4657    4658    4657    4658    4658       0    4660    4661    4662    4661
    4662    4662       0    4664    4665    4666    4665    4666    4666       0
    4668    4669    4670    4669    4670    4670       0    4672    4673    4674
    4673    4674    4674       0    4676    4677    4678    4677    4678    4678
       0    4680    4681    4682    4681    4682    4682       0    4684    4685
    4686    4685    4686    4686       0    4688    4689    4690    4689    4690
    4690       0    4692    4693    4694    4693    4694    4694       0    4696
    4697    4698    4697    4698    4698       0    4700    4701    4702    4701
    4702    4702       0    4704    4705    4706    4705    4706    4706       0
    4708    4709    4710    4709    4710    4710       0    4712    4713    4714
    4713    4714    4714       0    4716    4717    4718    4717    4718    4718
       0    4720    4721    4722    4721    4722    4722       0    4724    4725
    4726    4725    4726    4726       0    4728    4729    4730    4729    4730
    4730       0    4732    4733    4734    4733    4734    4734       0    4736
    4737    4738    4737    4738    4738       0    4740    4741    4742    4741
    4742    4742       0    4744    4745    4746    4745    4746    4746       0
    4748    4749    4750    4749    4750    4750       0    4752    4753    4754
    4753    4754    4754       0    4756    4757    4758    4757    4758    4758
       0    4760    4761    4762    4761    4762    4762       0    4764    4765
    4766    4765    4766    4766       0    4768    4769    4770    4769    4770
    4770       0    4772    4773    4774    4773    4774    4774       0    4776
    4777    4778    4777    4778    4778       0    4780    4781    4782    4781
    4782    4782       0    4784    4785    4786    4785    4786    4786       0
    4788    4789    4790    4789    4790    4790       0    4792    4793    4794
    4793    4794    4794       0    4796    4797    4798    4797    4798    4798
       0    4800    4801    4802    4801    4802    4802       0    4804    4805
    4806    4805    4806    4806       0    4808    4809    4810    4809    4810
    4810       0    4812    4813    4814    4813    4814    4814       0    4816
    4817    4818    4817    4818    4818       0    4820    4821    4822    4821
    4822    4822       0    4824    4825    4826    4825    4826    4826       0
    4828    4829    4830    4829    4830    4830       0    4832    4833    4834
    4833    4834    4834       0    4836    4837    4838    4837    4838    4838
       0    4840    4841    4842    4841    4842    4842       0    4844    4845
    4846    4845    4846    4846       0    4848    4849    4850    4849    4850
    4850       0    4852    4853    4854    4853    4854    4854       0    4856
    4857    4858    4857    4858    4858       0    4860    4861    4862    4861
    4862    4862       0    4864    4865    4866    4865    4866    4866       0
    4868    4869    4870    4869    4870    4870       0    4872    4873    4874
    4873    4874    4874       0    4876    4877    4878    4877    4878    4878
       0    4880    4881    4882    4881    4882    4882       0    4884    4885
    4886    4885    4886    4886       0    4888    4889    4890    4889    4890
    4890       0    4892    4893    4894    4893    4894    4894       0    4896
    4897    4898    4897    4898    4898       0    4900    4901    4902    4901
    4902    4902       0    4904    4905    4906    4905    4906    4906       0
    4908    4909    4910    4909    4910    4910       0    4912    4913    4914
    4913    4914    4914       0    4916    4917    4918    4917    4918    4918
       0    4920    4921    4922    4921    4922    4922       0    4924    4925
    4926    4925    4926    4926       0    4928    4929    4930    4929    4930
    4930       0    4932    4933    4934    4933    4934    4934       0    4936
    4937    4938    4937    4938    4938       0    4940    4941    4942    4941
    4942    4942       0    4944    4945    4946    4945    4946    4946       0
    4948    4949    4950    4949    4950    4950       0    4952    4953    4954
    4953    4954    4954       0    4956    4957    4958    4957    4958    4958
       0    4960    4961    4962    4961    4962    4962       0    4964    4965
    4966    4965    4966    4966       0    4968    4969    4970    4969    4970
    4970       0    4972    4973    4974    4973    4974    4974       0    4976
    4977    4978    4977    4978    4978       0    4980    4981    4982    4981
    4982    4982       0    4984    4985    4986    4985    4986    4986       0
    4988    4989    4990    4989    4990    4990       0    4992    4993    4994
    4993    4994    4994       0    4996    4997    4998    4997    4998    4998
       0    5000    5001    5002    5001    5002    5002       0    5004    5005
    5006    5005    5006    5006       0    5008    5009    5010    5009    5010
    5010       0    5012    5013    5014    5013    5014    5014       0    5016
    5017    5018    5017    5018    5018       0    5020    5021    5022    5021
    5022    5022       0    5024    5025    5026    5025    5026    5026       0
    5028    5029    5030    5029    5030    5030       0    5032    5033    5034
    5033    5034    5034       0    5036    5037    5038    5037    5038    5038
       0    5040    5041    5042    5041    5042    5042       0    5044    5045
    5046    5045    5046    5046       0    5048    5049    5050    5049    5050
    5050       0    5052    5053    5054    5053    5054    5054       0    5056
    5057    5058    5057    5058    5058       0    5060    5061    5062    5061
    5062    5062       0    5064    5065    5066    5065    5066    5066       0
    5068    5069    5070    5069    5070    5070       0    5072    5073    5074
    5073    5074    5074       0    5076    5077    5078    5077    5078    5078
       0    5080    5081    5082    5081    5082    5082       0    5084    5085
    5086    5085    5086    5086       0    5088    5089    5090    5089    5090
    5090       0    5092    5093    5094    5093    5094    5094       0    5096
    5097    5098    5097    5098    5098       0    5100    5101    5102    5101
    5102    5102       0    5104    5105    5106    5105    5106    5106       0
    5108    5109    5110    5109    5110    5110       0    5112    5113    5114
    5113    5114    5114       0    5116    5117    5118    5117    5118    5118
       0    5120    5121    5122    5121    5122    5122       0    5124    5125
    5126    5125    5126    5126       0    5128    5129    5130    5129    5130
    5130       0    5132    5133    5134    5133    5134    5134       0    5136
    5137    5138    5137    5138    5138       0    5140    5141    5142    5141
    5142    5142       0    5144    5145    5146    5145    5146    5146       0
    5148    5149    5150    5149    5150    5150       0    5152    5153    5154
    5153    5154    5154       0    5156    5157    5158    5157    5158    5158
       0    5160    5161    5162    5161    5162    5162       0    5164    5165
    5166    5165    5166    5166       0    5168    5169    5170    5169    5170
    5170       0    5172    5173    5174    5173    5174    5174       0    5176
    5177    5178    5177    5178    5178       0    5180    5181    5182    5181
    5182    5182       0    5184    5185    5186    5185    5186    5186       0
    5188    5189    5190    5189    5190    5190       0    5192    5193    5194
    5193    5194    5194       0    5196    5197    5198    5197    5198    5198
       0    5200    5201    5202    5201    5202    5202       0    5204    5205
    5206    5205    5206    5206       0    5208    5209    5210    5209    5210
    5210       0    5212    5213    5214    5213    5214    5214       0    5216
    5217    5218    5217    5218    5218       0    5220    5221    5222    5221
    5222    5222       0    5224    5225    5226    5225    5226    5226       0
    5228    5229    5230    5229    5230    5230       0    5232    5233    5234
    5233    5234    5234       0    5236    5237    5238    5237    5238    5238
       0    5240    5241    5242    5241    5242    5242       0    5244    5245
    5246    5245    5246    5246       0    5248    5249    5250    5249    5250
    5250       0    5252    5253    5254    5253    5254    5254       0    5256
    5257    5258    5257    5258    5258       0    5260    5261    5262    5261
    5262    5262       0    5264    5265    5266    5265    5266    5266       0
    5268    5269    5270    5269    5270    5270       0    5272    5273    5274
    5273    5274    5274       0    5276    5277    5278    5277    5278    5278
       0    5280    5281    5282    5281    5282    5282       0    5284    5285
    5286    5285    5286    5286       0    5288    5289    5290    5289    5290
    5290       0    5292    5293    5294    5293    5294    5294       0    5296
    5297    5298    5297    5298    5298       0    5300    5301    5302    5301
    5302    5302       0    5304    5305    5306    5305    5306    5306       0
    5308    5309    5310    5309    5310    5310       0    5312    5313    5314
    5313    5314    5314       0    5316    5317    5318    5317    5318    5318
       0    5320    5321    5322    5321    5322    5322       0    5324    5325
    5326    5325    5326    5326       0    5328    5329    5330    5329    5330
    5330       0    5332    5333    5334    5333    5334    5334       0    5336
    5337    5338    5337    5338    5338       0    5340    5341    5342    5341
    5342    5342       0    5344    5345    5346    5345    5346    5346       0
    5348    5349    5350    5349    5350    5350       0    5352    5353    5354
    5353    5354    5354       0    5356    5357    5358    5357    5358    5358
       0    5360    5361    5362    5361    5362    5362       0    5364    5365
    5366    5365    5366    5366       0    5368    5369    5370    5369    5370
    5370       0    5372    5373    5374    5373    5374    5374       0    5376
    5377    5378    5377    5378    5378       0    5380    5381    5382    5381
    5382    5382       0    5384    5385    5386    5385    5386    5386       0
    5388    5389    5390    5389    5390    5390       0    5392    5393    5394
    5393    5394    5394       0    5396    5397    5398    5397    5398    5398
       0    5400    5401    5402    5401    5402    5402       0    5404    5405
    5406    5405    5406    5406       0    5408    5409    5410    5409    5410
    5410       0    5412    5413    5414    5413    5414    5414       0    5416
    5417    5418    5417    5418    5418       0    5420    5421    5422    5421
    5422    5422       0    5424    5425    5426    5425    5426    5426       0
    5428    5429    5430    5429    5430    5430       0    5432    5433    5434
    5433    5434    5434       0    5436    5437    5438    5437    5438    5438
       0    5440    5441    5442    5441    5442    5442       0    5444    5445
    5446    5445    5446    5446       0    5448    5449    5450    5449    5450
    5450       0    5452    5453    5454    5453    5454    5454       0    5456
    5457    5458    5457    5458    5458       0    5460    5461    5462    5461
    5462    5462       0    5464    5465    5466    5465    5466    5466       0
    5468    5469    5470    5469    5470    5470       0    5472    5473    5474
    5473    5474    5474       0    5476    5477    5478    5477    5478    5478
       0    5480    5481    5482    5481    5482    5482       0    5484    5485
    5486    5485    5486    5486       0    5488    5489    5490    5489    5490
    5490       0    5492    5493    5494    5493    5494    5494       0    5496
    5497    5498    5497    5498    5498       0    5500    5501    5502    5501
    5502    5502       0    5504    5505    5506    5505    5506    5506       0
    5508    5509    5510    5509    5510    5510       0    5512    5513    5514
    5513    5514    5514       0    5516    5517    5518    5517    5518    5518
       0    5520    5521    5522    5521    5522    5522       0    5524    5525
    5526    5525    5526    5526       0    5528    5529    5530    5529    5530
    5530       0    5532    5533    5534    5533    5534    5534       0    5536
    5537    5538    5537    5538    5538       0    5540    5541    5542    5541
    5542    5542       0    5544    5545    5546    5545    5546    5546       0
    5548    5549    5550    5549    5550    5550       0    5552    5553    5554
    5553    5554    5554       0    5556    5557    5558    5557    5558    5558
       0    5560    5561    5562    5561    5562    5562       0    5564    5565
    5566    5565    5566    5566       0    5568    5569    5570    5569    5570
    5570       0    5572    5573    5574    5573    5574    5574       0    5576
    5577    5578    5577    5578    5578       0    5580    5581    5582    5581
    5582    5582       0    5584    5585    5586    5585    5586    5586       0
    5588    5589    5590    5589    5590    5590       0    5592    5593    5594
    5593    5594    5594       0    5596    5597    5598    5597    5598    5598
       0    5600    5601    5602    5601    5602    5602       0    5604    5605
    5606    5605    5606    5606       0    5608    5609    5610    5609    5610
    5610       0    5612    5613    5614    5613    5614    5614       0    5616
    5617    5618    5617    5618    5618       0    5620    5621    5622    5621
    5622    5622       0    5624    5625    5626    5625    5626    5626       0
    5628    5629    5630    5629    5630    5630       0    5632    5633    5634
    5633    5634    5634       0    5636    5637    5638    5637    5638    5638
       0    5640    5641    5642    5641    5642    5642       0    5644    5645
    5646    5645    5646    5646       0    5648    5649    5650    5649    5650
    5650       0    5652    5653    5654    5653    5654    5654       0    5656
    5657    5658    5657    5658    5658       0    5660    5661    5662    5661
    5662    5662       0    5664    5665    5666    5665    5666    5666       0
    5668    5669    5670    5669    5670    5670       0    5672    5673    5674
    5673    5674    5674       0    5676    5677    5678    5677    5678    5678
       0    5680    5681    5682    5681    5682    5682       0    5684    5685
    5686    5685    5686    5686       0    5688    5689    5690    5689    5690
    5690       0    5692    5693    5694    5693    5694    5694       0    5696
    5697    5698    5697    5698    5698       0    5700    5701    5702    5701
    5702    5702       0    5704    5705    5706    5705    5706    5706       0
    5708    5709    5710    5709    5710    5710       0    5712    5713    5714
    5713    5714    5714       0    5716    5717    5718    5717    5718    5718
       0    5720    5721    5722    5721    5722    5722       0    5724    5725
    5726    5725    5726    5726       0    5728    5729    5730    5729    5730
    5730       0    5732    5733    5734    5733    5734    5734       0    5736
    5737    5738    5737    5738    5738       0    5740    5741    5742    5741
    5742    5742       0    5744    5745    5746    5745    5746    5746       0
    5748    5749    5750    5749    5750    5750       0    5752    5753    5754
    5753    5754    5754       0    5756    5757    5758    5757    5758    5758
       0    5760    5761    5762    5761    5762    5762       0    5764    5765
    5766    5765    5766    5766       0    5768    5769    5770    5769    5770
    5770       0    5772    5773    5774    5773    5774    5774       0    5776
    5777    5778    5777    5778    5778       0    5780    5781    5782    5781
    5782    5782       0    5784    5785    5786    5785    5786    5786       0
    5788    5789    5790    5789    5790    5790       0    5792    5793    5794
    5793    5794    5794       0    5796    5797    5798    5797    5798    5798
       0    5800    5801    5802    5801    5802    5802       0    5804    5805
    5806    5805    5806    5806       0    5808    5809    5810    5809    5810
    5810       0    5812    5813    5814    5813    5814    5814       0    5816
    5817    5818    5817    5818    5818       0    5820    5821    5822    5821
    5822    5822       0    5824    5825    5826    5825    5826    5826       0
    5828    5829    5830    5829    5830    5830       0    5832    5833    5834
    5833    5834    5834       0    5836    5837    5838    5837    5838    5838
       0    5840    5841    5842    5841    5842    5842       0    5844    5845
    5846    5845    5846    5846       0    5848    5849    5850    5849    5850
    5850       0    5852    5853    5854    5853    5854    5854       0    5856
    5857    5858    5857    5858    5858       0    5860    5861    5862    5861
    5862    5862       0    5864    5865    5866    5865    5866    5866       0
    5868    5869    5870    5869    5870    5870       0    5872    5873    5874
    5873    5874    5874       0    5876    5877    5878    5877    5878    5878
       0    5880    5881    5882    5881    5882    5882       0    5884    5885
    5886    5885    5886    5886       0    5888    5889    5890    5889    5890
    5890       0    5892    5893    5894    5893    5894    5894       0    5896
    5897    5898    5897    5898    5898       0    5900    5901    5902    5901
    5902    5902       0    5904    5905    5906    5905    5906    5906       0
    5908    5909    5910    5909    5910    5910       0    5912    5913    5914
    5913    5914    5914       0    5916    5917    5918    5917    5918    5918
       0    5920    5921    5922    5921    5922    5922       0    5924    5925
    5926    5925    5926    5926       0    5928    5929    5930    5929    5930
    5930       0    5932    5933    5934    5933    5934    5934       0    5936
    5937    5938    5937    5938    5938       0    5940    5941    5942    5941
    5942    5942       0    5944    5945    5946    5945    5946    5946       0
    5948    5949    5950    5949    5950    5950       0    5952    5953    5954
    5953    5954    5954       0    5956    5957    5958    5957    5958    5958
       0    5960    5961    5962    5961    5962    5962       0    5964    5965
    5966    5965    5966    5966       0    5968    5969    5970    5969    5970
    5970       0    5972    5973    5974    5973    5974    5974       0    5976
    5977    5978    5977    5978    5978       0    5980    5981    5982    5981
    5982    5982       0    5984    5985    5986    5985    5986    5986       0
    5988    5989    5990    5989    5990    5990       0    5992    5993    5994
    5993    5994    5994       0    5996    5997    5998    5997    5998    5998
       0    6000    6001    6002    6001    6002    6002       0    6004    6005
    6006    6005    6006    6006       0    6008    6009    6010    6009    6010
    6010       0    6012    6013    6014    6013    6014    6014       0    6016
    6017    6018    6017    6018    6018       0    6020    6021    6022    6021
    6022    6022       0    6024    6025    6026    6025    6026    6026       0
    6028    6029    6030    6029    6030    6030       0    6032    6033    6034
    6033    6034    6034       0    6036    6037    6038    6037    6038    6038
       0    6040    6041    6042    6041    6042    6042       0    6044    6045
    6046    6045    6046    6046       0    6048    6049    6050    6049    6050
    6050       0    6052    6053    6054    6053    6054    6054       0    6056
    6057    6058    6057    6058    6058       0    6060    6061    6062    6061
    6062    6062       0    6064    6065    6066    6065    6066    6066       0
    6068    6069    6070    6069    6070    6070       0    6072    6073    6074
    6073    6074    6074       0    6076    6077    6078    6077    6078    6078
       0    6080    6081    6082    6081    6082    6082       0    6084    6085
    6086    6085    6086    6086       0    6088    6089    6090    6089    6090
    6090       0    6092    6093    6094    6093    6094    6094       0    6096
    6097    6098    6097    6098    6098       0    6100    6101    6102    6101
    6102    6102       0    6104    6105    6106    6105    6106    6106       0
    6108    6109    6110    6109    6110    6110       0    6112    6113    6114
    6113    6114    6114       0    6116    6117    6118    6117    6118    6118
       0    6120    6121    6122    6121    6122    6122       0    6124    6125
    6126    6125    6126    6126       0    6128    6129    6130    6129    6130
    6130       0    6132    6133    6134    6133    6134    6134       0    6136
    6137    6138    6137    6138    6138       0    6140    6141    6142    6141
    6142    6142       0    6144    6145    6146    6145    6146    6146       0
    6148    6149    6150    6149    6150    6150       0    6152    6153    6154
    6153    6154    6154       0    6156    6157    6158    6157    6158    6158
       0    6160    6161    6162    6161    6162    6162       0    6164    6165
    6166    6165    6166    6166       0    6168    6169    6170    6169    6170
    6170       0    6172    6173    6174    6173    6174    6174       0    6176
    6177    6178    6177    6178    6178       0    6180    6181    6182    6181
    6182    6182       0    6184    6185    6186    6185    6186    6186       0
    6188    6189    6190    6189    6190    6190       0    6192    6193    6194
    6193    6194    6194       0    6196    6197    6198    6197    6198    6198
       0    6200    6201    6202    6201    6202    6202       0    6204    6205
    6206    6205    6206    6206       0    6208    6209    6210    6209    6210
    6210       0    6212    6213    6214    6213    6214    6214       0    6216
    6217    6218    6217    6218    6218       0    6220    6221    6222    6221
    6222    6222       0    6224    6225    6226    6225    6226    6226       0
    6228    6229    6230    6229    6230    6230       0    6232    6233    6234
    6233    6234    6234       0    6236    6237    6238    6237    6238    6238
       0    6240    6241    6242    6241    6242    6242       0    6244    6245
    6246    6245    6246    6246       0    6248    6249    6250    6249    6250
    6250       0    6252    6253    6254    6253    6254    6254       0    6256
    6257    6258    6257    6258    6258       0    6260    6261    6262    6261
    6262    6262       0    6264    6265    6266    6265    6266    6266       0
    6268    6269    6270    6269    6270    6270       0    6272    6273    6274
    6273    6274    6274       0    6276    6277    6278    6277    6278    6278
       0    6280    6281    6282    6281    6282    6282       0    6284    6285
    6286    6285    6286    6286       0    6288    6289    6290    6289    6290
    6290       0    6292    6293    6294    6293    6294    6294       0    6296
    6297    6298    6297    6298    6298       0    6300    6301    6302    6301
    6302    6302       0    6304    6305    6306    6305    6306    6306       0
    6308    6309    6310    6309    6310    6310       0    6312    6313    6314
    6313    6314    6314       0    6316    6317    6318    6317    6318    6318
       0    6320    6321    6322    6321    6322    6322       0    6324    6325
    6326    6325    6326    6326       0    6328    6329    6330    6329    6330
    6330       0    6332    6333    6334    6333    6334    6334       0    6336
    6337    6338    6337    6338    6338       0    6340    6341    6342    6341
    6342    6342       0    6344    6345    6346    6345    6346    6346       0
    6348    6349    6350    6349    6350    6350       0    6352    6353    6354
    6353    6354    6354       0    6356    6357    6358    6357    6358    6358
       0    6360    6361    6362    6361    6362    6362       0    6364    6365
    6366    6365    6366    6366       0    6368    6369    6370    6369    6370
    6370       0    6372    6373    6374    6373    6374    6374       0    6376
    6377    6378    6377    6378    6378       0    6380    6381    6382    6381
    6382    6382       0    6384    6385    6386    6385    6386    6386       0
    6388    6389    6390    6389    6390    6390       0    6392    6393    6394
    6393    6394    6394       0    6396    6397    6398    6397    6398    6398
       0    6400    6401    6402    6401    6402    6402       0    6404    6405
    6406    6405    6406    6406       0    6408    6409    6410    6409    6410
    6410       0    6412    6413    6414    6413    6414    6414       0    6416
    6417    6418    6417    6418    6418       0    6420    6421    6422    6421
    6422    6422       0    6424    6425    6426    6425    6426    6426       0
    6428    6429    6430    6429    6430    6430       0    6432    6433    6434
    6433    6434    6434       0    6436    6437    6438    6437    6438    6438
       0    6440    6441    6442    6441    6442    6442       0    6444    6445
    6446    6445    6446    6446       0    6448    6449    6450    6449    6450
    6450       0    6452    6453    6454    6453    6454    6454       0    6456
    6457    6458    6457    6458    6458       0    6460    6461    6462    6461
    6462    6462       0    6464    6465    6466    6465    6466    6466       0
    6468    6469    6470    6469    6470    6470       0    6472    6473    6474
    6473    6474    6474       0    6476    6477    6478    6477    6478    6478
       0    6480    6481    6482    6481    6482    6482       0    6484    6485
    6486    6485    6486    6486       0    6488    6489    6490    6489    6490
    6490       0    6492    6493    6494    6493    6494    6494       0    6496
    6497    6498    6497    6498    6498       0    6500    6501    6502    6501
    6502    6502       0    6504    6505    6506    6505    6506    6506       0
    6508    6509    6510    6509    6510    6510       0    6512    6513    6514
    6513    6514    6514       0    6516    6517    6518    6517    6518    6518
       0    6520    6521    6522    6521    6522    6522       0    6524    6525
    6526    6525    6526    6526       0    6528    6529    6530    6529    6530
    6530       0    6532    6533    6534    6533    6534    6534       0    6536
    6537    6538    6537    6538    6538       0    6540    6541    6542    6541
    6542    6542       0    6544    6545    6546    6545    6546    6546       0
    6548    6549    6550    6549    6550    6550       0    6552    6553    6554
    6553    6554    6554       0    6556    6557    6558    6557    6558    6558
       0    6560    6561    6562    6561    6562    6562       0    6564    6565
    6566    6565    6566    6566       0    6568    6569    6570    6569    6570
    6570       0    6572    6573    6574    6573    6574    6574       0    6576
    6577    6578    6577    6578    6578       0    6580    6581    6582    6581
    6582    6582       0    6584    6585    6586    6585    6586    6586       0
    6588    6589    6590    6589    6590    6590       0    6592    6593    6594
    6593    6594    6594       0    6596    6597    6598    6597    6598    6598
       0    6600    6601    6602    6601    6602    6602       0    6604    6605
    6606    6605    6606    6606       0    6608    6609    6610    6609    6610
    6610       0    6612    6613    6614    6613    6614    6614       0    6616
    6617    6618    6617    6618    6618       0    6620    6621    6622    6621
    6622    6622       0    6624    6625    6626    6625    6626    6626       0
    6628    6629    6630    6629    6630    6630       0    6632    6633    6634
    6633    6634    6634       0    6636    6637    6638    6637    6638    6638
       0    6640    6641    6642    6641    6642    6642       0    6644    6645
    6646    6645    6646    6646       0    6648    6649    6650    6649    6650
    6650       0    6652    6653    6654    6653    6654    6654       0    6656
    6657    6658    6657    6658    6658       0    6660    6661    6662    6661
    6662    6662       0    6664    6665    6666    6665    6666    6666       0
    6668    6669    6670    6669    6670    6670       0    6672    6673    6674
    6673    6674    6674       0    6676    6677    6678    6677    6678    6678
       0    6680    6681    6682    6681    6682    6682       0    6684    6685
    6686    6685    6686    6686       0    6688    6689    6690    6689    6690
    6690       0    6692    6693    6694    6693    6694    6694       0    6696
    6697    6698    6697    6698    6698       0    6700    6701    6702    6701
    6702    6702       0    6704    6705    6706    6705    6706    6706       0
    6708    6709    6710    6709    6710    6710       0    6712    6713    6714
    6713    6714    6714       0    6716    6717    6718    6717    6718    6718
       0    6720    6721    6722    6721    6722    6722       0    6724    6725
    6726    6725    6726    6726       0    6728    6729    6730    6729    6730
    6730       0    6732    6733    6734    6733    6734    6734       0    6736
    6737    6738    6737    6738    6738       0    6740    6741    6742    6741
    6742    6742       0    6744    6745    6746    6745    6746    6746       0
    6748    6749    6750    6749    6750    6750       0    6752    6753    6754
    6753    6754    6754       0    6756    6757    6758    6757    6758    6758
       0    6760    6761    6762    6761    6762    6762       0    6764    6765
    6766    6765    6766    6766       0    6768    6769    6770    6769    6770
    6770       0    6772    6773    6774    6773    6774    6774       0    6776
    6777    6778    6777    6778    6778       0    6780    6781    6782    6781
    6782    6782       0    6784    6785    6786    6785    6786    6786       0
    6788    6789    6790    6789    6790    6790       0    6792    6793    6794
    6793    6794    6794       0    6796    6797    6798    6797    6798    6798
       0    6800    6801    6802    6801    6802    6802       0    6804    6805
    6806    6805    6806    6806       0    6808    6809    6810    6809    6810
    6810       0    6812    6813    6814    6813    6814    6814       0    6816
    6817    6818    6817    6818    6818       0    6820    6821    6822    6821
    6822    6822       0    6824    6825    6826    6825    6826    6826       0
    6828    6829    6830    6829    6830    6830       0    6832    6833    6834
    6833    6834    6834       0    6836    6837    6838    6837    6838    6838
       0    6840    6841    6842    6841    6842    6842       0    6844    6845
    6846    6845    6846    6846       0    6848    6849    6850    6849    6850
    6850       0    6852    6853    6854    6853    6854    6854       0    6856
    6857    6858    6857    6858    6858       0    6860    6861    6862    6861
    6862    6862       0    6864    6865    6866    6865    6866    6866       0
    6868    6869    6870    6869    6870    6870       0    6872    6873    6874
    6873    6874    6874       0    6876    6877    6878    6877    6878    6878
       0    6880    6881    6882    6881    6882    6882       0    6884    6885
    6886    6885    6886    6886       0    6888    6889    6890    6889    6890
    6890       0    6892    6893    6894    6893    6894    6894       0    6896
    6897    6898    6897    6898    6898       0    6900    6901    6902    6901
    6902    6902       0    6904    6905    6906    6905    6906    6906       0
    6908    6909    6910    6909    6910    6910       0    6912    6913    6914
    6913    6914    6914       0    6916    6917    6918    6917    6918    6918
       0    6920    6921    6922    6921    6922    6922       0    6924    6925
    6926    6925    6926    6926       0    6928    6929    6930    6929    6930
    6930       0    6932    6933    6934    6933    6934    6934       0    6936
    6937    6938    6937    6938    6938       0    6940    6941    6942    6941
    6942    6942       0    6944    6945    6946    6945    6946    6946       0
    6948    6949    6950    6949    6950    6950       0    6952    6953    6954
    6953    6954    6954       0    6956    6957    6958    6957    6958    6958
       0    6960    6961    6962    6961    6962    6962       0    6964    6965
    6966    6965    6966    6966       0    6968    6969    6970    6969    6970
    6970       0    6972    6973    6974    6973    6974    6974       0    6976
    6977    6978    6977    6978    6978       0    6980    6981    6982    6981
    6982    6982       0    6984    6985    6986    6985    6986    6986       0
    6988    6989    6990    6989    6990    6990       0    6992    6993    6994
    6993    6994    6994       0    6996    6997    6998    6997    6998    6998
       0    7000    7001    7002    7001    7002    7002       0    7004    7005
    7006    7005    7006    7006       0    7008    7009    7010    7009    7010
    7010       0    7012    7013    7014    7013    7014    7014       0    7016
    7017    7018    7017    7018    7018       0    7020    7021    7022    7021
    7022    7022       0    7024    7025    7026    7025    7026    7026       0
    7028    7029    7030    7029    7030    7030       0    7032    7033    7034
    7033    7034    7034       0    7036    7037    7038    7037    7038    7038
       0    7040    7041    7042    7041    7042    7042       0    7044    7045
    7046    7045    7046    7046       0    7048    7049    7050    7049    7050
    7050       0    7052    7053    7054    7053    7054    7054       0    7056
    7057    7058    7057    7058    7058       0    7060    7061    7062    7061
    7062    7062       0    7064    7065    7066    7065    7066    7066       0
    7068    7069    7070    7069    7070    7070       0    7072    7073    7074
    7073    7074    7074       0    7076    7077    7078    7077    7078    7078
       0    7080    7081    7082    7081    7082    7082       0    7084    7085
    7086    7085    7086    7086       0    7088    7089    7090    7089    7090
    7090       0    7092    7093    7094    7093    7094    7094       0    7096
    7097    7098    7097    7098    7098       0    7100    7101    7102    7101
    7102    7102       0    7104    7105    7106    7105    7106    7106       0
    7108    7109    7110    7109    7110    7110       0    7112    7113    7114
    7113    7114    7114       0    7116    7117    7118    7117    7118    7118
       0    7120    7121    7122    7121    7122    7122       0    7124    7125
    7126    7125    7126    7126       0    7128    7129    7130    7129    7130
    7130       0    7132    7133    7134    7133    7134    7134       0    7136
    7137    7138    7137    7138    7138       0    7140    7141    7142    7141
    7142    7142       0    7144    7145    7146    7145    7146    7146       0
    7148    7149    7150    7149    7150    7150       0    7152    7153    7154
    7153    7154    7154       0    7156    7157    7158    7157    7158    7158
       0    7160    7161    7162    7161    7162    7162       0    7164    7165
    7166    7165    7166    7166       0    7168    7169    7170    7169    7170
    7170       0    7172    7173    7174    7173    7174    7174       0    7176
    7177    7178    7177    7178    7178       0    7180    7181    7182    7181
    7182    7182       0    7184    7185    7186    7185    7186    7186       0
    7188    7189    7190    7189    7190    7190       0    7192    7193    7194
    7193    7194    7194       0    7196    7197    7198    7197    7198    7198
       0    7200    7201    7202    7201    7202    7202       0    7204    7205
    7206    7205    7206    7206       0    7208    7209    7210    7209    7210
    7210       0    7212    7213    7214    7213    7214    7214       0    7216
    7217    7218    7217    7218    7218       0    7220    7221    7222    7221
    7222    7222       0    7224    7225    7226    7225    7226    7226       0
    7228    7229    7230    7229    7230    7230       0    7232    7233    7234
    7233    7234    7234       0    7236    7237    7238    7237    7238    7238
       0    7240    7241    7242    7241    7242    7242       0    7244    7245
    7246    7245    7246    7246       0    7248    7249    7250    7249    7250
    7250       0    7252    7253    7254    7253    7254    7254       0    7256
    7257    7258    7257    7258    7258       0    7260    7261    7262    7261
    7262    7262       0    7264    7265    7266    7265    7266    7266       0
    7268    7269    7270    7269    7270    7270       0    7272    7273    7274
    7273    7274    7274       0    7276    7277    7278    7277    7278    7278
       0    7280    7281    7282    7281    7282    7282       0    7284    7285
    7286    7285    7286    7286       0    7288    7289    7290    7289    7290
    7290       0    7292    7293    7294    7293    7294    7294       0    7296
    7297    7298    7297    7298    7298       0    7300    7301    7302    7301
    7302    7302       0    7304    7305    7306    7305    7306    7306       0
    7308    7309    7310    7309    7310    7310       0    7312    7313    7314
    7313    7314    7314       0    7316    7317    7318    7317    7318    7318
       0    7320    7321    7322    7321    7322    7322       0    7324    7325
    7326    7325    7326    7326       0    7328    7329    7330    7329    7330
    7330       0    7332    7333    7334    7333    7334    7334       0    7336
    7337    7338    7337    7338    7338       0    7340    7341    7342    7341
    7342    7342       0    7344    7345    7346    7345    7346    7346       0
    7348    7349    7350    7349    7350    7350       0    7352    7353    7354
    7353    7354    7354       0    7356    7357    7358    7357    7358    7358
       0    7360    7361    7362    7361    7362    7362       0    7364    7365
    7366    7365    7366    7366       0    7368    7369    7370    7369    7370
    7370       0    7372    7373    7374    7373    7374    7374       0    7376
    7377    7378    7377    7378    7378       0    7380    7381    7382    7381
    7382    7382       0    7384    7385    7386    7385    7386    7386       0
    7388    7389    7390    7389    7390    7390       0    7392    7393    7394
    7393    7394    7394       0    7396    7397    7398    7397    7398    7398
       0    7400    7401    7402    7401    7402    7402       0    7404    7405
    7406    7405    7406    7406       0    7408    7409    7410    7409    7410
    7410       0    7412    7413    7414    7413    7414    7414       0    7416
    7417    7418    7417    7418    7418       0    7420    7421    7422    7421
    7422    7422       0    7424    7425    7426    7425    7426    7426       0
    7428    7429    7430    7429    7430    7430       0    7432    7433    7434
    7433    7434    7434       0    7436    7437    7438    7437    7438    7438
       0    7440    7441    7442    7441    7442    7442       0    7444    7445
    7446    7445    7446    7446       0    7448    7449    7450    7449    7450
    7450       0    7452    7453    7454    7453    7454    7454       0    7456
    7457    7458    7457    7458    7458       0    7460    7461    7462    7461
    7462    7462       0    7464    7465    7466    7465    7466    7466       0
    7468    7469    7470    7469    7470    7470       0    7472    7473    7474
    7473    7474    7474       0    7476    7477    7478    7477    7478    7478
       0    7480    7481    7482    7481    7482    7482       0    7484    7485
    7486    7485    7486    7486       0    7488    7489    7490    7489    7490
    7490       0    7492    7493    7494    7493    7494    7494       0    7496
    7497    7498    7497    7498    7498       0    7500    7501    7502    7501
    7502    7502       0    7504    7505    7506    7505    7506    7506       0
    7508    7509    7510    7509    7510    7510       0    7512    7513    7514
    7513    7514    7514       0    7516    7517    7518    7517    7518    7518
       0    7520    7521    7522    7521    7522    7522       0    7524    7525
    7526    7525    7526    7526       0    7528    7529    7530    7529    7530
    7530       0    7532    7533    7534    7533    7534    7534       0    7536
    7537    7538    7537    7538    7538       0    7540    7541    7542    7541
    7542    7542       0    7544    7545    7546    7545    7546    7546       0
    7548    7549    7550    7549    7550    7550       0    7552    7553    7554
    7553    7554    7554       0    7556    7557    7558    7557    7558    7558
       0    7560    7561    7562    7561    7562    7562       0    7564    7565
    7566    7565    7566    7566       0    7568    7569    7570    7569    7570
    7570       0    7572    7573    7574    7573    7574    7574       0    7576
    7577    7578    7577    7578    7578       0    7580    7581    7582    7581
    7582    7582       0    7584    7585    7586    7585    7586    7586       0
    7588    7589    7590    7589    7590    7590       0    7592    7593    7594
    7593    7594    7594       0    7596    7597    7598    7597    7598    7598
       0    7600    7601    7602    7601    7602    7602       0    7604    7605
    7606    7605    7606    7606       0    7608    7609    7610    7609    7610
    7610       0    7612    7613    7614    7613    7614    7614       0    7616
    7617    7618    7617    7618    7618       0    7620    7621    7622    7621
    7622    7622       0    7624    7625    7626    7625    7626    7626       0
    7628    7629    7630    7629    7630    7630       0    7632    7633    7634
    7633    7634    7634       0    7636    7637    7638    7637    7638    7638
       0    7640    7641    7642    7641    7642    7642       0    7644    7645
    7646    7645    7646    7646       0    7648    7649    7650    7649    7650
    7650       0    7652    7653    7654    7653    7654    7654       0    7656
    7657    7658    7657    7658    7658       0    7660    7661    7662    7661
    7662    7662       0    7664    7665    7666    7665    7666    7666       0
    7668    7669    7670    7669    7670    7670       0    7672    7673    7674
    7673    7674    7674       0    7676    7677    7678    7677    7678    7678
       0    7680    7681    7682    7681    7682    7682       0    7684    7685
    7686    7685    7686    7686       0    7688    7689    7690    7689    7690
    7690       0    7692    7693    7694    7693    7694    7694       0    7696
    7697    7698    7697    7698    7698       0    7700    7701    7702    7701
    7702    7702       0    7704    7705    7706    7705    7706    7706       0
    7708    7709    7710    7709    7710    7710       0    7712    7713    7714
    7713    7714    7714       0    7716    7717    7718    7717    7718    7718
       0    7720    7721    7722    7721    7722    7722       0    7724    7725
    7726    7725    7726    7726       0    7728    7729    7730    7729    7730
    7730       0    7732    7733    7734    7733    7734    7734       0    7736
    7737    7738    7737    7738    7738       0    7740    7741    7742    7741
    7742    7742       0    7744    7745    7746    7745    7746    7746       0
    7748    7749    7750    7749    7750    7750       0    7752    7753    7754
    7753    7754    7754       0    7756    7757    7758    7757    7758    7758
       0    7760    7761    7762    7761    7762    7762       0    7764    7765
    7766    7765    7766    7766       0    7768    7769    7770    7769    7770
    7770       0    7772    7773    7774    7773    7774    7774       0    7776
    7777    7778    7777    7778    7778       0    7780    7781    7782    7781
    7782    7782       0    7784    7785    7786    7785    7786    7786       0
    7788    7789    7790    7789    7790    7790       0    7792    7793    7794
    7793    7794    7794       0    7796    7797    7798    7797    7798    7798
       0    7800    7801    7802    7801    7802    7802       0    7804    7805
    7806    7805    7806    7806       0    7808    7809    7810    7809    7810
    7810       0    7812    7813    7814    7813    7814    7814       0    7816
    7817    7818    7817    7818    7818       0    7820    7821    7822    7821
    7822    7822       0    7824    7825    7826    7825    7826    7826       0
    7828    7829    7830    7829    7830    7830       0    7832    7833    7834
    7833    7834    7834       0    7836    7837    7838    7837    7838    7838
       0    7840    7841    7842    7841    7842    7842       0    7844    7845
    7846    7845    7846    7846       0    7848    7849    7850    7849    7850
    7850       0    7852    7853    7854    7853    7854    7854       0    7856
    7857    7858    7857    7858    7858       0    7860    7861    7862    7861
    7862    7862       0    7864    7865    7866    7865    7866    7866       0
    7868    7869    7870    7869    7870    7870       0    7872    7873    7874
    7873    7874    7874       0    7876    7877    7878    7877    7878    7878
       0    7880    7881    7882    7881    7882    7882       0    7884    7885
    7886    7885    7886    7886       0    7888    7889    7890    7889    7890
    7890       0    7892    7893    7894    7893    7894    7894       0    7896
    7897    7898    7897    7898    7898       0    7900    7901    7902    7901
    7902    7902       0    7904    7905    7906    7905    7906    7906       0
    7908    7909    7910    7909    7910    7910       0    7912    7913    7914
    7913    7914    7914       0    7916    7917    7918    7917    7918    7918
       0    7920    7921    7922    7921    7922    7922       0    7924    7925
    7926    7925    7926    7926       0    7928    7929    7930    7929    7930
    7930       0    7932    7933    7934    7933    7934    7934       0    7936
    7937    7938    7937    7938    7938       0    7940    7941    7942    7941
    7942    7942       0    7944    7945    7946    7945    7946    7946       0
    7948    7949    7950    7949    7950    7950       0    7952    7953    7954
    7953    7954    7954       0    7956    7957    7958    7957    7958    7958
       0    7960    7961    7962    7961    7962    7962       0    7964    7965
    7966    7965    7966    7966       0    7968    7969    7970    7969    7970
    7970       0    7972    7973    7974    7973    7974    7974       0    7976
    7977    7978    7977    7978    7978       0    7980    7981    7982    7981
    7982    7982       0    7984    7985    7986    7985    7986    7986       0
    7988    7989    7990    7989    7990    7990       0    7992    7993    7994
    7993    7994    7994       0    7996    7997    7998    7997    7998    7998
       0    8000    8001    8002    8001    8002    8002       0    8004    8005
    8006    8005    8006    8006       0    8008    8009    8010    8009    8010
    8010       0    8012    8013    8014    8013    8014    8014       0    8016
    8017    8018    8017    8018    8018       0    8020    8021    8022    8021
    8022    8022       0    8024    8025    8026    8025    8026    8026       0
    8028    8029    8030    8029    8030    8030       0    8032    8033    8034
    8033    8034    8034       0    8036    8037    8038    8037    8038    8038
       0    8040    8041    8042    8041    8042    8042       0    8044    8045
    8046    8045    8046    8046       0    8048    8049    8050    8049    8050
    8050       0    8052    8053    8054    8053    8054    8054       0    8056
    8057    8058    8057    8058    8058       0    8060    8061    8062    8061
    8062    8062       0    8064    8065    8066    8065    8066    8066       0
    8068    8069    8070    8069    8070    8070       0    8072    8073    8074
    8073    8074    8074       0    8076    8077    8078    8077    8078    8078
       0    8080    8081    8082    8081    8082    8082       0    8084    8085
    8086    8085    8086    8086       0    8088    8089    8090    8089    8090
    8090       0    8092    8093    8094    8093    8094    8094       0    8096
    8097    8098    8097    8098    8098       0    8100    8101    8102    8101
    8102    8102       0    8104    8105    8106    8105    8106    8106       0
    8108    8109    8110    8109    8110    8110       0    8112    8113    8114
    8113    8114    8114       0    8116    8117    8118    8117    8118    8118
       0    8120    8121    8122    8121    8122    8122       0    8124    8125
    8126    8125    8126    8126       0    8128    8129    8130    8129    8130
    8130       0    8132    8133    8134    8133    8134    8134       0    8136
    8137    8138    8137    8138    8138       0    8140    8141    8142    8141
    8142    8142       0    8144    8145    8146    8145    8146    8146       0
    8148    8149    8150    8149    8150    8150       0    8152    8153    8154
    8153    8154    8154       0    8156    8157    8158    8157    8158    8158
       0    8160    8161    8162    8161    8162    8162       0    8164    8165
    8166    8165    8166    8166       0    8168    8169    8170    8169    8170
    8170       0    8172    8173    8174    8173    8174    8174       0    8176
    8177    8178    8177    8178    8178       0    8180    8181    8182    8181
    8182    8182       0    8184    8185    8186    8185    8186    8186       0
    8188    8189    8190    8189    8190    8190       0    8192    8193    8194
    8193    8194    8194       0    8196    8197    8198    8197    8198    8198
       0    8200    8201    8202    8201    8202    8202       0    8204    8205
    8206    8205    8206    8206       0    8208    8209    8210    8209    8210
    8210       0    8212    8213    8214    8213    8214    8214       0    8216
    8217    8218    8217    8218    8218       0    8220    8221    8222    8221
    8222    8222       0    8224    8225    8226    8225    8226    8226       0
    8228    8229    8230    8229    8230    8230       0    8232    8233    8234
    8233    8234    8234       0    8236    8237    8238    8237    8238    8238
       0    8240    8241    8242    8241    8242    8242       0    8244    8245
    8246    8245    8246    8246       0    8248    8249    8250    8249    8250
    8250       0    8252    8253    8254    8253    8254    8254       0    8256
    8257    8258    8257    8258    8258       0    8260    8261    8262    8261
    8262    8262       0    8264    8265    8266    8265    8266    8266       0
    8268    8269    8270    8269    8270    8270       0    8272    8273    8274
    8273    8274    8274       0    8276    8277    8278    8277    8278    8278
       0    8280    8281    8282    8281    8282    8282       0    8284    8285
    8286    8285    8286    8286       0    8288    8289    8290    8289    8290
    8290       0    8292    8293    8294    8293    8294    8294       0    8296
    8297    8298    8297    8298    8298       0    8300    8301    8302    8301
    8302    8302       0    8304    8305    8306    8305    8306    8306       0
    8308    8309    8310    8309    8310    8310       0    8312    8313    8314
    8313    8314    8314       0    8316    8317    8318    8317    8318    8318
       0    8320    8321    8322    8321    8322    8322       0    8324    8325
    8326    8325    8326    8326       0    8328    8329    8330    8329    8330
    8330       0    8332    8333    8334    8333    8334    8334       0    8336
    8337    8338    8337    8338    8338       0    8340    8341    8342    8341
    8342    8342       0    8344    8345    8346    8345    8346    8346       0
    8348    8349    8350    8349    8350    8350       0    8352    8353    8354
    8353    8354    8354       0    8356    8357    8358    8357    8358    8358
       0    8360    8361    8362    8361    8362    8362       0    8364    8365
    8366    8365    8366    8366       0    8368    8369    8370    8369    8370
    8370       0    8372    8373    8374    8373    8374    8374       0    8376
    8377    8378    8377    8378    8378       0    8380    8381    8382    8381
    8382    8382       0    8384    8385    8386    8385    8386    8386       0
    8388    8389    8390    8389    8390    8390       0    8392    8393    8394
    8393    8394    8394       0    8396    8397    8398    8397    8398    8398
       0    8400    8401    8402    8401    8402    8402       0    8404    8405
    8406    8405    8406    8406       0    8408    8409    8410    8409    8410
    8410       0    8412    8413    8414    8413    8414    8414       0    8416
    8417    8418    8417    8418    8418       0    8420    8421    8422    8421
    8422    8422       0    8424    8425    8426    8425    8426    8426       0
    8428    8429    8430    8429    8430    8430       0    8432    8433    8434
    8433    8434    8434       0    8436    8437    8438    8437    8438    8438
       0    8440    8441    8442    8441    8442    8442       0    8444    8445
    8446    8445    8446    8446       0    8448    8449    8450    8449    8450
    8450       0    8452    8453    8454    8453    8454    8454       0    8456
    8457    8458    8457    8458    8458       0    8460    8461    8462    8461
    8462    8462       0    8464    8465    8466    8465    8466    8466       0
    8468    8469    8470    8469    8470    8470       0    8472    8473    8474
    8473    8474    8474       0    8476    8477    8478    8477    8478    8478
       0    8480    8481    8482    8481    8482    8482       0    8484    8485
    8486    8485    8486    8486       0    8488    8489    8490    8489    8490
    8490       0    8492    8493    8494    8493    8494    8494       0    8496
    8497    8498    8497    8498    8498       0    8500    8501    8502    8501
    8502    8502       0    8504    8505    8506    8505    8506    8506       0
    8508    8509    8510    8509    8510    8510       0    8512    8513    8514
    8513    8514    8514       0    8516    8517    8518    8517    8518    8518
       0    8520    8521    8522    8521    8522    8522       0    8524    8525
    8526    8525    8526    8526       0    8528    8529    8530    8529    8530
    8530       0    8532    8533    8534    8533    8534    8534       0    8536
    8537    8538    8537    8538    8538       0    8540    8541    8542    8541
    8542    8542       0    8544    8545    8546    8545    8546    8546       0
    8548    8549    8550    8549    8550    8550       0    8552    8553    8554
    8553    8554    8554       0    8556    8557    8558    8557    8558    8558
       0    8560    8561    8562    8561    8562    8562       0    8564    8565
    8566    8565    8566    8566       0    8568    8569    8570    8569    8570
    8570       0    8572    8573    8574    8573    8574    8574       0    8576
    8577    8578    8577    8578    8578       0    8580    8581    8582    8581
    8582    8582       0    8584    8585    8586    8585    8586    8586       0
    8588    8589    8590    8589    8590    8590       0    8592    8593    8594
    8593    8594    8594       0    8596    8597    8598    8597    8598    8598
       0    8600    8601    8602    8601    8602    8602       0    8604    8605
    8606    8605    8606    8606       0    8608    8609    8610    8609    8610
    8610       0    8612    8613    8614    8613    8614    8614       0    8616
    8617    8618    8617    8618    8618       0    8620    8621    8622    8621
    8622    8622       0    8624    8625    8626    8625    8626    8626       0
    8628    8629    8630    8629    8630    8630       0    8632    8633    8634
    8633    8634    8634       0    8636    8637    8638    8637    8638    8638
       0    8640    8641    8642    8641    8642    8642       0    8644    8645
    8646    8645    8646    8646       0    8648    8649    8650    8649    8650
    8650       0    8652    8653    8654    8653    8654    8654       0    8656
    8657    8658    8657    8658    8658       0    8660    8661    8662    8661
    8662    8662       0    8664    8665    8666    8665    8666    8666       0
    8668    8669    8670    8669    8670    8670       0    8672    8673    8674
    8673    8674    8674       0    8676    8677    8678    8677    8678    8678
       0    8680    8681    8682    8681    8682    8682       0    8684    8685
    8686    8685    8686    8686       0    8688    8689    8690    8689    8690
    8690       0    8692    8693    8694    8693    8694    8694       0    8696
    8697    8698    8697    8698    8698       0    8700    8701    8702    8701
    8702    8702       0    8704    8705    8706    8705    8706    8706       0
    8708    8709    8710    8709    8710    8710       0    8712    8713    8714
    8713    8714    8714       0    8716    8717    8718    8717    8718    8718
       0    8720    8721    8722    8721    8722    8722       0    8724    8725
    8726    8725    8726    8726       0    8728    8729    8730    8729    8730
    8730       0    8732    8733    8734    8733    8734    8734       0    8736
    8737    8738    8737    8738    8738       0    8740    8741    8742    8741
    8742    8742       0    8744    8745    8746    8745    8746    8746       0
    8748    8749    8750    8749    8750    8750       0    8752    8753    8754
    8753    8754    8754       0    8756    8757    8758    8757    8758    8758
       0    8760    8761    8762    8761    8762    8762       0    8764    8765
    8766    8765    8766    8766       0    8768    8769    8770    8769    8770
    8770       0    8772    8773    8774    8773    8774    8774       0    8776
    8777    8778    8777    8778    8778       0    8780    8781    8782    8781
    8782    8782       0    8784    8785    8786    8785    8786    8786       0
    8788    8789    8790    8789    8790    8790       0    8792    8793    8794
    8793    8794    8794       0    8796    8797    8798    8797    8798    8798
       0    8800    8801    8802    8801    8802    8802       0    8804    8805
    8806    8805    8806    8806       0    8808    8809    8810    8809    8810
    8810       0    8812    8813    8814    8813    8814    8814       0    8816
    8817    8818    8817    8818    8818       0    8820    8821    8822    8821
    8822    8822       0    8824    8825    8826    8825    8826    8826       0
    8828    8829    8830    8829    8830    8830       0    8832    8833    8834
    8833    8834    8834       0    8836    8837    8838    8837    8838    8838
       0    8840    8841    8842    8841    8842    8842       0    8844    8845
    8846    8845    8846    8846       0    8848    8849    8850    8849    8850
    8850       0    8852    8853    8854    8853    8854    8854       0    8856
    8857    8858    8857    8858    8858       0    8860    8861    8862    8861
    8862    8862       0    8864    8865    8866    8865    8866    8866       0
    8868    8869    8870    8869    8870    8870       0    8872    8873    8874
    8873    8874    8874       0    8876    8877    8878    8877    8878    8878
       0    8880    8881    8882    8881    8882    8882       0    8884    8885
    8886    8885    8886    8886       0    8888    8889    8890    8889    8890
    8890       0    8892    8893    8894    8893    8894    8894       0    8896
    8897    8898    8897    8898    8898       0    8900    8901    8902    8901
    8902    8902       0    8904    8905    8906    8905    8906    8906       0
    8908    8909    8910    8909    8910    8910       0    8912    8913    8914
    8913    8914    8914       0    8916    8917    8918    8917    8918    8918
       0    8920    8921    8922    8921    8922    8922       0    8924    8925
    8926    8925    8926    8926       0    8928    8929    8930    8929    8930
    8930       0    8932    8933    8934    8933    8934    8934       0    8936
    8937    8938    8937    8938    8938       0    8940    8941    8942    8941
    8942    8942       0    8944    8945    8946    8945    8946    8946       0
    8948    8949    8950    8949    8950    8950       0    8952    8953    8954
    8953    8954    8954       0    8956    8957    8958    8957    8958    8958
       0    8960    8961    8962    8961    8962    8962       0    8964    8965
    8966    8965    8966    8966       0    8968    8969    8970    8969    8970
    8970       0    8972    8973    8974    8973    8974    8974       0    8976
    8977    8978    8977    8978    8978       0    8980    8981    8982    8981
    8982    8982       0    8984    8985    8986    8985    8986    8986       0
    8988    8989    8990    8989    8990    8990       0    8992    8993    8994
    8993    8994    8994       0    8996    8997    8998    8997    8998    8998
       0    9000    9001    9002    9001    9002    9002       0    9004    9005
    9006    9005    9006    9006       0    9008    9009    9010    9009    9010
    9010       0    9012    9013    9014    9013    9014    9014       0    9016
    9017    9018    9017    9018    9018       0    9020    9021    9022    9021
    9022    9022       0    9024    9025    9026    9025    9026    9026       0
    9028    9029    9030    9029    9030    9030       0    9032    9033    9034
    9033    9034    9034       0    9036    9037    9038    9037    9038    9038
       0    9040    9041    9042    9041    9042    9042       0    9044    9045
    9046    9045    9046    9046       0    9048    9049    9050    9049    9050
    9050       0    9052    9053    9054    9053    9054    9054       0    9056
    9057    9058    9057    9058    9058       0    9060    9061    9062    9061
    9062    9062       0    9064    9065    9066    9065    9066    9066       0
    9068    9069    9070    9069    9070    9070       0    9072    9073    9074
    9073    9074    9074       0    9076    9077    9078    9077    9078    9078
       0    9080    9081    9082    9081    9082    9082       0    9084    9085
    9086    9085    9086    9086       0    9088    9089    9090    9089    9090
    9090       0    9092    9093    9094    9093    9094    9094       0    9096
    9097    9098    9097    9098    9098       0    9100    9101    9102    9101
    9102    9102       0    9104    9105    9106    9105    9106    9106       0
    9108    9109    9110    9109    9110    9110       0    9112    9113    9114
    9113    9114    9114       0    9116    9117    9118    9117    9118    9118
       0    9120    9121    9122    9121    9122    9122       0    9124    9125
    9126    9125    9126    9126       0    9128    9129    9130    9129    9130
    9130       0    9132    9133    9134    9133    9134    9134       0    9136
    9137    9138    9137    9138    9138       0    9140    9141    9142    9141
    9142    9142       0    9144    9145    9146    9145    9146    9146       0
    9148    9149    9150    9149    9150    9150       0    9152    9153    9154
    9153    9154    9154       0    9156    9157    9158    9157    9158    9158
       0    9160    9161    9162    9161    9162    9162       0    9164    9165
    9166    9165    9166    9166       0    9168    9169    9170    9169    9170
    9170       0    9172    9173    9174    9173    9174    9174       0    9176
    9177    9178    9177    9178    9178       0    9180    9181    9182    9181
    9182    9182       0    9184    9185    9186    9185    9186    9186       0
    9188    9189    9190    9189    9190    9190       0    9192    9193    9194
    9193    9194    9194       0    9196    9197    9198    9197    9198    9198
       0    9200    9201    9202    9201    9202    9202       0    9204    9205
    9206    9205    9206    9206       0    9208    9209    9210    9209    9210
    9210       0    9212    9213    9214    9213    9214    9214       0    9216
    9217    9218    9217    9218    9218       0    9220    9221    9222    9221
    9222    9222       0    9224    9225    9226    9225    9226    9226       0
    9228    9229    9230    9229    9230    9230       0    9232    9233    9234
    9233    9234    9234       0    9236    9237    9238    9237    9238    9238
       0    9240    9241    9242    9241    9242    9242       0    9244    9245
    9246    9245    9246    9246       0    9248    9249    9250    9249    9250
    9250       0    9252    9253    9254    9253    9254    9254       0    9256
    9257    9258    9257    9258    9258       0    9260    9261    9262    9261
    9262    9262       0    9264    9265    9266    9265    9266    9266       0
    9268    9269    9270    9269    9270    9270       0    9272    9273    9274
    9273    9274    9274       0    9276    9277    9278    9277    9278    9278
       0    9280    9281    9282    9281    9282    9282       0    9284    9285
    9286    9285    9286    9286       0    9288    9289    9290    9289    9290
    9290       0    9292    9293    9294    9293    9294    9294       0    9296
    9297    9298    9297    9298    9298       0    9300    9301    9302    9301
    9302    9302       0    9304    9305    9306    9305    9306    9306       0
    9308    9309    9310    9309    9310    9310       0    9312    9313    9314
    9313    9314    9314       0    9316    9317    9318    9317    9318    9318
       0    9320    9321    9322    9321    9322    9322       0    9324    9325
    9326    9325    9326    9326       0    9328    9329    9330    9329    9330
    9330       0    9332    9333    9334    9333    9334    9334       0    9336
    9337    9338    9337    9338    9338       0    9340    9341    9342    9341
    9342    9342       0    9344    9345    9346    9345    9346    9346       0
    9348    9349    9350    9349    9350    9350       0    9352    9353    9354
    9353    9354    9354       0    9356    9357    9358    9357    9358    9358
       0    9360    9361    9362    9361    9362    9362       0    9364    9365
    9366    9365    9366    9366       0    9368    9369    9370    9369    9370
    9370       0    9372    9373    9374    9373    9374    9374       0    9376
    9377    9378    9377    9378    9378       0    9380    9381    9382    9381
    9382    9382       0    9384    9385    9386    9385    9386    9386       0
    9388    9389    9390    9389    9390    9390       0    9392    9393    9394
    9393    9394    9394       0    9396    9397    9398    9397    9398    9398
       0    9400    9401    9402    9401    9402    9402       0    9404    9405
    9406    9405    9406    9406       0    9408    9409    9410    9409    9410
    9410       0    9412    9413    9414    9413    9414    9414       0    9416
    9417    9418    9417    9418    9418       0    9420    9421    9422    9421
    9422    9422       0    9424    9425    9426    9425    9426    9426       0
    9428    9429    9430    9429    9430    9430       0    9432    9433    9434
    9433    9434    9434       0    9436    9437    9438    9437    9438    9438
       0    9440    9441    9442    9441    9442    9442       0    9444    9445
    9446    9445    9446    9446       0    9448    9449    9450    9449    9450
    9450       0    9452    9453    9454    9453    9454    9454       0    9456
    9457    9458    9457    9458    9458       0    9460    9461    9462    9461
    9462    9462       0    9464    9465    9466    9465    9466    9466       0
    9468    9469    9470    9469    9470    9470       0    9472    9473    9474
    9473    9474    9474       0    9476    9477    9478    9477    9478    9478
       0    9480    9481    9482    9481    9482    9482       0    9484    9485
    9486    9485    9486    9486       0    9488    9489    9490    9489    9490
    9490       0    9492    9493    9494    9493    9494    9494       0    9496
    9497    9498    9497    9498    9498       0    9500    9501    9502    9501
    9502    9502       0    9504    9505    9506    9505    9506    9506       0
    9508    9509    9510    9509    9510    9510       0    9512    9513    9514
    9513    9514    9514       0    9516    9517    9518    9517    9518    9518
       0    9520    9521    9522    9521    9522    9522       0    9524    9525
    9526    9525    9526    9526       0    9528    9529    9530    9529    9530
    9530       0    9532    9533    9534    9533    9534    9534       0    9536
    9537    9538    9537    9538    9538       0    9540    9541    9542    9541
    9542    9542       0    9544    9545    9546    9545    9546    9546       0
    9548    9549    9550    9549    9550    9550       0    9552    9553    9554
    9553    9554    9554       0    9556    9557    9558    9557    9558    9558
       0    9560    9561    9562    9561    9562    9562       0    9564    9565
    9566    9565    9566    9566       0    9568    9569    9570    9569    9570
    9570       0    9572    9573    9574    9573    9574    9574       0    9576
    9577    9578    9577    9578    9578       0    9580    9581    9582    9581
    9582    9582       0    9584    9585    9586    9585    9586    9586       0
    9588    9589    9590    9589    9590    9590       0    9592    9593    9594
    9593    9594    9594       0    9596    9597    9598    9597    9598    9598
       0    9600    9601    9602    9601    9602    9602       0    9604    9605
    9606    9605    9606    9606       0    9608    9609    9610    9609    9610
    9610       0    9612    9613    9614    9613    9614    9614       0    9616
    9617    9618    9617    9618    9618       0    9620    9621    9622    9621
    9622    9622       0    9624    9625    9626    9625    9626    9626       0
    9628    9629    9630    9629    9630    9630       0    9632    9633    9634
    9633    9634    9634       0    9636    9637    9638    9637    9638    9638
       0    9640    9641    9642    9641    9642    9642       0    9644    9645
    9646    9645    9646    9646       0    9648    9649    9650    9649    9650
    9650       0    9652    9653    9654    9653    9654    9654       0    9656
    9657    9658    9657    9658    9658       0    9660    9661    9662    9661
    9662    9662       0    9664    9665    9666    9665    9666    9666       0
    9668    9669    9670    9669    9670    9670       0    9672    9673    9674
    9673    9674    9674       0    9676    9677    9678    9677    9678    9678
       0    9680    9681    9682    9681    9682    9682       0    9684    9685
    9686    9685    9686    9686       0    9688    9689    9690    9689    9690
    9690       0    9692    9693    9694    9693    9694    9694       0    9696
    9697    9698    9697    9698    9698       0    9700    9701    9702    9701
    9702    9702       0    9704    9705    9706    9705    9706    9706       0
    9708    9709    9710    9709    9710    9710       0    9712    9713    9714
    9713    9714    9714       0    9716    9717    9718    9717    9718    9718
       0    9720    9721    9722    9721    9722    9722       0    9724    9725
    9726    9725    9726    9726       0    9728    9729    9730    9729    9730
    9730       0    9732    9733    9734    9733    9734    9734       0    9736
    9737    9738    9737    9738    9738       0    9740    9741    9742    9741
    9742    9742       0    9744    9745    9746    9745    9746    9746       0
    9748    9749    9750    9749    9750    9750       0    9752    9753    9754
    9753    9754    9754       0    9756    9757    9758    9757    9758    9758
       0    9760    9761    9762    9761    9762    9762       0    9764    9765
    9766    9765    9766    9766       0    9768    9769    9770    9769    9770
    9770       0    9772    9773    9774    9773    9774    9774       0    9776
    9777    9778    9777    9778    9778       0    9780    9781    9782    9781
    9782    9782       0    9784    9785    9786    9785    9786    9786       0
    9788    9789    9790    9789    9790    9790       0    9792    9793    9794
    9793    9794    9794       0    9796    9797    9798    9797    9798    9798
       0    9800    9801    9802    9801    9802    9802       0    9804    9805
    9806    9805    9806    9806       0    9808    9809    9810    9809    9810
    9810       0    9812    9813    9814    9813    9814    9814       0    9816
    9817    9818    9817    9818    9818       0    9820    9821    9822    9821
    9822    9822       0    9824    9825    9826    9825    9826    9826       0
    9828    9829    9830    9829    9830    9830       0    9832    9833    9834
    9833    9834    9834       0    9836    9837    9838    9837    9838    9838
       0    9840    9841    9842    9841    9842    9842       0    9844    9845
    9846    9845    9846    9846       0    9848    9849    9850    9849    9850
    9850       0    9852    9853    9854    9853    9854    9854       0    9856
    9857    9858    9857    9858    9858       0    9860    9861    9862    9861
    9862    9862       0    9864    9865    9866    9865    9866    9866       0
    9868    9869    9870    9869    9870    9870       0    9872    9873    9874
    9873    9874    9874       0    9876    9877    9878    9877    9878    9878
       0    9880    9881    9882    9881    9882    9882       0    9884    9885
    9886    9885    9886    9886       0    9888    9889    9890    9889    9890
    9890       0    9892    9893    9894    9893    9894    9894       0    9896
    9897    9898    9897    9898    9898       0    9900    9901    9902    9901
    9902    9902       0    9904    9905    9906    9905    9906    9906       0
    9908    9909    9910    9909    9910    9910       0    9912    9913    9914
    9913    9914    9914       0    9916    9917    9918    9917    9918    9918
       0    9920    9921    9922    9921    9922    9922       0    9924    9925
    9926    9925    9926    9926       0    9928    9929    9930    9929    9930
    9930       0    9932    9933    9934    9933    9934    9934       0    9936
    9937    9938    9937    9938    9938       0    9940    9941    9942    9941
    9942    9942       0    9944    9945    9946    9945    9946    9946       0
    9948    9949    9950    9949    9950    9950       0    9952    9953    9954
    9953    9954    9954       0    9956    9957    9958    9957    9958    9958
       0    9960    9961    9962    9961    9962    9962       0    9964    9965
    9966    9965    9966    9966       0    9968    9969    9970    9969    9970
    9970       0    9972    9973    9974    9973    9974    9974       0    9976
    9977    9978    9977    9978    9978       0    9980    9981    9982    9981
    9982    9982       0    9984    9985    9986    9985    9986    9986       0
    9988    9989    9990    9989    9990    9990       0    9992    9993    9994
    9993    9994    9994       0    9996    9997    9998    9997    9998    9998
       0   10000   10001   10002   10001   10002   10002       0   10004   10005
   10006   10005   10006   10006       0   10008   10009   10010   10009   10010
   10010       0   10012   10013   10014   10013   10014   10014       0   10016
   10017   10018   10017   10018   10018       0   10020   10021   10022   10021
   10022   10022       0   10024   10025   10026   10025   10026   10026       0
   10028   10029   10030   10029   10030   10030       0   10032   10033   10034
   10033   10034   10034       0   10036   10037   10038   10037   10038   10038
       0   10040   10041   10042   10041   10042   10042       0   10044   10045
   10046   10045   10046   10046       0   10048   10049   10050   10049   10050
   10050       0   10052   10053   10054   10053   10054   10054       0   10056
   10057   10058   10057   10058   10058       0   10060   10061   10062   10061
   10062   10062       0   10064   10065   10066   10065   10066   10066       0
   10068   10069   10070   10069   10070   10070       0   10072   10073   10074
   10073   10074   10074       0   10076   10077   10078   10077   10078   10078
       0   10080   10081   10082   10081   10082   10082       0   10084   10085
   10086   10085   10086   10086       0   10088   10089   10090   10089   10090
   10090       0   10092   10093   10094   10093   10094   10094       0   10096
   10097   10098   10097   10098   10098       0   10100   10101   10102   10101
   10102   10102       0   10104   10105   10106   10105   10106   10106       0
   10108   10109   10110   10109   10110   10110       0   10112   10113   10114
   10113   10114   10114       0   10116   10117   10118   10117   10118   10118
       0   10120   10121   10122   10121   10122   10122       0   10124   10125
   10126   10125   10126   10126       0   10128   10129   10130   10129   10130
   10130       0   10132   10133   10134   10133   10134   10134       0   10136
   10137   10138   10137   10138   10138       0   10140   10141   10142   10141
   10142   10142       0   10144   10145   10146   10145   10146   10146       0
   10148   10149   10150   10149   10150   10150       0   10152   10153   10154
   10153   10154   10154       0   10156   10157   10158   10157   10158   10158
       0   10160   10161   10162   10161   10162   10162       0   10164   10165
   10166   10165   10166   10166       0   10168   10169   10170   10169   10170
   10170       0   10172   10173   10174   10173   10174   10174       0   10176
   10177   10178   10177   10178   10178       0   10180   10181   10182   10181
   10182   10182       0   10184   10185   10186   10185   10186   10186       0
   10188   10189   10190   10189   10190   10190       0   10192   10193   10194
   10193   10194   10194       0   10196   10197   10198   10197   10198   10198
       0   10200   10201   10202   10201   10202   10202       0   10204   10205
   10206   10205   10206   10206       0   10208   10209   10210   10209   10210
   10210       0   10212   10213   10214   10213   10214   10214       0   10216
   10217   10218   10217   10218   10218       0   10220   10221   10222   10221
   10222   10222       0   10224   10225   10226   10225   10226   10226       0
   10228   10229   10230   10229   10230   10230       0   10232   10233   10234
   10233   10234   10234       0   10236   10237   10238   10237   10238   10238
       0   10240   10241   10242   10241   10242   10242       0   10244   10245
   10246   10245   10246   10246       0   10248   10249   10250   10249   10250
   10250       0   10252   10253   10254   10253   10254   10254       0   10256
   10257   10258   10257   10258   10258       0   10260   10261   10262   10261
   10262   10262       0   10264   10265   10266   10265   10266   10266       0
   10268   10269   10270   10269   10270   10270       0   10272   10273   10274
   10273   10274   10274       0   10276   10277   10278   10277   10278   10278
       0   10280   10281   10282   10281   10282   10282       0   10284   10285
   10286   10285   10286   10286       0   10288   10289   10290   10289   10290
   10290       0   10292   10293   10294   10293   10294   10294       0   10296
   10297   10298   10297   10298   10298       0   10300   10301   10302   10301
   10302   10302       0   10304   10305   10306   10305   10306   10306       0
   10308   10309   10310   10309   10310   10310       0   10312   10313   10314
   10313   10314   10314       0   10316   10317   10318   10317   10318   10318
       0   10320   10321   10322   10321   10322   10322       0   10324   10325
   10326   10325   10326   10326       0   10328   10329   10330   10329   10330
   10330       0   10332   10333   10334   10333   10334   10334       0   10336
   10337   10338   10337   10338   10338       0   10340   10341   10342   10341
   10342   10342       0   10344   10345   10346   10345   10346   10346       0
   10348   10349   10350   10349   10350   10350       0   10352   10353   10354
   10353   10354   10354       0   10356   10357   10358   10357   10358   10358
       0   10360   10361   10362   10361   10362   10362       0   10364   10365
   10366   10365   10366   10366       0   10368   10369   10370   10369   10370
   10370       0   10372   10373   10374   10373   10374   10374       0   10376
   10377   10378   10377   10378   10378       0   10380   10381   10382   10381
   10382   10382       0   10384   10385   10386   10385   10386   10386       0
   10388   10389   10390   10389   10390   10390       0   10392   10393   10394
   10393   10394   10394       0   10396   10397   10398   10397   10398   10398
       0   10400   10401   10402   10401   10402   10402       0   10404   10405
   10406   10405   10406   10406       0   10408   10409   10410   10409   10410
   10410       0   10412   10413   10414   10413   10414   10414       0   10416
   10417   10418   10417   10418   10418       0   10420   10421   10422   10421
   10422   10422       0   10424   10425   10426   10425   10426   10426       0
   10428   10429   10430   10429   10430   10430       0   10432   10433   10434
   10433   10434   10434       0   10436   10437   10438   10437   10438   10438
       0   10440   10441   10442   10441   10442   10442       0   10444   10445
   10446   10445   10446   10446       0   10448   10449   10450   10449   10450
   10450       0   10452   10453   10454   10453   10454   10454       0   10456
   10457   10458   10457   10458   10458       0   10460   10461   10462   10461
   10462   10462       0   10464   10465   10466   10465   10466   10466       0
   10468   10469   10470   10469   10470   10470       0   10472   10473   10474
   10473   10474   10474       0   10476   10477   10478   10477   10478   10478
       0   10480   10481   10482   10481   10482   10482       0   10484   10485
   10486   10485   10486   10486       0   10488   10489   10490   10489   10490
   10490       0   10492   10493   10494   10493   10494   10494       0   10496
   10497   10498   10497   10498   10498       0   10500   10501   10502   10501
   10502   10502       0   10504   10505   10506   10505   10506   10506       0
   10508   10509   10510   10509   10510   10510       0   10512   10513   10514
   10513   10514   10514       0   10516   10517   10518   10517   10518   10518
       0   10520   10521   10522   10521   10522   10522       0   10524   10525
   10526   10525   10526   10526       0   10528   10529   10530   10529   10530
   10530       0   10532   10533   10534   10533   10534   10534       0   10536
   10537   10538   10537   10538   10538       0   10540   10541   10542   10541
   10542   10542       0   10544   10545   10546   10545   10546   10546       0
   10548   10549   10550   10549   10550   10550       0   10552   10553   10554
   10553   10554   10554       0   10556   10557   10558   10557   10558   10558
       0   10560   10561   10562   10561   10562   10562       0   10564   10565
   10566   10565   10566   10566       0   10568   10569   10570   10569   10570
   10570       0   10572   10573   10574   10573   10574   10574       0   10576
   10577   10578   10577   10578   10578       0   10580   10581   10582   10581
   10582   10582       0   10584   10585   10586   10585   10586   10586       0
   10588   10589   10590   10589   10590   10590       0   10592   10593   10594
   10593   10594   10594       0   10596   10597   10598   10597   10598   10598
       0   10600   10601   10602   10601   10602   10602       0   10604   10605
   10606   10605   10606   10606       0   10608   10609   10610   10609   10610
   10610       0   10612   10613   10614   10613   10614   10614       0   10616
   10617   10618   10617   10618   10618       0   10620   10621   10622   10621
   10622   10622       0   10624   10625   10626   10625   10626   10626       0
   10628   10629   10630   10629   10630   10630       0   10632   10633   10634
   10633   10634   10634       0   10636   10637   10638   10637   10638   10638
       0   10640   10641   10642   10641   10642   10642       0   10644   10645
   10646   10645   10646   10646       0   10648   10649   10650   10649   10650
   10650       0   10652   10653   10654   10653   10654   10654       0   10656
   10657   10658   10657   10658   10658       0   10660   10661   10662   10661
   10662   10662       0   10664   10665   10666   10665   10666   10666       0
   10668   10669   10670   10669   10670   10670       0   10672   10673   10674
   10673   10674   10674       0   10676   10677   10678   10677   10678   10678
       0   10680   10681   10682   10681   10682   10682       0   10684   10685
   10686   10685   10686   10686       0   10688   10689   10690   10689   10690
   10690       0   10692   10693   10694   10693   10694   10694       0   10696
   10697   10698   10697   10698   10698       0   10700   10701   10702   10701
   10702   10702       0   10704   10705   10706   10705   10706   10706       0
   10708   10709   10710   10709   10710   10710       0   10712   10713   10714
   10713   10714   10714       0   10716   10717   10718   10717   10718   10718
       0   10720   10721   10722   10721   10722   10722       0   10724   10725
   10726   10725   10726   10726       0   10728   10729   10730   10729   10730
   10730       0   10732   10733   10734   10733   10734   10734       0   10736
   10737   10738   10737   10738   10738       0   10740   10741   10742   10741
   10742   10742       0   10744   10745   10746   10745   10746   10746       0
   10748   10749   10750   10749   10750   10750       0   10752   10753   10754
   10753   10754   10754       0   10756   10757   10758   10757   10758   10758
       0   10760   10761   10762   10761   10762   10762       0   10764   10765
   10766   10765   10766   10766       0   10768   10769   10770   10769   10770
   10770       0   10772   10773   10774   10773   10774   10774       0   10776
   10777   10778   10777   10778   10778       0   10780   10781   10782   10781
   10782   10782       0   10784   10785   10786   10785   10786   10786       0
   10788   10789   10790   10789   10790   10790       0   10792   10793   10794
   10793   10794   10794       0   10796   10797   10798   10797   10798   10798
       0   10800   10801   10802   10801   10802   10802       0   10804   10805
   10806   10805   10806   10806       0   10808   10809   10810   10809   10810
   10810       0   10812   10813   10814   10813   10814   10814       0   10816
   10817   10818   10817   10818   10818       0   10820   10821   10822   10821
   10822   10822       0   10824   10825   10826   10825   10826   10826       0
   10828   10829   10830   10829   10830   10830       0   10832   10833   10834
   10833   10834   10834       0   10836   10837   10838   10837   10838   10838
       0   10840   10841   10842   10841   10842   10842       0   10844   10845
   10846   10845   10846   10846       0   10848   10849   10850   10849   10850
   10850       0   10852   10853   10854   10853   10854   10854       0   10856
   10857   10858   10857   10858   10858       0   10860   10861   10862   10861
   10862   10862       0   10864   10865   10866   10865   10866   10866       0
   10868   10869   10870   10869   10870   10870       0   10872   10873   10874
   10873   10874   10874       0   10876   10877   10878   10877   10878   10878
       0   10880   10881   10882   10881   10882   10882       0   10884   10885
   10886   10885   10886   10886       0   10888   10889   10890   10889   10890
   10890       0   10892   10893   10894   10893   10894   10894       0   10896
   10897   10898   10897   10898   10898       0   10900   10901   10902   10901
   10902   10902       0   10904   10905   10906   10905   10906   10906       0
   10908   10909   10910   10909   10910   10910       0   10912   10913   10914
   10913   10914   10914       0   10916   10917   10918   10917   10918   10918
       0   10920   10921   10922   10921   10922   10922       0   10924   10925
   10926   10925   10926   10926       0   10928   10929   10930   10929   10930
   10930       0   10932   10933   10934   10933   10934   10934       0   10936
   10937   10938   10937   10938   10938       0   10940   10941   10942   10941
   10942   10942       0   10944   10945   10946   10945   10946   10946       0
   10948   10949   10950   10949   10950   10950       0   10952   10953   10954
   10953   10954   10954       0   10956   10957   10958   10957   10958   10958
       0   10960   10961   10962   10961   10962   10962       0   10964   10965
   10966   10965   10966   10966       0   10968   10969   10970   10969   10970
   10970       0   10972   10973   10974   10973   10974   10974       0   10976
   10977   10978   10977   10978   10978       0   10980   10981   10982   10981
   10982   10982       0   10984   10985   10986   10985   10986   10986       0
   10988   10989   10990   10989   10990   10990       0   10992   10993   10994
   10993   10994   10994       0   10996   10997   10998   10997   10998   10998
       0   11000   11001   11002   11001   11002   11002       0   11004   11005
   11006   11005   11006   11006       0   11008   11009   11010   11009   11010
   11010       0   11012   11013   11014   11013   11014   11014       0   11016
   11017   11018   11017   11018   11018       0   11020   11021   11022   11021
   11022   11022       0   11024   11025   11026   11025   11026   11026       0
   11028   11029   11030   11029   11030   11030       0   11032   11033   11034
   11033   11034   11034       0   11036   11037   11038   11037   11038   11038
       0   11040   11041   11042   11041   11042   11042       0   11044   11045
   11046   11045   11046   11046       0   11048   11049   11050   11049   11050
   11050       0   11052   11053   11054   11053   11054   11054       0   11056
   11057   11058   11057   11058   11058       0   11060   11061   11062   11061
   11062   11062       0   11064   11065   11066   11065   11066   11066       0
   11068   11069   11070   11069   11070   11070       0   11072   11073   11074
   11073   11074   11074       0   11076   11077   11078   11077   11078   11078
       0   11080   11081   11082   11081   11082   11082       0   11084   11085
   11086   11085   11086   11086       0   11088   11089   11090   11089   11090
   11090       0   11092   11093   11094   11093   11094   11094       0   11096
   11097   11098   11097   11098   11098       0   11100   11101   11102   11101
   11102   11102       0   11104   11105   11106   11105   11106   11106       0
   11108   11109   11110   11109   11110   11110       0   11112   11113   11114
   11113   11114   11114       0   11116   11117   11118   11117   11118   11118
       0   11120   11121   11122   11121   11122   11122       0   11124   11125
   11126   11125   11126   11126       0   11128   11129   11130   11129   11130
   11130       0   11132   11133   11134   11133   11134   11134       0   11136
   11137   11138   11137   11138   11138       0   11140   11141   11142   11141
   11142   11142       0   11144   11145   11146   11145   11146   11146       0
   11148   11149   11150   11149   11150   11150       0   11152   11153   11154
   11153   11154   11154       0   11156   11157   11158   11157   11158   11158
       0   11160   11161   11162   11161   11162   11162       0   11164   11165
   11166   11165   11166   11166       0   11168   11169   11170   11169   11170
   11170       0   11172   11173   11174   11173   11174   11174       0   11176
   11177   11178   11177   11178   11178       0   11180   11181   11182   11181
   11182   11182       0   11184   11185   11186   11185   11186   11186       0
   11188   11189   11190   11189   11190   11190       0   11192   11193   11194
   11193   11194   11194       0   11196   11197   11198   11197   11198   11198
       0   11200   11201   11202   11201   11202   11202       0   11204   11205
   11206   11205   11206   11206       0   11208   11209   11210   11209   11210
   11210       0   11212   11213   11214   11213   11214   11214       0   11216
   11217   11218   11217   11218   11218       0   11220   11221   11222   11221
   11222   11222       0   11224   11225   11226   11225   11226   11226       0
   11228   11229   11230   11229   11230   11230       0   11232   11233   11234
   11233   11234   11234       0   11236   11237   11238   11237   11238   11238
       0   11240   11241   11242   11241   11242   11242       0   11244   11245
   11246   11245   11246   11246       0   11248   11249   11250   11249   11250
   11250       0   11252   11253   11254   11253   11254   11254       0   11256
   11257   11258   11257   11258   11258       0   11260   11261   11262   11261
   11262   11262       0   11264   11265   11266   11265   11266   11266       0
   11268   11269   11270   11269   11270   11270       0   11272   11273   11274
   11273   11274   11274       0   11276   11277   11278   11277   11278   11278
       0   11280   11281   11282   11281   11282   11282       0   11284   11285
   11286   11285   11286   11286       0   11288   11289   11290   11289   11290
   11290       0   11292   11293   11294   11293   11294   11294       0   11296
   11297   11298   11297   11298   11298       0   11300   11301   11302   11301
   11302   11302       0   11304   11305   11306   11305   11306   11306       0
   11308   11309   11310   11309   11310   11310       0   11312   11313   11314
   11313   11314   11314       0   11316   11317   11318   11317   11318   11318
       0   11320   11321   11322   11321   11322   11322       0   11324   11325
   11326   11325   11326   11326       0   11328   11329   11330   11329   11330
   11330       0   11332   11333   11334   11333   11334   11334       0   11336
   11337   11338   11337   11338   11338       0   11340   11341   11342   11341
   11342   11342       0   11344   11345   11346   11345   11346   11346       0
   11348   11349   11350   11349   11350   11350       0   11352   11353   11354
   11353   11354   11354       0   11356   11357   11358   11357   11358   11358
       0   11360   11361   11362   11361   11362   11362       0   11364   11365
   11366   11365   11366   11366       0   11368   11369   11370   11369   11370
   11370       0   11372   11373   11374   11373   11374   11374       0   11376
   11377   11378   11377   11378   11378       0   11380   11381   11382   11381
   11382   11382       0   11384   11385   11386   11385   11386   11386       0
   11388   11389   11390   11389   11390   11390       0   11392   11393   11394
   11393   11394   11394       0   11396   11397   11398   11397   11398   11398
       0   11400   11401   11402   11401   11402   11402       0   11404   11405
   11406   11405   11406   11406       0   11408   11409   11410   11409   11410
   11410       0   11412   11413   11414   11413   11414   11414       0   11416
   11417   11418   11417   11418   11418       0   11420   11421   11422   11421
   11422   11422       0   11424   11425   11426   11425   11426   11426       0
   11428   11429   11430   11429   11430   11430       0   11432   11433   11434
   11433   11434   11434       0   11436   11437   11438   11437   11438   11438
       0   11440   11441   11442   11441   11442   11442       0   11444   11445
   11446   11445   11446   11446       0   11448   11449   11450   11449   11450
   11450       0   11452   11453   11454   11453   11454   11454       0   11456
   11457   11458   11457   11458   11458       0   11460   11461   11462   11461
   11462   11462       0   11464   11465   11466   11465   11466   11466       0
   11468   11469   11470   11469   11470   11470       0   11472   11473   11474
   11473   11474   11474       0   11476   11477   11478   11477   11478   11478
       0   11480   11481   11482   11481   11482   11482       0   11484   11485
   11486   11485   11486   11486       0   11488   11489   11490   11489   11490
   11490       0   11492   11493   11494   11493   11494   11494       0   11496
   11497   11498   11497   11498   11498       0   11500   11501   11502   11501
   11502   11502       0   11504   11505   11506   11505   11506   11506       0
   11508   11509   11510   11509   11510   11510       0   11512   11513   11514
   11513   11514   11514       0   11516   11517   11518   11517   11518   11518
       0   11520   11521   11522   11521   11522   11522       0   11524   11525
   11526   11525   11526   11526       0   11528   11529   11530   11529   11530
   11530       0   11532   11533   11534   11533   11534   11534       0   11536
   11537   11538   11537   11538   11538       0   11540   11541   11542   11541
   11542   11542       0   11544   11545   11546   11545   11546   11546       0
   11548   11549   11550   11549   11550   11550       0   11552   11553   11554
   11553   11554   11554       0   11556   11557   11558   11557   11558   11558
       0   11560   11561   11562   11561   11562   11562       0   11564   11565
   11566   11565   11566   11566       0   11568   11569   11570   11569   11570
   11570       0   11572   11573   11574   11573   11574   11574       0   11576
   11577   11578   11577   11578   11578       0   11580   11581   11582   11581
   11582   11582       0   11584   11585   11586   11585   11586   11586       0
   11588   11589   11590   11589   11590   11590       0   11592   11593   11594
   11593   11594   11594       0   11596   11597   11598   11597   11598   11598
       0   11600   11601   11602   11601   11602   11602       0   11604   11605
   11606   11605   11606   11606       0   11608   11609   11610   11609   11610
   11610       0   11612   11613   11614   11613   11614   11614       0   11616
   11617   11618   11617   11618   11618       0   11620   11621   11622   11621
   11622   11622       0   11624   11625   11626   11625   11626   11626       0
   11628   11629   11630   11629   11630   11630       0   11632   11633   11634
   11633   11634   11634       0   11636   11637   11638   11637   11638   11638
       0   11640   11641   11642   11641   11642   11642       0   11644   11645
   11646   11645   11646   11646       0   11648   11649   11650   11649   11650
   11650       0   11652   11653   11654   11653   11654   11654       0   11656
   11657   11658   11657   11658   11658       0   11660   11661   11662   11661
   11662   11662       0   11664   11665   11666   11665   11666   11666       0
   11668   11669   11670   11669   11670   11670       0   11672   11673   11674
   11673   11674   11674       0   11676   11677   11678   11677   11678   11678
       0   11680   11681   11682   11681   11682   11682       0   11684   11685
   11686   11685   11686   11686       0   11688   11689   11690   11689   11690
   11690       0   11692   11693   11694   11693   11694   11694       0   11696
   11697   11698   11697   11698   11698       0   11700   11701   11702   11701
   11702   11702       0   11704   11705   11706   11705   11706   11706       0
   11708   11709   11710   11709   11710   11710       0   11712   11713   11714
   11713   11714   11714       0   11716   11717   11718   11717   11718   11718
       0   11720   11721   11722   11721   11722   11722       0   11724   11725
   11726   11725   11726   11726       0   11728   11729   11730   11729   11730
   11730       0   11732   11733   11734   11733   11734   11734       0   11736
   11737   11738   11737   11738   11738       0   11740   11741   11742   11741
   11742   11742       0   11744   11745   11746   11745   11746   11746       0
   11748   11749   11750   11749   11750   11750       0   11752   11753   11754
   11753   11754   11754       0   11756   11757   11758   11757   11758   11758
       0   11760   11761   11762   11761   11762   11762       0   11764   11765
   11766   11765   11766   11766       0   11768   11769   11770   11769   11770
   11770       0   11772   11773   11774   11773   11774   11774       0   11776
   11777   11778   11777   11778   11778       0   11780   11781   11782   11781
   11782   11782       0   11784   11785   11786   11785   11786   11786       0
   11788   11789   11790   11789   11790   11790       0   11792   11793   11794
   11793   11794   11794       0   11796   11797   11798   11797   11798   11798
       0   11800   11801   11802   11801   11802   11802       0   11804   11805
   11806   11805   11806   11806       0   11808   11809   11810   11809   11810
   11810       0   11812   11813   11814   11813   11814   11814       0   11816
   11817   11818   11817   11818   11818       0   11820   11821   11822   11821
   11822   11822       0   11824   11825   11826   11825   11826   11826       0
   11828   11829   11830   11829   11830   11830       0   11832   11833   11834
   11833   11834   11834       0   11836   11837   11838   11837   11838   11838
       0   11840   11841   11842   11841   11842   11842       0   11844   11845
   11846   11845   11846   11846       0   11848   11849   11850   11849   11850
   11850       0   11852   11853   11854   11853   11854   11854       0   11856
   11857   11858   11857   11858   11858       0   11860   11861   11862   11861
   11862   11862       0   11864   11865   11866   11865   11866   11866       0
   11868   11869   11870   11869   11870   11870       0   11872   11873   11874
   11873   11874   11874       0   11876   11877   11878   11877   11878   11878
       0   11880   11881   11882   11881   11882   11882       0   11884   11885
   11886   11885   11886   11886       0   11888   11889   11890   11889   11890
   11890       0   11892   11893   11894   11893   11894   11894       0   11896
   11897   11898   11897   11898   11898       0   11900   11901   11902   11901
   11902   11902       0   11904   11905   11906   11905   11906   11906       0
   11908   11909   11910   11909   11910   11910       0   11912   11913   11914
   11913   11914   11914       0   11916   11917   11918   11917   11918   11918
       0   11920   11921   11922   11921   11922   11922       0   11924   11925
   11926   11925   11926   11926       0   11928   11929   11930   11929   11930
   11930       0   11932   11933   11934   11933   11934   11934       0   11936
   11937   11938   11937   11938   11938       0   11940   11941   11942   11941
   11942   11942       0   11944   11945   11946   11945   11946   11946       0
   11948   11949   11950   11949   11950   11950       0   11952   11953   11954
   11953   11954   11954       0   11956   11957   11958   11957   11958   11958
       0   11960   11961   11962   11961   11962   11962       0   11964   11965
   11966   11965   11966   11966       0   11968   11969   11970   11969   11970
   11970       0   11972   11973   11974   11973   11974   11974       0   11976
   11977   11978   11977   11978   11978       0   11980   11981   11982   11981
   11982   11982       0   11984   11985   11986   11985   11986   11986       0
   11988   11989   11990   11989   11990   11990       0   11992   11993   11994
   11993   11994   11994       0   11996   11997   11998   11997   11998   11998
       0   12000   12001   12002   12001   12002   12002       0   12004   12005
   12006   12005   12006   12006       0   12008   12009   12010   12009   12010
   12010       0   12012   12013   12014   12013   12014   12014       0   12016
   12017   12018   12017   12018   12018       0   12020   12021   12022   12021
   12022   12022       0   12024   12025   12026   12025   12026   12026       0
   12028   12029   12030   12029   12030   12030       0   12032   12033   12034
   12033   12034   12034       0   12036   12037   12038   12037   12038   12038
       0   12040   12041   12042   12041   12042   12042       0   12044   12045
   12046   12045   12046   12046       0   12048   12049   12050   12049   12050
   12050       0   12052   12053   12054   12053   12054   12054       0   12056
   12057   12058   12057   12058   12058       0   12060   12061   12062   12061
   12062   12062       0   12064   12065   12066   12065   12066   12066       0
   12068   12069   12070   12069   12070   12070       0   12072   12073   12074
   12073   12074   12074       0   12076   12077   12078   12077   12078   12078
       0   12080   12081   12082   12081   12082   12082       0   12084   12085
   12086   12085   12086   12086       0   12088   12089   12090   12089   12090
   12090       0   12092   12093   12094   12093   12094   12094       0   12096
   12097   12098   12097   12098   12098       0   12100   12101   12102   12101
   12102   12102       0   12104   12105   12106   12105   12106   12106       0
   12108   12109   12110   12109   12110   12110       0   12112   12113   12114
   12113   12114   12114       0   12116   12117   12118   12117   12118   12118
       0   12120   12121   12122   12121   12122   12122       0   12124   12125
   12126   12125   12126   12126       0   12128   12129   12130   12129   12130
   12130       0   12132   12133   12134   12133   12134   12134       0   12136
   12137   12138   12137   12138   12138       0   12140   12141   12142   12141
   12142   12142       0   12144   12145   12146   12145   12146   12146       0
   12148   12149   12150   12149   12150   12150       0   12152   12153   12154
   12153   12154   12154       0   12156   12157   12158   12157   12158   12158
       0   12160   12161   12162   12161   12162   12162       0   12164   12165
   12166   12165   12166   12166       0   12168   12169   12170   12169   12170
   12170       0   12172   12173   12174   12173   12174   12174       0   12176
   12177   12178   12177   12178   12178       0   12180   12181   12182   12181
   12182   12182       0   12184   12185   12186   12185   12186   12186       0
   12188   12189   12190   12189   12190   12190       0   12192   12193   12194
   12193   12194   12194       0   12196   12197   12198   12197   12198   12198
       0   12200   12201   12202   12201   12202   12202       0   12204   12205
   12206   12205   12206   12206       0   12208   12209   12210   12209   12210
   12210       0   12212   12213   12214   12213   12214   12214       0   12216
   12217   12218   12217   12218   12218       0   12220   12221   12222   12221
   12222   12222       0   12224   12225   12226   12225   12226   12226       0
   12228   12229   12230   12229   12230   12230       0   12232   12233   12234
   12233   12234   12234       0   12236   12237   12238   12237   12238   12238
       0   12240   12241   12242   12241   12242   12242       0   12244   12245
   12246   12245   12246   12246       0   12248   12249   12250   12249   12250
   12250       0   12252   12253   12254   12253   12254   12254       0   12256
   12257   12258   12257   12258   12258       0   12260   12261   12262   12261
   12262   12262       0   12264   12265   12266   12265   12266   12266       0
   12268   12269   12270   12269   12270   12270       0   12272   12273   12274
   12273   12274   12274       0   12276   12277   12278   12277   12278   12278
       0   12280   12281   12282   12281   12282   12282       0   12284   12285
   12286   12285   12286   12286       0   12288   12289   12290   12289   12290
   12290       0   12292   12293   12294   12293   12294   12294       0   12296
   12297   12298   12297   12298   12298       0   12300   12301   12302   12301
   12302   12302       0   12304   12305   12306   12305   12306   12306       0
   12308   12309   12310   12309   12310   12310       0   12312   12313   12314
   12313   12314   12314       0   12316   12317   12318   12317   12318   12318
       0   12320   12321   12322   12321   12322   12322       0   12324   12325
   12326   12325   12326   12326       0   12328   12329   12330   12329   12330
   12330       0   12332   12333   12334   12333   12334   12334       0   12336
   12337   12338   12337   12338   12338       0   12340   12341   12342   12341
   12342   12342       0   12344   12345   12346   12345   12346   12346       0
   12348   12349   12350   12349   12350   12350       0   12352   12353   12354
   12353   12354   12354       0   12356   12357   12358   12357   12358   12358
       0   12360   12361   12362   12361   12362   12362       0   12364   12365
   12366   12365   12366   12366       0   12368   12369   12370   12369   12370
   12370       0   12372   12373   12374   12373   12374   12374       0   12376
   12377   12378   12377   12378   12378       0   12380   12381   12382   12381
   12382   12382       0   12384   12385   12386   12385   12386   12386       0
   12388   12389   12390   12389   12390   12390       0   12392   12393   12394
   12393   12394   12394       0   12396   12397   12398   12397   12398   12398
       0   12400   12401   12402   12401   12402   12402       0   12404   12405
   12406   12405   12406   12406       0   12408   12409   12410   12409   12410
   12410       0   12412   12413   12414   12413   12414   12414       0   12416
   12417   12418   12417   12418   12418       0   12420   12421   12422   12421
   12422   12422       0   12424   12425   12426   12425   12426   12426       0
   12428   12429   12430   12429   12430   12430       0   12432   12433   12434
   12433   12434   12434       0   12436   12437   12438   12437   12438   12438
       0   12440   12441   12442   12441   12442   12442       0   12444   12445
   12446   12445   12446   12446       0   12448   12449   12450   12449   12450
   12450       0   12452   12453   12454   12453   12454   12454       0   12456
   12457   12458   12457   12458   12458       0   12460   12461   12462   12461
   12462   12462       0   12464   12465   12466   12465   12466   12466       0
   12468   12469   12470   12469   12470   12470       0   12472   12473   12474
   12473   12474   12474       0   12476   12477   12478   12477   12478   12478
       0   12480   12481   12482   12481   12482   12482       0   12484   12485
   12486   12485   12486   12486       0   12488   12489   12490   12489   12490
   12490       0   12492   12493   12494   12493   12494   12494       0   12496
   12497   12498   12497   12498   12498       0   12500   12501   12502   12501
   12502   12502       0   12504   12505   12506   12505   12506   12506       0
   12508   12509   12510   12509   12510   12510       0   12512   12513   12514
   12513   12514   12514       0   12516   12517   12518   12517   12518   12518
       0   12520   12521   12522   12521   12522   12522       0   12524   12525
   12526   12525   12526   12526       0   12528   12529   12530   12529   12530
   12530       0   12532   12533   12534   12533   12534   12534       0   12536
   12537   12538   12537   12538   12538       0   12540   12541   12542   12541
   12542   12542       0   12544   12545   12546   12545   12546   12546       0
   12548   12549   12550   12549   12550   12550       0   12552   12553   12554
   12553   12554   12554       0   12556   12557   12558   12557   12558   12558
       0   12560   12561   12562   12561   12562   12562       0   12564   12565
   12566   12565   12566   12566       0   12568   12569   12570   12569   12570
   12570       0   12572   12573   12574   12573   12574   12574       0   12576
   12577   12578   12577   12578   12578       0   12580   12581   12582   12581
   12582   12582       0   12584   12585   12586   12585   12586   12586       0
   12588   12589   12590   12589   12590   12590       0   12592   12593   12594
   12593   12594   12594       0   12596   12597   12598   12597   12598   12598
       0   12600   12601   12602   12601   12602   12602       0   12604   12605
   12606   12605   12606   12606       0   12608   12609   12610   12609   12610
   12610       0   12612   12613   12614   12613   12614   12614       0   12616
   12617   12618   12617   12618   12618       0   12620   12621   12622   12621
   12622   12622       0   12624   12625   12626   12625   12626   12626       0
   12628   12629   12630   12629   12630   12630       0   12632   12633   12634
   12633   12634   12634       0   12636   12637   12638   12637   12638   12638
       0   12640   12641   12642   12641   12642   12642       0   12644   12645
   12646   12645   12646   12646       0   12648   12649   12650   12649   12650
   12650       0   12652   12653   12654   12653   12654   12654       0   12656
   12657   12658   12657   12658   12658       0   12660   12661   12662   12661
   12662   12662       0   12664   12665   12666   12665   12666   12666       0
   12668   12669   12670   12669   12670   12670       0   12672   12673   12674
   12673   12674   12674       0   12676   12677   12678   12677   12678   12678
       0   12680   12681   12682   12681   12682   12682       0   12684   12685
   12686   12685   12686   12686       0   12688   12689   12690   12689   12690
   12690       0   12692   12693   12694   12693   12694   12694       0   12696
   12697   12698   12697   12698   12698       0   12700   12701   12702   12701
   12702   12702       0   12704   12705   12706   12705   12706   12706       0
   12708   12709   12710   12709   12710   12710       0   12712   12713   12714
   12713   12714   12714       0   12716   12717   12718   12717   12718   12718
       0   12720   12721   12722   12721   12722   12722       0   12724   12725
   12726   12725   12726   12726       0   12728   12729   12730   12729   12730
   12730       0   12732   12733   12734   12733   12734   12734       0   12736
   12737   12738   12737   12738   12738       0   12740   12741   12742   12741
   12742   12742       0   12744   12745   12746   12745   12746   12746       0
   12748   12749   12750   12749   12750   12750       0   12752   12753   12754
   12753   12754   12754       0   12756   12757   12758   12757   12758   12758
       0   12760   12761   12762   12761   12762   12762       0   12764   12765
   12766   12765   12766   12766       0   12768   12769   12770   12769   12770
   12770       0   12772   12773   12774   12773   12774   12774       0   12776
   12777   12778   12777   12778   12778       0   12780   12781   12782   12781
   12782   12782       0   12784   12785   12786   12785   12786   12786       0
   12788   12789   12790   12789   12790   12790       0   12792   12793   12794
   12793   12794   12794       0   12796   12797   12798   12797   12798   12798
       0   12800   12801   12802   12801   12802   12802       0   12804   12805
   12806   12805   12806   12806       0   12808   12809   12810   12809   12810
   12810       0   12812   12813   12814   12813   12814   12814       0   12816
   12817   12818   12817   12818   12818       0   12820   12821   12822   12821
   12822   12822       0   12824   12825   12826   12825   12826   12826       0
   12828   12829   12830   12829   12830   12830       0   12832   12833   12834
   12833   12834   12834       0   12836   12837   12838   12837   12838   12838
       0   12840   12841   12842   12841   12842   12842       0   12844   12845
   12846   12845   12846   12846       0   12848   12849   12850   12849   12850
   12850       0   12852   12853   12854   12853   12854   12854       0   12856
   12857   12858   12857   12858   12858       0   12860   12861   12862   12861
   12862   12862       0   12864   12865   12866   12865   12866   12866       0
   12868   12869   12870   12869   12870   12870       0   12872   12873   12874
   12873   12874   12874       0   12876   12877   12878   12877   12878   12878
       0   12880   12881   12882   12881   12882   12882       0   12884   12885
   12886   12885   12886   12886       0   12888   12889   12890   12889   12890
   12890       0   12892   12893   12894   12893   12894   12894       0   12896
   12897   12898   12897   12898   12898       0   12900   12901   12902   12901
   12902   12902       0   12904   12905   12906   12905   12906   12906       0
   12908   12909   12910   12909   12910   12910       0   12912   12913   12914
   12913   12914   12914       0   12916   12917   12918   12917   12918   12918
       0   12920   12921   12922   12921   12922   12922       0   12924   12925
   12926   12925   12926   12926       0   12928   12929   12930   12929   12930
   12930       0   12932   12933   12934   12933   12934   12934       0   12936
   12937   12938   12937   12938   12938       0   12940   12941   12942   12941
   12942   12942       0   12944   12945   12946   12945   12946   12946       0
   12948   12949   12950   12949   12950   12950       0   12952   12953   12954
   12953   12954   12954       0   12956   12957   12958   12957   12958   12958
       0   12960   12961   12962   12961   12962   12962       0   12964   12965
   12966   12965   12966   12966       0   12968   12969   12970   12969   12970
   12970       0   12972   12973   12974   12973   12974   12974       0   12976
   12977   12978   12977   12978   12978       0   12980   12981   12982   12981
   12982   12982       0   12984   12985   12986   12985   12986   12986       0
   12988   12989   12990   12989   12990   12990       0   12992   12993   12994
   12993   12994   12994       0   12996   12997   12998   12997   12998   12998
       0   13000   13001   13002   13001   13002   13002       0   13004   13005
   13006   13005   13006   13006       0   13008   13009   13010   13009   13010
   13010       0   13012   13013   13014   13013   13014   13014       0   13016
   13017   13018   13017   13018   13018       0   13020   13021   13022   13021
   13022   13022       0   13024   13025   13026   13025   13026   13026       0
   13028   13029   13030   13029   13030   13030       0   13032   13033   13034
   13033   13034   13034       0   13036   13037   13038   13037   13038   13038
       0   13040   13041   13042   13041   13042   13042       0   13044   13045
   13046   13045   13046   13046       0   13048   13049   13050   13049   13050
   13050       0   13052   13053   13054   13053   13054   13054       0   13056
   13057   13058   13057   13058   13058       0   13060   13061   13062   13061
   13062   13062       0   13064   13065   13066   13065   13066   13066       0
   13068   13069   13070   13069   13070   13070       0   13072   13073   13074
   13073   13074   13074       0   13076   13077   13078   13077   13078   13078
       0   13080   13081   13082   13081   13082   13082       0   13084   13085
   13086   13085   13086   13086       0   13088   13089   13090   13089   13090
   13090       0   13092   13093   13094   13093   13094   13094       0   13096
   13097   13098   13097   13098   13098       0   13100   13101   13102   13101
   13102   13102       0   13104   13105   13106   13105   13106   13106       0
   13108   13109   13110   13109   13110   13110       0   13112   13113   13114
   13113   13114   13114       0   13116   13117   13118   13117   13118   13118
       0   13120   13121   13122   13121   13122   13122       0   13124   13125
   13126   13125   13126   13126       0   13128   13129   13130   13129   13130
   13130       0   13132   13133   13134   13133   13134   13134       0   13136
   13137   13138   13137   13138   13138       0   13140   13141   13142   13141
   13142   13142       0   13144   13145   13146   13145   13146   13146       0
   13148   13149   13150   13149   13150   13150       0   13152   13153   13154
   13153   13154   13154       0   13156   13157   13158   13157   13158   13158
       0   13160   13161   13162   13161   13162   13162       0   13164   13165
   13166   13165   13166   13166       0   13168   13169   13170   13169   13170
   13170       0   13172   13173   13174   13173   13174   13174       0
%FLAG HBOND_ACOEF                                                               
%FORMAT(5E16.8)                                                                 

%FLAG HBOND_BCOEF                                                               
%FORMAT(5E16.8)                                                                 

%FLAG HBCUT                                                                     
%FORMAT(5E16.8)                                                                 

%FLAG AMBER_ATOM_TYPE                                                           
%FORMAT(20a4)                                                                   
HO  OH  CI  H1  H1  CT  H1  OS  CT  H2  N*  C1  H5  NB  CB  CA  N2  H   H   NC  
CQ  H5  NC  CB  CT  H1  CT  H1  OH  HO  OS  P   O2  O2  OS  CI  H1  H1  CT  H1  
OS  CT  H2  N*  CK  H5  NB  CB  C   O   NA  H   CA  N2  H   H   NC  CB  CT  H1  
CT  H1  OH  HO  OS  P   O2  O2  OS  CI  H1  H1  CT  H1  OS  CT  H2  N*  CM  H4  
CM  HA  CA  N2  H   H   NC  C   O   CT  H1  CT  H1  OH  HO  OS  P   O2  O2  OS  
CI  H1  H1  CT  H1  OS  CT  H2  N*  CK  H5  NB  CB  C   O   NA  H   CA  N2  H   
H   NC  CB  CT  H1  CT  H1  OH  HO  OS  P   O2  O2  OS  CI  H1  H1  CT  H1  OS  
CT  H2  N*  CM  H4  CM  HA  CA  N2  H   H   NC  C   O   CT  H1  CT  H1  OH  HO  
OS  P   O2  O2  OS  CI  H1  H1  CT  H1  OS  CT  H2  N*  C2  H4  C2  HA  C   O   
NA  H   C   O   CT  H1  CT  H1  OH  HO  OS  P   O2  O2  OS  CI  H1  H1  CT  H1  
OS  CT  H2  N*  C2  H4  C2  HA  C   O   NA  H   C   O   CT  H1  CT  H1  OH  HO  
OS  P   O2  O2  OS  CI  H1  H1  CT  H1  OS  CT  H2  N*  C2  H4  C2  HA  C   O   
NA  H   C   O   CT  H1  CT  H1  OH  HO  OS  P   O2  O2  OS  CI  H1  H1  CT  H1  
OS  CT  H2  N*  CM  H4  CM  HA  CA  N2  H   H   NC  C   O   CT  H1  CT  H1  OH  
HO  OS  P   O2  O2  OS  CI  H1  H1  CT  H1  OS  CT  H2  N*  CK  H5  NB  CB  C   
O   NA  H   CA  N2  H   H   NC  CB  CT  H1  CT  H1  OH  HO  OS  P   O2  O2  OS  
CI  H1  H1  CT  H1  OS  CT  H2  N*  C1  H5  NB  CB  CA  N2  H   H   NC  CQ  H5  
NC  CB  CT  H1  CT  H1  OH  HO  OS  P   O2  O2  OS  CI  H1  H1  CT  H1  OS  CT  
H2  N*  CK  H5  NB  CB  C   O   NA  H   CA  N2  H   H   NC  CB  CT  H1  CT  H1  
OH  HO  OS  P   O2  O2  OS  CI  H1  H1  CT  H1  OS  CT  H2  N*  CM  H4  CM  HA  
CA  N2  H   H   NC  C   O   CT  H1  CT  H1  OH  HO  OS  P   O2  O2  OS  CI  H1  
H1  CT  H1  OS  CT  H2  N*  CK  H5  NB  CB  C   O   NA  H   CA  N2  H   H   NC  
CB  CT  H1  CT  H1  OH  HO  OS  P   O2  O2  OS  CI  H1  H1  CT  H1  OS  CT  H2  
N*  CM  H4  CM  HA  CA  N2  H   H   NC  C   O   CT  H1  CT  H1  OH  HO  OS  P   
O2  O2  OS  CI  H1  H1  CT  H1  OS  CT  H2  N*  C2  H4  C2  HA  C   O   NA  H   
C   O   CT  H1  CT  H1  OH  HO  OH  HO  Mg2+Mg2+Mg2+Mg2+Mg2+Mg2+Mg2+Mg2+Mg2+Mg2+
Cl- Cl- Cl- Cl- Cl- Cl- Cl- Cl- Cl- Cl- OW  HW  HW  EP  OW  HW  HW  EP  OW  HW  
HW  EP  OW  HW  HW  EP  OW  HW  HW  EP  OW  HW  HW  EP  OW  HW  HW  EP  OW  HW  
HW  EP  OW  HW  HW  EP  OW  HW  HW  EP  OW  HW  HW  EP  OW  HW  HW  EP  OW  HW  
HW  EP  OW  HW  HW  EP  OW  HW  HW  EP  OW  HW  HW  EP  OW  HW  HW  EP  OW  HW  
HW  EP  OW  HW  HW  EP  OW  HW  HW  EP  OW  HW  HW  EP  OW  HW  HW  EP  OW  HW  
HW  EP  OW  HW  HW  EP  OW  HW  HW  EP  OW  HW  HW  EP  OW  HW  HW  EP  OW  HW  
HW  EP  OW  HW  HW  EP  OW  HW  HW  EP  OW  HW  HW  EP  OW  HW  HW  EP  OW  HW  
HW  EP  OW  HW  HW  EP  OW  HW  HW  EP  OW  HW  HW  EP  OW  HW  HW  EP  OW  HW  
HW  EP  OW  HW  HW  EP  OW  HW  HW  EP  OW  HW  HW  EP  OW  HW  HW  EP  OW  HW  
HW  EP  OW  HW  HW  EP  OW  HW  HW  EP  OW  HW  HW  EP  OW  HW  HW  EP  OW  HW  
HW  EP  OW  HW  HW  EP  OW  HW  HW  EP  OW  HW  HW  EP  OW  HW  HW  EP  OW  HW  
HW  EP  OW  HW  HW  EP  OW  HW  HW  EP  OW  HW  HW  EP  OW  HW  HW  EP  OW  HW  
HW  EP  OW  HW  HW  EP  OW  HW  HW  EP  OW  HW  HW  EP  OW  HW  HW  EP  OW  HW  
HW  EP  OW  HW  HW  EP  OW  HW  HW  EP  OW  HW  HW  EP  OW  HW  HW  EP  OW  HW  
HW  EP  OW  HW  HW  EP  OW  HW  HW  EP  OW  HW  HW  EP  OW  HW  HW  EP  OW  HW  
HW  EP  OW  HW  HW  EP  OW  HW  HW  EP  OW  HW  HW  EP  OW  HW  HW  EP  OW  HW  
HW  EP  OW  HW  HW  EP  OW  HW  HW  EP  OW  HW  HW  EP  OW  HW  HW  EP  OW  HW  
HW  EP  OW  HW  HW  EP  OW  HW  HW  EP  OW  HW  HW  EP  OW  HW  HW  EP  OW  HW  
HW  EP  OW  HW  HW  EP  OW  HW  HW  EP  OW  HW  HW  EP  OW  HW  HW  EP  OW  HW  
HW  EP  OW  HW  HW  EP  OW  HW  HW  EP  OW  HW  HW  EP  OW  HW  HW  EP  OW  HW  
HW  EP  OW  HW  HW  EP  OW  HW  HW  EP  OW  HW  HW  EP  OW  HW  HW  EP  OW  HW  
HW  EP  OW  HW  HW  EP  OW  HW  HW  EP  OW  HW  HW  EP  OW  HW  HW  EP  OW  HW  
HW  EP  OW  HW  HW  EP  OW  HW  HW  EP  OW  HW  HW  EP  OW  HW  HW  EP  OW  HW  
HW  EP  OW  HW  HW  EP  OW  HW  HW  EP  OW  HW  HW  EP  OW  HW  HW  EP  OW  HW  
HW  EP  OW  HW  HW  EP  OW  HW  HW  EP  OW  HW  HW  EP  OW  HW  HW  EP  OW  HW  
HW  EP  OW  HW  HW  EP  OW  HW  HW  EP  OW  HW  HW  EP  OW  HW  HW  EP  OW  HW  
HW  EP  OW  HW  HW  EP  OW  HW  HW  EP  OW  HW  HW  EP  OW  HW  HW  EP  OW  HW  
HW  EP  OW  HW  HW  EP  OW  HW  HW  EP  OW  HW  HW  EP  OW  HW  HW  EP  OW  HW  
HW  EP  OW  HW  HW  EP  OW  HW  HW  EP  OW  HW  HW  EP  OW  HW  HW  EP  OW  HW  
HW  EP  OW  HW  HW  EP  OW  HW  HW  EP  OW  HW  HW  EP  OW  HW  HW  EP  OW  HW  
HW  EP  OW  HW  HW  EP  OW  HW  HW  EP  OW  HW  HW  EP  OW  HW  HW  EP  OW  HW  
HW  EP  OW  HW  HW  EP  OW  HW  HW  EP  OW  HW  HW  EP  OW  HW  HW  EP  OW  HW  
HW  EP  OW  HW  HW  EP  OW  HW  HW  EP  OW  HW  HW  EP  OW  HW  HW  EP  OW  HW  
HW  EP  OW  HW  HW  EP  OW  HW  HW  EP  OW  HW  HW  EP  OW  HW  HW  EP  OW  HW  
HW  EP  OW  HW  HW  EP  OW  HW  HW  EP  OW  HW  HW  EP  OW  HW  HW  EP  OW  HW  
HW  EP  OW  HW  HW  EP  OW  HW  HW  EP  OW  HW  HW  EP  OW  HW  HW  EP  OW  HW  
HW  EP  OW  HW  HW  EP  OW  HW  HW  EP  OW  HW  HW  EP  OW  HW  HW  EP  OW  HW  
HW  EP  OW  HW  HW  EP  OW  HW  HW  EP  OW  HW  HW  EP  OW  HW  HW  EP  OW  HW  
HW  EP  OW  HW  HW  EP  OW  HW  HW  EP  OW  HW  HW  EP  OW  HW  HW  EP  OW  HW  
HW  EP  OW  HW  HW  EP  OW  HW  HW  EP  OW  HW  HW  EP  OW  HW  HW  EP  OW  HW  
HW  EP  OW  HW  HW  EP  OW  HW  HW  EP  OW  HW  HW  EP  OW  HW  HW  EP  OW  HW  
HW  EP  OW  HW  HW  EP  OW  HW  HW  EP  OW  HW  HW  EP  OW  HW  HW  EP  OW  HW  
HW  EP  OW  HW  HW  EP  OW  HW  HW  EP  OW  HW  HW  EP  OW  HW  HW  EP  OW  HW  
HW  EP  OW  HW  HW  EP  OW  HW  HW  EP  OW  HW  HW  EP  OW  HW  HW  EP  OW  HW  
HW  EP  OW  HW  HW  EP  OW  HW  HW  EP  OW  HW  HW  EP  OW  HW  HW  EP  OW  HW  
HW  EP  OW  HW  HW  EP  OW  HW  HW  EP  OW  HW  HW  EP  OW  HW  HW  EP  OW  HW  
HW  EP  OW  HW  HW  EP  OW  HW  HW  EP  OW  HW  HW  EP  OW  HW  HW  EP  OW  HW  
HW  EP  OW  HW  HW  EP  OW  HW  HW  EP  OW  HW  HW  EP  OW  HW  HW  EP  OW  HW  
HW  EP  OW  HW  HW  EP  OW  HW  HW  EP  OW  HW  HW  EP  OW  HW  HW  EP  OW  HW  
HW  EP  OW  HW  HW  EP  OW  HW  HW  EP  OW  HW  HW  EP  OW  HW  HW  EP  OW  HW  
HW  EP  OW  HW  HW  EP  OW  HW  HW  EP  OW  HW  HW  EP  OW  HW  HW  EP  OW  HW  
HW  EP  OW  HW  HW  EP  OW  HW  HW  EP  OW  HW  HW  EP  OW  HW  HW  EP  OW  HW  
HW  EP  OW  HW  HW  EP  OW  HW  HW  EP  OW  HW  HW  EP  OW  HW  HW  EP  OW  HW  
HW  EP  OW  HW  HW  EP  OW  HW  HW  EP  OW  HW  HW  EP  OW  HW  HW  EP  OW  HW  
HW  EP  OW  HW  HW  EP  OW  HW  HW  EP  OW  HW  HW  EP  OW  HW  HW  EP  OW  HW  
HW  EP  OW  HW  HW  EP  OW  HW  HW  EP  OW  HW  HW  EP  OW  HW  HW  EP  OW  HW  
HW  EP  OW  HW  HW  EP  OW  HW  HW  EP  OW  HW  HW  EP  OW  HW  HW  EP  OW  HW  
HW  EP  OW  HW  HW  EP  OW  HW  HW  EP  OW  HW  HW  EP  OW  HW  HW  EP  OW  HW  
HW  EP  OW  HW  HW  EP  OW  HW  HW  EP  OW  HW  HW  EP  OW  HW  HW  EP  OW  HW  
HW  EP  OW  HW  HW  EP  OW  HW  HW  EP  OW  HW  HW  EP  OW  HW  HW  EP  OW  HW  
HW  EP  OW  HW  HW  EP  OW  HW  HW  EP  OW  HW  HW  EP  OW  HW  HW  EP  OW  HW  
HW  EP  OW  HW  HW  EP  OW  HW  HW  EP  OW  HW  HW  EP  OW  HW  HW  EP  OW  HW  
HW  EP  OW  HW  HW  EP  OW  HW  HW  EP  OW  HW  HW  EP  OW  HW  HW  EP  OW  HW  
HW  EP  OW  HW  HW  EP  OW  HW  HW  EP  OW  HW  HW  EP  OW  HW  HW  EP  OW  HW  
HW  EP  OW  HW  HW  EP  OW  HW  HW  EP  OW  HW  HW  EP  OW  HW  HW  EP  OW  HW  
HW  EP  OW  HW  HW  EP  OW  HW  HW  EP  OW  HW  HW  EP  OW  HW  HW  EP  OW  HW  
HW  EP  OW  HW  HW  EP  OW  HW  HW  EP  OW  HW  HW  EP  OW  HW  HW  EP  OW  HW  
HW  EP  OW  HW  HW  EP  OW  HW  HW  EP  OW  HW  HW  EP  OW  HW  HW  EP  OW  HW  
HW  EP  OW  HW  HW  EP  OW  HW  HW  EP  OW  HW  HW  EP  OW  HW  HW  EP  OW  HW  
HW  EP  OW  HW  HW  EP  OW  HW  HW  EP  OW  HW  HW  EP  OW  HW  HW  EP  OW  HW  
HW  EP  OW  HW  HW  EP  OW  HW  HW  EP  OW  HW  HW  EP  OW  HW  HW  EP  OW  HW  
HW  EP  OW  HW  HW  EP  OW  HW  HW  EP  OW  HW  HW  EP  OW  HW  HW  EP  OW  HW  
HW  EP  OW  HW  HW  EP  OW  HW  HW  EP  OW  HW  HW  EP  OW  HW  HW  EP  OW  HW  
HW  EP  OW  HW  HW  EP  OW  HW  HW  EP  OW  HW  HW  EP  OW  HW  HW  EP  OW  HW  
HW  EP  OW  HW  HW  EP  OW  HW  HW  EP  OW  HW  HW  EP  OW  HW  HW  EP  OW  HW  
HW  EP  OW  HW  HW  EP  OW  HW  HW  EP  OW  HW  HW  EP  OW  HW  HW  EP  OW  HW  
HW  EP  OW  HW  HW  EP  OW  HW  HW  EP  OW  HW  HW  EP  OW  HW  HW  EP  OW  HW  
HW  EP  OW  HW  HW  EP  OW  HW  HW  EP  OW  HW  HW  EP  OW  HW  HW  EP  OW  HW  
HW  EP  OW  HW  HW  EP  OW  HW  HW  EP  OW  HW  HW  EP  OW  HW  HW  EP  OW  HW  
HW  EP  OW  HW  HW  EP  OW  HW  HW  EP  OW  HW  HW  EP  OW  HW  HW  EP  OW  HW  
HW  EP  OW  HW  HW  EP  OW  HW  HW  EP  OW  HW  HW  EP  OW  HW  HW  EP  OW  HW  
HW  EP  OW  HW  HW  EP  OW  HW  HW  EP  OW  HW  HW  EP  OW  HW  HW  EP  OW  HW  
HW  EP  OW  HW  HW  EP  OW  HW  HW  EP  OW  HW  HW  EP  OW  HW  HW  EP  OW  HW  
HW  EP  OW  HW  HW  EP  OW  HW  HW  EP  OW  HW  HW  EP  OW  HW  HW  EP  OW  HW  
HW  EP  OW  HW  HW  EP  OW  HW  HW  EP  OW  HW  HW  EP  OW  HW  HW  EP  OW  HW  
HW  EP  OW  HW  HW  EP  OW  HW  HW  EP  OW  HW  HW  EP  OW  HW  HW  EP  OW  HW  
HW  EP  OW  HW  HW  EP  OW  HW  HW  EP  OW  HW  HW  EP  OW  HW  HW  EP  OW  HW  
HW  EP  OW  HW  HW  EP  OW  HW  HW  EP  OW  HW  HW  EP  OW  HW  HW  EP  OW  HW  
HW  EP  OW  HW  HW  EP  OW  HW  HW  EP  OW  HW  HW  EP  OW  HW  HW  EP  OW  HW  
HW  EP  OW  HW  HW  EP  OW  HW  HW  EP  OW  HW  HW  EP  OW  HW  HW  EP  OW  HW  
HW  EP  OW  HW  HW  EP  OW  HW  HW  EP  OW  HW  HW  EP  OW  HW  HW  EP  OW  HW  
HW  EP  OW  HW  HW  EP  OW  HW  HW  EP  OW  HW  HW  EP  OW  HW  HW  EP  OW  HW  
HW  EP  OW  HW  HW  EP  OW  HW  HW  EP  OW  HW  HW  EP  OW  HW  HW  EP  OW  HW  
HW  EP  OW  HW  HW  EP  OW  HW  HW  EP  OW  HW  HW  EP  OW  HW  HW  EP  OW  HW  
HW  EP  OW  HW  HW  EP  OW  HW  HW  EP  OW  HW  HW  EP  OW  HW  HW  EP  OW  HW  
HW  EP  OW  HW  HW  EP  OW  HW  HW  EP  OW  HW  HW  EP  OW  HW  HW  EP  OW  HW  
HW  EP  OW  HW  HW  EP  OW  HW  HW  EP  OW  HW  HW  EP  OW  HW  HW  EP  OW  HW  
HW  EP  OW  HW  HW  EP  OW  HW  HW  EP  OW  HW  HW  EP  OW  HW  HW  EP  OW  HW  
HW  EP  OW  HW  HW  EP  OW  HW  HW  EP  OW  HW  HW  EP  OW  HW  HW  EP  OW  HW  
HW  EP  OW  HW  HW  EP  OW  HW  HW  EP  OW  HW  HW  EP  OW  HW  HW  EP  OW  HW  
HW  EP  OW  HW  HW  EP  OW  HW  HW  EP  OW  HW  HW  EP  OW  HW  HW  EP  OW  HW  
HW  EP  OW  HW  HW  EP  OW  HW  HW  EP  OW  HW  HW  EP  OW  HW  HW  EP  OW  HW  
HW  EP  OW  HW  HW  EP  OW  HW  HW  EP  OW  HW  HW  EP  OW  HW  HW  EP  OW  HW  
HW  EP  OW  HW  HW  EP  OW  HW  HW  EP  OW  HW  HW  EP  OW  HW  HW  EP  OW  HW  
HW  EP  OW  HW  HW  EP  OW  HW  HW  EP  OW  HW  HW  EP  OW  HW  HW  EP  OW  HW  
HW  EP  OW  HW  HW  EP  OW  HW  HW  EP  OW  HW  HW  EP  OW  HW  HW  EP  OW  HW  
HW  EP  OW  HW  HW  EP  OW  HW  HW  EP  OW  HW  HW  EP  OW  HW  HW  EP  OW  HW  
HW  EP  OW  HW  HW  EP  OW  HW  HW  EP  OW  HW  HW  EP  OW  HW  HW  EP  OW  HW  
HW  EP  OW  HW  HW  EP  OW  HW  HW  EP  OW  HW  HW  EP  OW  HW  HW  EP  OW  HW  
HW  EP  OW  HW  HW  EP  OW  HW  HW  EP  OW  HW  HW  EP  OW  HW  HW  EP  OW  HW  
HW  EP  OW  HW  HW  EP  OW  HW  HW  EP  OW  HW  HW  EP  OW  HW  HW  EP  OW  HW  
HW  EP  OW  HW  HW  EP  OW  HW  HW  EP  OW  HW  HW  EP  OW  HW  HW  EP  OW  HW  
HW  EP  OW  HW  HW  EP  OW  HW  HW  EP  OW  HW  HW  EP  OW  HW  HW  EP  OW  HW  
HW  EP  OW  HW  HW  EP  OW  HW  HW  EP  OW  HW  HW  EP  OW  HW  HW  EP  OW  HW  
HW  EP  OW  HW  HW  EP  OW  HW  HW  EP  OW  HW  HW  EP  OW  HW  HW  EP  OW  HW  
HW  EP  OW  HW  HW  EP  OW  HW  HW  EP  OW  HW  HW  EP  OW  HW  HW  EP  OW  HW  
HW  EP  OW  HW  HW  EP  OW  HW  HW  EP  OW  HW  HW  EP  OW  HW  HW  EP  OW  HW  
HW  EP  OW  HW  HW  EP  OW  HW  HW  EP  OW  HW  HW  EP  OW  HW  HW  EP  OW  HW  
HW  EP  OW  HW  HW  EP  OW  HW  HW  EP  OW  HW  HW  EP  OW  HW  HW  EP  OW  HW  
HW  EP  OW  HW  HW  EP  OW  HW  HW  EP  OW  HW  HW  EP  OW  HW  HW  EP  OW  HW  
HW  EP  OW  HW  HW  EP  OW  HW  HW  EP  OW  HW  HW  EP  OW  HW  HW  EP  OW  HW  
HW  EP  OW  HW  HW  EP  OW  HW  HW  EP  OW  HW  HW  EP  OW  HW  HW  EP  OW  HW  
HW  EP  OW  HW  HW  EP  OW  HW  HW  EP  OW  HW  HW  EP  OW  HW  HW  EP  OW  HW  
HW  EP  OW  HW  HW  EP  OW  HW  HW  EP  OW  HW  HW  EP  OW  HW  HW  EP  OW  HW  
HW  EP  OW  HW  HW  EP  OW  HW  HW  EP  OW  HW  HW  EP  OW  HW  HW  EP  OW  HW  
HW  EP  OW  HW  HW  EP  OW  HW  HW  EP  OW  HW  HW  EP  OW  HW  HW  EP  OW  HW  
HW  EP  OW  HW  HW  EP  OW  HW  HW  EP  OW  HW  HW  EP  OW  HW  HW  EP  OW  HW  
HW  EP  OW  HW  HW  EP  OW  HW  HW  EP  OW  HW  HW  EP  OW  HW  HW  EP  OW  HW  
HW  EP  OW  HW  HW  EP  OW  HW  HW  EP  OW  HW  HW  EP  OW  HW  HW  EP  OW  HW  
HW  EP  OW  HW  HW  EP  OW  HW  HW  EP  OW  HW  HW  EP  OW  HW  HW  EP  OW  HW  
HW  EP  OW  HW  HW  EP  OW  HW  HW  EP  OW  HW  HW  EP  OW  HW  HW  EP  OW  HW  
HW  EP  OW  HW  HW  EP  OW  HW  HW  EP  OW  HW  HW  EP  OW  HW  HW  EP  OW  HW  
HW  EP  OW  HW  HW  EP  OW  HW  HW  EP  OW  HW  HW  EP  OW  HW  HW  EP  OW  HW  
HW  EP  OW  HW  HW  EP  OW  HW  HW  EP  OW  HW  HW  EP  OW  HW  HW  EP  OW  HW  
HW  EP  OW  HW  HW  EP  OW  HW  HW  EP  OW  HW  HW  EP  OW  HW  HW  EP  OW  HW  
HW  EP  OW  HW  HW  EP  OW  HW  HW  EP  OW  HW  HW  EP  OW  HW  HW  EP  OW  HW  
HW  EP  OW  HW  HW  EP  OW  HW  HW  EP  OW  HW  HW  EP  OW  HW  HW  EP  OW  HW  
HW  EP  OW  HW  HW  EP  OW  HW  HW  EP  OW  HW  HW  EP  OW  HW  HW  EP  OW  HW  
HW  EP  OW  HW  HW  EP  OW  HW  HW  EP  OW  HW  HW  EP  OW  HW  HW  EP  OW  HW  
HW  EP  OW  HW  HW  EP  OW  HW  HW  EP  OW  HW  HW  EP  OW  HW  HW  EP  OW  HW  
HW  EP  OW  HW  HW  EP  OW  HW  HW  EP  OW  HW  HW  EP  OW  HW  HW  EP  OW  HW  
HW  EP  OW  HW  HW  EP  OW  HW  HW  EP  OW  HW  HW  EP  OW  HW  HW  EP  OW  HW  
HW  EP  OW  HW  HW  EP  OW  HW  HW  EP  OW  HW  HW  EP  OW  HW  HW  EP  OW  HW  
HW  EP  OW  HW  HW  EP  OW  HW  HW  EP  OW  HW  HW  EP  OW  HW  HW  EP  OW  HW  
HW  EP  OW  HW  HW  EP  OW  HW  HW  EP  OW  HW  HW  EP  OW  HW  HW  EP  OW  HW  
HW  EP  OW  HW  HW  EP  OW  HW  HW  EP  OW  HW  HW  EP  OW  HW  HW  EP  OW  HW  
HW  EP  OW  HW  HW  EP  OW  HW  HW  EP  OW  HW  HW  EP  OW  HW  HW  EP  OW  HW  
HW  EP  OW  HW  HW  EP  OW  HW  HW  EP  OW  HW  HW  EP  OW  HW  HW  EP  OW  HW  
HW  EP  OW  HW  HW  EP  OW  HW  HW  EP  OW  HW  HW  EP  OW  HW  HW  EP  OW  HW  
HW  EP  OW  HW  HW  EP  OW  HW  HW  EP  OW  HW  HW  EP  OW  HW  HW  EP  OW  HW  
HW  EP  OW  HW  HW  EP  OW  HW  HW  EP  OW  HW  HW  EP  OW  HW  HW  EP  OW  HW  
HW  EP  OW  HW  HW  EP  OW  HW  HW  EP  OW  HW  HW  EP  OW  HW  HW  EP  OW  HW  
HW  EP  OW  HW  HW  EP  OW  HW  HW  EP  OW  HW  HW  EP  OW  HW  HW  EP  OW  HW  
HW  EP  OW  HW  HW  EP  OW  HW  HW  EP  OW  HW  HW  EP  OW  HW  HW  EP  OW  HW  
HW  EP  OW  HW  HW  EP  OW  HW  HW  EP  OW  HW  HW  EP  OW  HW  HW  EP  OW  HW  
HW  EP  OW  HW  HW  EP  OW  HW  HW  EP  OW  HW  HW  EP  OW  HW  HW  EP  OW  HW  
HW  EP  OW  HW  HW  EP  OW  HW  HW  EP  OW  HW  HW  EP  OW  HW  HW  EP  OW  HW  
HW  EP  OW  HW  HW  EP  OW  HW  HW  EP  OW  HW  HW  EP  OW  HW  HW  EP  OW  HW  
HW  EP  OW  HW  HW  EP  OW  HW  HW  EP  OW  HW  HW  EP  OW  HW  HW  EP  OW  HW  
HW  EP  OW  HW  HW  EP  OW  HW  HW  EP  OW  HW  HW  EP  OW  HW  HW  EP  OW  HW  
HW  EP  OW  HW  HW  EP  OW  HW  HW  EP  OW  HW  HW  EP  OW  HW  HW  EP  OW  HW  
HW  EP  OW  HW  HW  EP  OW  HW  HW  EP  OW  HW  HW  EP  OW  HW  HW  EP  OW  HW  
HW  EP  OW  HW  HW  EP  OW  HW  HW  EP  OW  HW  HW  EP  OW  HW  HW  EP  OW  HW  
HW  EP  OW  HW  HW  EP  OW  HW  HW  EP  OW  HW  HW  EP  OW  HW  HW  EP  OW  HW  
HW  EP  OW  HW  HW  EP  OW  HW  HW  EP  OW  HW  HW  EP  OW  HW  HW  EP  OW  HW  
HW  EP  OW  HW  HW  EP  OW  HW  HW  EP  OW  HW  HW  EP  OW  HW  HW  EP  OW  HW  
HW  EP  OW  HW  HW  EP  OW  HW  HW  EP  OW  HW  HW  EP  OW  HW  HW  EP  OW  HW  
HW  EP  OW  HW  HW  EP  OW  HW  HW  EP  OW  HW  HW  EP  OW  HW  HW  EP  OW  HW  
HW  EP  OW  HW  HW  EP  OW  HW  HW  EP  OW  HW  HW  EP  OW  HW  HW  EP  OW  HW  
HW  EP  OW  HW  HW  EP  OW  HW  HW  EP  OW  HW  HW  EP  OW  HW  HW  EP  OW  HW  
HW  EP  OW  HW  HW  EP  OW  HW  HW  EP  OW  HW  HW  EP  OW  HW  HW  EP  OW  HW  
HW  EP  OW  HW  HW  EP  OW  HW  HW  EP  OW  HW  HW  EP  OW  HW  HW  EP  OW  HW  
HW  EP  OW  HW  HW  EP  OW  HW  HW  EP  OW  HW  HW  EP  OW  HW  HW  EP  OW  HW  
HW  EP  OW  HW  HW  EP  OW  HW  HW  EP  OW  HW  HW  EP  OW  HW  HW  EP  OW  HW  
HW  EP  OW  HW  HW  EP  OW  HW  HW  EP  OW  HW  HW  EP  OW  HW  HW  EP  OW  HW  
HW  EP  OW  HW  HW  EP  OW  HW  HW  EP  OW  HW  HW  EP  OW  HW  HW  EP  OW  HW  
HW  EP  OW  HW  HW  EP  OW  HW  HW  EP  OW  HW  HW  EP  OW  HW  HW  EP  OW  HW  
HW  EP  OW  HW  HW  EP  OW  HW  HW  EP  OW  HW  HW  EP  OW  HW  HW  EP  OW  HW  
HW  EP  OW  HW  HW  EP  OW  HW  HW  EP  OW  HW  HW  EP  OW  HW  HW  EP  OW  HW  
HW  EP  OW  HW  HW  EP  OW  HW  HW  EP  OW  HW  HW  EP  OW  HW  HW  EP  OW  HW  
HW  EP  OW  HW  HW  EP  OW  HW  HW  EP  OW  HW  HW  EP  OW  HW  HW  EP  OW  HW  
HW  EP  OW  HW  HW  EP  OW  HW  HW  EP  OW  HW  HW  EP  OW  HW  HW  EP  OW  HW  
HW  EP  OW  HW  HW  EP  OW  HW  HW  EP  OW  HW  HW  EP  OW  HW  HW  EP  OW  HW  
HW  EP  OW  HW  HW  EP  OW  HW  HW  EP  OW  HW  HW  EP  OW  HW  HW  EP  OW  HW  
HW  EP  OW  HW  HW  EP  OW  HW  HW  EP  OW  HW  HW  EP  OW  HW  HW  EP  OW  HW  
HW  EP  OW  HW  HW  EP  OW  HW  HW  EP  OW  HW  HW  EP  OW  HW  HW  EP  OW  HW  
HW  EP  OW  HW  HW  EP  OW  HW  HW  EP  OW  HW  HW  EP  OW  HW  HW  EP  OW  HW  
HW  EP  OW  HW  HW  EP  OW  HW  HW  EP  OW  HW  HW  EP  OW  HW  HW  EP  OW  HW  
HW  EP  OW  HW  HW  EP  OW  HW  HW  EP  OW  HW  HW  EP  OW  HW  HW  EP  OW  HW  
HW  EP  OW  HW  HW  EP  OW  HW  HW  EP  OW  HW  HW  EP  OW  HW  HW  EP  OW  HW  
HW  EP  OW  HW  HW  EP  OW  HW  HW  EP  OW  HW  HW  EP  OW  HW  HW  EP  OW  HW  
HW  EP  OW  HW  HW  EP  OW  HW  HW  EP  OW  HW  HW  EP  OW  HW  HW  EP  OW  HW  
HW  EP  OW  HW  HW  EP  OW  HW  HW  EP  OW  HW  HW  EP  OW  HW  HW  EP  OW  HW  
HW  EP  OW  HW  HW  EP  OW  HW  HW  EP  OW  HW  HW  EP  OW  HW  HW  EP  OW  HW  
HW  EP  OW  HW  HW  EP  OW  HW  HW  EP  OW  HW  HW  EP  OW  HW  HW  EP  OW  HW  
HW  EP  OW  HW  HW  EP  OW  HW  HW  EP  OW  HW  HW  EP  OW  HW  HW  EP  OW  HW  
HW  EP  OW  HW  HW  EP  OW  HW  HW  EP  OW  HW  HW  EP  OW  HW  HW  EP  OW  HW  
HW  EP  OW  HW  HW  EP  OW  HW  HW  EP  OW  HW  HW  EP  OW  HW  HW  EP  OW  HW  
HW  EP  OW  HW  HW  EP  OW  HW  HW  EP  OW  HW  HW  EP  OW  HW  HW  EP  OW  HW  
HW  EP  OW  HW  HW  EP  OW  HW  HW  EP  OW  HW  HW  EP  OW  HW  HW  EP  OW  HW  
HW  EP  OW  HW  HW  EP  OW  HW  HW  EP  OW  HW  HW  EP  OW  HW  HW  EP  OW  HW  
HW  EP  OW  HW  HW  EP  OW  HW  HW  EP  OW  HW  HW  EP  OW  HW  HW  EP  OW  HW  
HW  EP  OW  HW  HW  EP  OW  HW  HW  EP  OW  HW  HW  EP  OW  HW  HW  EP  OW  HW  
HW  EP  OW  HW  HW  EP  OW  HW  HW  EP  OW  HW  HW  EP  OW  HW  HW  EP  OW  HW  
HW  EP  OW  HW  HW  EP  OW  HW  HW  EP  OW  HW  HW  EP  OW  HW  HW  EP  OW  HW  
HW  EP  OW  HW  HW  EP  OW  HW  HW  EP  OW  HW  HW  EP  OW  HW  HW  EP  OW  HW  
HW  EP  OW  HW  HW  EP  OW  HW  HW  EP  OW  HW  HW  EP  OW  HW  HW  EP  OW  HW  
HW  EP  OW  HW  HW  EP  OW  HW  HW  EP  OW  HW  HW  EP  OW  HW  HW  EP  OW  HW  
HW  EP  OW  HW  HW  EP  OW  HW  HW  EP  OW  HW  HW  EP  OW  HW  HW  EP  OW  HW  
HW  EP  OW  HW  HW  EP  OW  HW  HW  EP  OW  HW  HW  EP  OW  HW  HW  EP  OW  HW  
HW  EP  OW  HW  HW  EP  OW  HW  HW  EP  OW  HW  HW  EP  OW  HW  HW  EP  OW  HW  
HW  EP  OW  HW  HW  EP  OW  HW  HW  EP  OW  HW  HW  EP  OW  HW  HW  EP  OW  HW  
HW  EP  OW  HW  HW  EP  OW  HW  HW  EP  OW  HW  HW  EP  OW  HW  HW  EP  OW  HW  
HW  EP  OW  HW  HW  EP  OW  HW  HW  EP  OW  HW  HW  EP  OW  HW  HW  EP  OW  HW  
HW  EP  OW  HW  HW  EP  OW  HW  HW  EP  OW  HW  HW  EP  OW  HW  HW  EP  OW  HW  
HW  EP  OW  HW  HW  EP  OW  HW  HW  EP  OW  HW  HW  EP  OW  HW  HW  EP  OW  HW  
HW  EP  OW  HW  HW  EP  OW  HW  HW  EP  OW  HW  HW  EP  OW  HW  HW  EP  OW  HW  
HW  EP  OW  HW  HW  EP  OW  HW  HW  EP  OW  HW  HW  EP  OW  HW  HW  EP  OW  HW  
HW  EP  OW  HW  HW  EP  OW  HW  HW  EP  OW  HW  HW  EP  OW  HW  HW  EP  OW  HW  
HW  EP  OW  HW  HW  EP  OW  HW  HW  EP  OW  HW  HW  EP  OW  HW  HW  EP  OW  HW  
HW  EP  OW  HW  HW  EP  OW  HW  HW  EP  OW  HW  HW  EP  OW  HW  HW  EP  OW  HW  
HW  EP  OW  HW  HW  EP  OW  HW  HW  EP  OW  HW  HW  EP  OW  HW  HW  EP  OW  HW  
HW  EP  OW  HW  HW  EP  OW  HW  HW  EP  OW  HW  HW  EP  OW  HW  HW  EP  OW  HW  
HW  EP  OW  HW  HW  EP  OW  HW  HW  EP  OW  HW  HW  EP  OW  HW  HW  EP  OW  HW  
HW  EP  OW  HW  HW  EP  OW  HW  HW  EP  OW  HW  HW  EP  OW  HW  HW  EP  OW  HW  
HW  EP  OW  HW  HW  EP  OW  HW  HW  EP  OW  HW  HW  EP  OW  HW  HW  EP  OW  HW  
HW  EP  OW  HW  HW  EP  OW  HW  HW  EP  OW  HW  HW  EP  OW  HW  HW  EP  OW  HW  
HW  EP  OW  HW  HW  EP  OW  HW  HW  EP  OW  HW  HW  EP  OW  HW  HW  EP  OW  HW  
HW  EP  OW  HW  HW  EP  OW  HW  HW  EP  OW  HW  HW  EP  OW  HW  HW  EP  OW  HW  
HW  EP  OW  HW  HW  EP  OW  HW  HW  EP  OW  HW  HW  EP  OW  HW  HW  EP  OW  HW  
HW  EP  OW  HW  HW  EP  OW  HW  HW  EP  OW  HW  HW  EP  OW  HW  HW  EP  OW  HW  
HW  EP  OW  HW  HW  EP  OW  HW  HW  EP  OW  HW  HW  EP  OW  HW  HW  EP  OW  HW  
HW  EP  OW  HW  HW  EP  OW  HW  HW  EP  OW  HW  HW  EP  OW  HW  HW  EP  OW  HW  
HW  EP  OW  HW  HW  EP  OW  HW  HW  EP  OW  HW  HW  EP  OW  HW  HW  EP  OW  HW  
HW  EP  OW  HW  HW  EP  OW  HW  HW  EP  OW  HW  HW  EP  OW  HW  HW  EP  OW  HW  
HW  EP  OW  HW  HW  EP  OW  HW  HW  EP  OW  HW  HW  EP  OW  HW  HW  EP  OW  HW  
HW  EP  OW  HW  HW  EP  OW  HW  HW  EP  OW  HW  HW  EP  OW  HW  HW  EP  OW  HW  
HW  EP  OW  HW  HW  EP  OW  HW  HW  EP  OW  HW  HW  EP  OW  HW  HW  EP  OW  HW  
HW  EP  OW  HW  HW  EP  OW  HW  HW  EP  OW  HW  HW  EP  OW  HW  HW  EP  OW  HW  
HW  EP  OW  HW  HW  EP  OW  HW  HW  EP  OW  HW  HW  EP  OW  HW  HW  EP  OW  HW  
HW  EP  OW  HW  HW  EP  OW  HW  HW  EP  OW  HW  HW  EP  OW  HW  HW  EP  OW  HW  
HW  EP  OW  HW  HW  EP  OW  HW  HW  EP  OW  HW  HW  EP  OW  HW  HW  EP  OW  HW  
HW  EP  OW  HW  HW  EP  OW  HW  HW  EP  OW  HW  HW  EP  OW  HW  HW  EP  OW  HW  
HW  EP  OW  HW  HW  EP  OW  HW  HW  EP  OW  HW  HW  EP  OW  HW  HW  EP  OW  HW  
HW  EP  OW  HW  HW  EP  OW  HW  HW  EP  OW  HW  HW  EP  OW  HW  HW  EP  OW  HW  
HW  EP  OW  HW  HW  EP  OW  HW  HW  EP  OW  HW  HW  EP  OW  HW  HW  EP  OW  HW  
HW  EP  OW  HW  HW  EP  OW  HW  HW  EP  OW  HW  HW  EP  OW  HW  HW  EP  OW  HW  
HW  EP  OW  HW  HW  EP  OW  HW  HW  EP  OW  HW  HW  EP  OW  HW  HW  EP  OW  HW  
HW  EP  OW  HW  HW  EP  OW  HW  HW  EP  OW  HW  HW  EP  OW  HW  HW  EP  OW  HW  
HW  EP  OW  HW  HW  EP  OW  HW  HW  EP  OW  HW  HW  EP  OW  HW  HW  EP  OW  HW  
HW  EP  OW  HW  HW  EP  OW  HW  HW  EP  OW  HW  HW  EP  OW  HW  HW  EP  OW  HW  
HW  EP  OW  HW  HW  EP  OW  HW  HW  EP  OW  HW  HW  EP  OW  HW  HW  EP  OW  HW  
HW  EP  OW  HW  HW  EP  OW  HW  HW  EP  OW  HW  HW  EP  OW  HW  HW  EP  OW  HW  
HW  EP  OW  HW  HW  EP  OW  HW  HW  EP  OW  HW  HW  EP  OW  HW  HW  EP  OW  HW  
HW  EP  OW  HW  HW  EP  OW  HW  HW  EP  OW  HW  HW  EP  OW  HW  HW  EP  OW  HW  
HW  EP  OW  HW  HW  EP  OW  HW  HW  EP  OW  HW  HW  EP  OW  HW  HW  EP  OW  HW  
HW  EP  OW  HW  HW  EP  OW  HW  HW  EP  OW  HW  HW  EP  OW  HW  HW  EP  OW  HW  
HW  EP  OW  HW  HW  EP  OW  HW  HW  EP  OW  HW  HW  EP  OW  HW  HW  EP  OW  HW  
HW  EP  OW  HW  HW  EP  OW  HW  HW  EP  OW  HW  HW  EP  OW  HW  HW  EP  OW  HW  
HW  EP  OW  HW  HW  EP  OW  HW  HW  EP  OW  HW  HW  EP  OW  HW  HW  EP  OW  HW  
HW  EP  OW  HW  HW  EP  OW  HW  HW  EP  OW  HW  HW  EP  OW  HW  HW  EP  OW  HW  
HW  EP  OW  HW  HW  EP  OW  HW  HW  EP  OW  HW  HW  EP  OW  HW  HW  EP  OW  HW  
HW  EP  OW  HW  HW  EP  OW  HW  HW  EP  OW  HW  HW  EP  OW  HW  HW  EP  OW  HW  
HW  EP  OW  HW  HW  EP  OW  HW  HW  EP  OW  HW  HW  EP  OW  HW  HW  EP  OW  HW  
HW  EP  OW  HW  HW  EP  OW  HW  HW  EP  OW  HW  HW  EP  OW  HW  HW  EP  OW  HW  
HW  EP  OW  HW  HW  EP  OW  HW  HW  EP  OW  HW  HW  EP  OW  HW  HW  EP  OW  HW  
HW  EP  OW  HW  HW  EP  OW  HW  HW  EP  OW  HW  HW  EP  OW  HW  HW  EP  OW  HW  
HW  EP  OW  HW  HW  EP  OW  HW  HW  EP  OW  HW  HW  EP  OW  HW  HW  EP  OW  HW  
HW  EP  OW  HW  HW  EP  OW  HW  HW  EP  OW  HW  HW  EP  OW  HW  HW  EP  OW  HW  
HW  EP  OW  HW  HW  EP  OW  HW  HW  EP  OW  HW  HW  EP  OW  HW  HW  EP  OW  HW  
HW  EP  OW  HW  HW  EP  OW  HW  HW  EP  OW  HW  HW  EP  OW  HW  HW  EP  OW  HW  
HW  EP  OW  HW  HW  EP  OW  HW  HW  EP  OW  HW  HW  EP  OW  HW  HW  EP  OW  HW  
HW  EP  OW  HW  HW  EP  OW  HW  HW  EP  OW  HW  HW  EP  OW  HW  HW  EP  OW  HW  
HW  EP  OW  HW  HW  EP  OW  HW  HW  EP  OW  HW  HW  EP  OW  HW  HW  EP  OW  HW  
HW  EP  OW  HW  HW  EP  OW  HW  HW  EP  OW  HW  HW  EP  OW  HW  HW  EP  OW  HW  
HW  EP  OW  HW  HW  EP  OW  HW  HW  EP  OW  HW  HW  EP  OW  HW  HW  EP  OW  HW  
HW  EP  OW  HW  HW  EP  OW  HW  HW  EP  OW  HW  HW  EP  OW  HW  HW  EP  OW  HW  
HW  EP  OW  HW  HW  EP  OW  HW  HW  EP  OW  HW  HW  EP  OW  HW  HW  EP  OW  HW  
HW  EP  OW  HW  HW  EP  OW  HW  HW  EP  OW  HW  HW  EP  OW  HW  HW  EP  OW  HW  
HW  EP  OW  HW  HW  EP  OW  HW  HW  EP  OW  HW  HW  EP  OW  HW  HW  EP  OW  HW  
HW  EP  OW  HW  HW  EP  OW  HW  HW  EP  OW  HW  HW  EP  OW  HW  HW  EP  OW  HW  
HW  EP  OW  HW  HW  EP  OW  HW  HW  EP  OW  HW  HW  EP  OW  HW  HW  EP  OW  HW  
HW  EP  OW  HW  HW  EP  OW  HW  HW  EP  OW  HW  HW  EP  OW  HW  HW  EP  OW  HW  
HW  EP  OW  HW  HW  EP  OW  HW  HW  EP  OW  HW  HW  EP  OW  HW  HW  EP  OW  HW  
HW  EP  OW  HW  HW  EP  OW  HW  HW  EP  OW  HW  HW  EP  OW  HW  HW  EP  OW  HW  
HW  EP  OW  HW  HW  EP  OW  HW  HW  EP  OW  HW  HW  EP  OW  HW  HW  EP  OW  HW  
HW  EP  OW  HW  HW  EP  OW  HW  HW  EP  OW  HW  HW  EP  OW  HW  HW  EP  OW  HW  
HW  EP  OW  HW  HW  EP  OW  HW  HW  EP  OW  HW  HW  EP  OW  HW  HW  EP  OW  HW  
HW  EP  OW  HW  HW  EP  OW  HW  HW  EP  OW  HW  HW  EP  OW  HW  HW  EP  OW  HW  
HW  EP  OW  HW  HW  EP  OW  HW  HW  EP  OW  HW  HW  EP  OW  HW  HW  EP  OW  HW  
HW  EP  OW  HW  HW  EP  OW  HW  HW  EP  OW  HW  HW  EP  OW  HW  HW  EP  OW  HW  
HW  EP  OW  HW  HW  EP  OW  HW  HW  EP  OW  HW  HW  EP  OW  HW  HW  EP  OW  HW  
HW  EP  OW  HW  HW  EP  OW  HW  HW  EP  OW  HW  HW  EP  OW  HW  HW  EP  OW  HW  
HW  EP  OW  HW  HW  EP  OW  HW  HW  EP  OW  HW  HW  EP  OW  HW  HW  EP  OW  HW  
HW  EP  OW  HW  HW  EP  OW  HW  HW  EP  OW  HW  HW  EP  OW  HW  HW  EP  OW  HW  
HW  EP  OW  HW  HW  EP  OW  HW  HW  EP  OW  HW  HW  EP  OW  HW  HW  EP  OW  HW  
HW  EP  OW  HW  HW  EP  OW  HW  HW  EP  OW  HW  HW  EP  OW  HW  HW  EP  OW  HW  
HW  EP  OW  HW  HW  EP  OW  HW  HW  EP  OW  HW  HW  EP  OW  HW  HW  EP  OW  HW  
HW  EP  OW  HW  HW  EP  OW  HW  HW  EP  OW  HW  HW  EP  OW  HW  HW  EP  OW  HW  
HW  EP  OW  HW  HW  EP  OW  HW  HW  EP  OW  HW  HW  EP  OW  HW  HW  EP  OW  HW  
HW  EP  OW  HW  HW  EP  OW  HW  HW  EP  OW  HW  HW  EP  OW  HW  HW  EP  OW  HW  
HW  EP  OW  HW  HW  EP  OW  HW  HW  EP  OW  HW  HW  EP  OW  HW  HW  EP  OW  HW  
HW  EP  OW  HW  HW  EP  OW  HW  HW  EP  OW  HW  HW  EP  OW  HW  HW  EP  OW  HW  
HW  EP  OW  HW  HW  EP  OW  HW  HW  EP  OW  HW  HW  EP  OW  HW  HW  EP  OW  HW  
HW  EP  OW  HW  HW  EP  OW  HW  HW  EP  OW  HW  HW  EP  OW  HW  HW  EP  OW  HW  
HW  EP  OW  HW  HW  EP  OW  HW  HW  EP  OW  HW  HW  EP  OW  HW  HW  EP  OW  HW  
HW  EP  OW  HW  HW  EP  OW  HW  HW  EP  OW  HW  HW  EP  OW  HW  HW  EP  OW  HW  
HW  EP  OW  HW  HW  EP  OW  HW  HW  EP  OW  HW  HW  EP  OW  HW  HW  EP  OW  HW  
HW  EP  OW  HW  HW  EP  OW  HW  HW  EP  OW  HW  HW  EP  OW  HW  HW  EP  OW  HW  
HW  EP  OW  HW  HW  EP  OW  HW  HW  EP  OW  HW  HW  EP  OW  HW  HW  EP  OW  HW  
HW  EP  OW  HW  HW  EP  OW  HW  HW  EP  OW  HW  HW  EP  OW  HW  HW  EP  OW  HW  
HW  EP  OW  HW  HW  EP  OW  HW  HW  EP  OW  HW  HW  EP  OW  HW  HW  EP  OW  HW  
HW  EP  OW  HW  HW  EP  OW  HW  HW  EP  OW  HW  HW  EP  OW  HW  HW  EP  OW  HW  
HW  EP  OW  HW  HW  EP  OW  HW  HW  EP  OW  HW  HW  EP  OW  HW  HW  EP  OW  HW  
HW  EP  OW  HW  HW  EP  OW  HW  HW  EP  OW  HW  HW  EP  OW  HW  HW  EP  OW  HW  
HW  EP  OW  HW  HW  EP  OW  HW  HW  EP  OW  HW  HW  EP  OW  HW  HW  EP  OW  HW  
HW  EP  OW  HW  HW  EP  OW  HW  HW  EP  OW  HW  HW  EP  OW  HW  HW  EP  OW  HW  
HW  EP  OW  HW  HW  EP  OW  HW  HW  EP  OW  HW  HW  EP  OW  HW  HW  EP  OW  HW  
HW  EP  OW  HW  HW  EP  OW  HW  HW  EP  OW  HW  HW  EP  OW  HW  HW  EP  OW  HW  
HW  EP  OW  HW  HW  EP  OW  HW  HW  EP  OW  HW  HW  EP  OW  HW  HW  EP  OW  HW  
HW  EP  OW  HW  HW  EP  OW  HW  HW  EP  OW  HW  HW  EP  OW  HW  HW  EP  OW  HW  
HW  EP  OW  HW  HW  EP  OW  HW  HW  EP  OW  HW  HW  EP  OW  HW  HW  EP  OW  HW  
HW  EP  OW  HW  HW  EP  OW  HW  HW  EP  OW  HW  HW  EP  OW  HW  HW  EP  OW  HW  
HW  EP  OW  HW  HW  EP  OW  HW  HW  EP  OW  HW  HW  EP  OW  HW  HW  EP  OW  HW  
HW  EP  OW  HW  HW  EP  OW  HW  HW  EP  OW  HW  HW  EP  OW  HW  HW  EP  OW  HW  
HW  EP  OW  HW  HW  EP  OW  HW  HW  EP  OW  HW  HW  EP  OW  HW  HW  EP  OW  HW  
HW  EP  OW  HW  HW  EP  OW  HW  HW  EP  OW  HW  HW  EP  OW  HW  HW  EP  OW  HW  
HW  EP  OW  HW  HW  EP  OW  HW  HW  EP  OW  HW  HW  EP  OW  HW  HW  EP  OW  HW  
HW  EP  OW  HW  HW  EP  OW  HW  HW  EP  OW  HW  HW  EP  OW  HW  HW  EP  OW  HW  
HW  EP  OW  HW  HW  EP  OW  HW  HW  EP  OW  HW  HW  EP  OW  HW  HW  EP  OW  HW  
HW  EP  OW  HW  HW  EP  OW  HW  HW  EP  OW  HW  HW  EP  OW  HW  HW  EP  OW  HW  
HW  EP  OW  HW  HW  EP  OW  HW  HW  EP  OW  HW  HW  EP  OW  HW  HW  EP  OW  HW  
HW  EP  OW  HW  HW  EP  OW  HW  HW  EP  OW  HW  HW  EP  OW  HW  HW  EP  OW  HW  
HW  EP  OW  HW  HW  EP  OW  HW  HW  EP  OW  HW  HW  EP  OW  HW  HW  EP  OW  HW  
HW  EP  OW  HW  HW  EP  OW  HW  HW  EP  OW  HW  HW  EP  OW  HW  HW  EP  OW  HW  
HW  EP  OW  HW  HW  EP  OW  HW  HW  EP  OW  HW  HW  EP  OW  HW  HW  EP  OW  HW  
HW  EP  OW  HW  HW  EP  OW  HW  HW  EP  OW  HW  HW  EP  OW  HW  HW  EP  OW  HW  
HW  EP  OW  HW  HW  EP  OW  HW  HW  EP  OW  HW  HW  EP  OW  HW  HW  EP  OW  HW  
HW  EP  OW  HW  HW  EP  OW  HW  HW  EP  OW  HW  HW  EP  OW  HW  HW  EP  OW  HW  
HW  EP  OW  HW  HW  EP  OW  HW  HW  EP  OW  HW  HW  EP  OW  HW  HW  EP  OW  HW  
HW  EP  OW  HW  HW  EP  OW  HW  HW  EP  OW  HW  HW  EP  OW  HW  HW  EP  OW  HW  
HW  EP  OW  HW  HW  EP  OW  HW  HW  EP  OW  HW  HW  EP  OW  HW  HW  EP  OW  HW  
HW  EP  OW  HW  HW  EP  OW  HW  HW  EP  OW  HW  HW  EP  OW  HW  HW  EP  OW  HW  
HW  EP  OW  HW  HW  EP  OW  HW  HW  EP  OW  HW  HW  EP  OW  HW  HW  EP  OW  HW  
HW  EP  OW  HW  HW  EP  OW  HW  HW  EP  OW  HW  HW  EP  OW  HW  HW  EP  OW  HW  
HW  EP  OW  HW  HW  EP  OW  HW  HW  EP  OW  HW  HW  EP  OW  HW  HW  EP  OW  HW  
HW  EP  OW  HW  HW  EP  OW  HW  HW  EP  OW  HW  HW  EP  OW  HW  HW  EP  OW  HW  
HW  EP  OW  HW  HW  EP  OW  HW  HW  EP  OW  HW  HW  EP  OW  HW  HW  EP  OW  HW  
HW  EP  OW  HW  HW  EP  OW  HW  HW  EP  OW  HW  HW  EP  OW  HW  HW  EP  OW  HW  
HW  EP  OW  HW  HW  EP  OW  HW  HW  EP  OW  HW  HW  EP  OW  HW  HW  EP  OW  HW  
HW  EP  OW  HW  HW  EP  OW  HW  HW  EP  OW  HW  HW  EP  OW  HW  HW  EP  OW  HW  
HW  EP  OW  HW  HW  EP  OW  HW  HW  EP  OW  HW  HW  EP  OW  HW  HW  EP  OW  HW  
HW  EP  OW  HW  HW  EP  OW  HW  HW  EP  OW  HW  HW  EP  OW  HW  HW  EP  OW  HW  
HW  EP  OW  HW  HW  EP  OW  HW  HW  EP  OW  HW  HW  EP  OW  HW  HW  EP  OW  HW  
HW  EP  OW  HW  HW  EP  OW  HW  HW  EP  OW  HW  HW  EP  OW  HW  HW  EP  OW  HW  
HW  EP  OW  HW  HW  EP  OW  HW  HW  EP  OW  HW  HW  EP  OW  HW  HW  EP  OW  HW  
HW  EP  OW  HW  HW  EP  OW  HW  HW  EP  OW  HW  HW  EP  OW  HW  HW  EP  OW  HW  
HW  EP  OW  HW  HW  EP  OW  HW  HW  EP  OW  HW  HW  EP  OW  HW  HW  EP  OW  HW  
HW  EP  OW  HW  HW  EP  OW  HW  HW  EP  OW  HW  HW  EP  OW  HW  HW  EP  OW  HW  
HW  EP  OW  HW  HW  EP  OW  HW  HW  EP  OW  HW  HW  EP  OW  HW  HW  EP  OW  HW  
HW  EP  OW  HW  HW  EP  OW  HW  HW  EP  OW  HW  HW  EP  OW  HW  HW  EP  OW  HW  
HW  EP  OW  HW  HW  EP  OW  HW  HW  EP  OW  HW  HW  EP  OW  HW  HW  EP  OW  HW  
HW  EP  OW  HW  HW  EP  OW  HW  HW  EP  OW  HW  HW  EP  OW  HW  HW  EP  OW  HW  
HW  EP  OW  HW  HW  EP  OW  HW  HW  EP  OW  HW  HW  EP  OW  HW  HW  EP  OW  HW  
HW  EP  OW  HW  HW  EP  OW  HW  HW  EP  OW  HW  HW  EP  OW  HW  HW  EP  OW  HW  
HW  EP  OW  HW  HW  EP  OW  HW  HW  EP  OW  HW  HW  EP  OW  HW  HW  EP  OW  HW  
HW  EP  OW  HW  HW  EP  OW  HW  HW  EP  OW  HW  HW  EP  OW  HW  HW  EP  OW  HW  
HW  EP  OW  HW  HW  EP  OW  HW  HW  EP  OW  HW  HW  EP  OW  HW  HW  EP  OW  HW  
HW  EP  OW  HW  HW  EP  OW  HW  HW  EP  OW  HW  HW  EP  OW  HW  HW  EP  OW  HW  
HW  EP  OW  HW  HW  EP  OW  HW  HW  EP  OW  HW  HW  EP  OW  HW  HW  EP  OW  HW  
HW  EP  OW  HW  HW  EP  OW  HW  HW  EP  OW  HW  HW  EP  OW  HW  HW  EP  OW  HW  
HW  EP  OW  HW  HW  EP  OW  HW  HW  EP  OW  HW  HW  EP  OW  HW  HW  EP  OW  HW  
HW  EP  OW  HW  HW  EP  OW  HW  HW  EP  OW  HW  HW  EP  OW  HW  HW  EP  OW  HW  
HW  EP  OW  HW  HW  EP  OW  HW  HW  EP  OW  HW  HW  EP  OW  HW  HW  EP  OW  HW  
HW  EP  OW  HW  HW  EP  OW  HW  HW  EP  OW  HW  HW  EP  OW  HW  HW  EP  OW  HW  
HW  EP  OW  HW  HW  EP  OW  HW  HW  EP  OW  HW  HW  EP  OW  HW  HW  EP  OW  HW  
HW  EP  OW  HW  HW  EP  OW  HW  HW  EP  OW  HW  HW  EP  OW  HW  HW  EP  OW  HW  
HW  EP  OW  HW  HW  EP  OW  HW  HW  EP  OW  HW  HW  EP  OW  HW  HW  EP  OW  HW  
HW  EP  OW  HW  HW  EP  OW  HW  HW  EP  OW  HW  HW  EP  OW  HW  HW  EP  OW  HW  
HW  EP  OW  HW  HW  EP  OW  HW  HW  EP  OW  HW  HW  EP  OW  HW  HW  EP  OW  HW  
HW  EP  OW  HW  HW  EP  OW  HW  HW  EP  OW  HW  HW  EP  OW  HW  HW  EP  OW  HW  
HW  EP  OW  HW  HW  EP  OW  HW  HW  EP  OW  HW  HW  EP  OW  HW  HW  EP  OW  HW  
HW  EP  OW  HW  HW  EP  OW  HW  HW  EP  OW  HW  HW  EP  OW  HW  HW  EP  OW  HW  
HW  EP  OW  HW  HW  EP  OW  HW  HW  EP  OW  HW  HW  EP  OW  HW  HW  EP  OW  HW  
HW  EP  OW  HW  HW  EP  OW  HW  HW  EP  OW  HW  HW  EP  OW  HW  HW  EP  OW  HW  
HW  EP  OW  HW  HW  EP  OW  HW  HW  EP  OW  HW  HW  EP  OW  HW  HW  EP  OW  HW  
HW  EP  OW  HW  HW  EP  OW  HW  HW  EP  OW  HW  HW  EP  OW  HW  HW  EP  OW  HW  
HW  EP  OW  HW  HW  EP  OW  HW  HW  EP  OW  HW  HW  EP  OW  HW  HW  EP  OW  HW  
HW  EP  OW  HW  HW  EP  OW  HW  HW  EP  OW  HW  HW  EP  OW  HW  HW  EP  OW  HW  
HW  EP  OW  HW  HW  EP  OW  HW  HW  EP  OW  HW  HW  EP  OW  HW  HW  EP  OW  HW  
HW  EP  OW  HW  HW  EP  OW  HW  HW  EP  OW  HW  HW  EP  OW  HW  HW  EP  OW  HW  
HW  EP  OW  HW  HW  EP  OW  HW  HW  EP  OW  HW  HW  EP  OW  HW  HW  EP  OW  HW  
HW  EP  OW  HW  HW  EP  OW  HW  HW  EP  OW  HW  HW  EP  OW  HW  HW  EP  OW  HW  
HW  EP  OW  HW  HW  EP  OW  HW  HW  EP  OW  HW  HW  EP  OW  HW  HW  EP  OW  HW  
HW  EP  OW  HW  HW  EP  OW  HW  HW  EP  OW  HW  HW  EP  OW  HW  HW  EP  OW  HW  
HW  EP  OW  HW  HW  EP  OW  HW  HW  EP  OW  HW  HW  EP  OW  HW  HW  EP  OW  HW  
HW  EP  OW  HW  HW  EP  OW  HW  HW  EP  OW  HW  HW  EP  OW  HW  HW  EP  OW  HW  
HW  EP  OW  HW  HW  EP  OW  HW  HW  EP  OW  HW  HW  EP  OW  HW  HW  EP  OW  HW  
HW  EP  OW  HW  HW  EP  OW  HW  HW  EP  OW  HW  HW  EP  OW  HW  HW  EP  OW  HW  
HW  EP  OW  HW  HW  EP  OW  HW  HW  EP  OW  HW  HW  EP  OW  HW  HW  EP  OW  HW  
HW  EP  OW  HW  HW  EP  OW  HW  HW  EP  OW  HW  HW  EP  OW  HW  HW  EP  OW  HW  
HW  EP  OW  HW  HW  EP  OW  HW  HW  EP  OW  HW  HW  EP  OW  HW  HW  EP  OW  HW  
HW  EP  OW  HW  HW  EP  OW  HW  HW  EP  OW  HW  HW  EP  OW  HW  HW  EP  OW  HW  
HW  EP  OW  HW  HW  EP  OW  HW  HW  EP  OW  HW  HW  EP  OW  HW  HW  EP  OW  HW  
HW  EP  OW  HW  HW  EP  OW  HW  HW  EP  OW  HW  HW  EP  OW  HW  HW  EP  OW  HW  
HW  EP  OW  HW  HW  EP  OW  HW  HW  EP  OW  HW  HW  EP  OW  HW  HW  EP  OW  HW  
HW  EP  OW  HW  HW  EP  OW  HW  HW  EP  OW  HW  HW  EP  OW  HW  HW  EP  OW  HW  
HW  EP  OW  HW  HW  EP  OW  HW  HW  EP  OW  HW  HW  EP  OW  HW  HW  EP  OW  HW  
HW  EP  OW  HW  HW  EP  OW  HW  HW  EP  OW  HW  HW  EP  OW  HW  HW  EP  OW  HW  
HW  EP  OW  HW  HW  EP  OW  HW  HW  EP  OW  HW  HW  EP  OW  HW  HW  EP  OW  HW  
HW  EP  OW  HW  HW  EP  OW  HW  HW  EP  OW  HW  HW  EP  OW  HW  HW  EP  OW  HW  
HW  EP  OW  HW  HW  EP  OW  HW  HW  EP  OW  HW  HW  EP  OW  HW  HW  EP  OW  HW  
HW  EP  OW  HW  HW  EP  OW  HW  HW  EP  OW  HW  HW  EP  OW  HW  HW  EP  OW  HW  
HW  EP  OW  HW  HW  EP  OW  HW  HW  EP  OW  HW  HW  EP  OW  HW  HW  EP  OW  HW  
HW  EP  OW  HW  HW  EP  OW  HW  HW  EP  OW  HW  HW  EP  OW  HW  HW  EP  OW  HW  
HW  EP  OW  HW  HW  EP  OW  HW  HW  EP  OW  HW  HW  EP  OW  HW  HW  EP  OW  HW  
HW  EP  OW  HW  HW  EP  OW  HW  HW  EP  OW  HW  HW  EP  OW  HW  HW  EP  OW  HW  
HW  EP  OW  HW  HW  EP  OW  HW  HW  EP  OW  HW  HW  EP  OW  HW  HW  EP  OW  HW  
HW  EP  OW  HW  HW  EP  OW  HW  HW  EP  OW  HW  HW  EP  OW  HW  HW  EP  OW  HW  
HW  EP  OW  HW  HW  EP  OW  HW  HW  EP  OW  HW  HW  EP  OW  HW  HW  EP  OW  HW  
HW  EP  OW  HW  HW  EP  OW  HW  HW  EP  OW  HW  HW  EP  OW  HW  HW  EP  OW  HW  
HW  EP  OW  HW  HW  EP  OW  HW  HW  EP  OW  HW  HW  EP  OW  HW  HW  EP  OW  HW  
HW  EP  OW  HW  HW  EP  OW  HW  HW  EP  OW  HW  HW  EP  OW  HW  HW  EP  OW  HW  
HW  EP  OW  HW  HW  EP  OW  HW  HW  EP  OW  HW  HW  EP  OW  HW  HW  EP  OW  HW  
HW  EP  OW  HW  HW  EP  OW  HW  HW  EP  OW  HW  HW  EP  OW  HW  HW  EP  OW  HW  
HW  EP  OW  HW  HW  EP  OW  HW  HW  EP  OW  HW  HW  EP  OW  HW  HW  EP  OW  HW  
HW  EP  OW  HW  HW  EP  OW  HW  HW  EP  OW  HW  HW  EP  OW  HW  HW  EP  OW  HW  
HW  EP  OW  HW  HW  EP  OW  HW  HW  EP  OW  HW  HW  EP  OW  HW  HW  EP  OW  HW  
HW  EP  OW  HW  HW  EP  OW  HW  HW  EP  OW  HW  HW  EP  OW  HW  HW  EP  OW  HW  
HW  EP  OW  HW  HW  EP  OW  HW  HW  EP  OW  HW  HW  EP  OW  HW  HW  EP  OW  HW  
HW  EP  OW  HW  HW  EP  OW  HW  HW  EP  OW  HW  HW  EP  OW  HW  HW  EP  OW  HW  
HW  EP  OW  HW  HW  EP  OW  HW  HW  EP  OW  HW  HW  EP  OW  HW  HW  EP  OW  HW  
HW  EP  OW  HW  HW  EP  OW  HW  HW  EP  OW  HW  HW  EP  OW  HW  HW  EP  OW  HW  
HW  EP  OW  HW  HW  EP  OW  HW  HW  EP  OW  HW  HW  EP  OW  HW  HW  EP  OW  HW  
HW  EP  OW  HW  HW  EP  OW  HW  HW  EP  OW  HW  HW  EP  OW  HW  HW  EP  OW  HW  
HW  EP  OW  HW  HW  EP  OW  HW  HW  EP  OW  HW  HW  EP  OW  HW  HW  EP  OW  HW  
HW  EP  OW  HW  HW  EP  OW  HW  HW  EP  OW  HW  HW  EP  OW  HW  HW  EP  OW  HW  
HW  EP  OW  HW  HW  EP  OW  HW  HW  EP  OW  HW  HW  EP  OW  HW  HW  EP  OW  HW  
HW  EP  OW  HW  HW  EP  OW  HW  HW  EP  OW  HW  HW  EP  OW  HW  HW  EP  OW  HW  
HW  EP  OW  HW  HW  EP  OW  HW  HW  EP  OW  HW  HW  EP  OW  HW  HW  EP  OW  HW  
HW  EP  OW  HW  HW  EP  OW  HW  HW  EP  OW  HW  HW  EP  OW  HW  HW  EP  OW  HW  
HW  EP  OW  HW  HW  EP  OW  HW  HW  EP  OW  HW  HW  EP  OW  HW  HW  EP  OW  HW  
HW  EP  OW  HW  HW  EP  OW  HW  HW  EP  OW  HW  HW  EP  OW  HW  HW  EP  OW  HW  
HW  EP  OW  HW  HW  EP  OW  HW  HW  EP  OW  HW  HW  EP  OW  HW  HW  EP  OW  HW  
HW  EP  OW  HW  HW  EP  OW  HW  HW  EP  OW  HW  HW  EP  OW  HW  HW  EP  OW  HW  
HW  EP  OW  HW  HW  EP  OW  HW  HW  EP  OW  HW  HW  EP  OW  HW  HW  EP  OW  HW  
HW  EP  OW  HW  HW  EP  OW  HW  HW  EP  OW  HW  HW  EP  OW  HW  HW  EP  OW  HW  
HW  EP  OW  HW  HW  EP  OW  HW  HW  EP  OW  HW  HW  EP  OW  HW  HW  EP  OW  HW  
HW  EP  OW  HW  HW  EP  OW  HW  HW  EP  OW  HW  HW  EP  OW  HW  HW  EP  OW  HW  
HW  EP  OW  HW  HW  EP  OW  HW  HW  EP  OW  HW  HW  EP  OW  HW  HW  EP  OW  HW  
HW  EP  OW  HW  HW  EP  OW  HW  HW  EP  OW  HW  HW  EP  OW  HW  HW  EP  OW  HW  
HW  EP  OW  HW  HW  EP  OW  HW  HW  EP  OW  HW  HW  EP  OW  HW  HW  EP  OW  HW  
HW  EP  OW  HW  HW  EP  OW  HW  HW  EP  OW  HW  HW  EP  OW  HW  HW  EP  OW  HW  
HW  EP  OW  HW  HW  EP  OW  HW  HW  EP  OW  HW  HW  EP  OW  HW  HW  EP  OW  HW  
HW  EP  OW  HW  HW  EP  OW  HW  HW  EP  OW  HW  HW  EP  OW  HW  HW  EP  OW  HW  
HW  EP  OW  HW  HW  EP  OW  HW  HW  EP  OW  HW  HW  EP  OW  HW  HW  EP  OW  HW  
HW  EP  OW  HW  HW  EP  OW  HW  HW  EP  OW  HW  HW  EP  OW  HW  HW  EP  OW  HW  
HW  EP  OW  HW  HW  EP  OW  HW  HW  EP  OW  HW  HW  EP  OW  HW  HW  EP  OW  HW  
HW  EP  OW  HW  HW  EP  OW  HW  HW  EP  OW  HW  HW  EP  OW  HW  HW  EP  OW  HW  
HW  EP  OW  HW  HW  EP  OW  HW  HW  EP  OW  HW  HW  EP  OW  HW  HW  EP  OW  HW  
HW  EP  OW  HW  HW  EP  OW  HW  HW  EP  OW  HW  HW  EP  OW  HW  HW  EP  OW  HW  
HW  EP  OW  HW  HW  EP  OW  HW  HW  EP  OW  HW  HW  EP  OW  HW  HW  EP  OW  HW  
HW  EP  OW  HW  HW  EP  OW  HW  HW  EP  OW  HW  HW  EP  OW  HW  HW  EP  OW  HW  
HW  EP  OW  HW  HW  EP  OW  HW  HW  EP  OW  HW  HW  EP  OW  HW  HW  EP  OW  HW  
HW  EP  OW  HW  HW  EP  OW  HW  HW  EP  OW  HW  HW  EP  OW  HW  HW  EP  OW  HW  
HW  EP  OW  HW  HW  EP  OW  HW  HW  EP  OW  HW  HW  EP  OW  HW  HW  EP  OW  HW  
HW  EP  OW  HW  HW  EP  OW  HW  HW  EP  OW  HW  HW  EP  OW  HW  HW  EP  OW  HW  
HW  EP  OW  HW  HW  EP  OW  HW  HW  EP  OW  HW  HW  EP  OW  HW  HW  EP  OW  HW  
HW  EP  OW  HW  HW  EP  OW  HW  HW  EP  OW  HW  HW  EP  OW  HW  HW  EP  OW  HW  
HW  EP  OW  HW  HW  EP  OW  HW  HW  EP  OW  HW  HW  EP  OW  HW  HW  EP  OW  HW  
HW  EP  OW  HW  HW  EP  OW  HW  HW  EP  OW  HW  HW  EP  OW  HW  HW  EP  OW  HW  
HW  EP  OW  HW  HW  EP  OW  HW  HW  EP  OW  HW  HW  EP  OW  HW  HW  EP  OW  HW  
HW  EP  OW  HW  HW  EP  OW  HW  HW  EP  OW  HW  HW  EP  OW  HW  HW  EP  OW  HW  
HW  EP  OW  HW  HW  EP  OW  HW  HW  EP  OW  HW  HW  EP  OW  HW  HW  EP  OW  HW  
HW  EP  OW  HW  HW  EP  OW  HW  HW  EP  OW  HW  HW  EP  OW  HW  HW  EP  OW  HW  
HW  EP  OW  HW  HW  EP  OW  HW  HW  EP  OW  HW  HW  EP  OW  HW  HW  EP  OW  HW  
HW  EP  OW  HW  HW  EP  OW  HW  HW  EP  OW  HW  HW  EP  OW  HW  HW  EP  OW  HW  
HW  EP  OW  HW  HW  EP  OW  HW  HW  EP  OW  HW  HW  EP  OW  HW  HW  EP  OW  HW  
HW  EP  OW  HW  HW  EP  OW  HW  HW  EP  OW  HW  HW  EP  OW  HW  HW  EP  OW  HW  
HW  EP  OW  HW  HW  EP  OW  HW  HW  EP  OW  HW  HW  EP  OW  HW  HW  EP  OW  HW  
HW  EP  OW  HW  HW  EP  OW  HW  HW  EP  OW  HW  HW  EP  OW  HW  HW  EP  OW  HW  
HW  EP  OW  HW  HW  EP  OW  HW  HW  EP  OW  HW  HW  EP  OW  HW  HW  EP  OW  HW  
HW  EP  OW  HW  HW  EP  OW  HW  HW  EP  OW  HW  HW  EP  OW  HW  HW  EP  OW  HW  
HW  EP  OW  HW  HW  EP  OW  HW  HW  EP  OW  HW  HW  EP  OW  HW  HW  EP  OW  HW  
HW  EP  OW  HW  HW  EP  OW  HW  HW  EP  OW  HW  HW  EP  OW  HW  HW  EP  OW  HW  
HW  EP  OW  HW  HW  EP  OW  HW  HW  EP  OW  HW  HW  EP  OW  HW  HW  EP  OW  HW  
HW  EP  OW  HW  HW  EP  OW  HW  HW  EP  OW  HW  HW  EP  OW  HW  HW  EP  OW  HW  
HW  EP  OW  HW  HW  EP  OW  HW  HW  EP  OW  HW  HW  EP  OW  HW  HW  EP  OW  HW  
HW  EP  OW  HW  HW  EP  OW  HW  HW  EP  OW  HW  HW  EP  OW  HW  HW  EP  OW  HW  
HW  EP  OW  HW  HW  EP  OW  HW  HW  EP  OW  HW  HW  EP  OW  HW  HW  EP  OW  HW  
HW  EP  OW  HW  HW  EP  OW  HW  HW  EP  OW  HW  HW  EP  OW  HW  HW  EP  OW  HW  
HW  EP  OW  HW  HW  EP  OW  HW  HW  EP  OW  HW  HW  EP  OW  HW  HW  EP  OW  HW  
HW  EP  OW  HW  HW  EP  OW  HW  HW  EP  OW  HW  HW  EP  OW  HW  HW  EP  OW  HW  
HW  EP  OW  HW  HW  EP  OW  HW  HW  EP  OW  HW  HW  EP  OW  HW  HW  EP  OW  HW  
HW  EP  OW  HW  HW  EP  OW  HW  HW  EP  OW  HW  HW  EP  OW  HW  HW  EP  OW  HW  
HW  EP  OW  HW  HW  EP  OW  HW  HW  EP  OW  HW  HW  EP  OW  HW  HW  EP  OW  HW  
HW  EP  OW  HW  HW  EP  OW  HW  HW  EP  OW  HW  HW  EP  OW  HW  HW  EP  OW  HW  
HW  EP  OW  HW  HW  EP  OW  HW  HW  EP  OW  HW  HW  EP  OW  HW  HW  EP  OW  HW  
HW  EP  OW  HW  HW  EP  OW  HW  HW  EP  OW  HW  HW  EP  OW  HW  HW  EP  OW  HW  
HW  EP  OW  HW  HW  EP  OW  HW  HW  EP  OW  HW  HW  EP  OW  HW  HW  EP  OW  HW  
HW  EP  OW  HW  HW  EP  OW  HW  HW  EP  OW  HW  HW  EP  OW  HW  HW  EP  OW  HW  
HW  EP  OW  HW  HW  EP  OW  HW  HW  EP  OW  HW  HW  EP  OW  HW  HW  EP  OW  HW  
HW  EP  OW  HW  HW  EP  OW  HW  HW  EP  OW  HW  HW  EP  OW  HW  HW  EP  OW  HW  
HW  EP  OW  HW  HW  EP  OW  HW  HW  EP  OW  HW  HW  EP  OW  HW  HW  EP  OW  HW  
HW  EP  OW  HW  HW  EP  OW  HW  HW  EP  OW  HW  HW  EP  OW  HW  HW  EP  OW  HW  
HW  EP  OW  HW  HW  EP  OW  HW  HW  EP  OW  HW  HW  EP  OW  HW  HW  EP  OW  HW  
HW  EP  OW  HW  HW  EP  OW  HW  HW  EP  OW  HW  HW  EP  OW  HW  HW  EP  OW  HW  
HW  EP  OW  HW  HW  EP  OW  HW  HW  EP  OW  HW  HW  EP  OW  HW  HW  EP  OW  HW  
HW  EP  OW  HW  HW  EP  OW  HW  HW  EP  OW  HW  HW  EP  OW  HW  HW  EP  OW  HW  
HW  EP  OW  HW  HW  EP  OW  HW  HW  EP  OW  HW  HW  EP  OW  HW  HW  EP  OW  HW  
HW  EP  OW  HW  HW  EP  OW  HW  HW  EP  OW  HW  HW  EP  OW  HW  HW  EP  OW  HW  
HW  EP  OW  HW  HW  EP  OW  HW  HW  EP  OW  HW  HW  EP  OW  HW  HW  EP  OW  HW  
HW  EP  OW  HW  HW  EP  OW  HW  HW  EP  OW  HW  HW  EP  OW  HW  HW  EP  OW  HW  
HW  EP  OW  HW  HW  EP  OW  HW  HW  EP  OW  HW  HW  EP  OW  HW  HW  EP  OW  HW  
HW  EP  OW  HW  HW  EP  OW  HW  HW  EP  OW  HW  HW  EP  OW  HW  HW  EP  OW  HW  
HW  EP  OW  HW  HW  EP  OW  HW  HW  EP  OW  HW  HW  EP  OW  HW  HW  EP  OW  HW  
HW  EP  OW  HW  HW  EP  OW  HW  HW  EP  OW  HW  HW  EP  OW  HW  HW  EP  OW  HW  
HW  EP  OW  HW  HW  EP  OW  HW  HW  EP  OW  HW  HW  EP  OW  HW  HW  EP  OW  HW  
HW  EP  OW  HW  HW  EP  OW  HW  HW  EP  OW  HW  HW  EP  OW  HW  HW  EP  OW  HW  
HW  EP  OW  HW  HW  EP  OW  HW  HW  EP  OW  HW  HW  EP  OW  HW  HW  EP  OW  HW  
HW  EP  OW  HW  HW  EP  OW  HW  HW  EP  OW  HW  HW  EP  OW  HW  HW  EP  OW  HW  
HW  EP  OW  HW  HW  EP  OW  HW  HW  EP  OW  HW  HW  EP  OW  HW  HW  EP  OW  HW  
HW  EP  OW  HW  HW  EP  OW  HW  HW  EP  OW  HW  HW  EP  OW  HW  HW  EP  OW  HW  
HW  EP  OW  HW  HW  EP  OW  HW  HW  EP  OW  HW  HW  EP  OW  HW  HW  EP  OW  HW  
HW  EP  OW  HW  HW  EP  OW  HW  HW  EP  OW  HW  HW  EP  OW  HW  HW  EP  OW  HW  
HW  EP  OW  HW  HW  EP  OW  HW  HW  EP  OW  HW  HW  EP  OW  HW  HW  EP  OW  HW  
HW  EP  OW  HW  HW  EP  OW  HW  HW  EP  OW  HW  HW  EP  OW  HW  HW  EP  OW  HW  
HW  EP  OW  HW  HW  EP  OW  HW  HW  EP  OW  HW  HW  EP  OW  HW  HW  EP  OW  HW  
HW  EP  OW  HW  HW  EP  OW  HW  HW  EP  OW  HW  HW  EP  OW  HW  HW  EP  OW  HW  
HW  EP  OW  HW  HW  EP  OW  HW  HW  EP  OW  HW  HW  EP  OW  HW  HW  EP  OW  HW  
HW  EP  OW  HW  HW  EP  OW  HW  HW  EP  OW  HW  HW  EP  OW  HW  HW  EP  OW  HW  
HW  EP  OW  HW  HW  EP  OW  HW  HW  EP  OW  HW  HW  EP  OW  HW  HW  EP  OW  HW  
HW  EP  OW  HW  HW  EP  OW  HW  HW  EP  OW  HW  HW  EP  OW  HW  HW  EP  OW  HW  
HW  EP  OW  HW  HW  EP  OW  HW  HW  EP  OW  HW  HW  EP  OW  HW  HW  EP  OW  HW  
HW  EP  OW  HW  HW  EP  OW  HW  HW  EP  OW  HW  HW  EP  OW  HW  HW  EP  OW  HW  
HW  EP  OW  HW  HW  EP  OW  HW  HW  EP  OW  HW  HW  EP  OW  HW  HW  EP  OW  HW  
HW  EP  OW  HW  HW  EP  OW  HW  HW  EP  OW  HW  HW  EP  OW  HW  HW  EP  OW  HW  
HW  EP  OW  HW  HW  EP  OW  HW  HW  EP  OW  HW  HW  EP  OW  HW  HW  EP  OW  HW  
HW  EP  OW  HW  HW  EP  OW  HW  HW  EP  OW  HW  HW  EP  OW  HW  HW  EP  OW  HW  
HW  EP  OW  HW  HW  EP  OW  HW  HW  EP  OW  HW  HW  EP  OW  HW  HW  EP  OW  HW  
HW  EP  OW  HW  HW  EP  OW  HW  HW  EP  OW  HW  HW  EP  OW  HW  HW  EP  OW  HW  
HW  EP  OW  HW  HW  EP  OW  HW  HW  EP  OW  HW  HW  EP  OW  HW  HW  EP  OW  HW  
HW  EP  OW  HW  HW  EP  OW  HW  HW  EP  OW  HW  HW  EP  OW  HW  HW  EP  OW  HW  
HW  EP  OW  HW  HW  EP  OW  HW  HW  EP  OW  HW  HW  EP  OW  HW  HW  EP  OW  HW  
HW  EP  OW  HW  HW  EP  OW  HW  HW  EP  OW  HW  HW  EP  OW  HW  HW  EP  OW  HW  
HW  EP  OW  HW  HW  EP  OW  HW  HW  EP  OW  HW  HW  EP  OW  HW  HW  EP  OW  HW  
HW  EP  OW  HW  HW  EP  OW  HW  HW  EP  OW  HW  HW  EP  OW  HW  HW  EP  OW  HW  
HW  EP  OW  HW  HW  EP  OW  HW  HW  EP  OW  HW  HW  EP  OW  HW  HW  EP  OW  HW  
HW  EP  OW  HW  HW  EP  OW  HW  HW  EP  OW  HW  HW  EP  OW  HW  HW  EP  OW  HW  
HW  EP  OW  HW  HW  EP  OW  HW  HW  EP  OW  HW  HW  EP  OW  HW  HW  EP  OW  HW  
HW  EP  OW  HW  HW  EP  OW  HW  HW  EP  OW  HW  HW  EP  OW  HW  HW  EP  OW  HW  
HW  EP  OW  HW  HW  EP  OW  HW  HW  EP  OW  HW  HW  EP  OW  HW  HW  EP  OW  HW  
HW  EP  OW  HW  HW  EP  OW  HW  HW  EP  OW  HW  HW  EP  OW  HW  HW  EP  OW  HW  
HW  EP  OW  HW  HW  EP  OW  HW  HW  EP  OW  HW  HW  EP  OW  HW  HW  EP  OW  HW  
HW  EP  OW  HW  HW  EP  OW  HW  HW  EP  OW  HW  HW  EP  OW  HW  HW  EP  OW  HW  
HW  EP  OW  HW  HW  EP  OW  HW  HW  EP  OW  HW  HW  EP  OW  HW  HW  EP  OW  HW  
HW  EP  OW  HW  HW  EP  OW  HW  HW  EP  OW  HW  HW  EP  OW  HW  HW  EP  OW  HW  
HW  EP  OW  HW  HW  EP  OW  HW  HW  EP  OW  HW  HW  EP  OW  HW  HW  EP  OW  HW  
HW  EP  OW  HW  HW  EP  OW  HW  HW  EP  OW  HW  HW  EP  OW  HW  HW  EP  OW  HW  
HW  EP  OW  HW  HW  EP  OW  HW  HW  EP  OW  HW  HW  EP  OW  HW  HW  EP  OW  HW  
HW  EP  OW  HW  HW  EP  OW  HW  HW  EP  OW  HW  HW  EP  OW  HW  HW  EP  OW  HW  
HW  EP  OW  HW  HW  EP  OW  HW  HW  EP  OW  HW  HW  EP  OW  HW  HW  EP  OW  HW  
HW  EP  OW  HW  HW  EP  OW  HW  HW  EP  OW  HW  HW  EP  OW  HW  HW  EP  OW  HW  
HW  EP  OW  HW  HW  EP  OW  HW  HW  EP  OW  HW  HW  EP  OW  HW  HW  EP  OW  HW  
HW  EP  OW  HW  HW  EP  OW  HW  HW  EP  OW  HW  HW  EP  OW  HW  HW  EP  OW  HW  
HW  EP  OW  HW  HW  EP  OW  HW  HW  EP  OW  HW  HW  EP  OW  HW  HW  EP  OW  HW  
HW  EP  OW  HW  HW  EP  OW  HW  HW  EP  OW  HW  HW  EP  OW  HW  HW  EP  OW  HW  
HW  EP  OW  HW  HW  EP  OW  HW  HW  EP  OW  HW  HW  EP  OW  HW  HW  EP  OW  HW  
HW  EP  OW  HW  HW  EP  OW  HW  HW  EP  OW  HW  HW  EP  OW  HW  HW  EP  OW  HW  
HW  EP  OW  HW  HW  EP  OW  HW  HW  EP  OW  HW  HW  EP  OW  HW  HW  EP  OW  HW  
HW  EP  OW  HW  HW  EP  OW  HW  HW  EP  OW  HW  HW  EP  OW  HW  HW  EP  OW  HW  
HW  EP  OW  HW  HW  EP  OW  HW  HW  EP  OW  HW  HW  EP  OW  HW  HW  EP  OW  HW  
HW  EP  OW  HW  HW  EP  OW  HW  HW  EP  OW  HW  HW  EP  OW  HW  HW  EP  OW  HW  
HW  EP  OW  HW  HW  EP  OW  HW  HW  EP  OW  HW  HW  EP  OW  HW  HW  EP  OW  HW  
HW  EP  OW  HW  HW  EP  OW  HW  HW  EP  OW  HW  HW  EP  OW  HW  HW  EP  OW  HW  
HW  EP  OW  HW  HW  EP  OW  HW  HW  EP  OW  HW  HW  EP  OW  HW  HW  EP  OW  HW  
HW  EP  OW  HW  HW  EP  OW  HW  HW  EP  OW  HW  HW  EP  OW  HW  HW  EP  OW  HW  
HW  EP  OW  HW  HW  EP  OW  HW  HW  EP  OW  HW  HW  EP  OW  HW  HW  EP  OW  HW  
HW  EP  OW  HW  HW  EP  OW  HW  HW  EP  OW  HW  HW  EP  OW  HW  HW  EP  OW  HW  
HW  EP  OW  HW  HW  EP  OW  HW  HW  EP  OW  HW  HW  EP  OW  HW  HW  EP  OW  HW  
HW  EP  OW  HW  HW  EP  OW  HW  HW  EP  OW  HW  HW  EP  OW  HW  HW  EP  OW  HW  
HW  EP  OW  HW  HW  EP  OW  HW  HW  EP  OW  HW  HW  EP  OW  HW  HW  EP  OW  HW  
HW  EP  OW  HW  HW  EP  OW  HW  HW  EP  OW  HW  HW  EP  OW  HW  HW  EP  OW  HW  
HW  EP  OW  HW  HW  EP  OW  HW  HW  EP  OW  HW  HW  EP  OW  HW  HW  EP  OW  HW  
HW  EP  OW  HW  HW  EP  OW  HW  HW  EP  OW  HW  HW  EP  OW  HW  HW  EP  OW  HW  
HW  EP  OW  HW  HW  EP  OW  HW  HW  EP  OW  HW  HW  EP  OW  HW  HW  EP  OW  HW  
HW  EP  OW  HW  HW  EP  OW  HW  HW  EP  OW  HW  HW  EP  OW  HW  HW  EP  OW  HW  
HW  EP  OW  HW  HW  EP  OW  HW  HW  EP  OW  HW  HW  EP  OW  HW  HW  EP  OW  HW  
HW  EP  OW  HW  HW  EP  OW  HW  HW  EP  OW  HW  HW  EP  OW  HW  HW  EP  OW  HW  
HW  EP  OW  HW  HW  EP  OW  HW  HW  EP  OW  HW  HW  EP  OW  HW  HW  EP  OW  HW  
HW  EP  OW  HW  HW  EP  OW  HW  HW  EP  OW  HW  HW  EP  OW  HW  HW  EP  OW  HW  
HW  EP  OW  HW  HW  EP  OW  HW  HW  EP  OW  HW  HW  EP  OW  HW  HW  EP  OW  HW  
HW  EP  OW  HW  HW  EP  OW  HW  HW  EP  OW  HW  HW  EP  OW  HW  HW  EP  OW  HW  
HW  EP  OW  HW  HW  EP  OW  HW  HW  EP  OW  HW  HW  EP  OW  HW  HW  EP  OW  HW  
HW  EP  OW  HW  HW  EP  OW  HW  HW  EP  OW  HW  HW  EP  OW  HW  HW  EP  OW  HW  
HW  EP  OW  HW  HW  EP  OW  HW  HW  EP  OW  HW  HW  EP  OW  HW  HW  EP  OW  HW  
HW  EP  OW  HW  HW  EP  OW  HW  HW  EP  OW  HW  HW  EP  OW  HW  HW  EP  OW  HW  
HW  EP  OW  HW  HW  EP  OW  HW  HW  EP  OW  HW  HW  EP  OW  HW  HW  EP  OW  HW  
HW  EP  OW  HW  HW  EP  OW  HW  HW  EP  OW  HW  HW  EP  OW  HW  HW  EP  OW  HW  
HW  EP  OW  HW  HW  EP  OW  HW  HW  EP  OW  HW  HW  EP  OW  HW  HW  EP  OW  HW  
HW  EP  OW  HW  HW  EP  OW  HW  HW  EP  OW  HW  HW  EP  OW  HW  HW  EP  OW  HW  
HW  EP  OW  HW  HW  EP  OW  HW  HW  EP  OW  HW  HW  EP  OW  HW  HW  EP  OW  HW  
HW  EP  OW  HW  HW  EP  OW  HW  HW  EP  OW  HW  HW  EP  OW  HW  HW  EP  OW  HW  
HW  EP  OW  HW  HW  EP  OW  HW  HW  EP  OW  HW  HW  EP  OW  HW  HW  EP  OW  HW  
HW  EP  OW  HW  HW  EP  OW  HW  HW  EP  OW  HW  HW  EP  OW  HW  HW  EP  OW  HW  
HW  EP  OW  HW  HW  EP  OW  HW  HW  EP  OW  HW  HW  EP  OW  HW  HW  EP  OW  HW  
HW  EP  OW  HW  HW  EP  OW  HW  HW  EP  OW  HW  HW  EP  OW  HW  HW  EP  OW  HW  
HW  EP  OW  HW  HW  EP  OW  HW  HW  EP  OW  HW  HW  EP  OW  HW  HW  EP  OW  HW  
HW  EP  OW  HW  HW  EP  OW  HW  HW  EP  OW  HW  HW  EP  OW  HW  HW  EP  OW  HW  
HW  EP  OW  HW  HW  EP  OW  HW  HW  EP  OW  HW  HW  EP  OW  HW  HW  EP  OW  HW  
HW  EP  OW  HW  HW  EP  OW  HW  HW  EP  OW  HW  HW  EP  OW  HW  HW  EP  OW  HW  
HW  EP  OW  HW  HW  EP  OW  HW  HW  EP  OW  HW  HW  EP  OW  HW  HW  EP  OW  HW  
HW  EP  OW  HW  HW  EP  OW  HW  HW  EP  OW  HW  HW  EP  OW  HW  HW  EP  OW  HW  
HW  EP  OW  HW  HW  EP  OW  HW  HW  EP  OW  HW  HW  EP  OW  HW  HW  EP  OW  HW  
HW  EP  OW  HW  HW  EP  OW  HW  HW  EP  OW  HW  HW  EP  OW  HW  HW  EP  OW  HW  
HW  EP  OW  HW  HW  EP  OW  HW  HW  EP  OW  HW  HW  EP  OW  HW  HW  EP  OW  HW  
HW  EP  OW  HW  HW  EP  OW  HW  HW  EP  OW  HW  HW  EP  OW  HW  HW  EP  OW  HW  
HW  EP  OW  HW  HW  EP  OW  HW  HW  EP  OW  HW  HW  EP  OW  HW  HW  EP  OW  HW  
HW  EP  OW  HW  HW  EP  OW  HW  HW  EP  OW  HW  HW  EP  OW  HW  HW  EP  OW  HW  
HW  EP  OW  HW  HW  EP  OW  HW  HW  EP  OW  HW  HW  EP  OW  HW  HW  EP  OW  HW  
HW  EP  OW  HW  HW  EP  OW  HW  HW  EP  OW  HW  HW  EP  OW  HW  HW  EP  OW  HW  
HW  EP  OW  HW  HW  EP  OW  HW  HW  EP  OW  HW  HW  EP  OW  HW  HW  EP  OW  HW  
HW  EP  OW  HW  HW  EP  OW  HW  HW  EP  OW  HW  HW  EP  OW  HW  HW  EP  OW  HW  
HW  EP  OW  HW  HW  EP  OW  HW  HW  EP  OW  HW  HW  EP  OW  HW  HW  EP  OW  HW  
HW  EP  OW  HW  HW  EP  OW  HW  HW  EP  OW  HW  HW  EP  OW  HW  HW  EP  OW  HW  
HW  EP  OW  HW  HW  EP  OW  HW  HW  EP  OW  HW  HW  EP  OW  HW  HW  EP  OW  HW  
HW  EP  OW  HW  HW  EP  OW  HW  HW  EP  OW  HW  HW  EP  OW  HW  HW  EP  OW  HW  
HW  EP  OW  HW  HW  EP  OW  HW  HW  EP  OW  HW  HW  EP  OW  HW  HW  EP  OW  HW  
HW  EP  OW  HW  HW  EP  OW  HW  HW  EP  OW  HW  HW  EP  OW  HW  HW  EP  OW  HW  
HW  EP  OW  HW  HW  EP  OW  HW  HW  EP  OW  HW  HW  EP  OW  HW  HW  EP  OW  HW  
HW  EP  OW  HW  HW  EP  OW  HW  HW  EP  OW  HW  HW  EP  OW  HW  HW  EP  OW  HW  
HW  EP  OW  HW  HW  EP  OW  HW  HW  EP  OW  HW  HW  EP  OW  HW  HW  EP  OW  HW  
HW  EP  OW  HW  HW  EP  OW  HW  HW  EP  OW  HW  HW  EP  
%FLAG TREE_CHAIN_CLASSIFICATION                                                 
%FORMAT(20a4)                                                                   
M   M   M   E   E   M   E   S   3   E   B   S   E   E   B   B   B   E   E   S   
S   E   E   B   M   E   B   E   S   E   M   M   E   E   M   M   E   E   M   E   
S   3   E   B   S   E   E   B   B   E   B   E   S   B   E   E   E   B   M   E   
B   E   S   E   M   M   E   E   M   M   E   E   M   E   S   3   E   B   S   E   
S   E   B   B   E   E   S   B   E   M   E   B   E   S   E   M   M   E   E   M   
M   E   E   M   E   S   3   E   B   S   E   E   B   B   E   B   E   S   B   E   
E   E   B   M   E   B   E   S   E   M   M   E   E   M   M   E   E   M   E   S   
3   E   B   S   E   S   E   B   B   E   E   S   B   E   M   E   B   E   S   E   
M   M   E   E   M   M   E   E   M   E   S   3   E   B   S   E   S   E   B   E   
B   E   B   E   M   E   B   E   S   E   M   M   E   E   M   M   E   E   M   E   
S   3   E   B   S   E   S   E   B   E   B   E   B   E   M   E   B   E   S   E   
M   M   E   E   M   M   E   E   M   E   S   3   E   B   S   E   S   E   B   E   
B   E   B   E   M   E   B   E   S   E   M   M   E   E   M   M   E   E   M   E   
S   3   E   B   S   E   S   E   B   B   E   E   S   B   E   M   E   B   E   S   
E   M   M   E   E   M   M   E   E   M   E   S   3   E   B   S   E   E   B   B   
E   B   E   S   B   E   E   E   B   M   E   B   E   S   E   M   M   E   E   M   
M   E   E   M   E   S   3   E   B   S   E   E   B   B   B   E   E   S   S   E   
E   B   M   E   B   E   S   E   M   M   E   E   M   M   E   E   M   E   S   3   
E   B   S   E   E   B   B   E   B   E   S   B   E   E   E   B   M   E   B   E   
S   E   M   M   E   E   M   M   E   E   M   E   S   3   E   B   S   E   S   E   
B   B   E   E   S   B   E   M   E   B   E   S   E   M   M   E   E   M   M   E   
E   M   E   S   3   E   B   S   E   E   B   B   E   B   E   S   B   E   E   E   
B   M   E   B   E   S   E   M   M   E   E   M   M   E   E   M   E   S   3   E   
B   S   E   S   E   B   B   E   E   S   B   E   M   E   B   E   S   E   M   M   
E   E   M   M   E   E   M   E   S   3   E   B   S   E   S   E   B   E   B   E   
B   E   M   E   B   E   S   E   M   M   M   M   M   M   M   M   M   M   M   M   
M   M   M   M   M   M   M   M   M   M   M   S   E   E   M   S   E   E   M   S   
E   E   M   S   E   E   M   S   E   E   M   S   E   E   M   S   E   E   M   S   
E   E   M   S   E   E   M   S   E   E   M   S   E   E   M   S   E   E   M   S   
E   E   M   S   E   E   M   S   E   E   M   S   E   E   M   S   E   E   M   S   
E   E   M   S   E   E   M   S   E   E   M   S   E   E   M   S   E   E   M   S   
E   E   M   S   E   E   M   S   E   E   M   S   E   E   M   S   E   E   M   S   
E   E   M   S   E   E   M   S   E   E   M   S   E   E   M   S   E   E   M   S   
E   E   M   S   E   E   M   S   E   E   M   S   E   E   M   S   E   E   M   S   
E   E   M   S   E   E   M   S   E   E   M   S   E   E   M   S   E   E   M   S   
E   E   M   S   E   E   M   S   E   E   M   S   E   E   M   S   E   E   M   S   
E   E   M   S   E   E   M   S   E   E   M   S   E   E   M   S   E   E   M   S   
E   E   M   S   E   E   M   S   E   E   M   S   E   E   M   S   E   E   M   S   
E   E   M   S   E   E   M   S   E   E   M   S   E   E   M   S   E   E   M   S   
E   E   M   S   E   E   M   S   E   E   M   S   E   E   M   S   E   E   M   S   
E   E   M   S   E   E   M   S   E   E   M   S   E   E   M   S   E   E   M   S   
E   E   M   S   E   E   M   S   E   E   M   S   E   E   M   S   E   E   M   S   
E   E   M   S   E   E   M   S   E   E   M   S   E   E   M   S   E   E   M   S   
E   E   M   S   E   E   M   S   E   E   M   S   E   E   M   S   E   E   M   S   
E   E   M   S   E   E   M   S   E   E   M   S   E   E   M   S   E   E   M   S   
E   E   M   S   E   E   M   S   E   E   M   S   E   E   M   S   E   E   M   S   
E   E   M   S   E   E   M   S   E   E   M   S   E   E   M   S   E   E   M   S   
E   E   M   S   E   E   M   S   E   E   M   S   E   E   M   S   E   E   M   S   
E   E   M   S   E   E   M   S   E   E   M   S   E   E   M   S   E   E   M   S   
E   E   M   S   E   E   M   S   E   E   M   S   E   E   M   S   E   E   M   S   
E   E   M   S   E   E   M   S   E   E   M   S   E   E   M   S   E   E   M   S   
E   E   M   S   E   E   M   S   E   E   M   S   E   E   M   S   E   E   M   S   
E   E   M   S   E   E   M   S   E   E   M   S   E   E   M   S   E   E   M   S   
E   E   M   S   E   E   M   S   E   E   M   S   E   E   M   S   E   E   M   S   
E   E   M   S   E   E   M   S   E   E   M   S   E   E   M   S   E   E   M   S   
E   E   M   S   E   E   M   S   E   E   M   S   E   E   M   S   E   E   M   S   
E   E   M   S   E   E   M   S   E   E   M   S   E   E   M   S   E   E   M   S   
E   E   M   S   E   E   M   S   E   E   M   S   E   E   M   S   E   E   M   S   
E   E   M   S   E   E   M   S   E   E   M   S   E   E   M   S   E   E   M   S   
E   E   M   S   E   E   M   S   E   E   M   S   E   E   M   S   E   E   M   S   
E   E   M   S   E   E   M   S   E   E   M   S   E   E   M   S   E   E   M   S   
E   E   M   S   E   E   M   S   E   E   M   S   E   E   M   S   E   E   M   S   
E   E   M   S   E   E   M   S   E   E   M   S   E   E   M   S   E   E   M   S   
E   E   M   S   E   E   M   S   E   E   M   S   E   E   M   S   E   E   M   S   
E   E   M   S   E   E   M   S   E   E   M   S   E   E   M   S   E   E   M   S   
E   E   M   S   E   E   M   S   E   E   M   S   E   E   M   S   E   E   M   S   
E   E   M   S   E   E   M   S   E   E   M   S   E   E   M   S   E   E   M   S   
E   E   M   S   E   E   M   S   E   E   M   S   E   E   M   S   E   E   M   S   
E   E   M   S   E   E   M   S   E   E   M   S   E   E   M   S   E   E   M   S   
E   E   M   S   E   E   M   S   E   E   M   S   E   E   M   S   E   E   M   S   
E   E   M   S   E   E   M   S   E   E   M   S   E   E   M   S   E   E   M   S   
E   E   M   S   E   E   M   S   E   E   M   S   E   E   M   S   E   E   M   S   
E   E   M   S   E   E   M   S   E   E   M   S   E   E   M   S   E   E   M   S   
E   E   M   S   E   E   M   S   E   E   M   S   E   E   M   S   E   E   M   S   
E   E   M   S   E   E   M   S   E   E   M   S   E   E   M   S   E   E   M   S   
E   E   M   S   E   E   M   S   E   E   M   S   E   E   M   S   E   E   M   S   
E   E   M   S   E   E   M   S   E   E   M   S   E   E   M   S   E   E   M   S   
E   E   M   S   E   E   M   S   E   E   M   S   E   E   M   S   E   E   M   S   
E   E   M   S   E   E   M   S   E   E   M   S   E   E   M   S   E   E   M   S   
E   E   M   S   E   E   M   S   E   E   M   S   E   E   M   S   E   E   M   S   
E   E   M   S   E   E   M   S   E   E   M   S   E   E   M   S   E   E   M   S   
E   E   M   S   E   E   M   S   E   E   M   S   E   E   M   S   E   E   M   S   
E   E   M   S   E   E   M   S   E   E   M   S   E   E   M   S   E   E   M   S   
E   E   M   S   E   E   M   S   E   E   M   S   E   E   M   S   E   E   M   S   
E   E   M   S   E   E   M   S   E   E   M   S   E   E   M   S   E   E   M   S   
E   E   M   S   E   E   M   S   E   E   M   S   E   E   M   S   E   E   M   S   
E   E   M   S   E   E   M   S   E   E   M   S   E   E   M   S   E   E   M   S   
E   E   M   S   E   E   M   S   E   E   M   S   E   E   M   S   E   E   M   S   
E   E   M   S   E   E   M   S   E   E   M   S   E   E   M   S   E   E   M   S   
E   E   M   S   E   E   M   S   E   E   M   S   E   E   M   S   E   E   M   S   
E   E   M   S   E   E   M   S   E   E   M   S   E   E   M   S   E   E   M   S   
E   E   M   S   E   E   M   S   E   E   M   S   E   E   M   S   E   E   M   S   
E   E   M   S   E   E   M   S   E   E   M   S   E   E   M   S   E   E   M   S   
E   E   M   S   E   E   M   S   E   E   M   S   E   E   M   S   E   E   M   S   
E   E   M   S   E   E   M   S   E   E   M   S   E   E   M   S   E   E   M   S   
E   E   M   S   E   E   M   S   E   E   M   S   E   E   M   S   E   E   M   S   
E   E   M   S   E   E   M   S   E   E   M   S   E   E   M   S   E   E   M   S   
E   E   M   S   E   E   M   S   E   E   M   S   E   E   M   S   E   E   M   S   
E   E   M   S   E   E   M   S   E   E   M   S   E   E   M   S   E   E   M   S   
E   E   M   S   E   E   M   S   E   E   M   S   E   E   M   S   E   E   M   S   
E   E   M   S   E   E   M   S   E   E   M   S   E   E   M   S   E   E   M   S   
E   E   M   S   E   E   M   S   E   E   M   S   E   E   M   S   E   E   M   S   
E   E   M   S   E   E   M   S   E   E   M   S   E   E   M   S   E   E   M   S   
E   E   M   S   E   E   M   S   E   E   M   S   E   E   M   S   E   E   M   S   
E   E   M   S   E   E   M   S   E   E   M   S   E   E   M   S   E   E   M   S   
E   E   M   S   E   E   M   S   E   E   M   S   E   E   M   S   E   E   M   S   
E   E   M   S   E   E   M   S   E   E   M   S   E   E   M   S   E   E   M   S   
E   E   M   S   E   E   M   S   E   E   M   S   E   E   M   S   E   E   M   S   
E   E   M   S   E   E   M   S   E   E   M   S   E   E   M   S   E   E   M   S   
E   E   M   S   E   E   M   S   E   E   M   S   E   E   M   S   E   E   M   S   
E   E   M   S   E   E   M   S   E   E   M   S   E   E   M   S   E   E   M   S   
E   E   M   S   E   E   M   S   E   E   M   S   E   E   M   S   E   E   M   S   
E   E   M   S   E   E   M   S   E   E   M   S   E   E   M   S   E   E   M   S   
E   E   M   S   E   E   M   S   E   E   M   S   E   E   M   S   E   E   M   S   
E   E   M   S   E   E   M   S   E   E   M   S   E   E   M   S   E   E   M   S   
E   E   M   S   E   E   M   S   E   E   M   S   E   E   M   S   E   E   M   S   
E   E   M   S   E   E   M   S   E   E   M   S   E   E   M   S   E   E   M   S   
E   E   M   S   E   E   M   S   E   E   M   S   E   E   M   S   E   E   M   S   
E   E   M   S   E   E   M   S   E   E   M   S   E   E   M   S   E   E   M   S   
E   E   M   S   E   E   M   S   E   E   M   S   E   E   M   S   E   E   M   S   
E   E   M   S   E   E   M   S   E   E   M   S   E   E   M   S   E   E   M   S   
E   E   M   S   E   E   M   S   E   E   M   S   E   E   M   S   E   E   M   S   
E   E   M   S   E   E   M   S   E   E   M   S   E   E   M   S   E   E   M   S   
E   E   M   S   E   E   M   S   E   E   M   S   E   E   M   S   E   E   M   S   
E   E   M   S   E   E   M   S   E   E   M   S   E   E   M   S   E   E   M   S   
E   E   M   S   E   E   M   S   E   E   M   S   E   E   M   S   E   E   M   S   
E   E   M   S   E   E   M   S   E   E   M   S   E   E   M   S   E   E   M   S   
E   E   M   S   E   E   M   S   E   E   M   S   E   E   M   S   E   E   M   S   
E   E   M   S   E   E   M   S   E   E   M   S   E   E   M   S   E   E   M   S   
E   E   M   S   E   E   M   S   E   E   M   S   E   E   M   S   E   E   M   S   
E   E   M   S   E   E   M   S   E   E   M   S   E   E   M   S   E   E   M   S   
E   E   M   S   E   E   M   S   E   E   M   S   E   E   M   S   E   E   M   S   
E   E   M   S   E   E   M   S   E   E   M   S   E   E   M   S   E   E   M   S   
E   E   M   S   E   E   M   S   E   E   M   S   E   E   M   S   E   E   M   S   
E   E   M   S   E   E   M   S   E   E   M   S   E   E   M   S   E   E   M   S   
E   E   M   S   E   E   M   S   E   E   M   S   E   E   M   S   E   E   M   S   
E   E   M   S   E   E   M   S   E   E   M   S   E   E   M   S   E   E   M   S   
E   E   M   S   E   E   M   S   E   E   M   S   E   E   M   S   E   E   M   S   
E   E   M   S   E   E   M   S   E   E   M   S   E   E   M   S   E   E   M   S   
E   E   M   S   E   E   M   S   E   E   M   S   E   E   M   S   E   E   M   S   
E   E   M   S   E   E   M   S   E   E   M   S   E   E   M   S   E   E   M   S   
E   E   M   S   E   E   M   S   E   E   M   S   E   E   M   S   E   E   M   S   
E   E   M   S   E   E   M   S   E   E   M   S   E   E   M   S   E   E   M   S   
E   E   M   S   E   E   M   S   E   E   M   S   E   E   M   S   E   E   M   S   
E   E   M   S   E   E   M   S   E   E   M   S   E   E   M   S   E   E   M   S   
E   E   M   S   E   E   M   S   E   E   M   S   E   E   M   S   E   E   M   S   
E   E   M   S   E   E   M   S   E   E   M   S   E   E   M   S   E   E   M   S   
E   E   M   S   E   E   M   S   E   E   M   S   E   E   M   S   E   E   M   S   
E   E   M   S   E   E   M   S   E   E   M   S   E   E   M   S   E   E   M   S   
E   E   M   S   E   E   M   S   E   E   M   S   E   E   M   S   E   E   M   S   
E   E   M   S   E   E   M   S   E   E   M   S   E   E   M   S   E   E   M   S   
E   E   M   S   E   E   M   S   E   E   M   S   E   E   M   S   E   E   M   S   
E   E   M   S   E   E   M   S   E   E   M   S   E   E   M   S   E   E   M   S   
E   E   M   S   E   E   M   S   E   E   M   S   E   E   M   S   E   E   M   S   
E   E   M   S   E   E   M   S   E   E   M   S   E   E   M   S   E   E   M   S   
E   E   M   S   E   E   M   S   E   E   M   S   E   E   M   S   E   E   M   S   
E   E   M   S   E   E   M   S   E   E   M   S   E   E   M   S   E   E   M   S   
E   E   M   S   E   E   M   S   E   E   M   S   E   E   M   S   E   E   M   S   
E   E   M   S   E   E   M   S   E   E   M   S   E   E   M   S   E   E   M   S   
E   E   M   S   E   E   M   S   E   E   M   S   E   E   M   S   E   E   M   S   
E   E   M   S   E   E   M   S   E   E   M   S   E   E   M   S   E   E   M   S   
E   E   M   S   E   E   M   S   E   E   M   S   E   E   M   S   E   E   M   S   
E   E   M   S   E   E   M   S   E   E   M   S   E   E   M   S   E   E   M   S   
E   E   M   S   E   E   M   S   E   E   M   S   E   E   M   S   E   E   M   S   
E   E   M   S   E   E   M   S   E   E   M   S   E   E   M   S   E   E   M   S   
E   E   M   S   E   E   M   S   E   E   M   S   E   E   M   S   E   E   M   S   
E   E   M   S   E   E   M   S   E   E   M   S   E   E   M   S   E   E   M   S   
E   E   M   S   E   E   M   S   E   E   M   S   E   E   M   S   E   E   M   S   
E   E   M   S   E   E   M   S   E   E   M   S   E   E   M   S   E   E   M   S   
E   E   M   S   E   E   M   S   E   E   M   S   E   E   M   S   E   E   M   S   
E   E   M   S   E   E   M   S   E   E   M   S   E   E   M   S   E   E   M   S   
E   E   M   S   E   E   M   S   E   E   M   S   E   E   M   S   E   E   M   S   
E   E   M   S   E   E   M   S   E   E   M   S   E   E   M   S   E   E   M   S   
E   E   M   S   E   E   M   S   E   E   M   S   E   E   M   S   E   E   M   S   
E   E   M   S   E   E   M   S   E   E   M   S   E   E   M   S   E   E   M   S   
E   E   M   S   E   E   M   S   E   E   M   S   E   E   M   S   E   E   M   S   
E   E   M   S   E   E   M   S   E   E   M   S   E   E   M   S   E   E   M   S   
E   E   M   S   E   E   M   S   E   E   M   S   E   E   M   S   E   E   M   S   
E   E   M   S   E   E   M   S   E   E   M   S   E   E   M   S   E   E   M   S   
E   E   M   S   E   E   M   S   E   E   M   S   E   E   M   S   E   E   M   S   
E   E   M   S   E   E   M   S   E   E   M   S   E   E   M   S   E   E   M   S   
E   E   M   S   E   E   M   S   E   E   M   S   E   E   M   S   E   E   M   S   
E   E   M   S   E   E   M   S   E   E   M   S   E   E   M   S   E   E   M   S   
E   E   M   S   E   E   M   S   E   E   M   S   E   E   M   S   E   E   M   S   
E   E   M   S   E   E   M   S   E   E   M   S   E   E   M   S   E   E   M   S   
E   E   M   S   E   E   M   S   E   E   M   S   E   E   M   S   E   E   M   S   
E   E   M   S   E   E   M   S   E   E   M   S   E   E   M   S   E   E   M   S   
E   E   M   S   E   E   M   S   E   E   M   S   E   E   M   S   E   E   M   S   
E   E   M   S   E   E   M   S   E   E   M   S   E   E   M   S   E   E   M   S   
E   E   M   S   E   E   M   S   E   E   M   S   E   E   M   S   E   E   M   S   
E   E   M   S   E   E   M   S   E   E   M   S   E   E   M   S   E   E   M   S   
E   E   M   S   E   E   M   S   E   E   M   S   E   E   M   S   E   E   M   S   
E   E   M   S   E   E   M   S   E   E   M   S   E   E   M   S   E   E   M   S   
E   E   M   S   E   E   M   S   E   E   M   S   E   E   M   S   E   E   M   S   
E   E   M   S   E   E   M   S   E   E   M   S   E   E   M   S   E   E   M   S   
E   E   M   S   E   E   M   S   E   E   M   S   E   E   M   S   E   E   M   S   
E   E   M   S   E   E   M   S   E   E   M   S   E   E   M   S   E   E   M   S   
E   E   M   S   E   E   M   S   E   E   M   S   E   E   M   S   E   E   M   S   
E   E   M   S   E   E   M   S   E   E   M   S   E   E   M   S   E   E   M   S   
E   E   M   S   E   E   M   S   E   E   M   S   E   E   M   S   E   E   M   S   
E   E   M   S   E   E   M   S   E   E   M   S   E   E   M   S   E   E   M   S   
E   E   M   S   E   E   M   S   E   E   M   S   E   E   M   S   E   E   M   S   
E   E   M   S   E   E   M   S   E   E   M   S   E   E   M   S   E   E   M   S   
E   E   M   S   E   E   M   S   E   E   M   S   E   E   M   S   E   E   M   S   
E   E   M   S   E   E   M   S   E   E   M   S   E   E   M   S   E   E   M   S   
E   E   M   S   E   E   M   S   E   E   M   S   E   E   M   S   E   E   M   S   
E   E   M   S   E   E   M   S   E   E   M   S   E   E   M   S   E   E   M   S   
E   E   M   S   E   E   M   S   E   E   M   S   E   E   M   S   E   E   M   S   
E   E   M   S   E   E   M   S   E   E   M   S   E   E   M   S   E   E   M   S   
E   E   M   S   E   E   M   S   E   E   M   S   E   E   M   S   E   E   M   S   
E   E   M   S   E   E   M   S   E   E   M   S   E   E   M   S   E   E   M   S   
E   E   M   S   E   E   M   S   E   E   M   S   E   E   M   S   E   E   M   S   
E   E   M   S   E   E   M   S   E   E   M   S   E   E   M   S   E   E   M   S   
E   E   M   S   E   E   M   S   E   E   M   S   E   E   M   S   E   E   M   S   
E   E   M   S   E   E   M   S   E   E   M   S   E   E   M   S   E   E   M   S   
E   E   M   S   E   E   M   S   E   E   M   S   E   E   M   S   E   E   M   S   
E   E   M   S   E   E   M   S   E   E   M   S   E   E   M   S   E   E   M   S   
E   E   M   S   E   E   M   S   E   E   M   S   E   E   M   S   E   E   M   S   
E   E   M   S   E   E   M   S   E   E   M   S   E   E   M   S   E   E   M   S   
E   E   M   S   E   E   M   S   E   E   M   S   E   E   M   S   E   E   M   S   
E   E   M   S   E   E   M   S   E   E   M   S   E   E   M   S   E   E   M   S   
E   E   M   S   E   E   M   S   E   E   M   S   E   E   M   S   E   E   M   S   
E   E   M   S   E   E   M   S   E   E   M   S   E   E   M   S   E   E   M   S   
E   E   M   S   E   E   M   S   E   E   M   S   E   E   M   S   E   E   M   S   
E   E   M   S   E   E   M   S   E   E   M   S   E   E   M   S   E   E   M   S   
E   E   M   S   E   E   M   S   E   E   M   S   E   E   M   S   E   E   M   S   
E   E   M   S   E   E   M   S   E   E   M   S   E   E   M   S   E   E   M   S   
E   E   M   S   E   E   M   S   E   E   M   S   E   E   M   S   E   E   M   S   
E   E   M   S   E   E   M   S   E   E   M   S   E   E   M   S   E   E   M   S   
E   E   M   S   E   E   M   S   E   E   M   S   E   E   M   S   E   E   M   S   
E   E   M   S   E   E   M   S   E   E   M   S   E   E   M   S   E   E   M   S   
E   E   M   S   E   E   M   S   E   E   M   S   E   E   M   S   E   E   M   S   
E   E   M   S   E   E   M   S   E   E   M   S   E   E   M   S   E   E   M   S   
E   E   M   S   E   E   M   S   E   E   M   S   E   E   M   S   E   E   M   S   
E   E   M   S   E   E   M   S   E   E   M   S   E   E   M   S   E   E   M   S   
E   E   M   S   E   E   M   S   E   E   M   S   E   E   M   S   E   E   M   S   
E   E   M   S   E   E   M   S   E   E   M   S   E   E   M   S   E   E   M   S   
E   E   M   S   E   E   M   S   E   E   M   S   E   E   M   S   E   E   M   S   
E   E   M   S   E   E   M   S   E   E   M   S   E   E   M   S   E   E   M   S   
E   E   M   S   E   E   M   S   E   E   M   S   E   E   M   S   E   E   M   S   
E   E   M   S   E   E   M   S   E   E   M   S   E   E   M   S   E   E   M   S   
E   E   M   S   E   E   M   S   E   E   M   S   E   E   M   S   E   E   M   S   
E   E   M   S   E   E   M   S   E   E   M   S   E   E   M   S   E   E   M   S   
E   E   M   S   E   E   M   S   E   E   M   S   E   E   M   S   E   E   M   S   
E   E   M   S   E   E   M   S   E   E   M   S   E   E   M   S   E   E   M   S   
E   E   M   S   E   E   M   S   E   E   M   S   E   E   M   S   E   E   M   S   
E   E   M   S   E   E   M   S   E   E   M   S   E   E   M   S   E   E   M   S   
E   E   M   S   E   E   M   S   E   E   M   S   E   E   M   S   E   E   M   S   
E   E   M   S   E   E   M   S   E   E   M   S   E   E   M   S   E   E   M   S   
E   E   M   S   E   E   M   S   E   E   M   S   E   E   M   S   E   E   M   S   
E   E   M   S   E   E   M   S   E   E   M   S   E   E   M   S   E   E   M   S   
E   E   M   S   E   E   M   S   E   E   M   S   E   E   M   S   E   E   M   S   
E   E   M   S   E   E   M   S   E   E   M   S   E   E   M   S   E   E   M   S   
E   E   M   S   E   E   M   S   E   E   M   S   E   E   M   S   E   E   M   S   
E   E   M   S   E   E   M   S   E   E   M   S   E   E   M   S   E   E   M   S   
E   E   M   S   E   E   M   S   E   E   M   S   E   E   M   S   E   E   M   S   
E   E   M   S   E   E   M   S   E   E   M   S   E   E   M   S   E   E   M   S   
E   E   M   S   E   E   M   S   E   E   M   S   E   E   M   S   E   E   M   S   
E   E   M   S   E   E   M   S   E   E   M   S   E   E   M   S   E   E   M   S   
E   E   M   S   E   E   M   S   E   E   M   S   E   E   M   S   E   E   M   S   
E   E   M   S   E   E   M   S   E   E   M   S   E   E   M   S   E   E   M   S   
E   E   M   S   E   E   M   S   E   E   M   S   E   E   M   S   E   E   M   S   
E   E   M   S   E   E   M   S   E   E   M   S   E   E   M   S   E   E   M   S   
E   E   M   S   E   E   M   S   E   E   M   S   E   E   M   S   E   E   M   S   
E   E   M   S   E   E   M   S   E   E   M   S   E   E   M   S   E   E   M   S   
E   E   M   S   E   E   M   S   E   E   M   S   E   E   M   S   E   E   M   S   
E   E   M   S   E   E   M   S   E   E   M   S   E   E   M   S   E   E   M   S   
E   E   M   S   E   E   M   S   E   E   M   S   E   E   M   S   E   E   M   S   
E   E   M   S   E   E   M   S   E   E   M   S   E   E   M   S   E   E   M   S   
E   E   M   S   E   E   M   S   E   E   M   S   E   E   M   S   E   E   M   S   
E   E   M   S   E   E   M   S   E   E   M   S   E   E   M   S   E   E   M   S   
E   E   M   S   E   E   M   S   E   E   M   S   E   E   M   S   E   E   M   S   
E   E   M   S   E   E   M   S   E   E   M   S   E   E   M   S   E   E   M   S   
E   E   M   S   E   E   M   S   E   E   M   S   E   E   M   S   E   E   M   S   
E   E   M   S   E   E   M   S   E   E   M   S   E   E   M   S   E   E   M   S   
E   E   M   S   E   E   M   S   E   E   M   S   E   E   M   S   E   E   M   S   
E   E   M   S   E   E   M   S   E   E   M   S   E   E   M   S   E   E   M   S   
E   E   M   S   E   E   M   S   E   E   M   S   E   E   M   S   E   E   M   S   
E   E   M   S   E   E   M   S   E   E   M   S   E   E   M   S   E   E   M   S   
E   E   M   S   E   E   M   S   E   E   M   S   E   E   M   S   E   E   M   S   
E   E   M   S   E   E   M   S   E   E   M   S   E   E   M   S   E   E   M   S   
E   E   M   S   E   E   M   S   E   E   M   S   E   E   M   S   E   E   M   S   
E   E   M   S   E   E   M   S   E   E   M   S   E   E   M   S   E   E   M   S   
E   E   M   S   E   E   M   S   E   E   M   S   E   E   M   S   E   E   M   S   
E   E   M   S   E   E   M   S   E   E   M   S   E   E   M   S   E   E   M   S   
E   E   M   S   E   E   M   S   E   E   M   S   E   E   M   S   E   E   M   S   
E   E   M   S   E   E   M   S   E   E   M   S   E   E   M   S   E   E   M   S   
E   E   M   S   E   E   M   S   E   E   M   S   E   E   M   S   E   E   M   S   
E   E   M   S   E   E   M   S   E   E   M   S   E   E   M   S   E   E   M   S   
E   E   M   S   E   E   M   S   E   E   M   S   E   E   M   S   E   E   M   S   
E   E   M   S   E   E   M   S   E   E   M   S   E   E   M   S   E   E   M   S   
E   E   M   S   E   E   M   S   E   E   M   S   E   E   M   S   E   E   M   S   
E   E   M   S   E   E   M   S   E   E   M   S   E   E   M   S   E   E   M   S   
E   E   M   S   E   E   M   S   E   E   M   S   E   E   M   S   E   E   M   S   
E   E   M   S   E   E   M   S   E   E   M   S   E   E   M   S   E   E   M   S   
E   E   M   S   E   E   M   S   E   E   M   S   E   E   M   S   E   E   M   S   
E   E   M   S   E   E   M   S   E   E   M   S   E   E   M   S   E   E   M   S   
E   E   M   S   E   E   M   S   E   E   M   S   E   E   M   S   E   E   M   S   
E   E   M   S   E   E   M   S   E   E   M   S   E   E   M   S   E   E   M   S   
E   E   M   S   E   E   M   S   E   E   M   S   E   E   M   S   E   E   M   S   
E   E   M   S   E   E   M   S   E   E   M   S   E   E   M   S   E   E   M   S   
E   E   M   S   E   E   M   S   E   E   M   S   E   E   M   S   E   E   M   S   
E   E   M   S   E   E   M   S   E   E   M   S   E   E   M   S   E   E   M   S   
E   E   M   S   E   E   M   S   E   E   M   S   E   E   M   S   E   E   M   S   
E   E   M   S   E   E   M   S   E   E   M   S   E   E   M   S   E   E   M   S   
E   E   M   S   E   E   M   S   E   E   M   S   E   E   M   S   E   E   M   S   
E   E   M   S   E   E   M   S   E   E   M   S   E   E   M   S   E   E   M   S   
E   E   M   S   E   E   M   S   E   E   M   S   E   E   M   S   E   E   M   S   
E   E   M   S   E   E   M   S   E   E   M   S   E   E   M   S   E   E   M   S   
E   E   M   S   E   E   M   S   E   E   M   S   E   E   M   S   E   E   M   S   
E   E   M   S   E   E   M   S   E   E   M   S   E   E   M   S   E   E   M   S   
E   E   M   S   E   E   M   S   E   E   M   S   E   E   M   S   E   E   M   S   
E   E   M   S   E   E   M   S   E   E   M   S   E   E   M   S   E   E   M   S   
E   E   M   S   E   E   M   S   E   E   M   S   E   E   M   S   E   E   M   S   
E   E   M   S   E   E   M   S   E   E   M   S   E   E   M   S   E   E   M   S   
E   E   M   S   E   E   M   S   E   E   M   S   E   E   M   S   E   E   M   S   
E   E   M   S   E   E   M   S   E   E   M   S   E   E   M   S   E   E   M   S   
E   E   M   S   E   E   M   S   E   E   M   S   E   E   M   S   E   E   M   S   
E   E   M   S   E   E   M   S   E   E   M   S   E   E   M   S   E   E   M   S   
E   E   M   S   E   E   M   S   E   E   M   S   E   E   M   S   E   E   M   S   
E   E   M   S   E   E   M   S   E   E   M   S   E   E   M   S   E   E   M   S   
E   E   M   S   E   E   M   S   E   E   M   S   E   E   M   S   E   E   M   S   
E   E   M   S   E   E   M   S   E   E   M   S   E   E   M   S   E   E   M   S   
E   E   M   S   E   E   M   S   E   E   M   S   E   E   M   S   E   E   M   S   
E   E   M   S   E   E   M   S   E   E   M   S   E   E   M   S   E   E   M   S   
E   E   M   S   E   E   M   S   E   E   M   S   E   E   M   S   E   E   M   S   
E   E   M   S   E   E   M   S   E   E   M   S   E   E   M   S   E   E   M   S   
E   E   M   S   E   E   M   S   E   E   M   S   E   E   M   S   E   E   M   S   
E   E   M   S   E   E   M   S   E   E   M   S   E   E   M   S   E   E   M   S   
E   E   M   S   E   E   M   S   E   E   M   S   E   E   M   S   E   E   M   S   
E   E   M   S   E   E   M   S   E   E   M   S   E   E   M   S   E   E   M   S   
E   E   M   S   E   E   M   S   E   E   M   S   E   E   M   S   E   E   M   S   
E   E   M   S   E   E   M   S   E   E   M   S   E   E   M   S   E   E   M   S   
E   E   M   S   E   E   M   S   E   E   M   S   E   E   M   S   E   E   M   S   
E   E   M   S   E   E   M   S   E   E   M   S   E   E   M   S   E   E   M   S   
E   E   M   S   E   E   M   S   E   E   M   S   E   E   M   S   E   E   M   S   
E   E   M   S   E   E   M   S   E   E   M   S   E   E   M   S   E   E   M   S   
E   E   M   S   E   E   M   S   E   E   M   S   E   E   M   S   E   E   M   S   
E   E   M   S   E   E   M   S   E   E   M   S   E   E   M   S   E   E   M   S   
E   E   M   S   E   E   M   S   E   E   M   S   E   E   M   S   E   E   M   S   
E   E   M   S   E   E   M   S   E   E   M   S   E   E   M   S   E   E   M   S   
E   E   M   S   E   E   M   S   E   E   M   S   E   E   M   S   E   E   M   S   
E   E   M   S   E   E   M   S   E   E   M   S   E   E   M   S   E   E   M   S   
E   E   M   S   E   E   M   S   E   E   M   S   E   E   M   S   E   E   M   S   
E   E   M   S   E   E   M   S   E   E   M   S   E   E   M   S   E   E   M   S   
E   E   M   S   E   E   M   S   E   E   M   S   E   E   M   S   E   E   M   S   
E   E   M   S   E   E   M   S   E   E   M   S   E   E   M   S   E   E   M   S   
E   E   M   S   E   E   M   S   E   E   M   S   E   E   M   S   E   E   M   S   
E   E   M   S   E   E   M   S   E   E   M   S   E   E   M   S   E   E   M   S   
E   E   M   S   E   E   M   S   E   E   M   S   E   E   M   S   E   E   M   S   
E   E   M   S   E   E   M   S   E   E   M   S   E   E   M   S   E   E   M   S   
E   E   M   S   E   E   M   S   E   E   M   S   E   E   M   S   E   E   M   S   
E   E   M   S   E   E   M   S   E   E   M   S   E   E   M   S   E   E   M   S   
E   E   M   S   E   E   M   S   E   E   M   S   E   E   M   S   E   E   M   S   
E   E   M   S   E   E   M   S   E   E   M   S   E   E   M   S   E   E   M   S   
E   E   M   S   E   E   M   S   E   E   M   S   E   E   M   S   E   E   M   S   
E   E   M   S   E   E   M   S   E   E   M   S   E   E   M   S   E   E   M   S   
E   E   M   S   E   E   M   S   E   E   M   S   E   E   M   S   E   E   M   S   
E   E   M   S   E   E   M   S   E   E   M   S   E   E   M   S   E   E   M   S   
E   E   M   S   E   E   M   S   E   E   M   S   E   E   M   S   E   E   M   S   
E   E   M   S   E   E   M   S   E   E   M   S   E   E   M   S   E   E   M   S   
E   E   M   S   E   E   M   S   E   E   M   S   E   E   M   S   E   E   M   S   
E   E   M   S   E   E   M   S   E   E   M   S   E   E   M   S   E   E   M   S   
E   E   M   S   E   E   M   S   E   E   M   S   E   E   M   S   E   E   M   S   
E   E   M   S   E   E   M   S   E   E   M   S   E   E   M   S   E   E   M   S   
E   E   M   S   E   E   M   S   E   E   M   S   E   E   M   S   E   E   M   S   
E   E   M   S   E   E   M   S   E   E   M   S   E   E   M   S   E   E   M   S   
E   E   M   S   E   E   M   S   E   E   M   S   E   E   M   S   E   E   M   S   
E   E   M   S   E   E   M   S   E   E   M   S   E   E   M   S   E   E   M   S   
E   E   M   S   E   E   M   S   E   E   M   S   E   E   M   S   E   E   M   S   
E   E   M   S   E   E   M   S   E   E   M   S   E   E   M   S   E   E   M   S   
E   E   M   S   E   E   M   S   E   E   M   S   E   E   M   S   E   E   M   S   
E   E   M   S   E   E   M   S   E   E   M   S   E   E   M   S   E   E   M   S   
E   E   M   S   E   E   M   S   E   E   M   S   E   E   M   S   E   E   M   S   
E   E   M   S   E   E   M   S   E   E   M   S   E   E   M   S   E   E   M   S   
E   E   M   S   E   E   M   S   E   E   M   S   E   E   M   S   E   E   M   S   
E   E   M   S   E   E   M   S   E   E   M   S   E   E   M   S   E   E   M   S   
E   E   M   S   E   E   M   S   E   E   M   S   E   E   M   S   E   E   M   S   
E   E   M   S   E   E   M   S   E   E   M   S   E   E   M   S   E   E   M   S   
E   E   M   S   E   E   M   S   E   E   M   S   E   E   M   S   E   E   M   S   
E   E   M   S   E   E   M   S   E   E   M   S   E   E   M   S   E   E   M   S   
E   E   M   S   E   E   M   S   E   E   M   S   E   E   M   S   E   E   M   S   
E   E   M   S   E   E   M   S   E   E   M   S   E   E   M   S   E   E   M   S   
E   E   M   S   E   E   M   S   E   E   M   S   E   E   M   S   E   E   M   S   
E   E   M   S   E   E   M   S   E   E   M   S   E   E   M   S   E   E   M   S   
E   E   M   S   E   E   M   S   E   E   M   S   E   E   M   S   E   E   M   S   
E   E   M   S   E   E   M   S   E   E   M   S   E   E   M   S   E   E   M   S   
E   E   M   S   E   E   M   S   E   E   M   S   E   E   M   S   E   E   M   S   
E   E   M   S   E   E   M   S   E   E   M   S   E   E   M   S   E   E   M   S   
E   E   M   S   E   E   M   S   E   E   M   S   E   E   M   S   E   E   M   S   
E   E   M   S   E   E   M   S   E   E   M   S   E   E   M   S   E   E   M   S   
E   E   M   S   E   E   M   S   E   E   M   S   E   E   M   S   E   E   M   S   
E   E   M   S   E   E   M   S   E   E   M   S   E   E   M   S   E   E   M   S   
E   E   M   S   E   E   M   S   E   E   M   S   E   E   M   S   E   E   M   S   
E   E   M   S   E   E   M   S   E   E   M   S   E   E   M   S   E   E   M   S   
E   E   M   S   E   E   M   S   E   E   M   S   E   E   M   S   E   E   M   S   
E   E   M   S   E   E   M   S   E   E   M   S   E   E   M   S   E   E   M   S   
E   E   M   S   E   E   M   S   E   E   M   S   E   E   M   S   E   E   M   S   
E   E   M   S   E   E   M   S   E   E   M   S   E   E   M   S   E   E   M   S   
E   E   M   S   E   E   M   S   E   E   M   S   E   E   M   S   E   E   M   S   
E   E   M   S   E   E   M   S   E   E   M   S   E   E   M   S   E   E   M   S   
E   E   M   S   E   E   M   S   E   E   M   S   E   E   M   S   E   E   M   S   
E   E   M   S   E   E   M   S   E   E   M   S   E   E   M   S   E   E   M   S   
E   E   M   S   E   E   M   S   E   E   M   S   E   E   M   S   E   E   M   S   
E   E   M   S   E   E   M   S   E   E   M   S   E   E   M   S   E   E   M   S   
E   E   M   S   E   E   M   S   E   E   M   S   E   E   M   S   E   E   M   S   
E   E   M   S   E   E   M   S   E   E   M   S   E   E   M   S   E   E   M   S   
E   E   M   S   E   E   M   S   E   E   M   S   E   E   M   S   E   E   M   S   
E   E   M   S   E   E   M   S   E   E   M   S   E   E   M   S   E   E   M   S   
E   E   M   S   E   E   M   S   E   E   M   S   E   E   M   S   E   E   M   S   
E   E   M   S   E   E   M   S   E   E   M   S   E   E   M   S   E   E   M   S   
E   E   M   S   E   E   M   S   E   E   M   S   E   E   M   S   E   E   M   S   
E   E   M   S   E   E   M   S   E   E   M   S   E   E   M   S   E   E   M   S   
E   E   M   S   E   E   M   S   E   E   M   S   E   E   M   S   E   E   M   S   
E   E   M   S   E   E   M   S   E   E   M   S   E   E   M   S   E   E   M   S   
E   E   M   S   E   E   M   S   E   E   M   S   E   E   M   S   E   E   M   S   
E   E   M   S   E   E   M   S   E   E   M   S   E   E   M   S   E   E   M   S   
E   E   M   S   E   E   M   S   E   E   M   S   E   E   M   S   E   E   M   S   
E   E   M   S   E   E   M   S   E   E   M   S   E   E   M   S   E   E   M   S   
E   E   M   S   E   E   M   S   E   E   M   S   E   E   M   S   E   E   M   S   
E   E   M   S   E   E   M   S   E   E   M   S   E   E   M   S   E   E   M   S   
E   E   M   S   E   E   M   S   E   E   M   S   E   E   M   S   E   E   M   S   
E   E   M   S   E   E   M   S   E   E   M   S   E   E   M   S   E   E   M   S   
E   E   M   S   E   E   M   S   E   E   M   S   E   E   M   S   E   E   M   S   
E   E   M   S   E   E   M   S   E   E   M   S   E   E   M   S   E   E   M   S   
E   E   M   S   E   E   M   S   E   E   M   S   E   E   M   S   E   E   M   S   
E   E   M   S   E   E   M   S   E   E   M   S   E   E   M   S   E   E   M   S   
E   E   M   S   E   E   M   S   E   E   M   S   E   E   M   S   E   E   M   S   
E   E   M   S   E   E   M   S   E   E   M   S   E   E   M   S   E   E   M   S   
E   E   M   S   E   E   M   S   E   E   M   S   E   E   M   S   E   E   M   S   
E   E   M   S   E   E   M   S   E   E   M   S   E   E   M   S   E   E   M   S   
E   E   M   S   E   E   M   S   E   E   M   S   E   E   M   S   E   E   M   S   
E   E   M   S   E   E   M   S   E   E   M   S   E   E   M   S   E   E   M   S   
E   E   M   S   E   E   M   S   E   E   M   S   E   E   M   S   E   E   M   S   
E   E   M   S   E   E   M   S   E   E   M   S   E   E   M   S   E   E   M   S   
E   E   M   S   E   E   M   S   E   E   M   S   E   E   M   S   E   E   M   S   
E   E   M   S   E   E   M   S   E   E   M   S   E   E   M   S   E   E   M   S   
E   E   M   S   E   E   M   S   E   E   M   S   E   E   M   S   E   E   M   S   
E   E   M   S   E   E   M   S   E   E   M   S   E   E   M   S   E   E   M   S   
E   E   M   S   E   E   M   S   E   E   M   S   E   E   M   S   E   E   M   S   
E   E   M   S   E   E   M   S   E   E   M   S   E   E   M   S   E   E   M   S   
E   E   M   S   E   E   M   S   E   E   M   S   E   E   M   S   E   E   M   S   
E   E   M   S   E   E   M   S   E   E   M   S   E   E   M   S   E   E   M   S   
E   E   M   S   E   E   M   S   E   E   M   S   E   E   M   S   E   E   M   S   
E   E   M   S   E   E   M   S   E   E   M   S   E   E   M   S   E   E   M   S   
E   E   M   S   E   E   M   S   E   E   M   S   E   E   M   S   E   E   M   S   
E   E   M   S   E   E   M   S   E   E   M   S   E   E   M   S   E   E   M   S   
E   E   M   S   E   E   M   S   E   E   M   S   E   E   M   S   E   E   M   S   
E   E   M   S   E   E   M   S   E   E   M   S   E   E   M   S   E   E   M   S   
E   E   M   S   E   E   M   S   E   E   M   S   E   E   M   S   E   E   M   S   
E   E   M   S   E   E   M   S   E   E   M   S   E   E   M   S   E   E   M   S   
E   E   M   S   E   E   M   S   E   E   M   S   E   E   M   S   E   E   M   S   
E   E   M   S   E   E   M   S   E   E   M   S   E   E   M   S   E   E   M   S   
E   E   M   S   E   E   M   S   E   E   M   S   E   E   M   S   E   E   M   S   
E   E   M   S   E   E   M   S   E   E   M   S   E   E   M   S   E   E   M   S   
E   E   M   S   E   E   M   S   E   E   M   S   E   E   M   S   E   E   M   S   
E   E   M   S   E   E   M   S   E   E   M   S   E   E   M   S   E   E   M   S   
E   E   M   S   E   E   M   S   E   E   M   S   E   E   M   S   E   E   M   S   
E   E   M   S   E   E   M   S   E   E   M   S   E   E   M   S   E   E   M   S   
E   E   M   S   E   E   M   S   E   E   M   S   E   E   M   S   E   E   M   S   
E   E   M   S   E   E   M   S   E   E   M   S   E   E   M   S   E   E   M   S   
E   E   M   S   E   E   M   S   E   E   M   S   E   E   M   S   E   E   M   S   
E   E   M   S   E   E   M   S   E   E   M   S   E   E   M   S   E   E   M   S   
E   E   M   S   E   E   M   S   E   E   M   S   E   E   M   S   E   E   M   S   
E   E   M   S   E   E   M   S   E   E   M   S   E   E   M   S   E   E   M   S   
E   E   M   S   E   E   M   S   E   E   M   S   E   E   M   S   E   E   M   S   
E   E   M   S   E   E   M   S   E   E   M   S   E   E   M   S   E   E   M   S   
E   E   M   S   E   E   M   S   E   E   M   S   E   E   M   S   E   E   M   S   
E   E   M   S   E   E   M   S   E   E   M   S   E   E   M   S   E   E   M   S   
E   E   M   S   E   E   M   S   E   E   M   S   E   E   M   S   E   E   M   S   
E   E   M   S   E   E   M   S   E   E   M   S   E   E   M   S   E   E   M   S   
E   E   M   S   E   E   M   S   E   E   M   S   E   E   M   S   E   E   M   S   
E   E   M   S   E   E   M   S   E   E   M   S   E   E   M   S   E   E   M   S   
E   E   M   S   E   E   M   S   E   E   M   S   E   E   M   S   E   E   M   S   
E   E   M   S   E   E   M   S   E   E   M   S   E   E   M   S   E   E   M   S   
E   E   M   S   E   E   M   S   E   E   M   S   E   E   M   S   E   E   M   S   
E   E   M   S   E   E   M   S   E   E   M   S   E   E   M   S   E   E   M   S   
E   E   M   S   E   E   M   S   E   E   M   S   E   E   M   S   E   E   M   S   
E   E   M   S   E   E   M   S   E   E   M   S   E   E   M   S   E   E   M   S   
E   E   M   S   E   E   M   S   E   E   M   S   E   E   M   S   E   E   M   S   
E   E   M   S   E   E   M   S   E   E   M   S   E   E   M   S   E   E   M   S   
E   E   M   S   E   E   M   S   E   E   M   S   E   E   M   S   E   E   M   S   
E   E   M   S   E   E   M   S   E   E   M   S   E   E   M   S   E   E   M   S   
E   E   M   S   E   E   M   S   E   E   M   S   E   E   M   S   E   E   M   S   
E   E   M   S   E   E   M   S   E   E   M   S   E   E   M   S   E   E   M   S   
E   E   M   S   E   E   M   S   E   E   M   S   E   E   M   S   E   E   M   S   
E   E   M   S   E   E   M   S   E   E   M   S   E   E   M   S   E   E   M   S   
E   E   M   S   E   E   M   S   E   E   M   S   E   E   M   S   E   E   M   S   
E   E   M   S   E   E   M   S   E   E   M   S   E   E   M   S   E   E   M   S   
E   E   M   S   E   E   M   S   E   E   M   S   E   E   M   S   E   E   M   S   
E   E   M   S   E   E   M   S   E   E   M   S   E   E   M   S   E   E   M   S   
E   E   M   S   E   E   M   S   E   E   M   S   E   E   M   S   E   E   M   S   
E   E   M   S   E   E   M   S   E   E   M   S   E   E   M   S   E   E   M   S   
E   E   M   S   E   E   M   S   E   E   M   S   E   E   M   S   E   E   M   S   
E   E   M   S   E   E   M   S   E   E   M   S   E   E   M   S   E   E   M   S   
E   E   M   S   E   E   M   S   E   E   M   S   E   E   M   S   E   E   M   S   
E   E   M   S   E   E   M   S   E   E   M   S   E   E   M   S   E   E   M   S   
E   E   M   S   E   E   M   S   E   E   M   S   E   E   M   S   E   E   M   S   
E   E   M   S   E   E   M   S   E   E   M   S   E   E   M   S   E   E   M   S   
E   E   M   S   E   E   M   S   E   E   M   S   E   E   M   S   E   E   M   S   
E   E   M   S   E   E   M   S   E   E   M   S   E   E   M   S   E   E   M   S   
E   E   M   S   E   E   M   S   E   E   M   S   E   E   M   S   E   E   M   S   
E   E   M   S   E   E   M   S   E   E   M   S   E   E   M   S   E   E   M   S   
E   E   M   S   E   E   M   S   E   E   M   S   E   E   M   S   E   E   M   S   
E   E   M   S   E   E   M   S   E   E   M   S   E   E   M   S   E   E   M   S   
E   E   M   S   E   E   M   S   E   E   M   S   E   E   M   S   E   E   M   S   
E   E   M   S   E   E   M   S   E   E   M   S   E   E   M   S   E   E   M   S   
E   E   M   S   E   E   M   S   E   E   M   S   E   E   M   S   E   E   M   S   
E   E   M   S   E   E   M   S   E   E   M   S   E   E   M   S   E   E   M   S   
E   E   M   S   E   E   M   S   E   E   M   S   E   E   M   S   E   E   M   S   
E   E   M   S   E   E   M   S   E   E   M   S   E   E   M   S   E   E   M   S   
E   E   M   S   E   E   M   S   E   E   M   S   E   E   M   S   E   E   M   S   
E   E   M   S   E   E   M   S   E   E   M   S   E   E   M   S   E   E   M   S   
E   E   M   S   E   E   M   S   E   E   M   S   E   E   M   S   E   E   M   S   
E   E   M   S   E   E   M   S   E   E   M   S   E   E   M   S   E   E   M   S   
E   E   M   S   E   E   M   S   E   E   M   S   E   E   M   S   E   E   M   S   
E   E   M   S   E   E   M   S   E   E   M   S   E   E   M   S   E   E   M   S   
E   E   M   S   E   E   M   S   E   E   M   S   E   E   M   S   E   E   M   S   
E   E   M   S   E   E   M   S   E   E   M   S   E   E   M   S   E   E   M   S   
E   E   M   S   E   E   M   S   E   E   M   S   E   E   M   S   E   E   M   S   
E   E   M   S   E   E   M   S   E   E   M   S   E   E   M   S   E   E   M   S   
E   E   M   S   E   E   M   S   E   E   M   S   E   E   M   S   E   E   M   S   
E   E   M   S   E   E   M   S   E   E   M   S   E   E   M   S   E   E   M   S   
E   E   M   S   E   E   M   S   E   E   M   S   E   E   M   S   E   E   M   S   
E   E   M   S   E   E   M   S   E   E   M   S   E   E   M   S   E   E   M   S   
E   E   M   S   E   E   M   S   E   E   M   S   E   E   M   S   E   E   M   S   
E   E   M   S   E   E   M   S   E   E   M   S   E   E   M   S   E   E   M   S   
E   E   M   S   E   E   M   S   E   E   M   S   E   E   M   S   E   E   M   S   
E   E   M   S   E   E   M   S   E   E   M   S   E   E   M   S   E   E   M   S   
E   E   M   S   E   E   M   S   E   E   M   S   E   E   M   S   E   E   M   S   
E   E   M   S   E   E   M   S   E   E   M   S   E   E   M   S   E   E   M   S   
E   E   M   S   E   E   M   S   E   E   M   S   E   E   M   S   E   E   M   S   
E   E   M   S   E   E   M   S   E   E   M   S   E   E   M   S   E   E   M   S   
E   E   M   S   E   E   M   S   E   E   M   S   E   E   M   S   E   E   M   S   
E   E   M   S   E   E   M   S   E   E   M   S   E   E   M   S   E   E   M   S   
E   E   M   S   E   E   M   S   E   E   M   S   E   E   M   S   E   E   M   S   
E   E   M   S   E   E   M   S   E   E   M   S   E   E   M   S   E   E   M   S   
E   E   M   S   E   E   M   S   E   E   M   S   E   E   M   S   E   E   M   S   
E   E   M   S   E   E   M   S   E   E   M   S   E   E   M   S   E   E   M   S   
E   E   M   S   E   E   M   S   E   E   M   S   E   E   M   S   E   E   M   S   
E   E   M   S   E   E   M   S   E   E   M   S   E   E   M   S   E   E   M   S   
E   E   M   S   E   E   M   S   E   E   M   S   E   E   M   S   E   E   M   S   
E   E   M   S   E   E   M   S   E   E   M   S   E   E   M   S   E   E   M   S   
E   E   M   S   E   E   M   S   E   E   M   S   E   E   M   S   E   E   M   S   
E   E   M   S   E   E   M   S   E   E   M   S   E   E   M   S   E   E   M   S   
E   E   M   S   E   E   M   S   E   E   M   S   E   E   M   S   E   E   M   S   
E   E   M   S   E   E   M   S   E   E   M   S   E   E   M   S   E   E   M   S   
E   E   M   S   E   E   M   S   E   E   M   S   E   E   M   S   E   E   M   S   
E   E   M   S   E   E   M   S   E   E   M   S   E   E   M   S   E   E   M   S   
E   E   M   S   E   E   M   S   E   E   M   S   E   E   M   S   E   E   M   S   
E   E   M   S   E   E   M   S   E   E   M   S   E   E   M   S   E   E   M   S   
E   E   M   S   E   E   M   S   E   E   M   S   E   E   M   S   E   E   M   S   
E   E   M   S   E   E   M   S   E   E   M   S   E   E   M   S   E   E   M   S   
E   E   M   S   E   E   M   S   E   E   M   S   E   E   M   S   E   E   M   S   
E   E   M   S   E   E   M   S   E   E   M   S   E   E   M   S   E   E   M   S   
E   E   M   S   E   E   M   S   E   E   M   S   E   E   M   S   E   E   M   S   
E   E   M   S   E   E   M   S   E   E   M   S   E   E   M   S   E   E   M   S   
E   E   M   S   E   E   M   S   E   E   M   S   E   E   M   S   E   E   M   S   
E   E   M   S   E   E   M   S   E   E   M   S   E   E   M   S   E   E   M   S   
E   E   M   S   E   E   M   S   E   E   M   S   E   E   M   S   E   E   M   S   
E   E   M   S   E   E   M   S   E   E   M   S   E   E   M   S   E   E   M   S   
E   E   M   S   E   E   M   S   E   E   M   S   E   E   M   S   E   E   M   S   
E   E   M   S   E   E   M   S   E   E   M   S   E   E   M   S   E   E   M   S   
E   E   M   S   E   E   M   S   E   E   M   S   E   E   M   S   E   E   M   S   
E   E   M   S   E   E   M   S   E   E   M   S   E   E   M   S   E   E   M   S   
E   E   M   S   E   E   M   S   E   E   M   S   E   E   M   S   E   E   M   S   
E   E   M   S   E   E   M   S   E   E   M   S   E   E   M   S   E   E   M   S   
E   E   M   S   E   E   M   S   E   E   M   S   E   E   M   S   E   E   M   S   
E   E   M   S   E   E   M   S   E   E   M   S   E   E   M   S   E   E   M   S   
E   E   M   S   E   E   M   S   E   E   M   S   E   E   M   S   E   E   M   S   
E   E   M   S   E   E   M   S   E   E   M   S   E   E   M   S   E   E   M   S   
E   E   M   S   E   E   M   S   E   E   M   S   E   E   M   S   E   E   M   S   
E   E   M   S   E   E   M   S   E   E   M   S   E   E   M   S   E   E   M   S   
E   E   M   S   E   E   M   S   E   E   M   S   E   E   M   S   E   E   M   S   
E   E   M   S   E   E   M   S   E   E   M   S   E   E   M   S   E   E   M   S   
E   E   M   S   E   E   M   S   E   E   M   S   E   E   M   S   E   E   M   S   
E   E   M   S   E   E   M   S   E   E   M   S   E   E   M   S   E   E   M   S   
E   E   M   S   E   E   M   S   E   E   M   S   E   E   M   S   E   E   M   S   
E   E   M   S   E   E   M   S   E   E   M   S   E   E   M   S   E   E   M   S   
E   E   M   S   E   E   M   S   E   E   M   S   E   E   M   S   E   E   M   S   
E   E   M   S   E   E   M   S   E   E   M   S   E   E   M   S   E   E   M   S   
E   E   M   S   E   E   M   S   E   E   M   S   E   E   M   S   E   E   M   S   
E   E   M   S   E   E   M   S   E   E   M   S   E   E   M   S   E   E   M   S   
E   E   M   S   E   E   M   S   E   E   M   S   E   E   M   S   E   E   M   S   
E   E   M   S   E   E   M   S   E   E   M   S   E   E   M   S   E   E   M   S   
E   E   M   S   E   E   M   S   E   E   M   S   E   E   M   S   E   E   M   S   
E   E   M   S   E   E   M   S   E   E   M   S   E   E   M   S   E   E   M   S   
E   E   M   S   E   E   M   S   E   E   M   S   E   E   M   S   E   E   M   S   
E   E   M   S   E   E   M   S   E   E   M   S   E   E   M   S   E   E   M   S   
E   E   M   S   E   E   M   S   E   E   M   S   E   E   M   S   E   E   M   S   
E   E   M   S   E   E   M   S   E   E   M   S   E   E   M   S   E   E   M   S   
E   E   M   S   E   E   M   S   E   E   M   S   E   E   M   S   E   E   M   S   
E   E   M   S   E   E   M   S   E   E   M   S   E   E   M   S   E   E   M   S   
E   E   M   S   E   E   M   S   E   E   M   S   E   E   M   S   E   E   M   S   
E   E   M   S   E   E   M   S   E   E   M   S   E   E   M   S   E   E   M   S   
E   E   M   S   E   E   M   S   E   E   M   S   E   E   M   S   E   E   M   S   
E   E   M   S   E   E   M   S   E   E   M   S   E   E   M   S   E   E   M   S   
E   E   M   S   E   E   M   S   E   E   M   S   E   E   M   S   E   E   M   S   
E   E   M   S   E   E   M   S   E   E   M   S   E   E   M   S   E   E   M   S   
E   E   M   S   E   E   M   S   E   E   M   S   E   E   M   S   E   E   M   S   
E   E   M   S   E   E   M   S   E   E   M   S   E   E   M   S   E   E   M   S   
E   E   M   S   E   E   M   S   E   E   M   S   E   E   M   S   E   E   M   S   
E   E   M   S   E   E   M   S   E   E   M   S   E   E   M   S   E   E   M   S   
E   E   M   S   E   E   M   S   E   E   M   S   E   E   M   S   E   E   M   S   
E   E   M   S   E   E   M   S   E   E   M   S   E   E   M   S   E   E   M   S   
E   E   M   S   E   E   M   S   E   E   M   S   E   E   M   S   E   E   M   S   
E   E   M   S   E   E   M   S   E   E   M   S   E   E   M   S   E   E   M   S   
E   E   M   S   E   E   M   S   E   E   M   S   E   E   M   S   E   E   M   S   
E   E   M   S   E   E   M   S   E   E   M   S   E   E   M   S   E   E   M   S   
E   E   M   S   E   E   M   S   E   E   M   S   E   E   M   S   E   E   M   S   
E   E   M   S   E   E   M   S   E   E   M   S   E   E   M   S   E   E   M   S   
E   E   M   S   E   E   M   S   E   E   M   S   E   E   M   S   E   E   M   S   
E   E   M   S   E   E   M   S   E   E   M   S   E   E   M   S   E   E   M   S   
E   E   M   S   E   E   M   S   E   E   M   S   E   E   M   S   E   E   M   S   
E   E   M   S   E   E   M   S   E   E   M   S   E   E   M   S   E   E   M   S   
E   E   M   S   E   E   M   S   E   E   M   S   E   E   M   S   E   E   M   S   
E   E   M   S   E   E   M   S   E   E   M   S   E   E   M   S   E   E   M   S   
E   E   M   S   E   E   M   S   E   E   M   S   E   E   M   S   E   E   M   S   
E   E   M   S   E   E   M   S   E   E   M   S   E   E   M   S   E   E   M   S   
E   E   M   S   E   E   M   S   E   E   M   S   E   E   M   S   E   E   M   S   
E   E   M   S   E   E   M   S   E   E   M   S   E   E   M   S   E   E   M   S   
E   E   M   S   E   E   M   S   E   E   M   S   E   E   M   S   E   E   M   S   
E   E   M   S   E   E   M   S   E   E   M   S   E   E   M   S   E   E   M   S   
E   E   M   S   E   E   M   S   E   E   M   S   E   E   M   S   E   E   M   S   
E   E   M   S   E   E   M   S   E   E   M   S   E   E   M   S   E   E   M   S   
E   E   M   S   E   E   M   S   E   E   M   S   E   E   M   S   E   E   M   S   
E   E   M   S   E   E   M   S   E   E   M   S   E   E   M   S   E   E   M   S   
E   E   M   S   E   E   M   S   E   E   M   S   E   E   M   S   E   E   M   S   
E   E   M   S   E   E   M   S   E   E   M   S   E   E   M   S   E   E   M   S   
E   E   M   S   E   E   M   S   E   E   M   S   E   E   M   S   E   E   M   S   
E   E   M   S   E   E   M   S   E   E   M   S   E   E   M   S   E   E   M   S   
E   E   M   S   E   E   M   S   E   E   M   S   E   E   M   S   E   E   M   S   
E   E   M   S   E   E   M   S   E   E   M   S   E   E   M   S   E   E   M   S   
E   E   M   S   E   E   M   S   E   E   M   S   E   E   M   S   E   E   M   S   
E   E   M   S   E   E   M   S   E   E   M   S   E   E   M   S   E   E   M   S   
E   E   M   S   E   E   M   S   E   E   M   S   E   E   M   S   E   E   M   S   
E   E   M   S   E   E   M   S   E   E   M   S   E   E   M   S   E   E   M   S   
E   E   M   S   E   E   M   S   E   E   M   S   E   E   M   S   E   E   M   S   
E   E   M   S   E   E   M   S   E   E   M   S   E   E   M   S   E   E   M   S   
E   E   M   S   E   E   M   S   E   E   M   S   E   E   M   S   E   E   M   S   
E   E   M   S   E   E   M   S   E   E   M   S   E   E   M   S   E   E   M   S   
E   E   M   S   E   E   M   S   E   E   M   S   E   E   M   S   E   E   M   S   
E   E   M   S   E   E   M   S   E   E   M   S   E   E   M   S   E   E   M   S   
E   E   M   S   E   E   M   S   E   E   M   S   E   E   M   S   E   E   M   S   
E   E   M   S   E   E   M   S   E   E   M   S   E   E   M   S   E   E   M   S   
E   E   M   S   E   E   M   S   E   E   M   S   E   E   M   S   E   E   M   S   
E   E   M   S   E   E   M   S   E   E   M   S   E   E   M   S   E   E   M   S   
E   E   M   S   E   E   M   S   E   E   M   S   E   E   M   S   E   E   M   S   
E   E   M   S   E   E   M   S   E   E   M   S   E   E   M   S   E   E   M   S   
E   E   M   S   E   E   M   S   E   E   M   S   E   E   M   S   E   E   M   S   
E   E   M   S   E   E   M   S   E   E   M   S   E   E   M   S   E   E   M   S   
E   E   M   S   E   E   M   S   E   E   M   S   E   E   M   S   E   E   M   S   
E   E   M   S   E   E   M   S   E   E   M   S   E   E   M   S   E   E   M   S   
E   E   M   S   E   E   M   S   E   E   M   S   E   E   M   S   E   E   M   S   
E   E   M   S   E   E   M   S   E   E   M   S   E   E   M   S   E   E   M   S   
E   E   M   S   E   E   M   S   E   E   M   S   E   E   M   S   E   E   M   S   
E   E   M   S   E   E   M   S   E   E   M   S   E   E   M   S   E   E   M   S   
E   E   M   S   E   E   M   S   E   E   M   S   E   E   M   S   E   E   M   S   
E   E   M   S   E   E   M   S   E   E   M   S   E   E   
%FLAG JOIN_ARRAY                                                                
%FORMAT(10I8)                                                                   
       0       0       0       0       0       0       0       0       0       0
       0       0       0       0       0       0       0       0       0       0
       0       0       0       0       0       0       0       0       0       0
       0       0       0       0       0       0       0       0       0       0
       0       0       0       0       0       0       0       0       0       0
       0       0       0       0       0       0       0       0       0       0
       0       0       0       0       0       0       0       0       0       0
       0       0       0       0       0       0       0       0       0       0
       0       0       0       0       0       0       0       0       0       0
       0       0       0       0       0       0       0       0       0       0
       0       0       0       0       0       0       0       0       0       0
       0       0       0       0       0       0       0       0       0       0
       0       0       0       0       0       0       0       0       0       0
       0       0       0       0       0       0       0       0       0       0
       0       0       0       0       0       0       0       0       0       0
       0       0       0       0       0       0       0       0       0       0
       0       0       0       0       0       0       0       0       0       0
       0       0       0       0       0       0       0       0       0       0
       0       0       0       0       0       0       0       0       0       0
       0       0       0       0       0       0       0       0       0       0
       0       0       0       0       0       0       0       0       0       0
       0       0       0       0       0       0       0       0       0       0
       0       0       0       0       0       0       0       0       0       0
       0       0       0       0       0       0       0       0       0       0
       0       0       0       0       0       0       0       0       0       0
       0       0       0       0       0       0       0       0       0       0
       0       0       0       0       0       0       0       0       0       0
       0       0       0       0       0       0       0       0       0       0
       0       0       0       0       0       0       0       0       0       0
       0       0       0       0       0       0       0       0       0       0
       0       0       0       0       0       0       0       0       0       0
       0       0       0       0       0       0       0       0       0       0
       0       0       0       0       0       0       0       0       0       0
       0       0       0       0       0       0       0       0       0       0
       0       0       0       0       0       0       0       0       0       0
       0       0       0       0       0       0       0       0       0       0
       0       0       0       0       0       0       0       0       0       0
       0       0       0       0       0       0       0       0       0       0
       0       0       0       0       0       0       0       0       0       0
       0       0       0       0       0       0       0       0       0       0
       0       0       0       0       0       0       0       0       0       0
       0       0       0       0       0       0       0       0       0       0
       0       0       0       0       0       0       0       0       0       0
       0       0       0       0       0       0       0       0       0       0
       0       0       0       0       0       0       0       0       0       0
       0       0       0       0       0       0       0       0       0       0
       0       0       0       0       0       0       0       0       0       0
       0       0       0       0       0       0       0       0       0       0
       0       0       0       0       0       0       0       0       0       0
       0       0       0       0       0       0       0       0       0       0
       0       0       0       0       0       0       0       0       0       0
       0       0       0       0       0       0       0       0       0       0
       0       0       0       0       0       0       0       0       0       0
       0       0       0       0       0       0       0       0       0       0
       0       0       0       0       0       0       0       0       0       0
       0       0       0       0       0       0       0       0       0       0
       0       0       0       0       0       0       0       0       0       0
       0       0       0       0       0       0       0       0       0       0
       0       0       0       0       0       0       0       0       0       0
       0       0       0       0       0       0       0       0       0       0
       0       0       0       0       0       0       0       0       0       0
       0       0       0       0       0       0       0       0       0       0
       0       0       0       0       0       0       0       0       0       0
       0       0       0       0       0       0       0       0       0       0
       0       0       0       0       0       0       0       0       0       0
       0       0       0       0       0       0       0       0       0       0
       0       0       0       0       0       0       0       0       0       0
       0       0       0       0       0       0       0       0       0       0
       0       0       0       0       0       0       0       0       0       0
       0       0       0       0       0       0       0       0       0       0
       0       0       0       0       0       0       0       0       0       0
       0       0       0       0       0       0       0       0       0       0
       0       0       0       0       0       0       0       0       0       0
       0       0       0       0       0       0       0       0       0       0
       0       0       0       0       0       0       0       0       0       0
       0       0       0       0       0       0       0       0       0       0
       0       0       0       0       0       0       0       0       0       0
       0       0       0       0       0       0       0       0       0       0
       0       0       0       0       0       0       0       0       0       0
       0       0       0       0       0       0       0       0       0       0
       0       0       0       0       0       0       0       0       0       0
       0       0       0       0       0       0       0       0       0       0
       0       0       0       0       0       0       0       0       0       0
       0       0       0       0       0       0       0       0       0       0
       0       0       0       0       0       0       0       0       0       0
       0       0       0       0       0       0       0       0       0       0
       0       0       0       0       0       0       0       0       0       0
       0       0       0       0       0       0       0       0       0       0
       0       0       0       0       0       0       0       0       0       0
       0       0       0       0       0       0       0       0       0       0
       0       0       0       0       0       0       0       0       0       0
       0       0       0       0       0       0       0       0       0       0
       0       0       0       0       0       0       0       0       0       0
       0       0       0       0       0       0       0       0       0       0
       0       0       0       0       0       0       0       0       0       0
       0       0       0       0       0       0       0       0       0       0
       0       0       0       0       0       0       0       0       0       0
       0       0       0       0       0       0       0       0       0       0
       0       0       0       0       0       0       0       0       0       0
       0       0       0       0       0       0       0       0       0       0
       0       0       0       0       0       0       0       0       0       0
       0       0       0       0       0       0       0       0       0       0
       0       0       0       0       0       0       0       0       0       0
       0       0       0       0       0       0       0       0       0       0
       0       0       0       0       0       0       0       0       0       0
       0       0       0       0       0       0       0       0       0       0
       0       0       0       0       0       0       0       0       0       0
       0       0       0       0       0       0       0       0       0       0
       0       0       0       0       0       0       0       0       0       0
       0       0       0       0       0       0       0       0       0       0
       0       0       0       0       0       0       0       0       0       0
       0       0       0       0       0       0       0       0       0       0
       0       0       0       0       0       0       0       0       0       0
       0       0       0       0       0       0       0       0       0       0
       0       0       0       0       0       0       0       0       0       0
       0       0       0       0       0       0       0       0       0       0
       0       0       0       0       0       0       0       0       0       0
       0       0       0       0       0       0       0       0       0       0
       0       0       0       0       0       0       0       0       0       0
       0       0       0       0       0       0       0       0       0       0
       0       0       0       0       0       0       0       0       0       0
       0       0       0       0       0       0       0       0       0       0
       0       0       0       0       0       0       0       0       0       0
       0       0       0       0       0       0       0       0       0       0
       0       0       0       0       0       0       0       0       0       0
       0       0       0       0       0       0       0       0       0       0
       0       0       0       0       0       0       0       0       0       0
       0       0       0       0       0       0       0       0       0       0
       0       0       0       0       0       0       0       0       0       0
       0       0       0       0       0       0       0       0       0       0
       0       0       0       0       0       0       0       0       0       0
       0       0       0       0       0       0       0       0       0       0
       0       0       0       0       0       0       0       0       0       0
       0       0       0       0       0       0       0       0       0       0
       0       0       0       0       0       0       0       0       0       0
       0       0       0       0       0       0       0       0       0       0
       0       0       0       0       0       0       0       0       0       0
       0       0       0       0       0       0       0       0       0       0
       0       0       0       0       0       0       0       0       0       0
       0       0       0       0       0       0       0       0       0       0
       0       0       0       0       0       0       0       0       0       0
       0       0       0       0       0       0       0       0       0       0
       0       0       0       0       0       0       0       0       0       0
       0       0       0       0       0       0       0       0       0       0
       0       0       0       0       0       0       0       0       0       0
       0       0       0       0       0       0       0       0       0       0
       0       0       0       0       0       0       0       0       0       0
       0       0       0       0       0       0       0       0       0       0
       0       0       0       0       0       0       0       0       0       0
       0       0       0       0       0       0       0       0       0       0
       0       0       0       0       0       0       0       0       0       0
       0       0       0       0       0       0       0       0       0       0
       0       0       0       0       0       0       0       0       0       0
       0       0       0       0       0       0       0       0       0       0
       0       0       0       0       0       0       0       0       0       0
       0       0       0       0       0       0       0       0       0       0
       0       0       0       0       0       0       0       0       0       0
       0       0       0       0       0       0       0       0       0       0
       0       0       0       0       0       0       0       0       0       0
       0       0       0       0       0       0       0       0       0       0
       0       0       0       0       0       0       0       0       0       0
       0       0       0       0       0       0       0       0       0       0
       0       0       0       0       0       0       0       0       0       0
       0       0       0       0       0       0       0       0       0       0
       0       0       0       0       0       0       0       0       0       0
       0       0       0       0       0       0       0       0       0       0
       0       0       0       0       0       0       0       0       0       0
       0       0       0       0       0       0       0       0       0       0
       0       0       0       0       0       0       0       0       0       0
       0       0       0       0       0       0       0       0       0       0
       0       0       0       0       0       0       0       0       0       0
       0       0       0       0       0       0       0       0       0       0
       0       0       0       0       0       0       0       0       0       0
       0       0       0       0       0       0       0       0       0       0
       0       0       0       0       0       0       0       0       0       0
       0       0       0       0       0       0       0       0       0       0
       0       0       0       0       0       0       0       0       0       0
       0       0       0       0       0       0       0       0       0       0
       0       0       0       0       0       0       0       0       0       0
       0       0       0       0       0       0       0       0       0       0
       0       0       0       0       0       0       0       0       0       0
       0       0       0       0       0       0       0       0       0       0
       0       0       0       0       0       0       0       0       0       0
       0       0       0       0       0       0       0       0       0       0
       0       0       0       0       0       0       0       0       0       0
       0       0       0       0       0       0       0       0       0       0
       0       0       0       0       0       0       0       0       0       0
       0       0       0       0       0       0       0       0       0       0
       0       0       0       0       0       0       0       0       0       0
       0       0       0       0       0       0       0       0       0       0
       0       0       0       0       0       0       0       0       0       0
       0       0       0       0       0       0       0       0       0       0
       0       0       0       0       0       0       0       0       0       0
       0       0       0       0       0       0       0       0       0       0
       0       0       0       0       0       0       0       0       0       0
       0       0       0       0       0       0       0       0       0       0
       0       0       0       0       0       0       0       0       0       0
       0       0       0       0       0       0       0       0       0       0
       0       0       0       0       0       0       0       0       0       0
       0       0       0       0       0       0       0       0       0       0
       0       0       0       0       0       0       0       0       0       0
       0       0       0       0       0       0       0       0       0       0
       0       0       0       0       0       0       0       0       0       0
       0       0       0       0       0       0       0       0       0       0
       0       0       0       0       0       0       0       0       0       0
       0       0       0       0       0       0       0       0       0       0
       0       0       0       0       0       0       0       0       0       0
       0       0       0       0       0       0       0       0       0       0
       0       0       0       0       0       0       0       0       0       0
       0       0       0       0       0       0       0       0       0       0
       0       0       0       0       0       0       0       0       0       0
       0       0       0       0       0       0       0       0       0       0
       0       0       0       0       0       0       0       0       0       0
       0       0       0       0       0       0       0       0       0       0
       0       0       0       0       0       0       0       0       0       0
       0       0       0       0       0       0       0       0       0       0
       0       0       0       0       0       0       0       0       0       0
       0       0       0       0       0       0       0       0       0       0
       0       0       0       0       0       0       0       0       0       0
       0       0       0       0       0       0       0       0       0       0
       0       0       0       0       0       0       0       0       0       0
       0       0       0       0       0       0       0       0       0       0
       0       0       0       0       0       0       0       0       0       0
       0       0       0       0       0       0       0       0       0       0
       0       0       0       0       0       0       0       0       0       0
       0       0       0       0       0       0       0       0       0       0
       0       0       0       0       0       0       0       0       0       0
       0       0       0       0       0       0       0       0       0       0
       0       0       0       0       0       0       0       0       0       0
       0       0       0       0       0       0       0       0       0       0
       0       0       0       0       0       0       0       0       0       0
       0       0       0       0       0       0       0       0       0       0
       0       0       0       0       0       0       0       0       0       0
       0       0       0       0       0       0       0       0       0       0
       0       0       0       0       0       0       0       0       0       0
       0       0       0       0       0       0       0       0       0       0
       0       0       0       0       0       0       0       0       0       0
       0       0       0       0       0       0       0       0       0       0
       0       0       0       0       0       0       0       0       0       0
       0       0       0       0       0       0       0       0       0       0
       0       0       0       0       0       0       0       0       0       0
       0       0       0       0       0       0       0       0       0       0
       0       0       0       0       0       0       0       0       0       0
       0       0       0       0       0       0       0       0       0       0
       0       0       0       0       0       0       0       0       0       0
       0       0       0       0       0       0       0       0       0       0
       0       0       0       0       0       0       0       0       0       0
       0       0       0       0       0       0       0       0       0       0
       0       0       0       0       0       0       0       0       0       0
       0       0       0       0       0       0       0       0       0       0
       0       0       0       0       0       0       0       0       0       0
       0       0       0       0       0       0       0       0       0       0
       0       0       0       0       0       0       0       0       0       0
       0       0       0       0       0       0       0       0       0       0
       0       0       0       0       0       0       0       0       0       0
       0       0       0       0       0       0       0       0       0       0
       0       0       0       0       0       0       0       0       0       0
       0       0       0       0       0       0       0       0       0       0
       0       0       0       0       0       0       0       0       0       0
       0       0       0       0       0       0       0       0       0       0
       0       0       0       0       0       0       0       0       0       0
       0       0       0       0       0       0       0       0       0       0
       0       0       0       0       0       0       0       0       0       0
       0       0       0       0       0       0       0       0       0       0
       0       0       0       0       0       0       0       0       0       0
       0       0       0       0       0       0       0       0       0       0
       0       0       0       0       0       0       0       0       0       0
       0       0       0       0       0       0       0       0       0       0
       0       0       0       0       0       0       0       0       0       0
       0       0       0       0       0       0       0       0       0       0
       0       0       0       0       0       0       0       0       0       0
       0       0       0       0       0       0       0       0       0       0
       0       0       0       0       0       0       0       0       0       0
       0       0       0       0       0       0       0       0       0       0
       0       0       0       0       0       0       0       0       0       0
       0       0       0       0       0       0       0       0       0       0
       0       0       0       0       0       0       0       0       0       0
       0       0       0       0       0       0       0       0       0       0
       0       0       0       0       0       0       0       0       0       0
       0       0       0       0       0       0       0       0       0       0
       0       0       0       0       0       0       0       0       0       0
       0       0       0       0       0       0       0       0       0       0
       0       0       0       0       0       0       0       0       0       0
       0       0       0       0       0       0       0       0       0       0
       0       0       0       0       0       0       0       0       0       0
       0       0       0       0       0       0       0       0       0       0
       0       0       0       0       0       0       0       0       0       0
       0       0       0       0       0       0       0       0       0       0
       0       0       0       0       0       0       0       0       0       0
       0       0       0       0       0       0       0       0       0       0
       0       0       0       0       0       0       0       0       0       0
       0       0       0       0       0       0       0       0       0       0
       0       0       0       0       0       0       0       0       0       0
       0       0       0       0       0       0       0       0       0       0
       0       0       0       0       0       0       0       0       0       0
       0       0       0       0       0       0       0       0       0       0
       0       0       0       0       0       0       0       0       0       0
       0       0       0       0       0       0       0       0       0       0
       0       0       0       0       0       0       0       0       0       0
       0       0       0       0       0       0       0       0       0       0
       0       0       0       0       0       0       0       0       0       0
       0       0       0       0       0       0       0       0       0       0
       0       0       0       0       0       0       0       0       0       0
       0       0       0       0       0       0       0       0       0       0
       0       0       0       0       0       0       0       0       0       0
       0       0       0       0       0       0       0       0       0       0
       0       0       0       0       0       0       0       0       0       0
       0       0       0       0       0       0       0       0       0       0
       0       0       0       0       0       0       0       0       0       0
       0       0       0       0       0       0       0       0       0       0
       0       0       0       0       0       0       0       0       0       0
       0       0       0       0       0       0       0       0       0       0
       0       0       0       0       0       0       0       0       0       0
       0       0       0       0       0       0       0       0       0       0
       0       0       0       0       0       0       0       0       0       0
       0       0       0       0       0       0       0       0       0       0
       0       0       0       0       0       0       0       0       0       0
       0       0       0       0       0       0       0       0       0       0
       0       0       0       0       0       0       0       0       0       0
       0       0       0       0       0       0       0       0       0       0
       0       0       0       0       0       0       0       0       0       0
       0       0       0       0       0       0       0       0       0       0
       0       0       0       0       0       0       0       0       0       0
       0       0       0       0       0       0       0       0       0       0
       0       0       0       0       0       0       0       0       0       0
       0       0       0       0       0       0       0       0       0       0
       0       0       0       0       0       0       0       0       0       0
       0       0       0       0       0       0       0       0       0       0
       0       0       0       0       0       0       0       0       0       0
       0       0       0       0       0       0       0       0       0       0
       0       0       0       0       0       0       0       0       0       0
       0       0       0       0       0       0       0       0       0       0
       0       0       0       0       0       0       0       0       0       0
       0       0       0       0       0       0       0       0       0       0
       0       0       0       0       0       0       0       0       0       0
       0       0       0       0       0       0       0       0       0       0
       0       0       0       0       0       0       0       0       0       0
       0       0       0       0       0       0       0       0       0       0
       0       0       0       0       0       0       0       0       0       0
       0       0       0       0       0       0       0       0       0       0
       0       0       0       0       0       0       0       0       0       0
       0       0       0       0       0       0       0       0       0       0
       0       0       0       0       0       0       0       0       0       0
       0       0       0       0       0       0       0       0       0       0
       0       0       0       0       0       0       0       0       0       0
       0       0       0       0       0       0       0       0       0       0
       0       0       0       0       0       0       0       0       0       0
       0       0       0       0       0       0       0       0       0       0
       0       0       0       0       0       0       0       0       0       0
       0       0       0       0       0       0       0       0       0       0
       0       0       0       0       0       0       0       0       0       0
       0       0       0       0       0       0       0       0       0       0
       0       0       0       0       0       0       0       0       0       0
       0       0       0       0       0       0       0       0       0       0
       0       0       0       0       0       0       0       0       0       0
       0       0       0       0       0       0       0       0       0       0
       0       0       0       0       0       0       0       0       0       0
       0       0       0       0       0       0       0       0       0       0
       0       0       0       0       0       0       0       0       0       0
       0       0       0       0       0       0       0       0       0       0
       0       0       0       0       0       0       0       0       0       0
       0       0       0       0       0       0       0       0       0       0
       0       0       0       0       0       0       0       0       0       0
       0       0       0       0       0       0       0       0       0       0
       0       0       0       0       0       0       0       0       0       0
       0       0       0       0       0       0       0       0       0       0
       0       0       0       0       0       0       0       0       0       0
       0       0       0       0       0       0       0       0       0       0
       0       0       0       0       0       0       0       0       0       0
       0       0       0       0       0       0       0       0       0       0
       0       0       0       0       0       0       0       0       0       0
       0       0       0       0       0       0       0       0       0       0
       0       0       0       0       0       0       0       0       0       0
       0       0       0       0       0       0       0       0       0       0
       0       0       0       0       0       0       0       0       0       0
       0       0       0       0       0       0       0       0       0       0
       0       0       0       0       0       0       0       0       0       0
       0       0       0       0       0       0       0       0       0       0
       0       0       0       0       0       0       0       0       0       0
       0       0       0       0       0       0       0       0       0       0
       0       0       0       0       0       0       0       0       0       0
       0       0       0       0       0       0       0       0       0       0
       0       0       0       0       0       0       0       0       0       0
       0       0       0       0       0       0       0       0       0       0
       0       0       0       0       0       0       0       0       0       0
       0       0       0       0       0       0       0       0       0       0
       0       0       0       0       0       0       0       0       0       0
       0       0       0       0       0       0       0       0       0       0
       0       0       0       0       0       0       0       0       0       0
       0       0       0       0       0       0       0       0       0       0
       0       0       0       0       0       0       0       0       0       0
       0       0       0       0       0       0       0       0       0       0
       0       0       0       0       0       0       0       0       0       0
       0       0       0       0       0       0       0       0       0       0
       0       0       0       0       0       0       0       0       0       0
       0       0       0       0       0       0       0       0       0       0
       0       0       0       0       0       0       0       0       0       0
       0       0       0       0       0       0       0       0       0       0
       0       0       0       0       0       0       0       0       0       0
       0       0       0       0       0       0       0       0       0       0
       0       0       0       0       0       0       0       0       0       0
       0       0       0       0       0       0       0       0       0       0
       0       0       0       0       0       0       0       0       0       0
       0       0       0       0       0       0       0       0       0       0
       0       0       0       0       0       0       0       0       0       0
       0       0       0       0       0       0       0       0       0       0
       0       0       0       0       0       0       0       0       0       0
       0       0       0       0       0       0       0       0       0       0
       0       0       0       0       0       0       0       0       0       0
       0       0       0       0       0       0       0       0       0       0
       0       0       0       0       0       0       0       0       0       0
       0       0       0       0       0       0       0       0       0       0
       0       0       0       0       0       0       0       0       0       0
       0       0       0       0       0       0       0       0       0       0
       0       0       0       0       0       0       0       0       0       0
       0       0       0       0       0       0       0       0       0       0
       0       0       0       0       0       0       0       0       0       0
       0       0       0       0       0       0       0       0       0       0
       0       0       0       0       0       0       0       0       0       0
       0       0       0       0       0       0       0       0       0       0
       0       0       0       0       0       0       0       0       0       0
       0       0       0       0       0       0       0       0       0       0
       0       0       0       0       0       0       0       0       0       0
       0       0       0       0       0       0       0       0       0       0
       0       0       0       0       0       0       0       0       0       0
       0       0       0       0       0       0       0       0       0       0
       0       0       0       0       0       0       0       0       0       0
       0       0       0       0       0       0       0       0       0       0
       0       0       0       0       0       0       0       0       0       0
       0       0       0       0       0       0       0       0       0       0
       0       0       0       0       0       0       0       0       0       0
       0       0       0       0       0       0       0       0       0       0
       0       0       0       0       0       0       0       0       0       0
       0       0       0       0       0       0       0       0       0       0
       0       0       0       0       0       0       0       0       0       0
       0       0       0       0       0       0       0       0       0       0
       0       0       0       0       0       0       0       0       0       0
       0       0       0       0       0       0       0       0       0       0
       0       0       0       0       0       0       0       0       0       0
       0       0       0       0       0       0       0       0       0       0
       0       0       0       0       0       0       0       0       0       0
       0       0       0       0       0       0       0       0       0       0
       0       0       0       0       0       0       0       0       0       0
       0       0       0       0       0       0       0       0       0       0
       0       0       0       0       0       0       0       0       0       0
       0       0       0       0       0       0       0       0       0       0
       0       0       0       0       0       0       0       0       0       0
       0       0       0       0       0       0       0       0       0       0
       0       0       0       0       0       0       0       0       0       0
       0       0       0       0       0       0       0       0       0       0
       0       0       0       0       0       0       0       0       0       0
       0       0       0       0       0       0       0       0       0       0
       0       0       0       0       0       0       0       0       0       0
       0       0       0       0       0       0       0       0       0       0
       0       0       0       0       0       0       0       0       0       0
       0       0       0       0       0       0       0       0       0       0
       0       0       0       0       0       0       0       0       0       0
       0       0       0       0       0       0       0       0       0       0
       0       0       0       0       0       0       0       0       0       0
       0       0       0       0       0       0       0       0       0       0
       0       0       0       0       0       0       0       0       0       0
       0       0       0       0       0       0       0       0       0       0
       0       0       0       0       0       0       0       0       0       0
       0       0       0       0       0       0       0       0       0       0
       0       0       0       0       0       0       0       0       0       0
       0       0       0       0       0       0       0       0       0       0
       0       0       0       0       0       0       0       0       0       0
       0       0       0       0       0       0       0       0       0       0
       0       0       0       0       0       0       0       0       0       0
       0       0       0       0       0       0       0       0       0       0
       0       0       0       0       0       0       0       0       0       0
       0       0       0       0       0       0       0       0       0       0
       0       0       0       0       0       0       0       0       0       0
       0       0       0       0       0       0       0       0       0       0
       0       0       0       0       0       0       0       0       0       0
       0       0       0       0       0       0       0       0       0       0
       0       0       0       0       0       0       0       0       0       0
       0       0       0       0       0       0       0       0       0       0
       0       0       0       0       0       0       0       0       0       0
       0       0       0       0       0       0       0       0       0       0
       0       0       0       0       0       0       0       0       0       0
       0       0       0       0       0       0       0       0       0       0
       0       0       0       0       0       0       0       0       0       0
       0       0       0       0       0       0       0       0       0       0
       0       0       0       0       0       0       0       0       0       0
       0       0       0       0       0       0       0       0       0       0
       0       0       0       0       0       0       0       0       0       0
       0       0       0       0       0       0       0       0       0       0
       0       0       0       0       0       0       0       0       0       0
       0       0       0       0       0       0       0       0       0       0
       0       0       0       0       0       0       0       0       0       0
       0       0       0       0       0       0       0       0       0       0
       0       0       0       0       0       0       0       0       0       0
       0       0       0       0       0       0       0       0       0       0
       0       0       0       0       0       0       0       0       0       0
       0       0       0       0       0       0       0       0       0       0
       0       0       0       0       0       0       0       0       0       0
       0       0       0       0       0       0       0       0       0       0
       0       0       0       0       0       0       0       0       0       0
       0       0       0       0       0       0       0       0       0       0
       0       0       0       0       0       0       0       0       0       0
       0       0       0       0       0       0       0       0       0       0
       0       0       0       0       0       0       0       0       0       0
       0       0       0       0       0       0       0       0       0       0
       0       0       0       0       0       0       0       0       0       0
       0       0       0       0       0       0       0       0       0       0
       0       0       0       0       0       0       0       0       0       0
       0       0       0       0       0       0       0       0       0       0
       0       0       0       0       0       0       0       0       0       0
       0       0       0       0       0       0       0       0       0       0
       0       0       0       0       0       0       0       0       0       0
       0       0       0       0       0       0       0       0       0       0
       0       0       0       0       0       0       0       0       0       0
       0       0       0       0       0       0       0       0       0       0
       0       0       0       0       0       0       0       0       0       0
       0       0       0       0       0       0       0       0       0       0
       0       0       0       0       0       0       0       0       0       0
       0       0       0       0       0       0       0       0       0       0
       0       0       0       0       0       0       0       0       0       0
       0       0       0       0       0       0       0       0       0       0
       0       0       0       0       0       0       0       0       0       0
       0       0       0       0       0       0       0       0       0       0
       0       0       0       0       0       0       0       0       0       0
       0       0       0       0       0       0       0       0       0       0
       0       0       0       0       0       0       0       0       0       0
       0       0       0       0       0       0       0       0       0       0
       0       0       0       0       0       0       0       0       0       0
       0       0       0       0       0       0       0       0       0       0
       0       0       0       0       0       0       0       0       0       0
       0       0       0       0       0       0       0       0       0       0
       0       0       0       0       0       0       0       0       0       0
       0       0       0       0       0       0       0       0       0       0
       0       0       0       0       0       0       0       0       0       0
       0       0       0       0       0       0       0       0       0       0
       0       0       0       0       0       0       0       0       0       0
       0       0       0       0       0       0       0       0       0       0
       0       0       0       0       0       0       0       0       0       0
       0       0       0       0       0       0       0       0       0       0
       0       0       0       0       0       0       0       0       0       0
       0       0       0       0       0       0       0       0       0       0
       0       0       0       0       0       0       0       0       0       0
       0       0       0       0       0       0       0       0       0       0
       0       0       0       0       0       0       0       0       0       0
       0       0       0       0       0       0       0       0       0       0
       0       0       0       0       0       0       0       0       0       0
       0       0       0       0       0       0       0       0       0       0
       0       0       0       0       0       0       0       0       0       0
       0       0       0       0       0       0       0       0       0       0
       0       0       0       0       0       0       0       0       0       0
       0       0       0       0       0       0       0       0       0       0
       0       0       0       0       0       0       0       0       0       0
       0       0       0       0       0       0       0       0       0       0
       0       0       0       0       0       0       0       0       0       0
       0       0       0       0       0       0       0       0       0       0
       0       0       0       0       0       0       0       0       0       0
       0       0       0       0       0       0       0       0       0       0
       0       0       0       0       0       0       0       0       0       0
       0       0       0       0       0       0       0       0       0       0
       0       0       0       0       0       0       0       0       0       0
       0       0       0       0       0       0       0       0       0       0
       0       0       0       0       0       0       0       0       0       0
       0       0       0       0       0       0       0       0       0       0
       0       0       0       0       0       0       0       0       0       0
       0       0       0       0       0       0       0       0       0       0
       0       0       0       0       0       0       0       0       0       0
       0       0       0       0       0       0       0       0       0       0
       0       0       0       0       0       0       0       0       0       0
       0       0       0       0       0       0       0       0       0       0
       0       0       0       0       0       0       0       0       0       0
       0       0       0       0       0       0       0       0       0       0
       0       0       0       0       0       0       0       0       0       0
       0       0       0       0       0       0       0       0       0       0
       0       0       0       0       0       0       0       0       0       0
       0       0       0       0       0       0       0       0       0       0
       0       0       0       0       0       0       0       0       0       0
       0       0       0       0       0       0       0       0       0       0
       0       0       0       0       0       0       0       0       0       0
       0       0       0       0       0       0       0       0       0       0
       0       0       0       0       0       0       0       0       0       0
       0       0       0       0       0       0       0       0       0       0
       0       0       0       0       0       0       0       0       0       0
       0       0       0       0       0       0       0       0       0       0
       0       0       0       0       0       0       0       0       0       0
       0       0       0       0       0       0       0       0       0       0
       0       0       0       0       0       0       0       0       0       0
       0       0       0       0       0       0       0       0       0       0
       0       0       0       0       0       0       0       0       0       0
       0       0       0       0       0       0       0       0       0       0
       0       0       0       0       0       0       0       0       0       0
       0       0       0       0       0       0       0       0       0       0
       0       0       0       0       0       0       0       0       0       0
       0       0       0       0       0       0       0       0       0       0
       0       0       0       0       0       0       0       0       0       0
       0       0       0       0       0       0       0       0       0       0
       0       0       0       0       0       0       0       0       0       0
       0       0       0       0       0       0       0       0       0       0
       0       0       0       0       0       0       0       0       0       0
       0       0       0       0       0       0       0       0       0       0
       0       0       0       0       0       0       0       0       0       0
       0       0       0       0       0       0       0       0       0       0
       0       0       0       0       0       0       0       0       0       0
       0       0       0       0       0       0       0       0       0       0
       0       0       0       0       0       0       0       0       0       0
       0       0       0       0       0       0       0       0       0       0
       0       0       0       0       0       0       0       0       0       0
       0       0       0       0       0       0       0       0       0       0
       0       0       0       0       0       0       0       0       0       0
       0       0       0       0       0       0       0       0       0       0
       0       0       0       0       0       0       0       0       0       0
       0       0       0       0       0       0       0       0       0       0
       0       0       0       0       0       0       0       0       0       0
       0       0       0       0       0       0       0       0       0       0
       0       0       0       0       0       0       0       0       0       0
       0       0       0       0       0       0       0       0       0       0
       0       0       0       0       0       0       0       0       0       0
       0       0       0       0       0       0       0       0       0       0
       0       0       0       0       0       0       0       0       0       0
       0       0       0       0       0       0       0       0       0       0
       0       0       0       0       0       0       0       0       0       0
       0       0       0       0       0       0       0       0       0       0
       0       0       0       0       0       0       0       0       0       0
       0       0       0       0       0       0       0       0       0       0
       0       0       0       0       0       0       0       0       0       0
       0       0       0       0       0       0       0       0       0       0
       0       0       0       0       0       0       0       0       0       0
       0       0       0       0       0       0       0       0       0       0
       0       0       0       0       0       0       0       0       0       0
       0       0       0       0       0       0       0       0       0       0
       0       0       0       0       0       0       0       0       0       0
       0       0       0       0       0       0       0       0       0       0
       0       0       0       0       0       0       0       0       0       0
       0       0       0       0       0       0       0       0       0       0
       0       0       0       0       0       0       0       0       0       0
       0       0       0       0       0       0       0       0       0       0
       0       0       0       0       0       0       0       0       0       0
       0       0       0       0       0       0       0       0       0       0
       0       0       0       0       0       0       0       0       0       0
       0       0       0       0       0       0       0       0       0       0
       0       0       0       0       0       0       0       0       0       0
       0       0       0       0       0       0       0       0       0       0
       0       0       0       0       0       0       0       0       0       0
       0       0       0       0       0       0       0       0       0       0
       0       0       0       0       0       0       0       0       0       0
       0       0       0       0       0       0       0       0       0       0
       0       0       0       0       0       0       0       0       0       0
       0       0       0       0       0       0       0       0       0       0
       0       0       0       0       0       0       0       0       0       0
       0       0       0       0       0       0       0       0       0       0
       0       0       0       0       0       0       0       0       0       0
       0       0       0       0       0       0       0       0       0       0
       0       0       0       0       0       0       0       0       0       0
       0       0       0       0       0       0       0       0       0       0
       0       0       0       0       0       0       0       0       0       0
       0       0       0       0       0       0       0       0       0       0
       0       0       0       0       0       0       0       0       0       0
       0       0       0       0       0       0       0       0       0       0
       0       0       0       0       0       0       0       0       0       0
       0       0       0       0       0       0       0       0       0       0
       0       0       0       0       0       0       0       0       0       0
       0       0       0       0       0       0       0       0       0       0
       0       0       0       0       0       0       0       0       0       0
       0       0       0       0       0       0       0       0       0       0
       0       0       0       0       0       0       0       0       0       0
       0       0       0       0       0       0       0       0       0       0
       0       0       0       0       0       0       0       0       0       0
       0       0       0       0       0       0       0       0       0       0
       0       0       0       0       0       0       0       0       0       0
       0       0       0       0       0       0       0       0       0       0
       0       0       0       0       0       0       0       0       0       0
       0       0       0       0       0       0       0       0       0       0
       0       0       0       0       0       0       0       0       0       0
       0       0       0       0       0       0       0       0       0       0
       0       0       0       0       0       0       0       0       0       0
       0       0       0       0       0       0       0       0       0       0
       0       0       0       0       0       0       0       0       0       0
       0       0       0       0       0       0       0       0       0       0
       0       0       0       0       0       0       0       0       0       0
       0       0       0       0       0       0       0       0       0       0
       0       0       0       0       0       0       0       0       0       0
       0       0       0       0       0       0       0       0       0       0
       0       0       0       0       0       0       0       0       0       0
       0       0       0       0       0       0       0       0       0       0
       0       0       0       0       0       0       0       0       0       0
       0       0       0       0       0       0       0       0       0       0
       0       0       0       0       0       0       0       0       0       0
       0       0       0       0       0       0       0       0       0       0
       0       0       0       0       0       0       0       0       0       0
       0       0       0       0       0       0       0       0       0       0
       0       0       0       0       0       0       0       0       0       0
       0       0       0       0       0       0       0       0       0       0
       0       0       0       0       0       0       0       0       0       0
       0       0       0       0       0       0       0       0       0       0
       0       0       0       0       0       0       0       0       0       0
       0       0       0       0       0       0       0       0       0       0
       0       0       0       0       0       0       0       0       0       0
       0       0       0       0       0       0       0       0       0       0
       0       0       0       0       0       0       0       0       0       0
       0       0       0       0       0       0       0       0       0       0
       0       0       0       0       0       0       0       0       0       0
       0       0       0       0       0       0       0       0       0       0
       0       0       0       0       0       0       0       0       0       0
       0       0       0       0       0       0       0       0       0       0
       0       0       0       0       0       0       0       0       0       0
       0       0       0       0       0       0       0       0       0       0
       0       0       0       0       0       0       0       0       0       0
       0       0       0       0       0       0       0       0       0       0
       0       0       0       0       0       0       0       0       0       0
       0       0       0       0       0       0       0       0       0       0
       0       0       0       0       0       0       0       0       0       0
       0       0       0       0       0       0       0       0       0       0
       0       0       0       0       0       0       0       0       0       0
       0       0       0       0       0       0       0       0       0       0
       0       0       0       0       0       0       0       0       0       0
       0       0       0       0       0       0       0       0       0       0
       0       0       0       0       0       0       0       0       0       0
       0       0       0       0       0       0       0       0       0       0
       0       0       0       0       0       0       0       0       0       0
       0       0       0       0       0       0       0       0       0       0
       0       0       0       0       0       0       0       0       0       0
       0       0       0       0       0       0       0       0       0       0
       0       0       0       0       0       0       0       0       0       0
       0       0       0       0       0       0       0       0       0       0
       0       0       0       0       0       0       0       0       0       0
       0       0       0       0       0       0       0       0       0       0
       0       0       0       0       0       0       0       0       0       0
       0       0       0       0       0       0       0       0       0       0
       0       0       0       0       0       0       0       0       0       0
       0       0       0       0       0       0       0       0       0       0
       0       0       0       0       0       0       0       0       0       0
       0       0       0       0       0       0       0       0       0       0
       0       0       0       0       0       0       0       0       0       0
       0       0       0       0       0       0       0       0       0       0
       0       0       0       0       0       0       0       0       0       0
       0       0       0       0       0       0       0       0       0       0
       0       0       0       0       0       0       0       0       0       0
       0       0       0       0       0       0       0       0       0       0
       0       0       0       0       0       0       0       0       0       0
       0       0       0       0       0       0       0       0       0       0
       0       0       0       0       0       0       0       0       0       0
       0       0       0       0       0       0       0       0       0       0
       0       0       0       0       0       0       0       0       0       0
       0       0       0       0       0       0       0       0       0       0
       0       0       0       0       0       0       0       0       0       0
       0       0       0       0       0       0       0       0       0       0
       0       0       0       0       0       0       0       0       0       0
       0       0       0       0       0       0       0       0       0       0
       0       0       0       0       0       0       0       0       0       0
       0       0       0       0       0       0       0       0       0       0
       0       0       0       0       0       0       0       0       0       0
       0       0       0       0       0       0       0       0       0       0
       0       0       0       0       0       0       0       0       0       0
       0       0       0       0       0       0       0       0       0       0
       0       0       0       0       0       0       0       0       0       0
       0       0       0       0       0       0       0       0       0       0
       0       0       0       0       0       0       0       0       0       0
       0       0       0       0       0       0       0       0       0       0
       0       0       0       0       0       0       0       0       0       0
       0       0       0       0       0       0       0       0       0       0
       0       0       0       0       0       0       0       0       0       0
       0       0       0       0       0       0       0       0       0       0
       0       0       0       0       0       0       0       0       0       0
       0       0       0       0       0       0       0       0       0       0
       0       0       0       0       0       0       0       0       0       0
       0       0       0       0       0       0       0       0       0       0
       0       0       0       0       0       0       0       0       0       0
       0       0       0       0       0       0       0       0       0       0
       0       0       0       0       0       0       0       0       0       0
       0       0       0       0       0       0       0       0       0       0
       0       0       0       0       0       0       0       0       0       0
       0       0       0       0       0       0       0       0       0       0
       0       0       0       0       0       0       0       0       0       0
       0       0       0       0       0       0       0       0       0       0
       0       0       0       0       0       0       0       0       0       0
       0       0       0       0       0       0       0       0       0       0
       0       0       0       0       0       0       0       0       0       0
       0       0       0       0       0       0       0       0       0       0
       0       0       0       0       0       0       0       0       0       0
       0       0       0       0       0       0       0       0       0       0
       0       0       0       0       0       0       0       0       0       0
       0       0       0       0       0       0       0       0       0       0
       0       0       0       0       0       0       0       0       0       0
       0       0       0       0       0       0       0       0       0       0
       0       0       0       0       0       0       0       0       0       0
       0       0       0       0       0       0       0       0       0       0
       0       0       0       0       0       0       0       0       0       0
       0       0       0       0       0       0       0       0       0       0
       0       0       0       0       0       0       0       0       0       0
       0       0       0       0       0       0       0       0       0       0
       0       0       0       0       0       0       0       0       0       0
       0       0       0       0       0       0       0       0       0       0
       0       0       0       0       0       0       0       0       0       0
       0       0       0       0       0       0       0       0       0       0
       0       0       0       0       0       0       0       0       0       0
       0       0       0       0       0       0       0       0       0       0
       0       0       0       0       0       0       0       0       0       0
       0       0       0       0       0       0       0       0       0       0
       0       0       0       0       0       0       0       0       0       0
       0       0       0       0       0       0       0       0       0       0
       0       0       0       0       0       0       0       0       0       0
       0       0       0       0       0       0       0       0       0       0
       0       0       0       0       0       0       0       0       0       0
       0       0       0       0       0       0       0       0       0       0
       0       0       0       0       0       0       0       0       0       0
       0       0       0       0       0       0       0       0       0       0
       0       0       0       0       0       0       0       0       0       0
       0       0       0       0       0       0       0       0       0       0
       0       0       0       0       0       0       0       0       0       0
       0       0       0       0       0       0       0       0       0       0
       0       0       0       0       0       0       0       0       0       0
       0       0       0       0       0       0       0       0       0       0
       0       0       0       0       0       0       0       0       0       0
       0       0       0       0       0       0       0       0       0       0
       0       0       0       0       0       0       0       0       0       0
       0       0       0       0       0       0       0       0       0       0
       0       0       0       0       0       0       0       0       0       0
       0       0       0       0       0       0       0       0       0       0
       0       0       0       0       0       0       0       0       0       0
       0       0       0       0       0       0       0       0       0       0
       0       0       0       0       0       0       0       0       0       0
       0       0       0       0       0       0       0       0       0       0
       0       0       0       0       0       0       0       0       0       0
       0       0       0       0       0       0       0       0       0       0
       0       0       0       0       0       0       0       0       0       0
       0       0       0       0       0       0       0       0       0       0
       0       0       0       0       0       0       0       0       0       0
       0       0       0       0       0       0       0       0       0       0
       0       0       0       0       0       0       0       0       0       0
       0       0       0       0       0       0       0       0       0       0
       0       0       0       0       0       0       0       0       0       0
       0       0       0       0       0       0       0       0       0       0
       0       0       0       0       0       0       0       0       0       0
       0       0       0       0       0       0       0       0       0       0
       0       0       0       0       0       0       0       0       0       0
       0       0       0       0       0       0       0       0       0       0
       0       0       0       0       0       0       0       0       0       0
       0       0       0       0       0       0       0       0       0       0
       0       0       0       0       0       0       0       0       0       0
       0       0       0       0       0       0       0       0       0       0
       0       0       0       0       0       0       0       0       0       0
       0       0       0       0       0       0       0       0       0       0
       0       0       0       0       0       0       0       0       0       0
       0       0       0       0       0       0       0       0       0       0
       0       0       0       0       0       0       0       0       0       0
       0       0       0       0       0       0       0       0       0       0
       0       0       0       0       0       0       0       0       0       0
       0       0       0       0       0       0       0       0       0       0
       0       0       0       0       0       0       0       0       0       0
       0       0       0       0       0       0       0       0       0       0
       0       0       0       0       0       0       0       0       0       0
       0       0       0       0       0       0       0       0       0       0
       0       0       0       0       0       0       0       0       0       0
       0       0       0       0       0       0       0       0       0       0
       0       0       0       0       0       0       0       0       0       0
       0       0       0       0       0       0       0       0       0       0
       0       0       0       0       0       0       0       0       0       0
       0       0       0       0       0       0       0       0       0       0
       0       0       0       0       0       0       0       0       0       0
       0       0       0       0       0       0       0       0       0       0
       0       0       0       0       0       0       0       0       0       0
       0       0       0       0       0       0       0       0       0       0
       0       0       0       0       0       0       0       0       0       0
       0       0       0       0       0       0       0       0       0       0
       0       0       0       0       0       0       0       0       0       0
       0       0       0       0       0       0       0       0       0       0
       0       0       0       0       0       0       0       0       0       0
       0       0       0       0       0       0       0       0       0       0
       0       0       0       0       0       0       0       0       0       0
       0       0       0       0       0       0       0       0       0       0
       0       0       0       0       0       0       0       0       0       0
       0       0       0       0       0       0       0       0       0       0
       0       0       0       0       0       0       0       0       0       0
       0       0       0       0       0       0       0       0       0       0
       0       0       0       0       0       0       0       0       0       0
       0       0       0       0       0       0       0       0       0       0
       0       0       0       0       0       0       0       0       0       0
       0       0       0       0       0       0       0       0       0       0
       0       0       0       0       0       0       0       0       0       0
       0       0       0       0       0       0       0       0       0       0
       0       0       0       0       0       0       0       0       0       0
       0       0       0       0       0       0       0       0       0       0
       0       0       0       0       0       0       0       0       0       0
       0       0       0       0       0       0       0       0       0       0
       0       0       0       0       0       0       0       0       0       0
       0       0       0       0       0       0       0       0       0       0
       0       0       0       0       0       0       0       0       0       0
       0       0       0       0       0       0       0       0       0       0
       0       0       0       0       0       0       0       0       0       0
       0       0       0       0       0       0       0       0       0       0
       0       0       0       0       0       0       0       0       0       0
       0       0       0       0       0       0       0       0       0       0
       0       0       0       0       0       0       0       0       0       0
       0       0       0       0       0       0       0       0       0       0
       0       0       0       0       0       0       0       0       0       0
       0       0       0       0       0       0       0       0       0       0
       0       0       0       0       0       0       0       0       0       0
       0       0       0       0       0       0       0       0       0       0
       0       0       0       0       0       0       0       0       0       0
       0       0       0       0       0       0       0       0       0       0
       0       0       0       0       0       0       0       0       0       0
       0       0       0       0       0       0       0       0       0       0
       0       0       0       0       0       0       0       0       0       0
       0       0       0       0       0       0       0       0       0       0
       0       0       0       0       0       0       0       0       0       0
       0       0       0       0       0       0       0       0       0       0
       0       0       0       0       0       0       0       0       0       0
       0       0       0       0       0       0       0       0       0       0
       0       0       0       0       0       0       0       0       0       0
       0       0       0       0       0       0       0       0       0       0
       0       0       0       0       0       0       0       0       0       0
       0       0       0       0       0       0       0       0       0       0
       0       0       0       0       0       0       0       0       0       0
       0       0       0       0       0       0       0       0       0       0
       0       0       0       0       0       0       0       0       0       0
       0       0       0       0       0       0       0       0       0       0
       0       0       0       0       0       0       0       0       0       0
       0       0       0       0       0       0       0       0       0       0
       0       0       0       0       0       0       0       0       0       0
       0       0       0       0       0       0       0       0       0       0
       0       0       0       0       0       0       0       0       0       0
       0       0       0       0       0       0       0       0       0       0
       0       0       0       0       0       0       0       0       0       0
       0       0       0       0       0       0       0       0       0       0
       0       0       0       0       0       0       0       0       0       0
       0       0       0       0       0       0       0       0       0       0
       0       0       0       0       0       0       0       0       0       0
       0       0       0       0       0       0       0       0       0       0
       0       0       0       0       0       0       0       0       0       0
       0       0       0       0       0       0       0       0       0       0
       0       0       0       0       0       0       0       0       0       0
       0       0       0       0       0       0       0       0       0       0
       0       0       0       0       0       0       0       0       0       0
       0       0       0       0       0       0       0       0       0       0
       0       0       0       0       0       0       0       0       0       0
       0       0       0       0       0       0       0       0       0       0
       0       0       0       0       0       0       0       0       0       0
       0       0       0       0       0       0       0       0       0       0
       0       0       0       0       0       0       0       0       0       0
       0       0       0       0       0       0       0       0       0       0
       0       0       0       0       0       0       0       0       0       0
       0       0       0       0       0       0       0       0       0       0
       0       0       0       0       0       0       0       0       0       0
       0       0       0       0       0       0       0       0       0       0
       0       0       0       0       0       0       0       0       0       0
       0       0       0       0       0       0       0       0       0       0
       0       0       0       0       0       0       0       0       0       0
       0       0       0       0       0       0       0       0       0       0
       0       0       0       0       0       0       0       0       0       0
       0       0       0       0       0       0       0       0       0       0
       0       0       0       0       0       0       0       0       0       0
       0       0       0       0       0       0       0       0       0       0
       0       0       0       0       0       0       0       0       0       0
       0       0       0       0       0       0       0       0       0       0
       0       0       0       0       0       0       0       0       0       0
       0       0       0       0       0       0       0       0       0       0
       0       0       0       0       0       0       0       0       0       0
       0       0       0       0       0       0       0       0       0       0
       0       0       0       0       0       0       0       0       0       0
       0       0       0       0       0       0       0       0       0       0
       0       0       0       0       0       0       0       0       0       0
       0       0       0       0       0       0       0       0       0       0
       0       0       0       0       0       0       0       0       0       0
       0       0       0       0       0       0       0       0       0       0
       0       0       0       0       0       0       0       0       0       0
       0       0       0       0       0       0       0       0       0       0
       0       0       0       0       0       0       0       0       0       0
       0       0       0       0       0       0       0       0       0       0
       0       0       0       0       0       0       0       0       0       0
       0       0       0       0       0       0       0       0       0       0
       0       0       0       0       0       0       0       0       0       0
       0       0       0       0       0       0       0       0       0       0
       0       0       0       0       0       0       0       0       0       0
       0       0       0       0       0       0       0       0       0       0
       0       0       0       0       0       0       0       0       0       0
       0       0       0       0       0       0       0       0       0       0
       0       0       0       0       0       0       0       0       0       0
       0       0       0       0       0       0       0       0       0       0
       0       0       0       0       0       0       0       0       0       0
       0       0       0       0       0       0       0       0       0       0
       0       0       0       0       0       0       0       0       0       0
       0       0       0       0       0       0       0       0       0       0
       0       0       0       0       0       0       0       0       0       0
       0       0       0       0       0       0       0       0       0       0
       0       0       0       0       0       0       0       0       0       0
       0       0       0       0       0       0       0       0       0       0
       0       0       0       0       0       0       0       0       0       0
       0       0       0       0       0       0       0       0       0       0
       0       0       0       0       0       0       0       0       0       0
       0       0       0       0       0       0       0       0       0       0
       0       0       0       0       0       0       0       0       0       0
       0       0       0       0       0       0       0       0       0       0
       0       0       0       0       0       0       0       0       0       0
       0       0       0       0       0       0       0       0       0       0
       0       0       0       0       0       0       0       0       0       0
       0       0       0       0       0       0       0       0       0       0
       0       0       0       0       0       0       0       0       0       0
       0       0       0       0       0       0       0       0       0       0
       0       0       0       0       0       0       0       0       0       0
       0       0       0       0       0       0       0       0       0       0
       0       0       0       0       0       0       0       0       0       0
       0       0       0       0       0       0       0       0       0       0
       0       0       0       0       0       0       0       0       0       0
       0       0       0       0       0       0       0       0       0       0
       0       0       0       0       0       0       0       0       0       0
       0       0       0       0       0       0       0       0       0       0
       0       0       0       0       0       0       0       0       0       0
       0       0       0       0       0       0       0       0       0       0
       0       0       0       0       0       0       0       0       0       0
       0       0       0       0       0       0       0       0       0       0
       0       0       0       0       0       0       0       0       0       0
       0       0       0       0       0       0       0       0       0       0
       0       0       0       0       0       0       0       0       0       0
       0       0       0       0       0       0       0       0       0       0
       0       0       0       0       0       0       0       0       0       0
       0       0       0       0       0       0       0       0       0       0
       0       0       0       0       0       0       0       0       0       0
       0       0       0       0       0       0       0       0       0       0
       0       0       0       0       0       0       0       0       0       0
       0       0       0       0       0       0       0       0       0       0
       0       0       0       0       0       0       0       0       0       0
       0       0       0       0       0       0       0       0       0       0
       0       0       0       0       0       0       0       0       0       0
       0       0       0       0       0       0       0       0       0       0
       0       0       0       0       0       0       0       0       0       0
       0       0       0       0       0       0       0       0       0       0
       0       0       0       0       0       0       0       0       0       0
       0       0       0       0       0       0       0       0       0       0
       0       0       0       0       0       0       0       0       0       0
       0       0       0       0       0       0       0       0       0       0
       0       0       0       0       0       0       0       0       0       0
       0       0       0       0       0       0       0       0       0       0
       0       0       0       0       0       0       0       0       0       0
       0       0       0       0       0       0       0       0       0       0
       0       0       0       0       0       0       0       0       0       0
       0       0       0       0       0       0       0       0       0       0
       0       0       0       0       0       0       0       0       0       0
       0       0       0       0       0       0       0       0       0       0
       0       0       0       0       0       0       0       0       0       0
       0       0       0       0       0       0       0       0       0       0
       0       0       0       0       0       0       0       0       0       0
       0       0       0       0       0       0       0       0       0       0
       0       0       0       0       0       0       0       0       0       0
       0       0       0       0       0       0       0       0       0       0
       0       0       0       0       0       0       0       0       0       0
       0       0       0       0       0       0       0       0       0       0
       0       0       0       0       0       0       0       0       0       0
       0       0       0       0       0       0       0       0       0       0
       0       0       0       0       0       0       0       0       0       0
       0       0       0       0       0       0       0       0       0       0
       0       0       0       0       0       0       0       0       0       0
       0       0       0       0       0       0       0       0       0       0
       0       0       0       0       0       0       0       0       0       0
       0       0       0       0       0       0       0       0       0       0
       0       0       0       0       0       0       0       0       0       0
       0       0       0       0       0       0       0       0       0       0
       0       0       0       0       0       0       0       0       0       0
       0       0       0       0       0       0       0       0       0       0
       0       0       0       0       0       0       0       0       0       0
       0       0       0       0       0       0       0       0       0       0
       0       0       0       0       0       0       0       0       0       0
       0       0       0       0       0       0       0       0       0       0
       0       0       0       0       0       0       0       0       0       0
       0       0       0       0       0       0       0       0       0       0
       0       0       0       0       0       0       0       0       0       0
       0       0       0       0       0       0       0       0       0       0
       0       0       0       0       0       0       0       0       0       0
       0       0       0       0       0       0       0       0       0       0
       0       0       0       0       0       0       0       0       0       0
       0       0       0       0       0       0       0       0       0       0
       0       0       0       0       0       0       0       0       0       0
       0       0       0       0       0       0       0       0       0       0
       0       0       0       0       0       0       0       0       0       0
       0       0       0       0       0       0       0       0       0       0
       0       0       0       0       0       0       0       0       0       0
       0       0       0       0       0       0       0       0       0       0
       0       0       0       0       0       0       0       0       0       0
       0       0       0       0       0       0       0       0       0       0
       0       0       0       0       0       0       0       0       0       0
       0       0       0       0       0       0       0       0       0       0
       0       0       0       0       0       0       0       0       0       0
       0       0       0       0       0       0       0       0       0       0
       0       0       0       0       0       0       0       0       0       0
       0       0       0       0       0       0       0       0       0       0
       0       0       0       0       0       0       0       0       0       0
       0       0       0       0       0       0       0       0       0       0
       0       0       0       0       0       0       0       0       0       0
       0       0       0       0       0       0       0       0       0       0
       0       0       0       0       0       0       0       0       0       0
       0       0       0       0       0       0       0       0       0       0
       0       0       0       0       0       0       0       0       0       0
       0       0       0       0       0       0       0       0       0       0
       0       0       0       0       0       0       0       0       0       0
       0       0       0       0       0       0       0       0       0       0
       0       0       0       0       0       0       0       0       0       0
       0       0       0       0       0       0       0       0       0       0
       0       0       0       0       0       0       0       0       0       0
       0       0       0       0       0       0       0       0       0       0
       0       0       0       0       0       0       0       0       0       0
       0       0       0       0       0       0       0       0       0       0
       0       0       0       0       0       0       0       0       0       0
       0       0       0       0       0       0       0       0       0       0
       0       0       0       0       0       0       0       0       0       0
       0       0       0       0       0       0       0       0       0       0
       0       0       0       0       0       0       0       0       0       0
       0       0       0       0       0       0       0       0       0       0
       0       0       0       0       0       0       0       0       0       0
       0       0       0       0       0       0       0       0       0       0
       0       0       0       0       0       0       0       0       0       0
       0       0       0       0       0       0       0       0       0       0
       0       0       0       0       0       0       0       0       0       0
       0       0       0       0       0       0       0       0       0       0
       0       0       0       0       0       0       0       0       0       0
       0       0       0       0       0       0       0       0       0       0
       0       0       0       0       0       0       0       0       0       0
       0       0       0       0       0       0       0       0       0       0
       0       0       0       0       0       0       0       0       0       0
       0       0       0       0       0       0       0       0       0       0
       0       0       0       0       0       0       0       0       0       0
       0       0       0       0       0       0       0       0       0       0
       0       0       0       0       0       0       0       0       0       0
       0       0       0       0       0       0       0       0       0       0
       0       0       0       0       0       0       0       0       0       0
       0       0       0       0       0       0       0       0       0       0
       0       0       0       0       0       0       0       0       0       0
       0       0       0       0       0       0       0       0       0       0
       0       0       0       0       0       0       0       0       0       0
       0       0       0       0       0       0       0       0       0       0
       0       0       0       0       0       0       0       0       0       0
       0       0       0       0       0       0       0       0       0       0
       0       0       0       0       0       0       0       0       0       0
       0       0       0       0       0       0       0       0       0       0
       0       0       0       0       0       0       0       0       0       0
       0       0       0       0       0       0       0       0       0       0
       0       0       0       0       0       0       0       0       0       0
       0       0       0       0       0       0       0       0       0       0
       0       0       0       0       0       0       0       0       0       0
       0       0       0       0       0       0       0       0       0       0
       0       0       0       0       0       0       0       0       0       0
       0       0       0       0       0       0       0       0       0       0
       0       0       0       0       0       0       0       0       0       0
       0       0       0       0       0       0       0       0       0       0
       0       0       0       0       0       0       0       0       0       0
       0       0       0       0       0       0       0       0       0       0
       0       0       0       0       0       0       0       0       0       0
       0       0       0       0       0       0       0       0       0       0
       0       0       0       0       0       0       0       0       0       0
       0       0       0       0       0       0       0       0       0       0
       0       0       0       0       0       0       0       0       0       0
       0       0       0       0       0       0       0       0       0       0
       0       0       0       0       0       0       0       0       0       0
       0       0       0       0       0       0       0       0       0       0
       0       0       0       0       0       0       0       0       0       0
       0       0       0       0       0       0       0       0       0       0
       0       0       0       0       0       0       0       0       0       0
       0       0       0       0       0       0       0       0       0       0
       0       0       0       0       0       0       0       0       0       0
       0       0       0       0       0       0       0       0       0       0
       0       0       0       0       0       0       0       0       0       0
       0       0       0       0       0       0       0       0       0       0
       0       0       0       0       0       0       0       0       0       0
       0       0       0       0       0       0       0       0       0       0
       0       0       0       0       0       0       0       0       0       0
       0       0       0       0       0       0       0       0       0       0
       0       0       0       0       0       0       0       0       0       0
       0       0       0       0       0       0       0       0       0       0
       0       0       0       0       0       0       0       0       0       0
       0       0       0       0       0       0       0       0       0       0
       0       0       0       0       0       0       0       0       0       0
       0       0       0       0       0       0       0       0       0       0
       0       0       0       0       0       0       0       0       0       0
       0       0       0       0       0       0       0       0       0       0
       0       0       0       0       0       0       0       0       0       0
       0       0       0       0       0       0       0       0       0       0
       0       0       0       0       0       0       0       0       0       0
       0       0       0       0       0       0       0       0       0       0
       0       0       0       0       0       0       0       0       0       0
       0       0       0       0       0       0       0       0       0       0
       0       0       0       0       0       0       0       0       0       0
       0       0       0       0       0       0       0       0       0       0
       0       0       0       0       0       0       0       0       0       0
       0       0       0       0       0       0       0       0       0       0
       0       0       0       0       0       0       0       0       0       0
       0       0       0       0       0       0       0       0       0       0
       0       0       0       0       0       0       0       0       0       0
       0       0       0       0       0       0       0       0       0       0
       0       0       0       0       0       0       0       0       0       0
       0       0       0       0       0       0       0       0       0       0
       0       0       0       0       0       0       0       0       0       0
       0       0       0       0       0       0       0       0       0       0
       0       0       0       0       0       0       0       0       0       0
       0       0       0       0       0       0       0       0       0       0
       0       0       0       0       0       0       0       0       0       0
       0       0       0       0       0       0       0       0       0       0
       0       0       0       0       0       0       0       0       0       0
       0       0       0       0       0       0       0       0       0       0
       0       0       0       0       0       0       0       0       0       0
       0       0       0       0       0       0       0       0       0       0
       0       0       0       0       0       0       0       0       0       0
       0       0       0       0       0       0       0       0       0       0
       0       0       0       0       0       0       0       0       0       0
       0       0       0       0       0       0       0       0       0       0
       0       0       0       0       0       0       0       0       0       0
       0       0       0       0       0       0       0       0       0       0
       0       0       0       0       0       0       0       0       0       0
       0       0       0       0       0       0       0       0       0       0
       0       0       0       0       0       0       0       0       0       0
       0       0       0       0       0       0       0       0       0       0
       0       0       0       0       0       0       0       0       0       0
       0       0       0       0       0       0       0       0       0       0
       0       0       0       0       0       0       0       0       0       0
       0       0       0       0       0       0       0       0       0       0
       0       0       0       0       0       0       0       0       0       0
       0       0       0       0       0       0       0       0       0       0
       0       0       0       0       0       0       0       0       0       0
       0       0       0       0       0       0       0       0       0       0
       0       0       0       0       0       0       0       0       0       0
       0       0       0       0       0       0       0       0       0       0
       0       0       0       0       0       0       0       0       0       0
       0       0       0       0       0       0       0       0       0       0
       0       0       0       0       0       0       0       0       0       0
       0       0       0       0       0       0       0       0       0       0
       0       0       0       0       0       0       0       0       0       0
       0       0       0       0       0       0       0       0       0       0
       0       0       0       0       0       0       0       0       0       0
       0       0       0       0       0       0       0       0       0       0
       0       0       0       0       0       0       0       0       0       0
       0       0       0       0       0       0       0       0       0       0
       0       0       0       0       0       0       0       0       0       0
       0       0       0       0       0       0       0       0       0       0
       0       0       0       0       0       0       0       0       0       0
       0       0       0       0       0       0       0       0       0       0
       0       0       0       0       0       0       0       0       0       0
       0       0       0       0       0       0       0       0       0       0
       0       0       0       0       0       0       0       0       0       0
       0       0       0       0       0       0       0       0       0       0
       0       0       0       0       0       0       0       0       0       0
       0       0       0       0       0       0       0       0       0       0
       0       0       0       0       0       0       0       0       0       0
       0       0       0       0       0       0       0       0       0       0
       0       0       0       0       0       0       0       0       0       0
       0       0       0       0       0       0       0       0       0       0
       0       0       0       0       0       0       0       0       0       0
       0       0       0       0       0       0       0       0       0       0
       0       0       0       0       0       0       0       0       0       0
       0       0       0       0       0       0       0       0       0       0
       0       0       0       0       0       0       0       0       0       0
       0       0       0       0       0       0       0       0       0       0
       0       0       0       0       0       0       0       0       0       0
       0       0       0       0       0       0       0       0       0       0
       0       0       0       0       0       0       0       0       0       0
       0       0       0       0       0       0       0       0       0       0
       0       0       0       0       0       0       0       0       0       0
       0       0       0       0       0       0       0       0       0       0
       0       0       0       0       0       0       0       0       0       0
       0       0       0       0       0       0       0       0       0       0
       0       0       0       0       0       0       0       0       0       0
       0       0       0       0       0       0       0       0       0       0
       0       0       0       0       0       0       0       0       0       0
       0       0       0       0       0       0       0       0       0       0
       0       0       0       0       0       0       0       0       0       0
       0       0       0       0       0       0       0       0       0       0
       0       0       0       0       0       0       0       0       0       0
       0       0       0       0       0       0       0       0       0       0
       0       0       0       0       0       0       0       0       0       0
       0       0       0       0       0       0       0       0       0       0
       0       0       0       0       0       0       0       0       0       0
       0       0       0       0       0       0       0       0       0       0
       0       0       0       0       0       0       0       0       0       0
       0       0       0       0       0       0       0       0       0       0
       0       0       0       0       0       0       0       0       0       0
       0       0       0       0       0       0       0       0       0       0
       0       0       0       0       0       0       0       0       0       0
       0       0       0       0       0       0       0       0       0       0
       0       0       0       0       0       0       0       0       0       0
       0       0       0       0       0       0       0       0       0       0
       0       0       0       0       0       0       0       0       0       0
       0       0       0       0       0       0       0       0       0       0
       0       0       0       0       0       0       0       0       0       0
       0       0       0       0       0       0       0       0       0       0
       0       0       0       0       0       0       0       0       0       0
       0       0       0       0       0       0       0       0       0       0
       0       0       0       0       0       0       0       0       0       0
       0       0       0       0       0       0       0       0       0       0
       0       0       0       0       0       0       0       0       0       0
       0       0       0       0       0       0       0       0       0       0
       0       0       0       0       0       0       0       0       0       0
       0       0       0       0       0       0       0       0       0       0
       0       0       0       0       0       0       0       0       0       0
       0       0       0       0       0       0       0       0       0       0
       0       0       0       0       0       0       0       0       0       0
       0       0       0       0       0       0       0       0       0       0
       0       0       0       0       0       0       0       0       0       0
       0       0       0       0       0       0       0       0       0       0
       0       0       0       0       0       0       0       0       0       0
       0       0       0       0       0       0       0       0       0       0
       0       0       0       0       0       0       0       0       0       0
       0       0       0       0       0       0       0       0       0       0
       0       0       0       0       0       0       0       0       0       0
       0       0       0       0       0       0       0       0       0       0
       0       0       0       0       0       0       0       0       0       0
       0       0       0       0       0       0       0       0       0       0
       0       0       0       0       0       0       0       0       0       0
       0       0       0       0       0       0       0       0       0       0
       0       0       0       0       0       0       0       0       0       0
       0       0       0       0       0       0       0       0       0       0
       0       0       0       0       0       0       0       0       0       0
       0       0       0       0       0       0       0       0       0       0
       0       0       0       0       0       0       0       0       0       0
       0       0       0       0       0       0       0       0       0       0
       0       0       0       0       0       0       0       0       0       0
       0       0       0       0       0       0       0       0       0       0
       0       0       0       0       0       0       0       0       0       0
       0       0       0       0       0       0       0       0       0       0
       0       0       0       0       0       0       0       0       0       0
       0       0       0       0       0       0       0       0       0       0
       0       0       0       0       0       0       0       0       0       0
       0       0       0       0       0       0       0       0       0       0
       0       0       0       0       0       0       0       0       0       0
       0       0       0       0
%FLAG IROTAT                                                                    
%FORMAT(10I8)                                                                   
       0       0       0       0       0       0       0       0       0       0
       0       0       0       0       0       0       0       0       0       0
       0       0       0       0       0       0       0       0       0       0
       0       0       0       0       0       0       0       0       0       0
       0       0       0       0       0       0       0       0       0       0
       0       0       0       0       0       0       0       0       0       0
       0       0       0       0       0       0       0       0       0       0
       0       0       0       0       0       0       0       0       0       0
       0       0       0       0       0       0       0       0       0       0
       0       0       0       0       0       0       0       0       0       0
       0       0       0       0       0       0       0       0       0       0
       0       0       0       0       0       0       0       0       0       0
       0       0       0       0       0       0       0       0       0       0
       0       0       0       0       0       0       0       0       0       0
       0       0       0       0       0       0       0       0       0       0
       0       0       0       0       0       0       0       0       0       0
       0       0       0       0       0       0       0       0       0       0
       0       0       0       0       0       0       0       0       0       0
       0       0       0       0       0       0       0       0       0       0
       0       0       0       0       0       0       0       0       0       0
       0       0       0       0       0       0       0       0       0       0
       0       0       0       0       0       0       0       0       0       0
       0       0       0       0       0       0       0       0       0       0
       0       0       0       0       0       0       0       0       0       0
       0       0       0       0       0       0       0       0       0       0
       0       0       0       0       0       0       0       0       0       0
       0       0       0       0       0       0       0       0       0       0
       0       0       0       0       0       0       0       0       0       0
       0       0       0       0       0       0       0       0       0       0
       0       0       0       0       0       0       0       0       0       0
       0       0       0       0       0       0       0       0       0       0
       0       0       0       0       0       0       0       0       0       0
       0       0       0       0       0       0       0       0       0       0
       0       0       0       0       0       0       0       0       0       0
       0       0       0       0       0       0       0       0       0       0
       0       0       0       0       0       0       0       0       0       0
       0       0       0       0       0       0       0       0       0       0
       0       0       0       0       0       0       0       0       0       0
       0       0       0       0       0       0       0       0       0       0
       0       0       0       0       0       0       0       0       0       0
       0       0       0       0       0       0       0       0       0       0
       0       0       0       0       0       0       0       0       0       0
       0       0       0       0       0       0       0       0       0       0
       0       0       0       0       0       0       0       0       0       0
       0       0       0       0       0       0       0       0       0       0
       0       0       0       0       0       0       0       0       0       0
       0       0       0       0       0       0       0       0       0       0
       0       0       0       0       0       0       0       0       0       0
       0       0       0       0       0       0       0       0       0       0
       0       0       0       0       0       0       0       0       0       0
       0       0       0       0       0       0       0       0       0       0
       0       0       0       0       0       0       0       0       0       0
       0       0       0       0       0       0       0       0       0       0
       0       0       0       0       0       0       0       0       0       0
       0       0       0       0       0       0       0       0       0       0
       0       0       0       0       0       0       0       0       0       0
       0       0       0       0       0       0       0       0       0       0
       0       0       0       0       0       0       0       0       0       0
       0       0       0       0       0       0       0       0       0       0
       0       0       0       0       0       0       0       0       0       0
       0       0       0       0       0       0       0       0       0       0
       0       0       0       0       0       0       0       0       0       0
       0       0       0       0       0       0       0       0       0       0
       0       0       0       0       0       0       0       0       0       0
       0       0       0       0       0       0       0       0       0       0
       0       0       0       0       0       0       0       0       0       0
       0       0       0       0       0       0       0       0       0       0
       0       0       0       0       0       0       0       0       0       0
       0       0       0       0       0       0       0       0       0       0
       0       0       0       0       0       0       0       0       0       0
       0       0       0       0       0       0       0       0       0       0
       0       0       0       0       0       0       0       0       0       0
       0       0       0       0       0       0       0       0       0       0
       0       0       0       0       0       0       0       0       0       0
       0       0       0       0       0       0       0       0       0       0
       0       0       0       0       0       0       0       0       0       0
       0       0       0       0       0       0       0       0       0       0
       0       0       0       0       0       0       0       0       0       0
       0       0       0       0       0       0       0       0       0       0
       0       0       0       0       0       0       0       0       0       0
       0       0       0       0       0       0       0       0       0       0
       0       0       0       0       0       0       0       0       0       0
       0       0       0       0       0       0       0       0       0       0
       0       0       0       0       0       0       0       0       0       0
       0       0       0       0       0       0       0       0       0       0
       0       0       0       0       0       0       0       0       0       0
       0       0       0       0       0       0       0       0       0       0
       0       0       0       0       0       0       0       0       0       0
       0       0       0       0       0       0       0       0       0       0
       0       0       0       0       0       0       0       0       0       0
       0       0       0       0       0       0       0       0       0       0
       0       0       0       0       0       0       0       0       0       0
       0       0       0       0       0       0       0       0       0       0
       0       0       0       0       0       0       0       0       0       0
       0       0       0       0       0       0       0       0       0       0
       0       0       0       0       0       0       0       0       0       0
       0       0       0       0       0       0       0       0       0       0
       0       0       0       0       0       0       0       0       0       0
       0       0       0       0       0       0       0       0       0       0
       0       0       0       0       0       0       0       0       0       0
       0       0       0       0       0       0       0       0       0       0
       0       0       0       0       0       0       0       0       0       0
       0       0       0       0       0       0       0       0       0       0
       0       0       0       0       0       0       0       0       0       0
       0       0       0       0       0       0       0       0       0       0
       0       0       0       0       0       0       0       0       0       0
       0       0       0       0       0       0       0       0       0       0
       0       0       0       0       0       0       0       0       0       0
       0       0       0       0       0       0       0       0       0       0
       0       0       0       0       0       0       0       0       0       0
       0       0       0       0       0       0       0       0       0       0
       0       0       0       0       0       0       0       0       0       0
       0       0       0       0       0       0       0       0       0       0
       0       0       0       0       0       0       0       0       0       0
       0       0       0       0       0       0       0       0       0       0
       0       0       0       0       0       0       0       0       0       0
       0       0       0       0       0       0       0       0       0       0
       0       0       0       0       0       0       0       0       0       0
       0       0       0       0       0       0       0       0       0       0
       0       0       0       0       0       0       0       0       0       0
       0       0       0       0       0       0       0       0       0       0
       0       0       0       0       0       0       0       0       0       0
       0       0       0       0       0       0       0       0       0       0
       0       0       0       0       0       0       0       0       0       0
       0       0       0       0       0       0       0       0       0       0
       0       0       0       0       0       0       0       0       0       0
       0       0       0       0       0       0       0       0       0       0
       0       0       0       0       0       0       0       0       0       0
       0       0       0       0       0       0       0       0       0       0
       0       0       0       0       0       0       0       0       0       0
       0       0       0       0       0       0       0       0       0       0
       0       0       0       0       0       0       0       0       0       0
       0       0       0       0       0       0       0       0       0       0
       0       0       0       0       0       0       0       0       0       0
       0       0       0       0       0       0       0       0       0       0
       0       0       0       0       0       0       0       0       0       0
       0       0       0       0       0       0       0       0       0       0
       0       0       0       0       0       0       0       0       0       0
       0       0       0       0       0       0       0       0       0       0
       0       0       0       0       0       0       0       0       0       0
       0       0       0       0       0       0       0       0       0       0
       0       0       0       0       0       0       0       0       0       0
       0       0       0       0       0       0       0       0       0       0
       0       0       0       0       0       0       0       0       0       0
       0       0       0       0       0       0       0       0       0       0
       0       0       0       0       0       0       0       0       0       0
       0       0       0       0       0       0       0       0       0       0
       0       0       0       0       0       0       0       0       0       0
       0       0       0       0       0       0       0       0       0       0
       0       0       0       0       0       0       0       0       0       0
       0       0       0       0       0       0       0       0       0       0
       0       0       0       0       0       0       0       0       0       0
       0       0       0       0       0       0       0       0       0       0
       0       0       0       0       0       0       0       0       0       0
       0       0       0       0       0       0       0       0       0       0
       0       0       0       0       0       0       0       0       0       0
       0       0       0       0       0       0       0       0       0       0
       0       0       0       0       0       0       0       0       0       0
       0       0       0       0       0       0       0       0       0       0
       0       0       0       0       0       0       0       0       0       0
       0       0       0       0       0       0       0       0       0       0
       0       0       0       0       0       0       0       0       0       0
       0       0       0       0       0       0       0       0       0       0
       0       0       0       0       0       0       0       0       0       0
       0       0       0       0       0       0       0       0       0       0
       0       0       0       0       0       0       0       0       0       0
       0       0       0       0       0       0       0       0       0       0
       0       0       0       0       0       0       0       0       0       0
       0       0       0       0       0       0       0       0       0       0
       0       0       0       0       0       0       0       0       0       0
       0       0       0       0       0       0       0       0       0       0
       0       0       0       0       0       0       0       0       0       0
       0       0       0       0       0       0       0       0       0       0
       0       0       0       0       0       0       0       0       0       0
       0       0       0       0       0       0       0       0       0       0
       0       0       0       0       0       0       0       0       0       0
       0       0       0       0       0       0       0       0       0       0
       0       0       0       0       0       0       0       0       0       0
       0       0       0       0       0       0       0       0       0       0
       0       0       0       0       0       0       0       0       0       0
       0       0       0       0       0       0       0       0       0       0
       0       0       0       0       0       0       0       0       0       0
       0       0       0       0       0       0       0       0       0       0
       0       0       0       0       0       0       0       0       0       0
       0       0       0       0       0       0       0       0       0       0
       0       0       0       0       0       0       0       0       0       0
       0       0       0       0       0       0       0       0       0       0
       0       0       0       0       0       0       0       0       0       0
       0       0       0       0       0       0       0       0       0       0
       0       0       0       0       0       0       0       0       0       0
       0       0       0       0       0       0       0       0       0       0
       0       0       0       0       0       0       0       0       0       0
       0       0       0       0       0       0       0       0       0       0
       0       0       0       0       0       0       0       0       0       0
       0       0       0       0       0       0       0       0       0       0
       0       0       0       0       0       0       0       0       0       0
       0       0       0       0       0       0       0       0       0       0
       0       0       0       0       0       0       0       0       0       0
       0       0       0       0       0       0       0       0       0       0
       0       0       0       0       0       0       0       0       0       0
       0       0       0       0       0       0       0       0       0       0
       0       0       0       0       0       0       0       0       0       0
       0       0       0       0       0       0       0       0       0       0
       0       0       0       0       0       0       0       0       0       0
       0       0       0       0       0       0       0       0       0       0
       0       0       0       0       0       0       0       0       0       0
       0       0       0       0       0       0       0       0       0       0
       0       0       0       0       0       0       0       0       0       0
       0       0       0       0       0       0       0       0       0       0
       0       0       0       0       0       0       0       0       0       0
       0       0       0       0       0       0       0       0       0       0
       0       0       0       0       0       0       0       0       0       0
       0       0       0       0       0       0       0       0       0       0
       0       0       0       0       0       0       0       0       0       0
       0       0       0       0       0       0       0       0       0       0
       0       0       0       0       0       0       0       0       0       0
       0       0       0       0       0       0       0       0       0       0
       0       0       0       0       0       0       0       0       0       0
       0       0       0       0       0       0       0       0       0       0
       0       0       0       0       0       0       0       0       0       0
       0       0       0       0       0       0       0       0       0       0
       0       0       0       0       0       0       0       0       0       0
       0       0       0       0       0       0       0       0       0       0
       0       0       0       0       0       0       0       0       0       0
       0       0       0       0       0       0       0       0       0       0
       0       0       0       0       0       0       0       0       0       0
       0       0       0       0       0       0       0       0       0       0
       0       0       0       0       0       0       0       0       0       0
       0       0       0       0       0       0       0       0       0       0
       0       0       0       0       0       0       0       0       0       0
       0       0       0       0       0       0       0       0       0       0
       0       0       0       0       0       0       0       0       0       0
       0       0       0       0       0       0       0       0       0       0
       0       0       0       0       0       0       0       0       0       0
       0       0       0       0       0       0       0       0       0       0
       0       0       0       0       0       0       0       0       0       0
       0       0       0       0       0       0       0       0       0       0
       0       0       0       0       0       0       0       0       0       0
       0       0       0       0       0       0       0       0       0       0
       0       0       0       0       0       0       0       0       0       0
       0       0       0       0       0       0       0       0       0       0
       0       0       0       0       0       0       0       0       0       0
       0       0       0       0       0       0       0       0       0       0
       0       0       0       0       0       0       0       0       0       0
       0       0       0       0       0       0       0       0       0       0
       0       0       0       0       0       0       0       0       0       0
       0       0       0       0       0       0       0       0       0       0
       0       0       0       0       0       0       0       0       0       0
       0       0       0       0       0       0       0       0       0       0
       0       0       0       0       0       0       0       0       0       0
       0       0       0       0       0       0       0       0       0       0
       0       0       0       0       0       0       0       0       0       0
       0       0       0       0       0       0       0       0       0       0
       0       0       0       0       0       0       0       0       0       0
       0       0       0       0       0       0       0       0       0       0
       0       0       0       0       0       0       0       0       0       0
       0       0       0       0       0       0       0       0       0       0
       0       0       0       0       0       0       0       0       0       0
       0       0       0       0       0       0       0       0       0       0
       0       0       0       0       0       0       0       0       0       0
       0       0       0       0       0       0       0       0       0       0
       0       0       0       0       0       0       0       0       0       0
       0       0       0       0       0       0       0       0       0       0
       0       0       0       0       0       0       0       0       0       0
       0       0       0       0       0       0       0       0       0       0
       0       0       0       0       0       0       0       0       0       0
       0       0       0       0       0       0       0       0       0       0
       0       0       0       0       0       0       0       0       0       0
       0       0       0       0       0       0       0       0       0       0
       0       0       0       0       0       0       0       0       0       0
       0       0       0       0       0       0       0       0       0       0
       0       0       0       0       0       0       0       0       0       0
       0       0       0       0       0       0       0       0       0       0
       0       0       0       0       0       0       0       0       0       0
       0       0       0       0       0       0       0       0       0       0
       0       0       0       0       0       0       0       0       0       0
       0       0       0       0       0       0       0       0       0       0
       0       0       0       0       0       0       0       0       0       0
       0       0       0       0       0       0       0       0       0       0
       0       0       0       0       0       0       0       0       0       0
       0       0       0       0       0       0       0       0       0       0
       0       0       0       0       0       0       0       0       0       0
       0       0       0       0       0       0       0       0       0       0
       0       0       0       0       0       0       0       0       0       0
       0       0       0       0       0       0       0       0       0       0
       0       0       0       0       0       0       0       0       0       0
       0       0       0       0       0       0       0       0       0       0
       0       0       0       0       0       0       0       0       0       0
       0       0       0       0       0       0       0       0       0       0
       0       0       0       0       0       0       0       0       0       0
       0       0       0       0       0       0       0       0       0       0
       0       0       0       0       0       0       0       0       0       0
       0       0       0       0       0       0       0       0       0       0
       0       0       0       0       0       0       0       0       0       0
       0       0       0       0       0       0       0       0       0       0
       0       0       0       0       0       0       0       0       0       0
       0       0       0       0       0       0       0       0       0       0
       0       0       0       0       0       0       0       0       0       0
       0       0       0       0       0       0       0       0       0       0
       0       0       0       0       0       0       0       0       0       0
       0       0       0       0       0       0       0       0       0       0
       0       0       0       0       0       0       0       0       0       0
       0       0       0       0       0       0       0       0       0       0
       0       0       0       0       0       0       0       0       0       0
       0       0       0       0       0       0       0       0       0       0
       0       0       0       0       0       0       0       0       0       0
       0       0       0       0       0       0       0       0       0       0
       0       0       0       0       0       0       0       0       0       0
       0       0       0       0       0       0       0       0       0       0
       0       0       0       0       0       0       0       0       0       0
       0       0       0       0       0       0       0       0       0       0
       0       0       0       0       0       0       0       0       0       0
       0       0       0       0       0       0       0       0       0       0
       0       0       0       0       0       0       0       0       0       0
       0       0       0       0       0       0       0       0       0       0
       0       0       0       0       0       0       0       0       0       0
       0       0       0       0       0       0       0       0       0       0
       0       0       0       0       0       0       0       0       0       0
       0       0       0       0       0       0       0       0       0       0
       0       0       0       0       0       0       0       0       0       0
       0       0       0       0       0       0       0       0       0       0
       0       0       0       0       0       0       0       0       0       0
       0       0       0       0       0       0       0       0       0       0
       0       0       0       0       0       0       0       0       0       0
       0       0       0       0       0       0       0       0       0       0
       0       0       0       0       0       0       0       0       0       0
       0       0       0       0       0       0       0       0       0       0
       0       0       0       0       0       0       0       0       0       0
       0       0       0       0       0       0       0       0       0       0
       0       0       0       0       0       0       0       0       0       0
       0       0       0       0       0       0       0       0       0       0
       0       0       0       0       0       0       0       0       0       0
       0       0       0       0       0       0       0       0       0       0
       0       0       0       0       0       0       0       0       0       0
       0       0       0       0       0       0       0       0       0       0
       0       0       0       0       0       0       0       0       0       0
       0       0       0       0       0       0       0       0       0       0
       0       0       0       0       0       0       0       0       0       0
       0       0       0       0       0       0       0       0       0       0
       0       0       0       0       0       0       0       0       0       0
       0       0       0       0       0       0       0       0       0       0
       0       0       0       0       0       0       0       0       0       0
       0       0       0       0       0       0       0       0       0       0
       0       0       0       0       0       0       0       0       0       0
       0       0       0       0       0       0       0       0       0       0
       0       0       0       0       0       0       0       0       0       0
       0       0       0       0       0       0       0       0       0       0
       0       0       0       0       0       0       0       0       0       0
       0       0       0       0       0       0       0       0       0       0
       0       0       0       0       0       0       0       0       0       0
       0       0       0       0       0       0       0       0       0       0
       0       0       0       0       0       0       0       0       0       0
       0       0       0       0       0       0       0       0       0       0
       0       0       0       0       0       0       0       0       0       0
       0       0       0       0       0       0       0       0       0       0
       0       0       0       0       0       0       0       0       0       0
       0       0       0       0       0       0       0       0       0       0
       0       0       0       0       0       0       0       0       0       0
       0       0       0       0       0       0       0       0       0       0
       0       0       0       0       0       0       0       0       0       0
       0       0       0       0       0       0       0       0       0       0
       0       0       0       0       0       0       0       0       0       0
       0       0       0       0       0       0       0       0       0       0
       0       0       0       0       0       0       0       0       0       0
       0       0       0       0       0       0       0       0       0       0
       0       0       0       0       0       0       0       0       0       0
       0       0       0       0       0       0       0       0       0       0
       0       0       0       0       0       0       0       0       0       0
       0       0       0       0       0       0       0       0       0       0
       0       0       0       0       0       0       0       0       0       0
       0       0       0       0       0       0       0       0       0       0
       0       0       0       0       0       0       0       0       0       0
       0       0       0       0       0       0       0       0       0       0
       0       0       0       0       0       0       0       0       0       0
       0       0       0       0       0       0       0       0       0       0
       0       0       0       0       0       0       0       0       0       0
       0       0       0       0       0       0       0       0       0       0
       0       0       0       0       0       0       0       0       0       0
       0       0       0       0       0       0       0       0       0       0
       0       0       0       0       0       0       0       0       0       0
       0       0       0       0       0       0       0       0       0       0
       0       0       0       0       0       0       0       0       0       0
       0       0       0       0       0       0       0       0       0       0
       0       0       0       0       0       0       0       0       0       0
       0       0       0       0       0       0       0       0       0       0
       0       0       0       0       0       0       0       0       0       0
       0       0       0       0       0       0       0       0       0       0
       0       0       0       0       0       0       0       0       0       0
       0       0       0       0       0       0       0       0       0       0
       0       0       0       0       0       0       0       0       0       0
       0       0       0       0       0       0       0       0       0       0
       0       0       0       0       0       0       0       0       0       0
       0       0       0       0       0       0       0       0       0       0
       0       0       0       0       0       0       0       0       0       0
       0       0       0       0       0       0       0       0       0       0
       0       0       0       0       0       0       0       0       0       0
       0       0       0       0       0       0       0       0       0       0
       0       0       0       0       0       0       0       0       0       0
       0       0       0       0       0       0       0       0       0       0
       0       0       0       0       0       0       0       0       0       0
       0       0       0       0       0       0       0       0       0       0
       0       0       0       0       0       0       0       0       0       0
       0       0       0       0       0       0       0       0       0       0
       0       0       0       0       0       0       0       0       0       0
       0       0       0       0       0       0       0       0       0       0
       0       0       0       0       0       0       0       0       0       0
       0       0       0       0       0       0       0       0       0       0
       0       0       0       0       0       0       0       0       0       0
       0       0       0       0       0       0       0       0       0       0
       0       0       0       0       0       0       0       0       0       0
       0       0       0       0       0       0       0       0       0       0
       0       0       0       0       0       0       0       0       0       0
       0       0       0       0       0       0       0       0       0       0
       0       0       0       0       0       0       0       0       0       0
       0       0       0       0       0       0       0       0       0       0
       0       0       0       0       0       0       0       0       0       0
       0       0       0       0       0       0       0       0       0       0
       0       0       0       0       0       0       0       0       0       0
       0       0       0       0       0       0       0       0       0       0
       0       0       0       0       0       0       0       0       0       0
       0       0       0       0       0       0       0       0       0       0
       0       0       0       0       0       0       0       0       0       0
       0       0       0       0       0       0       0       0       0       0
       0       0       0       0       0       0       0       0       0       0
       0       0       0       0       0       0       0       0       0       0
       0       0       0       0       0       0       0       0       0       0
       0       0       0       0       0       0       0       0       0       0
       0       0       0       0       0       0       0       0       0       0
       0       0       0       0       0       0       0       0       0       0
       0       0       0       0       0       0       0       0       0       0
       0       0       0       0       0       0       0       0       0       0
       0       0       0       0       0       0       0       0       0       0
       0       0       0       0       0       0       0       0       0       0
       0       0       0       0       0       0       0       0       0       0
       0       0       0       0       0       0       0       0       0       0
       0       0       0       0       0       0       0       0       0       0
       0       0       0       0       0       0       0       0       0       0
       0       0       0       0       0       0       0       0       0       0
       0       0       0       0       0       0       0       0       0       0
       0       0       0       0       0       0       0       0       0       0
       0       0       0       0       0       0       0       0       0       0
       0       0       0       0       0       0       0       0       0       0
       0       0       0       0       0       0       0       0       0       0
       0       0       0       0       0       0       0       0       0       0
       0       0       0       0       0       0       0       0       0       0
       0       0       0       0       0       0       0       0       0       0
       0       0       0       0       0       0       0       0       0       0
       0       0       0       0       0       0       0       0       0       0
       0       0       0       0       0       0       0       0       0       0
       0       0       0       0       0       0       0       0       0       0
       0       0       0       0       0       0       0       0       0       0
       0       0       0       0       0       0       0       0       0       0
       0       0       0       0       0       0       0       0       0       0
       0       0       0       0       0       0       0       0       0       0
       0       0       0       0       0       0       0       0       0       0
       0       0       0       0       0       0       0       0       0       0
       0       0       0       0       0       0       0       0       0       0
       0       0       0       0       0       0       0       0       0       0
       0       0       0       0       0       0       0       0       0       0
       0       0       0       0       0       0       0       0       0       0
       0       0       0       0       0       0       0       0       0       0
       0       0       0       0       0       0       0       0       0       0
       0       0       0       0       0       0       0       0       0       0
       0       0       0       0       0       0       0       0       0       0
       0       0       0       0       0       0       0       0       0       0
       0       0       0       0       0       0       0       0       0       0
       0       0       0       0       0       0       0       0       0       0
       0       0       0       0       0       0       0       0       0       0
       0       0       0       0       0       0       0       0       0       0
       0       0       0       0       0       0       0       0       0       0
       0       0       0       0       0       0       0       0       0       0
       0       0       0       0       0       0       0       0       0       0
       0       0       0       0       0       0       0       0       0       0
       0       0       0       0       0       0       0       0       0       0
       0       0       0       0       0       0       0       0       0       0
       0       0       0       0       0       0       0       0       0       0
       0       0       0       0       0       0       0       0       0       0
       0       0       0       0       0       0       0       0       0       0
       0       0       0       0       0       0       0       0       0       0
       0       0       0       0       0       0       0       0       0       0
       0       0       0       0       0       0       0       0       0       0
       0       0       0       0       0       0       0       0       0       0
       0       0       0       0       0       0       0       0       0       0
       0       0       0       0       0       0       0       0       0       0
       0       0       0       0       0       0       0       0       0       0
       0       0       0       0       0       0       0       0       0       0
       0       0       0       0       0       0       0       0       0       0
       0       0       0       0       0       0       0       0       0       0
       0       0       0       0       0       0       0       0       0       0
       0       0       0       0       0       0       0       0       0       0
       0       0       0       0       0       0       0       0       0       0
       0       0       0       0       0       0       0       0       0       0
       0       0       0       0       0       0       0       0       0       0
       0       0       0       0       0       0       0       0       0       0
       0       0       0       0       0       0       0       0       0       0
       0       0       0       0       0       0       0       0       0       0
       0       0       0       0       0       0       0       0       0       0
       0       0       0       0       0       0       0       0       0       0
       0       0       0       0       0       0       0       0       0       0
       0       0       0       0       0       0       0       0       0       0
       0       0       0       0       0       0       0       0       0       0
       0       0       0       0       0       0       0       0       0       0
       0       0       0       0       0       0       0       0       0       0
       0       0       0       0       0       0       0       0       0       0
       0       0       0       0       0       0       0       0       0       0
       0       0       0       0       0       0       0       0       0       0
       0       0       0       0       0       0       0       0       0       0
       0       0       0       0       0       0       0       0       0       0
       0       0       0       0       0       0       0       0       0       0
       0       0       0       0       0       0       0       0       0       0
       0       0       0       0       0       0       0       0       0       0
       0       0       0       0       0       0       0       0       0       0
       0       0       0       0       0       0       0       0       0       0
       0       0       0       0       0       0       0       0       0       0
       0       0       0       0       0       0       0       0       0       0
       0       0       0       0       0       0       0       0       0       0
       0       0       0       0       0       0       0       0       0       0
       0       0       0       0       0       0       0       0       0       0
       0       0       0       0       0       0       0       0       0       0
       0       0       0       0       0       0       0       0       0       0
       0       0       0       0       0       0       0       0       0       0
       0       0       0       0       0       0       0       0       0       0
       0       0       0       0       0       0       0       0       0       0
       0       0       0       0       0       0       0       0       0       0
       0       0       0       0       0       0       0       0       0       0
       0       0       0       0       0       0       0       0       0       0
       0       0       0       0       0       0       0       0       0       0
       0       0       0       0       0       0       0       0       0       0
       0       0       0       0       0       0       0       0       0       0
       0       0       0       0       0       0       0       0       0       0
       0       0       0       0       0       0       0       0       0       0
       0       0       0       0       0       0       0       0       0       0
       0       0       0       0       0       0       0       0       0       0
       0       0       0       0       0       0       0       0       0       0
       0       0       0       0       0       0       0       0       0       0
       0       0       0       0       0       0       0       0       0       0
       0       0       0       0       0       0       0       0       0       0
       0       0       0       0       0       0       0       0       0       0
       0       0       0       0       0       0       0       0       0       0
       0       0       0       0       0       0       0       0       0       0
       0       0       0       0       0       0       0       0       0       0
       0       0       0       0       0       0       0       0       0       0
       0       0       0       0       0       0       0       0       0       0
       0       0       0       0       0       0       0       0       0       0
       0       0       0       0       0       0       0       0       0       0
       0       0       0       0       0       0       0       0       0       0
       0       0       0       0       0       0       0       0       0       0
       0       0       0       0       0       0       0       0       0       0
       0       0       0       0       0       0       0       0       0       0
       0       0       0       0       0       0       0       0       0       0
       0       0       0       0       0       0       0       0       0       0
       0       0       0       0       0       0       0       0       0       0
       0       0       0       0       0       0       0       0       0       0
       0       0       0       0       0       0       0       0       0       0
       0       0       0       0       0       0       0       0       0       0
       0       0       0       0       0       0       0       0       0       0
       0       0       0       0       0       0       0       0       0       0
       0       0       0       0       0       0       0       0       0       0
       0       0       0       0       0       0       0       0       0       0
       0       0       0       0       0       0       0       0       0       0
       0       0       0       0       0       0       0       0       0       0
       0       0       0       0       0       0       0       0       0       0
       0       0       0       0       0       0       0       0       0       0
       0       0       0       0       0       0       0       0       0       0
       0       0       0       0       0       0       0       0       0       0
       0       0       0       0       0       0       0       0       0       0
       0       0       0       0       0       0       0       0       0       0
       0       0       0       0       0       0       0       0       0       0
       0       0       0       0       0       0       0       0       0       0
       0       0       0       0       0       0       0       0       0       0
       0       0       0       0       0       0       0       0       0       0
       0       0       0       0       0       0       0       0       0       0
       0       0       0       0       0       0       0       0       0       0
       0       0       0       0       0       0       0       0       0       0
       0       0       0       0       0       0       0       0       0       0
       0       0       0       0       0       0       0       0       0       0
       0       0       0       0       0       0       0       0       0       0
       0       0       0       0       0       0       0       0       0       0
       0       0       0       0       0       0       0       0       0       0
       0       0       0       0       0       0       0       0       0       0
       0       0       0       0       0       0       0       0       0       0
       0       0       0       0       0       0       0       0       0       0
       0       0       0       0       0       0       0       0       0       0
       0       0       0       0       0       0       0       0       0       0
       0       0       0       0       0       0       0       0       0       0
       0       0       0       0       0       0       0       0       0       0
       0       0       0       0       0       0       0       0       0       0
       0       0       0       0       0       0       0       0       0       0
       0       0       0       0       0       0       0       0       0       0
       0       0       0       0       0       0       0       0       0       0
       0       0       0       0       0       0       0       0       0       0
       0       0       0       0       0       0       0       0       0       0
       0       0       0       0       0       0       0       0       0       0
       0       0       0       0       0       0       0       0       0       0
       0       0       0       0       0       0       0       0       0       0
       0       0       0       0       0       0       0       0       0       0
       0       0       0       0       0       0       0       0       0       0
       0       0       0       0       0       0       0       0       0       0
       0       0       0       0       0       0       0       0       0       0
       0       0       0       0       0       0       0       0       0       0
       0       0       0       0       0       0       0       0       0       0
       0       0       0       0       0       0       0       0       0       0
       0       0       0       0       0       0       0       0       0       0
       0       0       0       0       0       0       0       0       0       0
       0       0       0       0       0       0       0       0       0       0
       0       0       0       0       0       0       0       0       0       0
       0       0       0       0       0       0       0       0       0       0
       0       0       0       0       0       0       0       0       0       0
       0       0       0       0       0       0       0       0       0       0
       0       0       0       0       0       0       0       0       0       0
       0       0       0       0       0       0       0       0       0       0
       0       0       0       0       0       0       0       0       0       0
       0       0       0       0       0       0       0       0       0       0
       0       0       0       0       0       0       0       0       0       0
       0       0       0       0       0       0       0       0       0       0
       0       0       0       0       0       0       0       0       0       0
       0       0       0       0       0       0       0       0       0       0
       0       0       0       0       0       0       0       0       0       0
       0       0       0       0       0       0       0       0       0       0
       0       0       0       0       0       0       0       0       0       0
       0       0       0       0       0       0       0       0       0       0
       0       0       0       0       0       0       0       0       0       0
       0       0       0       0       0       0       0       0       0       0
       0       0       0       0       0       0       0       0       0       0
       0       0       0       0       0       0       0       0       0       0
       0       0       0       0       0       0       0       0       0       0
       0       0       0       0       0       0       0       0       0       0
       0       0       0       0       0       0       0       0       0       0
       0       0       0       0       0       0       0       0       0       0
       0       0       0       0       0       0       0       0       0       0
       0       0       0       0       0       0       0       0       0       0
       0       0       0       0       0       0       0       0       0       0
       0       0       0       0       0       0       0       0       0       0
       0       0       0       0       0       0       0       0       0       0
       0       0       0       0       0       0       0       0       0       0
       0       0       0       0       0       0       0       0       0       0
       0       0       0       0       0       0       0       0       0       0
       0       0       0       0       0       0       0       0       0       0
       0       0       0       0       0       0       0       0       0       0
       0       0       0       0       0       0       0       0       0       0
       0       0       0       0       0       0       0       0       0       0
       0       0       0       0       0       0       0       0       0       0
       0       0       0       0       0       0       0       0       0       0
       0       0       0       0       0       0       0       0       0       0
       0       0       0       0       0       0       0       0       0       0
       0       0       0       0       0       0       0       0       0       0
       0       0       0       0       0       0       0       0       0       0
       0       0       0       0       0       0       0       0       0       0
       0       0       0       0       0       0       0       0       0       0
       0       0       0       0       0       0       0       0       0       0
       0       0       0       0       0       0       0       0       0       0
       0       0       0       0       0       0       0       0       0       0
       0       0       0       0       0       0       0       0       0       0
       0       0       0       0       0       0       0       0       0       0
       0       0       0       0       0       0       0       0       0       0
       0       0       0       0       0       0       0       0       0       0
       0       0       0       0       0       0       0       0       0       0
       0       0       0       0       0       0       0       0       0       0
       0       0       0       0       0       0       0       0       0       0
       0       0       0       0       0       0       0       0       0       0
       0       0       0       0       0       0       0       0       0       0
       0       0       0       0       0       0       0       0       0       0
       0       0       0       0       0       0       0       0       0       0
       0       0       0       0       0       0       0       0       0       0
       0       0       0       0       0       0       0       0       0       0
       0       0       0       0       0       0       0       0       0       0
       0       0       0       0       0       0       0       0       0       0
       0       0       0       0       0       0       0       0       0       0
       0       0       0       0       0       0       0       0       0       0
       0       0       0       0       0       0       0       0       0       0
       0       0       0       0       0       0       0       0       0       0
       0       0       0       0       0       0       0       0       0       0
       0       0       0       0       0       0       0       0       0       0
       0       0       0       0       0       0       0       0       0       0
       0       0       0       0       0       0       0       0       0       0
       0       0       0       0       0       0       0       0       0       0
       0       0       0       0       0       0       0       0       0       0
       0       0       0       0       0       0       0       0       0       0
       0       0       0       0       0       0       0       0       0       0
       0       0       0       0       0       0       0       0       0       0
       0       0       0       0       0       0       0       0       0       0
       0       0       0       0       0       0       0       0       0       0
       0       0       0       0       0       0       0       0       0       0
       0       0       0       0       0       0       0       0       0       0
       0       0       0       0       0       0       0       0       0       0
       0       0       0       0       0       0       0       0       0       0
       0       0       0       0       0       0       0       0       0       0
       0       0       0       0       0       0       0       0       0       0
       0       0       0       0       0       0       0       0       0       0
       0       0       0       0       0       0       0       0       0       0
       0       0       0       0       0       0       0       0       0       0
       0       0       0       0       0       0       0       0       0       0
       0       0       0       0       0       0       0       0       0       0
       0       0       0       0       0       0       0       0       0       0
       0       0       0       0       0       0       0       0       0       0
       0       0       0       0       0       0       0       0       0       0
       0       0       0       0       0       0       0       0       0       0
       0       0       0       0       0       0       0       0       0       0
       0       0       0       0       0       0       0       0       0       0
       0       0       0       0       0       0       0       0       0       0
       0       0       0       0       0       0       0       0       0       0
       0       0       0       0       0       0       0       0       0       0
       0       0       0       0       0       0       0       0       0       0
       0       0       0       0       0       0       0       0       0       0
       0       0       0       0       0       0       0       0       0       0
       0       0       0       0       0       0       0       0       0       0
       0       0       0       0       0       0       0       0       0       0
       0       0       0       0       0       0       0       0       0       0
       0       0       0       0       0       0       0       0       0       0
       0       0       0       0       0       0       0       0       0       0
       0       0       0       0       0       0       0       0       0       0
       0       0       0       0       0       0       0       0       0       0
       0       0       0       0       0       0       0       0       0       0
       0       0       0       0       0       0       0       0       0       0
       0       0       0       0       0       0       0       0       0       0
       0       0       0       0       0       0       0       0       0       0
       0       0       0       0       0       0       0       0       0       0
       0       0       0       0       0       0       0       0       0       0
       0       0       0       0       0       0       0       0       0       0
       0       0       0       0       0       0       0       0       0       0
       0       0       0       0       0       0       0       0       0       0
       0       0       0       0       0       0       0       0       0       0
       0       0       0       0       0       0       0       0       0       0
       0       0       0       0       0       0       0       0       0       0
       0       0       0       0       0       0       0       0       0       0
       0       0       0       0       0       0       0       0       0       0
       0       0       0       0       0       0       0       0       0       0
       0       0       0       0       0       0       0       0       0       0
       0       0       0       0       0       0       0       0       0       0
       0       0       0       0       0       0       0       0       0       0
       0       0       0       0       0       0       0       0       0       0
       0       0       0       0       0       0       0       0       0       0
       0       0       0       0       0       0       0       0       0       0
       0       0       0       0       0       0       0       0       0       0
       0       0       0       0       0       0       0       0       0       0
       0       0       0       0       0       0       0       0       0       0
       0       0       0       0       0       0       0       0       0       0
       0       0       0       0       0       0       0       0       0       0
       0       0       0       0       0       0       0       0       0       0
       0       0       0       0       0       0       0       0       0       0
       0       0       0       0       0       0       0       0       0       0
       0       0       0       0       0       0       0       0       0       0
       0       0       0       0       0       0       0       0       0       0
       0       0       0       0       0       0       0       0       0       0
       0       0       0       0       0       0       0       0       0       0
       0       0       0       0       0       0       0       0       0       0
       0       0       0       0       0       0       0       0       0       0
       0       0       0       0       0       0       0       0       0       0
       0       0       0       0       0       0       0       0       0       0
       0       0       0       0       0       0       0       0       0       0
       0       0       0       0       0       0       0       0       0       0
       0       0       0       0       0       0       0       0       0       0
       0       0       0       0       0       0       0       0       0       0
       0       0       0       0       0       0       0       0       0       0
       0       0       0       0       0       0       0       0       0       0
       0       0       0       0       0       0       0       0       0       0
       0       0       0       0       0       0       0       0       0       0
       0       0       0       0       0       0       0       0       0       0
       0       0       0       0       0       0       0       0       0       0
       0       0       0       0       0       0       0       0       0       0
       0       0       0       0       0       0       0       0       0       0
       0       0       0       0       0       0       0       0       0       0
       0       0       0       0       0       0       0       0       0       0
       0       0       0       0       0       0       0       0       0       0
       0       0       0       0       0       0       0       0       0       0
       0       0       0       0       0       0       0       0       0       0
       0       0       0       0       0       0       0       0       0       0
       0       0       0       0       0       0       0       0       0       0
       0       0       0       0       0       0       0       0       0       0
       0       0       0       0       0       0       0       0       0       0
       0       0       0       0       0       0       0       0       0       0
       0       0       0       0       0       0       0       0       0       0
       0       0       0       0       0       0       0       0       0       0
       0       0       0       0       0       0       0       0       0       0
       0       0       0       0       0       0       0       0       0       0
       0       0       0       0       0       0       0       0       0       0
       0       0       0       0       0       0       0       0       0       0
       0       0       0       0       0       0       0       0       0       0
       0       0       0       0       0       0       0       0       0       0
       0       0       0       0       0       0       0       0       0       0
       0       0       0       0       0       0       0       0       0       0
       0       0       0       0       0       0       0       0       0       0
       0       0       0       0       0       0       0       0       0       0
       0       0       0       0       0       0       0       0       0       0
       0       0       0       0       0       0       0       0       0       0
       0       0       0       0       0       0       0       0       0       0
       0       0       0       0       0       0       0       0       0       0
       0       0       0       0       0       0       0       0       0       0
       0       0       0       0       0       0       0       0       0       0
       0       0       0       0       0       0       0       0       0       0
       0       0       0       0       0       0       0       0       0       0
       0       0       0       0       0       0       0       0       0       0
       0       0       0       0       0       0       0       0       0       0
       0       0       0       0       0       0       0       0       0       0
       0       0       0       0       0       0       0       0       0       0
       0       0       0       0       0       0       0       0       0       0
       0       0       0       0       0       0       0       0       0       0
       0       0       0       0       0       0       0       0       0       0
       0       0       0       0       0       0       0       0       0       0
       0       0       0       0       0       0       0       0       0       0
       0       0       0       0       0       0       0       0       0       0
       0       0       0       0       0       0       0       0       0       0
       0       0       0       0       0       0       0       0       0       0
       0       0       0       0       0       0       0       0       0       0
       0       0       0       0       0       0       0       0       0       0
       0       0       0       0       0       0       0       0       0       0
       0       0       0       0       0       0       0       0       0       0
       0       0       0       0       0       0       0       0       0       0
       0       0       0       0       0       0       0       0       0       0
       0       0       0       0       0       0       0       0       0       0
       0       0       0       0       0       0       0       0       0       0
       0       0       0       0       0       0       0       0       0       0
       0       0       0       0       0       0       0       0       0       0
       0       0       0       0       0       0       0       0       0       0
       0       0       0       0       0       0       0       0       0       0
       0       0       0       0       0       0       0       0       0       0
       0       0       0       0       0       0       0       0       0       0
       0       0       0       0       0       0       0       0       0       0
       0       0       0       0       0       0       0       0       0       0
       0       0       0       0       0       0       0       0       0       0
       0       0       0       0       0       0       0       0       0       0
       0       0       0       0       0       0       0       0       0       0
       0       0       0       0       0       0       0       0       0       0
       0       0       0       0       0       0       0       0       0       0
       0       0       0       0       0       0       0       0       0       0
       0       0       0       0       0       0       0       0       0       0
       0       0       0       0       0       0       0       0       0       0
       0       0       0       0       0       0       0       0       0       0
       0       0       0       0       0       0       0       0       0       0
       0       0       0       0       0       0       0       0       0       0
       0       0       0       0       0       0       0       0       0       0
       0       0       0       0       0       0       0       0       0       0
       0       0       0       0       0       0       0       0       0       0
       0       0       0       0       0       0       0       0       0       0
       0       0       0       0       0       0       0       0       0       0
       0       0       0       0       0       0       0       0       0       0
       0       0       0       0       0       0       0       0       0       0
       0       0       0       0       0       0       0       0       0       0
       0       0       0       0       0       0       0       0       0       0
       0       0       0       0       0       0       0       0       0       0
       0       0       0       0       0       0       0       0       0       0
       0       0       0       0       0       0       0       0       0       0
       0       0       0       0       0       0       0       0       0       0
       0       0       0       0       0       0       0       0       0       0
       0       0       0       0       0       0       0       0       0       0
       0       0       0       0       0       0       0       0       0       0
       0       0       0       0       0       0       0       0       0       0
       0       0       0       0       0       0       0       0       0       0
       0       0       0       0       0       0       0       0       0       0
       0       0       0       0       0       0       0       0       0       0
       0       0       0       0       0       0       0       0       0       0
       0       0       0       0       0       0       0       0       0       0
       0       0       0       0       0       0       0       0       0       0
       0       0       0       0       0       0       0       0       0       0
       0       0       0       0       0       0       0       0       0       0
       0       0       0       0       0       0       0       0       0       0
       0       0       0       0       0       0       0       0       0       0
       0       0       0       0       0       0       0       0       0       0
       0       0       0       0       0       0       0       0       0       0
       0       0       0       0       0       0       0       0       0       0
       0       0       0       0       0       0       0       0       0       0
       0       0       0       0       0       0       0       0       0       0
       0       0       0       0       0       0       0       0       0       0
       0       0       0       0       0       0       0       0       0       0
       0       0       0       0       0       0       0       0       0       0
       0       0       0       0       0       0       0       0       0       0
       0       0       0       0       0       0       0       0       0       0
       0       0       0       0       0       0       0       0       0       0
       0       0       0       0       0       0       0       0       0       0
       0       0       0       0       0       0       0       0       0       0
       0       0       0       0       0       0       0       0       0       0
       0       0       0       0       0       0       0       0       0       0
       0       0       0       0       0       0       0       0       0       0
       0       0       0       0       0       0       0       0       0       0
       0       0       0       0       0       0       0       0       0       0
       0       0       0       0       0       0       0       0       0       0
       0       0       0       0       0       0       0       0       0       0
       0       0       0       0       0       0       0       0       0       0
       0       0       0       0       0       0       0       0       0       0
       0       0       0       0       0       0       0       0       0       0
       0       0       0       0       0       0       0       0       0       0
       0       0       0       0       0       0       0       0       0       0
       0       0       0       0       0       0       0       0       0       0
       0       0       0       0       0       0       0       0       0       0
       0       0       0       0       0       0       0       0       0       0
       0       0       0       0       0       0       0       0       0       0
       0       0       0       0       0       0       0       0       0       0
       0       0       0       0       0       0       0       0       0       0
       0       0       0       0       0       0       0       0       0       0
       0       0       0       0       0       0       0       0       0       0
       0       0       0       0       0       0       0       0       0       0
       0       0       0       0       0       0       0       0       0       0
       0       0       0       0       0       0       0       0       0       0
       0       0       0       0       0       0       0       0       0       0
       0       0       0       0       0       0       0       0       0       0
       0       0       0       0       0       0       0       0       0       0
       0       0       0       0       0       0       0       0       0       0
       0       0       0       0       0       0       0       0       0       0
       0       0       0       0       0       0       0       0       0       0
       0       0       0       0       0       0       0       0       0       0
       0       0       0       0       0       0       0       0       0       0
       0       0       0       0       0       0       0       0       0       0
       0       0       0       0       0       0       0       0       0       0
       0       0       0       0       0       0       0       0       0       0
       0       0       0       0       0       0       0       0       0       0
       0       0       0       0       0       0       0       0       0       0
       0       0       0       0       0       0       0       0       0       0
       0       0       0       0       0       0       0       0       0       0
       0       0       0       0       0       0       0       0       0       0
       0       0       0       0       0       0       0       0       0       0
       0       0       0       0       0       0       0       0       0       0
       0       0       0       0       0       0       0       0       0       0
       0       0       0       0       0       0       0       0       0       0
       0       0       0       0       0       0       0       0       0       0
       0       0       0       0       0       0       0       0       0       0
       0       0       0       0       0       0       0       0       0       0
       0       0       0       0       0       0       0       0       0       0
       0       0       0       0       0       0       0       0       0       0
       0       0       0       0       0       0       0       0       0       0
       0       0       0       0       0       0       0       0       0       0
       0       0       0       0       0       0       0       0       0       0
       0       0       0       0       0       0       0       0       0       0
       0       0       0       0       0       0       0       0       0       0
       0       0       0       0       0       0       0       0       0       0
       0       0       0       0       0       0       0       0       0       0
       0       0       0       0       0       0       0       0       0       0
       0       0       0       0       0       0       0       0       0       0
       0       0       0       0       0       0       0       0       0       0
       0       0       0       0       0       0       0       0       0       0
       0       0       0       0       0       0       0       0       0       0
       0       0       0       0       0       0       0       0       0       0
       0       0       0       0       0       0       0       0       0       0
       0       0       0       0       0       0       0       0       0       0
       0       0       0       0       0       0       0       0       0       0
       0       0       0       0       0       0       0       0       0       0
       0       0       0       0       0       0       0       0       0       0
       0       0       0       0       0       0       0       0       0       0
       0       0       0       0       0       0       0       0       0       0
       0       0       0       0       0       0       0       0       0       0
       0       0       0       0       0       0       0       0       0       0
       0       0       0       0       0       0       0       0       0       0
       0       0       0       0       0       0       0       0       0       0
       0       0       0       0       0       0       0       0       0       0
       0       0       0       0       0       0       0       0       0       0
       0       0       0       0       0       0       0       0       0       0
       0       0       0       0       0       0       0       0       0       0
       0       0       0       0       0       0       0       0       0       0
       0       0       0       0       0       0       0       0       0       0
       0       0       0       0       0       0       0       0       0       0
       0       0       0       0       0       0       0       0       0       0
       0       0       0       0       0       0       0       0       0       0
       0       0       0       0       0       0       0       0       0       0
       0       0       0       0       0       0       0       0       0       0
       0       0       0       0       0       0       0       0       0       0
       0       0       0       0       0       0       0       0       0       0
       0       0       0       0       0       0       0       0       0       0
       0       0       0       0       0       0       0       0       0       0
       0       0       0       0       0       0       0       0       0       0
       0       0       0       0       0       0       0       0       0       0
       0       0       0       0       0       0       0       0       0       0
       0       0       0       0       0       0       0       0       0       0
       0       0       0       0       0       0       0       0       0       0
       0       0       0       0       0       0       0       0       0       0
       0       0       0       0       0       0       0       0       0       0
       0       0       0       0       0       0       0       0       0       0
       0       0       0       0       0       0       0       0       0       0
       0       0       0       0       0       0       0       0       0       0
       0       0       0       0       0       0       0       0       0       0
       0       0       0       0       0       0       0       0       0       0
       0       0       0       0       0       0       0       0       0       0
       0       0       0       0       0       0       0       0       0       0
       0       0       0       0       0       0       0       0       0       0
       0       0       0       0       0       0       0       0       0       0
       0       0       0       0       0       0       0       0       0       0
       0       0       0       0       0       0       0       0       0       0
       0       0       0       0       0       0       0       0       0       0
       0       0       0       0       0       0       0       0       0       0
       0       0       0       0       0       0       0       0       0       0
       0       0       0       0       0       0       0       0       0       0
       0       0       0       0       0       0       0       0       0       0
       0       0       0       0       0       0       0       0       0       0
       0       0       0       0       0       0       0       0       0       0
       0       0       0       0       0       0       0       0       0       0
       0       0       0       0       0       0       0       0       0       0
       0       0       0       0       0       0       0       0       0       0
       0       0       0       0       0       0       0       0       0       0
       0       0       0       0       0       0       0       0       0       0
       0       0       0       0       0       0       0       0       0       0
       0       0       0       0       0       0       0       0       0       0
       0       0       0       0       0       0       0       0       0       0
       0       0       0       0       0       0       0       0       0       0
       0       0       0       0       0       0       0       0       0       0
       0       0       0       0       0       0       0       0       0       0
       0       0       0       0       0       0       0       0       0       0
       0       0       0       0       0       0       0       0       0       0
       0       0       0       0       0       0       0       0       0       0
       0       0       0       0       0       0       0       0       0       0
       0       0       0       0       0       0       0       0       0       0
       0       0       0       0       0       0       0       0       0       0
       0       0       0       0       0       0       0       0       0       0
       0       0       0       0       0       0       0       0       0       0
       0       0       0       0       0       0       0       0       0       0
       0       0       0       0       0       0       0       0       0       0
       0       0       0       0       0       0       0       0       0       0
       0       0       0       0       0       0       0       0       0       0
       0       0       0       0       0       0       0       0       0       0
       0       0       0       0       0       0       0       0       0       0
       0       0       0       0       0       0       0       0       0       0
       0       0       0       0       0       0       0       0       0       0
       0       0       0       0       0       0       0       0       0       0
       0       0       0       0       0       0       0       0       0       0
       0       0       0       0       0       0       0       0       0       0
       0       0       0       0       0       0       0       0       0       0
       0       0       0       0       0       0       0       0       0       0
       0       0       0       0       0       0       0       0       0       0
       0       0       0       0       0       0       0       0       0       0
       0       0       0       0       0       0       0       0       0       0
       0       0       0       0       0       0       0       0       0       0
       0       0       0       0       0       0       0       0       0       0
       0       0       0       0       0       0       0       0       0       0
       0       0       0       0       0       0       0       0       0       0
       0       0       0       0       0       0       0       0       0       0
       0       0       0       0       0       0       0       0       0       0
       0       0       0       0       0       0       0       0       0       0
       0       0       0       0       0       0       0       0       0       0
       0       0       0       0       0       0       0       0       0       0
       0       0       0       0       0       0       0       0       0       0
       0       0       0       0       0       0       0       0       0       0
       0       0       0       0       0       0       0       0       0       0
       0       0       0       0       0       0       0       0       0       0
       0       0       0       0       0       0       0       0       0       0
       0       0       0       0       0       0       0       0       0       0
       0       0       0       0       0       0       0       0       0       0
       0       0       0       0       0       0       0       0       0       0
       0       0       0       0       0       0       0       0       0       0
       0       0       0       0       0       0       0       0       0       0
       0       0       0       0       0       0       0       0       0       0
       0       0       0       0       0       0       0       0       0       0
       0       0       0       0       0       0       0       0       0       0
       0       0       0       0       0       0       0       0       0       0
       0       0       0       0       0       0       0       0       0       0
       0       0       0       0       0       0       0       0       0       0
       0       0       0       0       0       0       0       0       0       0
       0       0       0       0       0       0       0       0       0       0
       0       0       0       0       0       0       0       0       0       0
       0       0       0       0       0       0       0       0       0       0
       0       0       0       0       0       0       0       0       0       0
       0       0       0       0       0       0       0       0       0       0
       0       0       0       0       0       0       0       0       0       0
       0       0       0       0       0       0       0       0       0       0
       0       0       0       0       0       0       0       0       0       0
       0       0       0       0       0       0       0       0       0       0
       0       0       0       0       0       0       0       0       0       0
       0       0       0       0       0       0       0       0       0       0
       0       0       0       0       0       0       0       0       0       0
       0       0       0       0       0       0       0       0       0       0
       0       0       0       0       0       0       0       0       0       0
       0       0       0       0       0       0       0       0       0       0
       0       0       0       0       0       0       0       0       0       0
       0       0       0       0       0       0       0       0       0       0
       0       0       0       0       0       0       0       0       0       0
       0       0       0       0       0       0       0       0       0       0
       0       0       0       0       0       0       0       0       0       0
       0       0       0       0       0       0       0       0       0       0
       0       0       0       0       0       0       0       0       0       0
       0       0       0       0       0       0       0       0       0       0
       0       0       0       0       0       0       0       0       0       0
       0       0       0       0       0       0       0       0       0       0
       0       0       0       0       0       0       0       0       0       0
       0       0       0       0       0       0       0       0       0       0
       0       0       0       0       0       0       0       0       0       0
       0       0       0       0       0       0       0       0       0       0
       0       0       0       0       0       0       0       0       0       0
       0       0       0       0       0       0       0       0       0       0
       0       0       0       0       0       0       0       0       0       0
       0       0       0       0       0       0       0       0       0       0
       0       0       0       0       0       0       0       0       0       0
       0       0       0       0       0       0       0       0       0       0
       0       0       0       0       0       0       0       0       0       0
       0       0       0       0       0       0       0       0       0       0
       0       0       0       0       0       0       0       0       0       0
       0       0       0       0       0       0       0       0       0       0
       0       0       0       0       0       0       0       0       0       0
       0       0       0       0       0       0       0       0       0       0
       0       0       0       0       0       0       0       0       0       0
       0       0       0       0       0       0       0       0       0       0
       0       0       0       0       0       0       0       0       0       0
       0       0       0       0       0       0       0       0       0       0
       0       0       0       0       0       0       0       0       0       0
       0       0       0       0       0       0       0       0       0       0
       0       0       0       0       0       0       0       0       0       0
       0       0       0       0       0       0       0       0       0       0
       0       0       0       0       0       0       0       0       0       0
       0       0       0       0       0       0       0       0       0       0
       0       0       0       0       0       0       0       0       0       0
       0       0       0       0       0       0       0       0       0       0
       0       0       0       0       0       0       0       0       0       0
       0       0       0       0       0       0       0       0       0       0
       0       0       0       0       0       0       0       0       0       0
       0       0       0       0       0       0       0       0       0       0
       0       0       0       0       0       0       0       0       0       0
       0       0       0       0       0       0       0       0       0       0
       0       0       0       0       0       0       0       0       0       0
       0       0       0       0       0       0       0       0       0       0
       0       0       0       0       0       0       0       0       0       0
       0       0       0       0       0       0       0       0       0       0
       0       0       0       0       0       0       0       0       0       0
       0       0       0       0       0       0       0       0       0       0
       0       0       0       0       0       0       0       0       0       0
       0       0       0       0       0       0       0       0       0       0
       0       0       0       0       0       0       0       0       0       0
       0       0       0       0       0       0       0       0       0       0
       0       0       0       0       0       0       0       0       0       0
       0       0       0       0       0       0       0       0       0       0
       0       0       0       0       0       0       0       0       0       0
       0       0       0       0       0       0       0       0       0       0
       0       0       0       0       0       0       0       0       0       0
       0       0       0       0       0       0       0       0       0       0
       0       0       0       0       0       0       0       0       0       0
       0       0       0       0       0       0       0       0       0       0
       0       0       0       0       0       0       0       0       0       0
       0       0       0       0       0       0       0       0       0       0
       0       0       0       0       0       0       0       0       0       0
       0       0       0       0       0       0       0       0       0       0
       0       0       0       0       0       0       0       0       0       0
       0       0       0       0       0       0       0       0       0       0
       0       0       0       0       0       0       0       0       0       0
       0       0       0       0       0       0       0       0       0       0
       0       0       0       0       0       0       0       0       0       0
       0       0       0       0       0       0       0       0       0       0
       0       0       0       0       0       0       0       0       0       0
       0       0       0       0       0       0       0       0       0       0
       0       0       0       0       0       0       0       0       0       0
       0       0       0       0       0       0       0       0       0       0
       0       0       0       0       0       0       0       0       0       0
       0       0       0       0       0       0       0       0       0       0
       0       0       0       0       0       0       0       0       0       0
       0       0       0       0       0       0       0       0       0       0
       0       0       0       0       0       0       0       0       0       0
       0       0       0       0       0       0       0       0       0       0
       0       0       0       0       0       0       0       0       0       0
       0       0       0       0       0       0       0       0       0       0
       0       0       0       0       0       0       0       0       0       0
       0       0       0       0       0       0       0       0       0       0
       0       0       0       0       0       0       0       0       0       0
       0       0       0       0       0       0       0       0       0       0
       0       0       0       0       0       0       0       0       0       0
       0       0       0       0       0       0       0       0       0       0
       0       0       0       0       0       0       0       0       0       0
       0       0       0       0       0       0       0       0       0       0
       0       0       0       0       0       0       0       0       0       0
       0       0       0       0       0       0       0       0       0       0
       0       0       0       0       0       0       0       0       0       0
       0       0       0       0       0       0       0       0       0       0
       0       0       0       0       0       0       0       0       0       0
       0       0       0       0       0       0       0       0       0       0
       0       0       0       0       0       0       0       0       0       0
       0       0       0       0       0       0       0       0       0       0
       0       0       0       0       0       0       0       0       0       0
       0       0       0       0       0       0       0       0       0       0
       0       0       0       0       0       0       0       0       0       0
       0       0       0       0       0       0       0       0       0       0
       0       0       0       0       0       0       0       0       0       0
       0       0       0       0       0       0       0       0       0       0
       0       0       0       0       0       0       0       0       0       0
       0       0       0       0       0       0       0       0       0       0
       0       0       0       0       0       0       0       0       0       0
       0       0       0       0       0       0       0       0       0       0
       0       0       0       0       0       0       0       0       0       0
       0       0       0       0       0       0       0       0       0       0
       0       0       0       0       0       0       0       0       0       0
       0       0       0       0       0       0       0       0       0       0
       0       0       0       0       0       0       0       0       0       0
       0       0       0       0       0       0       0       0       0       0
       0       0       0       0       0       0       0       0       0       0
       0       0       0       0       0       0       0       0       0       0
       0       0       0       0       0       0       0       0       0       0
       0       0       0       0       0       0       0       0       0       0
       0       0       0       0       0       0       0       0       0       0
       0       0       0       0       0       0       0       0       0       0
       0       0       0       0       0       0       0       0       0       0
       0       0       0       0       0       0       0       0       0       0
       0       0       0       0       0       0       0       0       0       0
       0       0       0       0       0       0       0       0       0       0
       0       0       0       0       0       0       0       0       0       0
       0       0       0       0       0       0       0       0       0       0
       0       0       0       0       0       0       0       0       0       0
       0       0       0       0       0       0       0       0       0       0
       0       0       0       0       0       0       0       0       0       0
       0       0       0       0       0       0       0       0       0       0
       0       0       0       0       0       0       0       0       0       0
       0       0       0       0       0       0       0       0       0       0
       0       0       0       0       0       0       0       0       0       0
       0       0       0       0       0       0       0       0       0       0
       0       0       0       0       0       0       0       0       0       0
       0       0       0       0       0       0       0       0       0       0
       0       0       0       0       0       0       0       0       0       0
       0       0       0       0       0       0       0       0       0       0
       0       0       0       0       0       0       0       0       0       0
       0       0       0       0       0       0       0       0       0       0
       0       0       0       0       0       0       0       0       0       0
       0       0       0       0       0       0       0       0       0       0
       0       0       0       0       0       0       0       0       0       0
       0       0       0       0       0       0       0       0       0       0
       0       0       0       0       0       0       0       0       0       0
       0       0       0       0       0       0       0       0       0       0
       0       0       0       0       0       0       0       0       0       0
       0       0       0       0       0       0       0       0       0       0
       0       0       0       0       0       0       0       0       0       0
       0       0       0       0       0       0       0       0       0       0
       0       0       0       0       0       0       0       0       0       0
       0       0       0       0       0       0       0       0       0       0
       0       0       0       0       0       0       0       0       0       0
       0       0       0       0       0       0       0       0       0       0
       0       0       0       0       0       0       0       0       0       0
       0       0       0       0       0       0       0       0       0       0
       0       0       0       0       0       0       0       0       0       0
       0       0       0       0       0       0       0       0       0       0
       0       0       0       0       0       0       0       0       0       0
       0       0       0       0       0       0       0       0       0       0
       0       0       0       0       0       0       0       0       0       0
       0       0       0       0       0       0       0       0       0       0
       0       0       0       0       0       0       0       0       0       0
       0       0       0       0       0       0       0       0       0       0
       0       0       0       0       0       0       0       0       0       0
       0       0       0       0       0       0       0       0       0       0
       0       0       0       0       0       0       0       0       0       0
       0       0       0       0       0       0       0       0       0       0
       0       0       0       0       0       0       0       0       0       0
       0       0       0       0       0       0       0       0       0       0
       0       0       0       0       0       0       0       0       0       0
       0       0       0       0       0       0       0       0       0       0
       0       0       0       0       0       0       0       0       0       0
       0       0       0       0       0       0       0       0       0       0
       0       0       0       0       0       0       0       0       0       0
       0       0       0       0       0       0       0       0       0       0
       0       0       0       0       0       0       0       0       0       0
       0       0       0       0       0       0       0       0       0       0
       0       0       0       0       0       0       0       0       0       0
       0       0       0       0       0       0       0       0       0       0
       0       0       0       0       0       0       0       0       0       0
       0       0       0       0       0       0       0       0       0       0
       0       0       0       0       0       0       0       0       0       0
       0       0       0       0       0       0       0       0       0       0
       0       0       0       0       0       0       0       0       0       0
       0       0       0       0       0       0       0       0       0       0
       0       0       0       0       0       0       0       0       0       0
       0       0       0       0       0       0       0       0       0       0
       0       0       0       0       0       0       0       0       0       0
       0       0       0       0       0       0       0       0       0       0
       0       0       0       0       0       0       0       0       0       0
       0       0       0       0       0       0       0       0       0       0
       0       0       0       0       0       0       0       0       0       0
       0       0       0       0       0       0       0       0       0       0
       0       0       0       0       0       0       0       0       0       0
       0       0       0       0       0       0       0       0       0       0
       0       0       0       0       0       0       0       0       0       0
       0       0       0       0       0       0       0       0       0       0
       0       0       0       0       0       0       0       0       0       0
       0       0       0       0       0       0       0       0       0       0
       0       0       0       0       0       0       0       0       0       0
       0       0       0       0       0       0       0       0       0       0
       0       0       0       0       0       0       0       0       0       0
       0       0       0       0       0       0       0       0       0       0
       0       0       0       0       0       0       0       0       0       0
       0       0       0       0       0       0       0       0       0       0
       0       0       0       0       0       0       0       0       0       0
       0       0       0       0       0       0       0       0       0       0
       0       0       0       0       0       0       0       0       0       0
       0       0       0       0       0       0       0       0       0       0
       0       0       0       0       0       0       0       0       0       0
       0       0       0       0       0       0       0       0       0       0
       0       0       0       0       0       0       0       0       0       0
       0       0       0       0       0       0       0       0       0       0
       0       0       0       0       0       0       0       0       0       0
       0       0       0       0       0       0       0       0       0       0
       0       0       0       0       0       0       0       0       0       0
       0       0       0       0       0       0       0       0       0       0
       0       0       0       0       0       0       0       0       0       0
       0       0       0       0       0       0       0       0       0       0
       0       0       0       0       0       0       0       0       0       0
       0       0       0       0       0       0       0       0       0       0
       0       0       0       0       0       0       0       0       0       0
       0       0       0       0       0       0       0       0       0       0
       0       0       0       0       0       0       0       0       0       0
       0       0       0       0       0       0       0       0       0       0
       0       0       0       0       0       0       0       0       0       0
       0       0       0       0       0       0       0       0       0       0
       0       0       0       0       0       0       0       0       0       0
       0       0       0       0       0       0       0       0       0       0
       0       0       0       0       0       0       0       0       0       0
       0       0       0       0       0       0       0       0       0       0
       0       0       0       0       0       0       0       0       0       0
       0       0       0       0       0       0       0       0       0       0
       0       0       0       0       0       0       0       0       0       0
       0       0       0       0       0       0       0       0       0       0
       0       0       0       0       0       0       0       0       0       0
       0       0       0       0       0       0       0       0       0       0
       0       0       0       0       0       0       0       0       0       0
       0       0       0       0       0       0       0       0       0       0
       0       0       0       0       0       0       0       0       0       0
       0       0       0       0       0       0       0       0       0       0
       0       0       0       0       0       0       0       0       0       0
       0       0       0       0       0       0       0       0       0       0
       0       0       0       0       0       0       0       0       0       0
       0       0       0       0       0       0       0       0       0       0
       0       0       0       0       0       0       0       0       0       0
       0       0       0       0       0       0       0       0       0       0
       0       0       0       0       0       0       0       0       0       0
       0       0       0       0       0       0       0       0       0       0
       0       0       0       0       0       0       0       0       0       0
       0       0       0       0       0       0       0       0       0       0
       0       0       0       0       0       0       0       0       0       0
       0       0       0       0       0       0       0       0       0       0
       0       0       0       0       0       0       0       0       0       0
       0       0       0       0       0       0       0       0       0       0
       0       0       0       0       0       0       0       0       0       0
       0       0       0       0
%FLAG SOLVENT_POINTERS                                                          
%FORMAT(3I8)                                                                    
      36    3182      22
%FLAG ATOMS_PER_MOLECULE                                                        
%FORMAT(10I8)                                                                   
     510       1       1       1       1       1       1       1       1       1
       1       1       1       1       1       1       1       1       1       1
       1       4       4       4       4       4       4       4       4       4
       4       4       4       4       4       4       4       4       4       4
       4       4       4       4       4       4       4       4       4       4
       4       4       4       4       4       4       4       4       4       4
       4       4       4       4       4       4       4       4       4       4
       4       4       4       4       4       4       4       4       4       4
       4       4       4       4       4       4       4       4       4       4
       4       4       4       4       4       4       4       4       4       4
       4       4       4       4       4       4       4       4       4       4
       4       4       4       4       4       4       4       4       4       4
       4       4       4       4       4       4       4       4       4       4
       4       4       4       4       4       4       4       4       4       4
       4       4       4       4       4       4       4       4       4       4
       4       4       4       4       4       4       4       4       4       4
       4       4       4       4       4       4       4       4       4       4
       4       4       4       4       4       4       4       4       4       4
       4       4       4       4       4       4       4       4       4       4
       4       4       4       4       4       4       4       4       4       4
       4       4       4       4       4       4       4       4       4       4
       4       4       4       4       4       4       4       4       4       4
       4       4       4       4       4       4       4       4       4       4
       4       4       4       4       4       4       4       4       4       4
       4       4       4       4       4       4       4       4       4       4
       4       4       4       4       4       4       4       4       4       4
       4       4       4       4       4       4       4       4       4       4
       4       4       4       4       4       4       4       4       4       4
       4       4       4       4       4       4       4       4       4       4
       4       4       4       4       4       4       4       4       4       4
       4       4       4       4       4       4       4       4       4       4
       4       4       4       4       4       4       4       4       4       4
       4       4       4       4       4       4       4       4       4       4
       4       4       4       4       4       4       4       4       4       4
       4       4       4       4       4       4       4       4       4       4
       4       4       4       4       4       4       4       4       4       4
       4       4       4       4       4       4       4       4       4       4
       4       4       4       4       4       4       4       4       4       4
       4       4       4       4       4       4       4       4       4       4
       4       4       4       4       4       4       4       4       4       4
       4       4       4       4       4       4       4       4       4       4
       4       4       4       4       4       4       4       4       4       4
       4       4       4       4       4       4       4       4       4       4
       4       4       4       4       4       4       4       4       4       4
       4       4       4       4       4       4       4       4       4       4
       4       4       4       4       4       4       4       4       4       4
       4       4       4       4       4       4       4       4       4       4
       4       4       4       4       4       4       4       4       4       4
       4       4       4       4       4       4       4       4       4       4
       4       4       4       4       4       4       4       4       4       4
       4       4       4       4       4       4       4       4       4       4
       4       4       4       4       4       4       4       4       4       4
       4       4       4       4       4       4       4       4       4       4
       4       4       4       4       4       4       4       4       4       4
       4       4       4       4       4       4       4       4       4       4
       4       4       4       4       4       4       4       4       4       4
       4       4       4       4       4       4       4       4       4       4
       4       4       4       4       4       4       4       4       4       4
       4       4       4       4       4       4       4       4       4       4
       4       4       4       4       4       4       4       4       4       4
       4       4       4       4       4       4       4       4       4       4
       4       4       4       4       4       4       4       4       4       4
       4       4       4       4       4       4       4       4       4       4
       4       4       4       4       4       4       4       4       4       4
       4       4       4       4       4       4       4       4       4       4
       4       4       4       4       4       4       4       4       4       4
       4       4       4       4       4       4       4       4       4       4
       4       4       4       4       4       4       4       4       4       4
       4       4       4       4       4       4       4       4       4       4
       4       4       4       4       4       4       4       4       4       4
       4       4       4       4       4       4       4       4       4       4
       4       4       4       4       4       4       4       4       4       4
       4       4       4       4       4       4       4       4       4       4
       4       4       4       4       4       4       4       4       4       4
       4       4       4       4       4       4       4       4       4       4
       4       4       4       4       4       4       4       4       4       4
       4       4       4       4       4       4       4       4       4       4
       4       4       4       4       4       4       4       4       4       4
       4       4       4       4       4       4       4       4       4       4
       4       4       4       4       4       4       4       4       4       4
       4       4       4       4       4       4       4       4       4       4
       4       4       4       4       4       4       4       4       4       4
       4       4       4       4       4       4       4       4       4       4
       4       4       4       4       4       4       4       4       4       4
       4       4       4       4       4       4       4       4       4       4
       4       4       4       4       4       4       4       4       4       4
       4       4       4       4       4       4       4       4       4       4
       4       4       4       4       4       4       4       4       4       4
       4       4       4       4       4       4       4       4       4       4
       4       4       4       4       4       4       4       4       4       4
       4       4       4       4       4       4       4       4       4       4
       4       4       4       4       4       4       4       4       4       4
       4       4       4       4       4       4       4       4       4       4
       4       4       4       4       4       4       4       4       4       4
       4       4       4       4       4       4       4       4       4       4
       4       4       4       4       4       4       4       4       4       4
       4       4       4       4       4       4       4       4       4       4
       4       4       4       4       4       4       4       4       4       4
       4       4       4       4       4       4       4       4       4       4
       4       4       4       4       4       4       4       4       4       4
       4       4       4       4       4       4       4       4       4       4
       4       4       4       4       4       4       4       4       4       4
       4       4       4       4       4       4       4       4       4       4
       4       4       4       4       4       4       4       4       4       4
       4       4       4       4       4       4       4       4       4       4
       4       4       4       4       4       4       4       4       4       4
       4       4       4       4       4       4       4       4       4       4
       4       4       4       4       4       4       4       4       4       4
       4       4       4       4       4       4       4       4       4       4
       4       4       4       4       4       4       4       4       4       4
       4       4       4       4       4       4       4       4       4       4
       4       4       4       4       4       4       4       4       4       4
       4       4       4       4       4       4       4       4       4       4
       4       4       4       4       4       4       4       4       4       4
       4       4       4       4       4       4       4       4       4       4
       4       4       4       4       4       4       4       4       4       4
       4       4       4       4       4       4       4       4       4       4
       4       4       4       4       4       4       4       4       4       4
       4       4       4       4       4       4       4       4       4       4
       4       4       4       4       4       4       4       4       4       4
       4       4       4       4       4       4       4       4       4       4
       4       4       4       4       4       4       4       4       4       4
       4       4       4       4       4       4       4       4       4       4
       4       4       4       4       4       4       4       4       4       4
       4       4       4       4       4       4       4       4       4       4
       4       4       4       4       4       4       4       4       4       4
       4       4       4       4       4       4       4       4       4       4
       4       4       4       4       4       4       4       4       4       4
       4       4       4       4       4       4       4       4       4       4
       4       4       4       4       4       4       4       4       4       4
       4       4       4       4       4       4       4       4       4       4
       4       4       4       4       4       4       4       4       4       4
       4       4       4       4       4       4       4       4       4       4
       4       4       4       4       4       4       4       4       4       4
       4       4       4       4       4       4       4       4       4       4
       4       4       4       4       4       4       4       4       4       4
       4       4       4       4       4       4       4       4       4       4
       4       4       4       4       4       4       4       4       4       4
       4       4       4       4       4       4       4       4       4       4
       4       4       4       4       4       4       4       4       4       4
       4       4       4       4       4       4       4       4       4       4
       4       4       4       4       4       4       4       4       4       4
       4       4       4       4       4       4       4       4       4       4
       4       4       4       4       4       4       4       4       4       4
       4       4       4       4       4       4       4       4       4       4
       4       4       4       4       4       4       4       4       4       4
       4       4       4       4       4       4       4       4       4       4
       4       4       4       4       4       4       4       4       4       4
       4       4       4       4       4       4       4       4       4       4
       4       4       4       4       4       4       4       4       4       4
       4       4       4       4       4       4       4       4       4       4
       4       4       4       4       4       4       4       4       4       4
       4       4       4       4       4       4       4       4       4       4
       4       4       4       4       4       4       4       4       4       4
       4       4       4       4       4       4       4       4       4       4
       4       4       4       4       4       4       4       4       4       4
       4       4       4       4       4       4       4       4       4       4
       4       4       4       4       4       4       4       4       4       4
       4       4       4       4       4       4       4       4       4       4
       4       4       4       4       4       4       4       4       4       4
       4       4       4       4       4       4       4       4       4       4
       4       4       4       4       4       4       4       4       4       4
       4       4       4       4       4       4       4       4       4       4
       4       4       4       4       4       4       4       4       4       4
       4       4       4       4       4       4       4       4       4       4
       4       4       4       4       4       4       4       4       4       4
       4       4       4       4       4       4       4       4       4       4
       4       4       4       4       4       4       4       4       4       4
       4       4       4       4       4       4       4       4       4       4
       4       4       4       4       4       4       4       4       4       4
       4       4       4       4       4       4       4       4       4       4
       4       4       4       4       4       4       4       4       4       4
       4       4       4       4       4       4       4       4       4       4
       4       4       4       4       4       4       4       4       4       4
       4       4       4       4       4       4       4       4       4       4
       4       4       4       4       4       4       4       4       4       4
       4       4       4       4       4       4       4       4       4       4
       4       4       4       4       4       4       4       4       4       4
       4       4       4       4       4       4       4       4       4       4
       4       4       4       4       4       4       4       4       4       4
       4       4       4       4       4       4       4       4       4       4
       4       4       4       4       4       4       4       4       4       4
       4       4       4       4       4       4       4       4       4       4
       4       4       4       4       4       4       4       4       4       4
       4       4       4       4       4       4       4       4       4       4
       4       4       4       4       4       4       4       4       4       4
       4       4       4       4       4       4       4       4       4       4
       4       4       4       4       4       4       4       4       4       4
       4       4       4       4       4       4       4       4       4       4
       4       4       4       4       4       4       4       4       4       4
       4       4       4       4       4       4       4       4       4       4
       4       4       4       4       4       4       4       4       4       4
       4       4       4       4       4       4       4       4       4       4
       4       4       4       4       4       4       4       4       4       4
       4       4       4       4       4       4       4       4       4       4
       4       4       4       4       4       4       4       4       4       4
       4       4       4       4       4       4       4       4       4       4
       4       4       4       4       4       4       4       4       4       4
       4       4       4       4       4       4       4       4       4       4
       4       4       4       4       4       4       4       4       4       4
       4       4       4       4       4       4       4       4       4       4
       4       4       4       4       4       4       4       4       4       4
       4       4       4       4       4       4       4       4       4       4
       4       4       4       4       4       4       4       4       4       4
       4       4       4       4       4       4       4       4       4       4
       4       4       4       4       4       4       4       4       4       4
       4       4       4       4       4       4       4       4       4       4
       4       4       4       4       4       4       4       4       4       4
       4       4       4       4       4       4       4       4       4       4
       4       4       4       4       4       4       4       4       4       4
       4       4       4       4       4       4       4       4       4       4
       4       4       4       4       4       4       4       4       4       4
       4       4       4       4       4       4       4       4       4       4
       4       4       4       4       4       4       4       4       4       4
       4       4       4       4       4       4       4       4       4       4
       4       4       4       4       4       4       4       4       4       4
       4       4       4       4       4       4       4       4       4       4
       4       4       4       4       4       4       4       4       4       4
       4       4       4       4       4       4       4       4       4       4
       4       4       4       4       4       4       4       4       4       4
       4       4       4       4       4       4       4       4       4       4
       4       4       4       4       4       4       4       4       4       4
       4       4       4       4       4       4       4       4       4       4
       4       4       4       4       4       4       4       4       4       4
       4       4       4       4       4       4       4       4       4       4
       4       4       4       4       4       4       4       4       4       4
       4       4       4       4       4       4       4       4       4       4
       4       4       4       4       4       4       4       4       4       4
       4       4       4       4       4       4       4       4       4       4
       4       4       4       4       4       4       4       4       4       4
       4       4       4       4       4       4       4       4       4       4
       4       4       4       4       4       4       4       4       4       4
       4       4       4       4       4       4       4       4       4       4
       4       4       4       4       4       4       4       4       4       4
       4       4       4       4       4       4       4       4       4       4
       4       4       4       4       4       4       4       4       4       4
       4       4       4       4       4       4       4       4       4       4
       4       4       4       4       4       4       4       4       4       4
       4       4       4       4       4       4       4       4       4       4
       4       4       4       4       4       4       4       4       4       4
       4       4       4       4       4       4       4       4       4       4
       4       4       4       4       4       4       4       4       4       4
       4       4       4       4       4       4       4       4       4       4
       4       4       4       4       4       4       4       4       4       4
       4       4       4       4       4       4       4       4       4       4
       4       4       4       4       4       4       4       4       4       4
       4       4       4       4       4       4       4       4       4       4
       4       4       4       4       4       4       4       4       4       4
       4       4       4       4       4       4       4       4       4       4
       4       4       4       4       4       4       4       4       4       4
       4       4       4       4       4       4       4       4       4       4
       4       4       4       4       4       4       4       4       4       4
       4       4       4       4       4       4       4       4       4       4
       4       4       4       4       4       4       4       4       4       4
       4       4       4       4       4       4       4       4       4       4
       4       4       4       4       4       4       4       4       4       4
       4       4       4       4       4       4       4       4       4       4
       4       4       4       4       4       4       4       4       4       4
       4       4       4       4       4       4       4       4       4       4
       4       4       4       4       4       4       4       4       4       4
       4       4       4       4       4       4       4       4       4       4
       4       4       4       4       4       4       4       4       4       4
       4       4       4       4       4       4       4       4       4       4
       4       4       4       4       4       4       4       4       4       4
       4       4       4       4       4       4       4       4       4       4
       4       4       4       4       4       4       4       4       4       4
       4       4       4       4       4       4       4       4       4       4
       4       4       4       4       4       4       4       4       4       4
       4       4       4       4       4       4       4       4       4       4
       4       4       4       4       4       4       4       4       4       4
       4       4       4       4       4       4       4       4       4       4
       4       4       4       4       4       4       4       4       4       4
       4       4       4       4       4       4       4       4       4       4
       4       4       4       4       4       4       4       4       4       4
       4       4       4       4       4       4       4       4       4       4
       4       4       4       4       4       4       4       4       4       4
       4       4       4       4       4       4       4       4       4       4
       4       4       4       4       4       4       4       4       4       4
       4       4       4       4       4       4       4       4       4       4
       4       4       4       4       4       4       4       4       4       4
       4       4       4       4       4       4       4       4       4       4
       4       4       4       4       4       4       4       4       4       4
       4       4       4       4       4       4       4       4       4       4
       4       4       4       4       4       4       4       4       4       4
       4       4       4       4       4       4       4       4       4       4
       4       4       4       4       4       4       4       4       4       4
       4       4       4       4       4       4       4       4       4       4
       4       4       4       4       4       4       4       4       4       4
       4       4       4       4       4       4       4       4       4       4
       4       4       4       4       4       4       4       4       4       4
       4       4       4       4       4       4       4       4       4       4
       4       4       4       4       4       4       4       4       4       4
       4       4       4       4       4       4       4       4       4       4
       4       4       4       4       4       4       4       4       4       4
       4       4       4       4       4       4       4       4       4       4
       4       4       4       4       4       4       4       4       4       4
       4       4       4       4       4       4       4       4       4       4
       4       4       4       4       4       4       4       4       4       4
       4       4       4       4       4       4       4       4       4       4
       4       4       4       4       4       4       4       4       4       4
       4       4       4       4       4       4       4       4       4       4
       4       4       4       4       4       4       4       4       4       4
       4       4       4       4       4       4       4       4       4       4
       4       4       4       4       4       4       4       4       4       4
       4       4       4       4       4       4       4       4       4       4
       4       4       4       4       4       4       4       4       4       4
       4       4       4       4       4       4       4       4       4       4
       4       4       4       4       4       4       4       4       4       4
       4       4       4       4       4       4       4       4       4       4
       4       4       4       4       4       4       4       4       4       4
       4       4       4       4       4       4       4       4       4       4
       4       4       4       4       4       4       4       4       4       4
       4       4       4       4       4       4       4       4       4       4
       4       4       4       4       4       4       4       4       4       4
       4       4       4       4       4       4       4       4       4       4
       4       4       4       4       4       4       4       4       4       4
       4       4       4       4       4       4       4       4       4       4
       4       4       4       4       4       4       4       4       4       4
       4       4
%FLAG BOX_DIMENSIONS                                                            
%FORMAT(5E16.8)                                                                 
  9.00000000E+01  5.14498620E+01  5.11198620E+01  5.21618620E+01
%FLAG RADIUS_SET                                                                
%FORMAT(1a80)                                                                   
modified Bondi radii (mbondi)                                                   
%FLAG RADII                                                                     
%FORMAT(5E16.8)                                                                 
  8.00000000E-01  1.50000000E+00  1.70000000E+00  1.30000000E+00  1.30000000E+00
  1.70000000E+00  1.30000000E+00  1.50000000E+00  1.70000000E+00  1.30000000E+00
  1.55000000E+00  1.70000000E+00  1.20000000E+00  1.55000000E+00  1.70000000E+00
  1.70000000E+00  1.55000000E+00  1.30000000E+00  1.30000000E+00  1.55000000E+00
  1.70000000E+00  1.30000000E+00  1.55000000E+00  1.70000000E+00  1.70000000E+00
  1.30000000E+00  1.70000000E+00  1.30000000E+00  1.50000000E+00  8.00000000E-01
  1.50000000E+00  1.85000000E+00  1.50000000E+00  1.50000000E+00  1.50000000E+00
  1.70000000E+00  1.30000000E+00  1.30000000E+00  1.70000000E+00  1.30000000E+00
  1.50000000E+00  1.70000000E+00  1.30000000E+00  1.55000000E+00  1.70000000E+00
  1.30000000E+00  1.55000000E+00  1.70000000E+00  1.70000000E+00  1.50000000E+00
  1.55000000E+00  1.30000000E+00  1.70000000E+00  1.55000000E+00  1.30000000E+00
  1.30000000E+00  1.55000000E+00  1.70000000E+00  1.70000000E+00  1.30000000E+00
  1.70000000E+00  1.30000000E+00  1.50000000E+00  8.00000000E-01  1.50000000E+00
  1.85000000E+00  1.50000000E+00  1.50000000E+00  1.50000000E+00  1.70000000E+00
  1.30000000E+00  1.30000000E+00  1.70000000E+00  1.30000000E+00  1.50000000E+00
  1.70000000E+00  1.30000000E+00  1.55000000E+00  1.70000000E+00  1.20000000E+00
  1.70000000E+00  1.20000000E+00  1.70000000E+00  1.55000000E+00  1.30000000E+00
  1.30000000E+00  1.55000000E+00  1.70000000E+00  1.50000000E+00  1.70000000E+00
  1.30000000E+00  1.70000000E+00  1.30000000E+00  1.50000000E+00  8.00000000E-01
  1.50000000E+00  1.85000000E+00  1.50000000E+00  1.50000000E+00  1.50000000E+00
  1.70000000E+00  1.30000000E+00  1.30000000E+00  1.70000000E+00  1.30000000E+00
  1.50000000E+00  1.70000000E+00  1.30000000E+00  1.55000000E+00  1.70000000E+00
  1.30000000E+00  1.55000000E+00  1.70000000E+00  1.70000000E+00  1.50000000E+00
  1.55000000E+00  1.30000000E+00  1.70000000E+00  1.55000000E+00  1.30000000E+00
  1.30000000E+00  1.55000000E+00  1.70000000E+00  1.70000000E+00  1.30000000E+00
  1.70000000E+00  1.30000000E+00  1.50000000E+00  8.00000000E-01  1.50000000E+00
  1.85000000E+00  1.50000000E+00  1.50000000E+00  1.50000000E+00  1.70000000E+00
  1.30000000E+00  1.30000000E+00  1.70000000E+00  1.30000000E+00  1.50000000E+00
  1.70000000E+00  1.30000000E+00  1.55000000E+00  1.70000000E+00  1.20000000E+00
  1.70000000E+00  1.20000000E+00  1.70000000E+00  1.55000000E+00  1.30000000E+00
  1.30000000E+00  1.55000000E+00  1.70000000E+00  1.50000000E+00  1.70000000E+00
  1.30000000E+00  1.70000000E+00  1.30000000E+00  1.50000000E+00  8.00000000E-01
  1.50000000E+00  1.85000000E+00  1.50000000E+00  1.50000000E+00  1.50000000E+00
  1.70000000E+00  1.30000000E+00  1.30000000E+00  1.70000000E+00  1.30000000E+00
  1.50000000E+00  1.70000000E+00  1.30000000E+00  1.55000000E+00  1.70000000E+00
  1.20000000E+00  1.70000000E+00  1.20000000E+00  1.70000000E+00  1.50000000E+00
  1.55000000E+00  1.30000000E+00  1.70000000E+00  1.50000000E+00  1.70000000E+00
  1.30000000E+00  1.70000000E+00  1.30000000E+00  1.50000000E+00  8.00000000E-01
  1.50000000E+00  1.85000000E+00  1.50000000E+00  1.50000000E+00  1.50000000E+00
  1.70000000E+00  1.30000000E+00  1.30000000E+00  1.70000000E+00  1.30000000E+00
  1.50000000E+00  1.70000000E+00  1.30000000E+00  1.55000000E+00  1.70000000E+00
  1.20000000E+00  1.70000000E+00  1.20000000E+00  1.70000000E+00  1.50000000E+00
  1.55000000E+00  1.30000000E+00  1.70000000E+00  1.50000000E+00  1.70000000E+00
  1.30000000E+00  1.70000000E+00  1.30000000E+00  1.50000000E+00  8.00000000E-01
  1.50000000E+00  1.85000000E+00  1.50000000E+00  1.50000000E+00  1.50000000E+00
  1.70000000E+00  1.30000000E+00  1.30000000E+00  1.70000000E+00  1.30000000E+00
  1.50000000E+00  1.70000000E+00  1.30000000E+00  1.55000000E+00  1.70000000E+00
  1.20000000E+00  1.70000000E+00  1.20000000E+00  1.70000000E+00  1.50000000E+00
  1.55000000E+00  1.30000000E+00  1.70000000E+00  1.50000000E+00  1.70000000E+00
  1.30000000E+00  1.70000000E+00  1.30000000E+00  1.50000000E+00  8.00000000E-01
  1.50000000E+00  1.85000000E+00  1.50000000E+00  1.50000000E+00  1.50000000E+00
  1.70000000E+00  1.30000000E+00  1.30000000E+00  1.70000000E+00  1.30000000E+00
  1.50000000E+00  1.70000000E+00  1.30000000E+00  1.55000000E+00  1.70000000E+00
  1.20000000E+00  1.70000000E+00  1.20000000E+00  1.70000000E+00  1.55000000E+00
  1.30000000E+00  1.30000000E+00  1.55000000E+00  1.70000000E+00  1.50000000E+00
  1.70000000E+00  1.30000000E+00  1.70000000E+00  1.30000000E+00  1.50000000E+00
  8.00000000E-01  1.50000000E+00  1.85000000E+00  1.50000000E+00  1.50000000E+00
  1.50000000E+00  1.70000000E+00  1.30000000E+00  1.30000000E+00  1.70000000E+00
  1.30000000E+00  1.50000000E+00  1.70000000E+00  1.30000000E+00  1.55000000E+00
  1.70000000E+00  1.30000000E+00  1.55000000E+00  1.70000000E+00  1.70000000E+00
  1.50000000E+00  1.55000000E+00  1.30000000E+00  1.70000000E+00  1.55000000E+00
  1.30000000E+00  1.30000000E+00  1.55000000E+00  1.70000000E+00  1.70000000E+00
  1.30000000E+00  1.70000000E+00  1.30000000E+00  1.50000000E+00  8.00000000E-01
  1.50000000E+00  1.85000000E+00  1.50000000E+00  1.50000000E+00  1.50000000E+00
  1.70000000E+00  1.30000000E+00  1.30000000E+00  1.70000000E+00  1.30000000E+00
  1.50000000E+00  1.70000000E+00  1.30000000E+00  1.55000000E+00  1.70000000E+00
  1.20000000E+00  1.55000000E+00  1.70000000E+00  1.70000000E+00  1.55000000E+00
  1.30000000E+00  1.30000000E+00  1.55000000E+00  1.70000000E+00  1.30000000E+00
  1.55000000E+00  1.70000000E+00  1.70000000E+00  1.30000000E+00  1.70000000E+00
  1.30000000E+00  1.50000000E+00  8.00000000E-01  1.50000000E+00  1.85000000E+00
  1.50000000E+00  1.50000000E+00  1.50000000E+00  1.70000000E+00  1.30000000E+00
  1.30000000E+00  1.70000000E+00  1.30000000E+00  1.50000000E+00  1.70000000E+00
  1.30000000E+00  1.55000000E+00  1.70000000E+00  1.30000000E+00  1.55000000E+00
  1.70000000E+00  1.70000000E+00  1.50000000E+00  1.55000000E+00  1.30000000E+00
  1.70000000E+00  1.55000000E+00  1.30000000E+00  1.30000000E+00  1.55000000E+00
  1.70000000E+00  1.70000000E+00  1.30000000E+00  1.70000000E+00  1.30000000E+00
  1.50000000E+00  8.00000000E-01  1.50000000E+00  1.85000000E+00  1.50000000E+00
  1.50000000E+00  1.50000000E+00  1.70000000E+00  1.30000000E+00  1.30000000E+00
  1.70000000E+00  1.30000000E+00  1.50000000E+00  1.70000000E+00  1.30000000E+00
  1.55000000E+00  1.70000000E+00  1.20000000E+00  1.70000000E+00  1.20000000E+00
  1.70000000E+00  1.55000000E+00  1.30000000E+00  1.30000000E+00  1.55000000E+00
  1.70000000E+00  1.50000000E+00  1.70000000E+00  1.30000000E+00  1.70000000E+00
  1.30000000E+00  1.50000000E+00  8.00000000E-01  1.50000000E+00  1.85000000E+00
  1.50000000E+00  1.50000000E+00  1.50000000E+00  1.70000000E+00  1.30000000E+00
  1.30000000E+00  1.70000000E+00  1.30000000E+00  1.50000000E+00  1.70000000E+00
  1.30000000E+00  1.55000000E+00  1.70000000E+00  1.30000000E+00  1.55000000E+00
  1.70000000E+00  1.70000000E+00  1.50000000E+00  1.55000000E+00  1.30000000E+00
  1.70000000E+00  1.55000000E+00  1.30000000E+00  1.30000000E+00  1.55000000E+00
  1.70000000E+00  1.70000000E+00  1.30000000E+00  1.70000000E+00  1.30000000E+00
  1.50000000E+00  8.00000000E-01  1.50000000E+00  1.85000000E+00  1.50000000E+00
  1.50000000E+00  1.50000000E+00  1.70000000E+00  1.30000000E+00  1.30000000E+00
  1.70000000E+00  1.30000000E+00  1.50000000E+00  1.70000000E+00  1.30000000E+00
  1.55000000E+00  1.70000000E+00  1.20000000E+00  1.70000000E+00  1.20000000E+00
  1.70000000E+00  1.55000000E+00  1.30000000E+00  1.30000000E+00  1.55000000E+00
  1.70000000E+00  1.50000000E+00  1.70000000E+00  1.30000000E+00  1.70000000E+00
  1.30000000E+00  1.50000000E+00  8.00000000E-01  1.50000000E+00  1.85000000E+00
  1.50000000E+00  1.50000000E+00  1.50000000E+00  1.70000000E+00  1.30000000E+00
  1.30000000E+00  1.70000000E+00  1.30000000E+00  1.50000000E+00  1.70000000E+00
  1.30000000E+00  1.55000000E+00  1.70000000E+00  1.20000000E+00  1.70000000E+00
  1.20000000E+00  1.70000000E+00  1.50000000E+00  1.55000000E+00  1.30000000E+00
  1.70000000E+00  1.50000000E+00  1.70000000E+00  1.30000000E+00  1.70000000E+00
  1.30000000E+00  1.50000000E+00  8.00000000E-01  1.50000000E+00  8.00000000E-01
  1.50000000E+00  1.50000000E+00  1.50000000E+00  1.50000000E+00  1.50000000E+00
  1.50000000E+00  1.50000000E+00  1.50000000E+00  1.50000000E+00  1.50000000E+00
  1.70000000E+00  1.70000000E+00  1.70000000E+00  1.70000000E+00  1.70000000E+00
  1.70000000E+00  1.70000000E+00  1.70000000E+00  1.70000000E+00  1.70000000E+00
  1.50000000E+00  8.00000000E-01  8.00000000E-01  1.50000000E+00  1.50000000E+00
  8.00000000E-01  8.00000000E-01  1.50000000E+00  1.50000000E+00  8.00000000E-01
  8.00000000E-01  1.50000000E+00  1.50000000E+00  8.00000000E-01  8.00000000E-01
  1.50000000E+00  1.50000000E+00  8.00000000E-01  8.00000000E-01  1.50000000E+00
  1.50000000E+00  8.00000000E-01  8.00000000E-01  1.50000000E+00  1.50000000E+00
  8.00000000E-01  8.00000000E-01  1.50000000E+00  1.50000000E+00  8.00000000E-01
  8.00000000E-01  1.50000000E+00  1.50000000E+00  8.00000000E-01  8.00000000E-01
  1.50000000E+00  1.50000000E+00  8.00000000E-01  8.00000000E-01  1.50000000E+00
  1.50000000E+00  8.00000000E-01  8.00000000E-01  1.50000000E+00  1.50000000E+00
  8.00000000E-01  8.00000000E-01  1.50000000E+00  1.50000000E+00  8.00000000E-01
  8.00000000E-01  1.50000000E+00  1.50000000E+00  8.00000000E-01  8.00000000E-01
  1.50000000E+00  1.50000000E+00  8.00000000E-01  8.00000000E-01  1.50000000E+00
  1.50000000E+00  8.00000000E-01  8.00000000E-01  1.50000000E+00  1.50000000E+00
  8.00000000E-01  8.00000000E-01  1.50000000E+00  1.50000000E+00  8.00000000E-01
  8.00000000E-01  1.50000000E+00  1.50000000E+00  8.00000000E-01  8.00000000E-01
  1.50000000E+00  1.50000000E+00  8.00000000E-01  8.00000000E-01  1.50000000E+00
  1.50000000E+00  8.00000000E-01  8.00000000E-01  1.50000000E+00  1.50000000E+00
  8.00000000E-01  8.00000000E-01  1.50000000E+00  1.50000000E+00  8.00000000E-01
  8.00000000E-01  1.50000000E+00  1.50000000E+00  8.00000000E-01  8.00000000E-01
  1.50000000E+00  1.50000000E+00  8.00000000E-01  8.00000000E-01  1.50000000E+00
  1.50000000E+00  8.00000000E-01  8.00000000E-01  1.50000000E+00  1.50000000E+00
  8.00000000E-01  8.00000000E-01  1.50000000E+00  1.50000000E+00  8.00000000E-01
  8.00000000E-01  1.50000000E+00  1.50000000E+00  8.00000000E-01  8.00000000E-01
  1.50000000E+00  1.50000000E+00  8.00000000E-01  8.00000000E-01  1.50000000E+00
  1.50000000E+00  8.00000000E-01  8.00000000E-01  1.50000000E+00  1.50000000E+00
  8.00000000E-01  8.00000000E-01  1.50000000E+00  1.50000000E+00  8.00000000E-01
  8.00000000E-01  1.50000000E+00  1.50000000E+00  8.00000000E-01  8.00000000E-01
  1.50000000E+00  1.50000000E+00  8.00000000E-01  8.00000000E-01  1.50000000E+00
  1.50000000E+00  8.00000000E-01  8.00000000E-01  1.50000000E+00  1.50000000E+00
  8.00000000E-01  8.00000000E-01  1.50000000E+00  1.50000000E+00  8.00000000E-01
  8.00000000E-01  1.50000000E+00  1.50000000E+00  8.00000000E-01  8.00000000E-01
  1.50000000E+00  1.50000000E+00  8.00000000E-01  8.00000000E-01  1.50000000E+00
  1.50000000E+00  8.00000000E-01  8.00000000E-01  1.50000000E+00  1.50000000E+00
  8.00000000E-01  8.00000000E-01  1.50000000E+00  1.50000000E+00  8.00000000E-01
  8.00000000E-01  1.50000000E+00  1.50000000E+00  8.00000000E-01  8.00000000E-01
  1.50000000E+00  1.50000000E+00  8.00000000E-01  8.00000000E-01  1.50000000E+00
  1.50000000E+00  8.00000000E-01  8.00000000E-01  1.50000000E+00  1.50000000E+00
  8.00000000E-01  8.00000000E-01  1.50000000E+00  1.50000000E+00  8.00000000E-01
  8.00000000E-01  1.50000000E+00  1.50000000E+00  8.00000000E-01  8.00000000E-01
  1.50000000E+00  1.50000000E+00  8.00000000E-01  8.00000000E-01  1.50000000E+00
  1.50000000E+00  8.00000000E-01  8.00000000E-01  1.50000000E+00  1.50000000E+00
  8.00000000E-01  8.00000000E-01  1.50000000E+00  1.50000000E+00  8.00000000E-01
  8.00000000E-01  1.50000000E+00  1.50000000E+00  8.00000000E-01  8.00000000E-01
  1.50000000E+00  1.50000000E+00  8.00000000E-01  8.00000000E-01  1.50000000E+00
  1.50000000E+00  8.00000000E-01  8.00000000E-01  1.50000000E+00  1.50000000E+00
  8.00000000E-01  8.00000000E-01  1.50000000E+00  1.50000000E+00  8.00000000E-01
  8.00000000E-01  1.50000000E+00  1.50000000E+00  8.00000000E-01  8.00000000E-01
  1.50000000E+00  1.50000000E+00  8.00000000E-01  8.00000000E-01  1.50000000E+00
  1.50000000E+00  8.00000000E-01  8.00000000E-01  1.50000000E+00  1.50000000E+00
  8.00000000E-01  8.00000000E-01  1.50000000E+00  1.50000000E+00  8.00000000E-01
  8.00000000E-01  1.50000000E+00  1.50000000E+00  8.00000000E-01  8.00000000E-01
  1.50000000E+00  1.50000000E+00  8.00000000E-01  8.00000000E-01  1.50000000E+00
  1.50000000E+00  8.00000000E-01  8.00000000E-01  1.50000000E+00  1.50000000E+00
  8.00000000E-01  8.00000000E-01  1.50000000E+00  1.50000000E+00  8.00000000E-01
  8.00000000E-01  1.50000000E+00  1.50000000E+00  8.00000000E-01  8.00000000E-01
  1.50000000E+00  1.50000000E+00  8.00000000E-01  8.00000000E-01  1.50000000E+00
  1.50000000E+00  8.00000000E-01  8.00000000E-01  1.50000000E+00  1.50000000E+00
  8.00000000E-01  8.00000000E-01  1.50000000E+00  1.50000000E+00  8.00000000E-01
  8.00000000E-01  1.50000000E+00  1.50000000E+00  8.00000000E-01  8.00000000E-01
  1.50000000E+00  1.50000000E+00  8.00000000E-01  8.00000000E-01  1.50000000E+00
  1.50000000E+00  8.00000000E-01  8.00000000E-01  1.50000000E+00  1.50000000E+00
  8.00000000E-01  8.00000000E-01  1.50000000E+00  1.50000000E+00  8.00000000E-01
  8.00000000E-01  1.50000000E+00  1.50000000E+00  8.00000000E-01  8.00000000E-01
  1.50000000E+00  1.50000000E+00  8.00000000E-01  8.00000000E-01  1.50000000E+00
  1.50000000E+00  8.00000000E-01  8.00000000E-01  1.50000000E+00  1.50000000E+00
  8.00000000E-01  8.00000000E-01  1.50000000E+00  1.50000000E+00  8.00000000E-01
  8.00000000E-01  1.50000000E+00  1.50000000E+00  8.00000000E-01  8.00000000E-01
  1.50000000E+00  1.50000000E+00  8.00000000E-01  8.00000000E-01  1.50000000E+00
  1.50000000E+00  8.00000000E-01  8.00000000E-01  1.50000000E+00  1.50000000E+00
  8.00000000E-01  8.00000000E-01  1.50000000E+00  1.50000000E+00  8.00000000E-01
  8.00000000E-01  1.50000000E+00  1.50000000E+00  8.00000000E-01  8.00000000E-01
  1.50000000E+00  1.50000000E+00  8.00000000E-01  8.00000000E-01  1.50000000E+00
  1.50000000E+00  8.00000000E-01  8.00000000E-01  1.50000000E+00  1.50000000E+00
  8.00000000E-01  8.00000000E-01  1.50000000E+00  1.50000000E+00  8.00000000E-01
  8.00000000E-01  1.50000000E+00  1.50000000E+00  8.00000000E-01  8.00000000E-01
  1.50000000E+00  1.50000000E+00  8.00000000E-01  8.00000000E-01  1.50000000E+00
  1.50000000E+00  8.00000000E-01  8.00000000E-01  1.50000000E+00  1.50000000E+00
  8.00000000E-01  8.00000000E-01  1.50000000E+00  1.50000000E+00  8.00000000E-01
  8.00000000E-01  1.50000000E+00  1.50000000E+00  8.00000000E-01  8.00000000E-01
  1.50000000E+00  1.50000000E+00  8.00000000E-01  8.00000000E-01  1.50000000E+00
  1.50000000E+00  8.00000000E-01  8.00000000E-01  1.50000000E+00  1.50000000E+00
  8.00000000E-01  8.00000000E-01  1.50000000E+00  1.50000000E+00  8.00000000E-01
  8.00000000E-01  1.50000000E+00  1.50000000E+00  8.00000000E-01  8.00000000E-01
  1.50000000E+00  1.50000000E+00  8.00000000E-01  8.00000000E-01  1.50000000E+00
  1.50000000E+00  8.00000000E-01  8.00000000E-01  1.50000000E+00  1.50000000E+00
  8.00000000E-01  8.00000000E-01  1.50000000E+00  1.50000000E+00  8.00000000E-01
  8.00000000E-01  1.50000000E+00  1.50000000E+00  8.00000000E-01  8.00000000E-01
  1.50000000E+00  1.50000000E+00  8.00000000E-01  8.00000000E-01  1.50000000E+00
  1.50000000E+00  8.00000000E-01  8.00000000E-01  1.50000000E+00  1.50000000E+00
  8.00000000E-01  8.00000000E-01  1.50000000E+00  1.50000000E+00  8.00000000E-01
  8.00000000E-01  1.50000000E+00  1.50000000E+00  8.00000000E-01  8.00000000E-01
  1.50000000E+00  1.50000000E+00  8.00000000E-01  8.00000000E-01  1.50000000E+00
  1.50000000E+00  8.00000000E-01  8.00000000E-01  1.50000000E+00  1.50000000E+00
  8.00000000E-01  8.00000000E-01  1.50000000E+00  1.50000000E+00  8.00000000E-01
  8.00000000E-01  1.50000000E+00  1.50000000E+00  8.00000000E-01  8.00000000E-01
  1.50000000E+00  1.50000000E+00  8.00000000E-01  8.00000000E-01  1.50000000E+00
  1.50000000E+00  8.00000000E-01  8.00000000E-01  1.50000000E+00  1.50000000E+00
  8.00000000E-01  8.00000000E-01  1.50000000E+00  1.50000000E+00  8.00000000E-01
  8.00000000E-01  1.50000000E+00  1.50000000E+00  8.00000000E-01  8.00000000E-01
  1.50000000E+00  1.50000000E+00  8.00000000E-01  8.00000000E-01  1.50000000E+00
  1.50000000E+00  8.00000000E-01  8.00000000E-01  1.50000000E+00  1.50000000E+00
  8.00000000E-01  8.00000000E-01  1.50000000E+00  1.50000000E+00  8.00000000E-01
  8.00000000E-01  1.50000000E+00  1.50000000E+00  8.00000000E-01  8.00000000E-01
  1.50000000E+00  1.50000000E+00  8.00000000E-01  8.00000000E-01  1.50000000E+00
  1.50000000E+00  8.00000000E-01  8.00000000E-01  1.50000000E+00  1.50000000E+00
  8.00000000E-01  8.00000000E-01  1.50000000E+00  1.50000000E+00  8.00000000E-01
  8.00000000E-01  1.50000000E+00  1.50000000E+00  8.00000000E-01  8.00000000E-01
  1.50000000E+00  1.50000000E+00  8.00000000E-01  8.00000000E-01  1.50000000E+00
  1.50000000E+00  8.00000000E-01  8.00000000E-01  1.50000000E+00  1.50000000E+00
  8.00000000E-01  8.00000000E-01  1.50000000E+00  1.50000000E+00  8.00000000E-01
  8.00000000E-01  1.50000000E+00  1.50000000E+00  8.00000000E-01  8.00000000E-01
  1.50000000E+00  1.50000000E+00  8.00000000E-01  8.00000000E-01  1.50000000E+00
  1.50000000E+00  8.00000000E-01  8.00000000E-01  1.50000000E+00  1.50000000E+00
  8.00000000E-01  8.00000000E-01  1.50000000E+00  1.50000000E+00  8.00000000E-01
  8.00000000E-01  1.50000000E+00  1.50000000E+00  8.00000000E-01  8.00000000E-01
  1.50000000E+00  1.50000000E+00  8.00000000E-01  8.00000000E-01  1.50000000E+00
  1.50000000E+00  8.00000000E-01  8.00000000E-01  1.50000000E+00  1.50000000E+00
  8.00000000E-01  8.00000000E-01  1.50000000E+00  1.50000000E+00  8.00000000E-01
  8.00000000E-01  1.50000000E+00  1.50000000E+00  8.00000000E-01  8.00000000E-01
  1.50000000E+00  1.50000000E+00  8.00000000E-01  8.00000000E-01  1.50000000E+00
  1.50000000E+00  8.00000000E-01  8.00000000E-01  1.50000000E+00  1.50000000E+00
  8.00000000E-01  8.00000000E-01  1.50000000E+00  1.50000000E+00  8.00000000E-01
  8.00000000E-01  1.50000000E+00  1.50000000E+00  8.00000000E-01  8.00000000E-01
  1.50000000E+00  1.50000000E+00  8.00000000E-01  8.00000000E-01  1.50000000E+00
  1.50000000E+00  8.00000000E-01  8.00000000E-01  1.50000000E+00  1.50000000E+00
  8.00000000E-01  8.00000000E-01  1.50000000E+00  1.50000000E+00  8.00000000E-01
  8.00000000E-01  1.50000000E+00  1.50000000E+00  8.00000000E-01  8.00000000E-01
  1.50000000E+00  1.50000000E+00  8.00000000E-01  8.00000000E-01  1.50000000E+00
  1.50000000E+00  8.00000000E-01  8.00000000E-01  1.50000000E+00  1.50000000E+00
  8.00000000E-01  8.00000000E-01  1.50000000E+00  1.50000000E+00  8.00000000E-01
  8.00000000E-01  1.50000000E+00  1.50000000E+00  8.00000000E-01  8.00000000E-01
  1.50000000E+00  1.50000000E+00  8.00000000E-01  8.00000000E-01  1.50000000E+00
  1.50000000E+00  8.00000000E-01  8.00000000E-01  1.50000000E+00  1.50000000E+00
  8.00000000E-01  8.00000000E-01  1.50000000E+00  1.50000000E+00  8.00000000E-01
  8.00000000E-01  1.50000000E+00  1.50000000E+00  8.00000000E-01  8.00000000E-01
  1.50000000E+00  1.50000000E+00  8.00000000E-01  8.00000000E-01  1.50000000E+00
  1.50000000E+00  8.00000000E-01  8.00000000E-01  1.50000000E+00  1.50000000E+00
  8.00000000E-01  8.00000000E-01  1.50000000E+00  1.50000000E+00  8.00000000E-01
  8.00000000E-01  1.50000000E+00  1.50000000E+00  8.00000000E-01  8.00000000E-01
  1.50000000E+00  1.50000000E+00  8.00000000E-01  8.00000000E-01  1.50000000E+00
  1.50000000E+00  8.00000000E-01  8.00000000E-01  1.50000000E+00  1.50000000E+00
  8.00000000E-01  8.00000000E-01  1.50000000E+00  1.50000000E+00  8.00000000E-01
  8.00000000E-01  1.50000000E+00  1.50000000E+00  8.00000000E-01  8.00000000E-01
  1.50000000E+00  1.50000000E+00  8.00000000E-01  8.00000000E-01  1.50000000E+00
  1.50000000E+00  8.00000000E-01  8.00000000E-01  1.50000000E+00  1.50000000E+00
  8.00000000E-01  8.00000000E-01  1.50000000E+00  1.50000000E+00  8.00000000E-01
  8.00000000E-01  1.50000000E+00  1.50000000E+00  8.00000000E-01  8.00000000E-01
  1.50000000E+00  1.50000000E+00  8.00000000E-01  8.00000000E-01  1.50000000E+00
  1.50000000E+00  8.00000000E-01  8.00000000E-01  1.50000000E+00  1.50000000E+00
  8.00000000E-01  8.00000000E-01  1.50000000E+00  1.50000000E+00  8.00000000E-01
  8.00000000E-01  1.50000000E+00  1.50000000E+00  8.00000000E-01  8.00000000E-01
  1.50000000E+00  1.50000000E+00  8.00000000E-01  8.00000000E-01  1.50000000E+00
  1.50000000E+00  8.00000000E-01  8.00000000E-01  1.50000000E+00  1.50000000E+00
  8.00000000E-01  8.00000000E-01  1.50000000E+00  1.50000000E+00  8.00000000E-01
  8.00000000E-01  1.50000000E+00  1.50000000E+00  8.00000000E-01  8.00000000E-01
  1.50000000E+00  1.50000000E+00  8.00000000E-01  8.00000000E-01  1.50000000E+00
  1.50000000E+00  8.00000000E-01  8.00000000E-01  1.50000000E+00  1.50000000E+00
  8.00000000E-01  8.00000000E-01  1.50000000E+00  1.50000000E+00  8.00000000E-01
  8.00000000E-01  1.50000000E+00  1.50000000E+00  8.00000000E-01  8.00000000E-01
  1.50000000E+00  1.50000000E+00  8.00000000E-01  8.00000000E-01  1.50000000E+00
  1.50000000E+00  8.00000000E-01  8.00000000E-01  1.50000000E+00  1.50000000E+00
  8.00000000E-01  8.00000000E-01  1.50000000E+00  1.50000000E+00  8.00000000E-01
  8.00000000E-01  1.50000000E+00  1.50000000E+00  8.00000000E-01  8.00000000E-01
  1.50000000E+00  1.50000000E+00  8.00000000E-01  8.00000000E-01  1.50000000E+00
  1.50000000E+00  8.00000000E-01  8.00000000E-01  1.50000000E+00  1.50000000E+00
  8.00000000E-01  8.00000000E-01  1.50000000E+00  1.50000000E+00  8.00000000E-01
  8.00000000E-01  1.50000000E+00  1.50000000E+00  8.00000000E-01  8.00000000E-01
  1.50000000E+00  1.50000000E+00  8.00000000E-01  8.00000000E-01  1.50000000E+00
  1.50000000E+00  8.00000000E-01  8.00000000E-01  1.50000000E+00  1.50000000E+00
  8.00000000E-01  8.00000000E-01  1.50000000E+00  1.50000000E+00  8.00000000E-01
  8.00000000E-01  1.50000000E+00  1.50000000E+00  8.00000000E-01  8.00000000E-01
  1.50000000E+00  1.50000000E+00  8.00000000E-01  8.00000000E-01  1.50000000E+00
  1.50000000E+00  8.00000000E-01  8.00000000E-01  1.50000000E+00  1.50000000E+00
  8.00000000E-01  8.00000000E-01  1.50000000E+00  1.50000000E+00  8.00000000E-01
  8.00000000E-01  1.50000000E+00  1.50000000E+00  8.00000000E-01  8.00000000E-01
  1.50000000E+00  1.50000000E+00  8.00000000E-01  8.00000000E-01  1.50000000E+00
  1.50000000E+00  8.00000000E-01  8.00000000E-01  1.50000000E+00  1.50000000E+00
  8.00000000E-01  8.00000000E-01  1.50000000E+00  1.50000000E+00  8.00000000E-01
  8.00000000E-01  1.50000000E+00  1.50000000E+00  8.00000000E-01  8.00000000E-01
  1.50000000E+00  1.50000000E+00  8.00000000E-01  8.00000000E-01  1.50000000E+00
  1.50000000E+00  8.00000000E-01  8.00000000E-01  1.50000000E+00  1.50000000E+00
  8.00000000E-01  8.00000000E-01  1.50000000E+00  1.50000000E+00  8.00000000E-01
  8.00000000E-01  1.50000000E+00  1.50000000E+00  8.00000000E-01  8.00000000E-01
  1.50000000E+00  1.50000000E+00  8.00000000E-01  8.00000000E-01  1.50000000E+00
  1.50000000E+00  8.00000000E-01  8.00000000E-01  1.50000000E+00  1.50000000E+00
  8.00000000E-01  8.00000000E-01  1.50000000E+00  1.50000000E+00  8.00000000E-01
  8.00000000E-01  1.50000000E+00  1.50000000E+00  8.00000000E-01  8.00000000E-01
  1.50000000E+00  1.50000000E+00  8.00000000E-01  8.00000000E-01  1.50000000E+00
  1.50000000E+00  8.00000000E-01  8.00000000E-01  1.50000000E+00  1.50000000E+00
  8.00000000E-01  8.00000000E-01  1.50000000E+00  1.50000000E+00  8.00000000E-01
  8.00000000E-01  1.50000000E+00  1.50000000E+00  8.00000000E-01  8.00000000E-01
  1.50000000E+00  1.50000000E+00  8.00000000E-01  8.00000000E-01  1.50000000E+00
  1.50000000E+00  8.00000000E-01  8.00000000E-01  1.50000000E+00  1.50000000E+00
  8.00000000E-01  8.00000000E-01  1.50000000E+00  1.50000000E+00  8.00000000E-01
  8.00000000E-01  1.50000000E+00  1.50000000E+00  8.00000000E-01  8.00000000E-01
  1.50000000E+00  1.50000000E+00  8.00000000E-01  8.00000000E-01  1.50000000E+00
  1.50000000E+00  8.00000000E-01  8.00000000E-01  1.50000000E+00  1.50000000E+00
  8.00000000E-01  8.00000000E-01  1.50000000E+00  1.50000000E+00  8.00000000E-01
  8.00000000E-01  1.50000000E+00  1.50000000E+00  8.00000000E-01  8.00000000E-01
  1.50000000E+00  1.50000000E+00  8.00000000E-01  8.00000000E-01  1.50000000E+00
  1.50000000E+00  8.00000000E-01  8.00000000E-01  1.50000000E+00  1.50000000E+00
  8.00000000E-01  8.00000000E-01  1.50000000E+00  1.50000000E+00  8.00000000E-01
  8.00000000E-01  1.50000000E+00  1.50000000E+00  8.00000000E-01  8.00000000E-01
  1.50000000E+00  1.50000000E+00  8.00000000E-01  8.00000000E-01  1.50000000E+00
  1.50000000E+00  8.00000000E-01  8.00000000E-01  1.50000000E+00  1.50000000E+00
  8.00000000E-01  8.00000000E-01  1.50000000E+00  1.50000000E+00  8.00000000E-01
  8.00000000E-01  1.50000000E+00  1.50000000E+00  8.00000000E-01  8.00000000E-01
  1.50000000E+00  1.50000000E+00  8.00000000E-01  8.00000000E-01  1.50000000E+00
  1.50000000E+00  8.00000000E-01  8.00000000E-01  1.50000000E+00  1.50000000E+00
  8.00000000E-01  8.00000000E-01  1.50000000E+00  1.50000000E+00  8.00000000E-01
  8.00000000E-01  1.50000000E+00  1.50000000E+00  8.00000000E-01  8.00000000E-01
  1.50000000E+00  1.50000000E+00  8.00000000E-01  8.00000000E-01  1.50000000E+00
  1.50000000E+00  8.00000000E-01  8.00000000E-01  1.50000000E+00  1.50000000E+00
  8.00000000E-01  8.00000000E-01  1.50000000E+00  1.50000000E+00  8.00000000E-01
  8.00000000E-01  1.50000000E+00  1.50000000E+00  8.00000000E-01  8.00000000E-01
  1.50000000E+00  1.50000000E+00  8.00000000E-01  8.00000000E-01  1.50000000E+00
  1.50000000E+00  8.00000000E-01  8.00000000E-01  1.50000000E+00  1.50000000E+00
  8.00000000E-01  8.00000000E-01  1.50000000E+00  1.50000000E+00  8.00000000E-01
  8.00000000E-01  1.50000000E+00  1.50000000E+00  8.00000000E-01  8.00000000E-01
  1.50000000E+00  1.50000000E+00  8.00000000E-01  8.00000000E-01  1.50000000E+00
  1.50000000E+00  8.00000000E-01  8.00000000E-01  1.50000000E+00  1.50000000E+00
  8.00000000E-01  8.00000000E-01  1.50000000E+00  1.50000000E+00  8.00000000E-01
  8.00000000E-01  1.50000000E+00  1.50000000E+00  8.00000000E-01  8.00000000E-01
  1.50000000E+00  1.50000000E+00  8.00000000E-01  8.00000000E-01  1.50000000E+00
  1.50000000E+00  8.00000000E-01  8.00000000E-01  1.50000000E+00  1.50000000E+00
  8.00000000E-01  8.00000000E-01  1.50000000E+00  1.50000000E+00  8.00000000E-01
  8.00000000E-01  1.50000000E+00  1.50000000E+00  8.00000000E-01  8.00000000E-01
  1.50000000E+00  1.50000000E+00  8.00000000E-01  8.00000000E-01  1.50000000E+00
  1.50000000E+00  8.00000000E-01  8.00000000E-01  1.50000000E+00  1.50000000E+00
  8.00000000E-01  8.00000000E-01  1.50000000E+00  1.50000000E+00  8.00000000E-01
  8.00000000E-01  1.50000000E+00  1.50000000E+00  8.00000000E-01  8.00000000E-01
  1.50000000E+00  1.50000000E+00  8.00000000E-01  8.00000000E-01  1.50000000E+00
  1.50000000E+00  8.00000000E-01  8.00000000E-01  1.50000000E+00  1.50000000E+00
  8.00000000E-01  8.00000000E-01  1.50000000E+00  1.50000000E+00  8.00000000E-01
  8.00000000E-01  1.50000000E+00  1.50000000E+00  8.00000000E-01  8.00000000E-01
  1.50000000E+00  1.50000000E+00  8.00000000E-01  8.00000000E-01  1.50000000E+00
  1.50000000E+00  8.00000000E-01  8.00000000E-01  1.50000000E+00  1.50000000E+00
  8.00000000E-01  8.00000000E-01  1.50000000E+00  1.50000000E+00  8.00000000E-01
  8.00000000E-01  1.50000000E+00  1.50000000E+00  8.00000000E-01  8.00000000E-01
  1.50000000E+00  1.50000000E+00  8.00000000E-01  8.00000000E-01  1.50000000E+00
  1.50000000E+00  8.00000000E-01  8.00000000E-01  1.50000000E+00  1.50000000E+00
  8.00000000E-01  8.00000000E-01  1.50000000E+00  1.50000000E+00  8.00000000E-01
  8.00000000E-01  1.50000000E+00  1.50000000E+00  8.00000000E-01  8.00000000E-01
  1.50000000E+00  1.50000000E+00  8.00000000E-01  8.00000000E-01  1.50000000E+00
  1.50000000E+00  8.00000000E-01  8.00000000E-01  1.50000000E+00  1.50000000E+00
  8.00000000E-01  8.00000000E-01  1.50000000E+00  1.50000000E+00  8.00000000E-01
  8.00000000E-01  1.50000000E+00  1.50000000E+00  8.00000000E-01  8.00000000E-01
  1.50000000E+00  1.50000000E+00  8.00000000E-01  8.00000000E-01  1.50000000E+00
  1.50000000E+00  8.00000000E-01  8.00000000E-01  1.50000000E+00  1.50000000E+00
  8.00000000E-01  8.00000000E-01  1.50000000E+00  1.50000000E+00  8.00000000E-01
  8.00000000E-01  1.50000000E+00  1.50000000E+00  8.00000000E-01  8.00000000E-01
  1.50000000E+00  1.50000000E+00  8.00000000E-01  8.00000000E-01  1.50000000E+00
  1.50000000E+00  8.00000000E-01  8.00000000E-01  1.50000000E+00  1.50000000E+00
  8.00000000E-01  8.00000000E-01  1.50000000E+00  1.50000000E+00  8.00000000E-01
  8.00000000E-01  1.50000000E+00  1.50000000E+00  8.00000000E-01  8.00000000E-01
  1.50000000E+00  1.50000000E+00  8.00000000E-01  8.00000000E-01  1.50000000E+00
  1.50000000E+00  8.00000000E-01  8.00000000E-01  1.50000000E+00  1.50000000E+00
  8.00000000E-01  8.00000000E-01  1.50000000E+00  1.50000000E+00  8.00000000E-01
  8.00000000E-01  1.50000000E+00  1.50000000E+00  8.00000000E-01  8.00000000E-01
  1.50000000E+00  1.50000000E+00  8.00000000E-01  8.00000000E-01  1.50000000E+00
  1.50000000E+00  8.00000000E-01  8.00000000E-01  1.50000000E+00  1.50000000E+00
  8.00000000E-01  8.00000000E-01  1.50000000E+00  1.50000000E+00  8.00000000E-01
  8.00000000E-01  1.50000000E+00  1.50000000E+00  8.00000000E-01  8.00000000E-01
  1.50000000E+00  1.50000000E+00  8.00000000E-01  8.00000000E-01  1.50000000E+00
  1.50000000E+00  8.00000000E-01  8.00000000E-01  1.50000000E+00  1.50000000E+00
  8.00000000E-01  8.00000000E-01  1.50000000E+00  1.50000000E+00  8.00000000E-01
  8.00000000E-01  1.50000000E+00  1.50000000E+00  8.00000000E-01  8.00000000E-01
  1.50000000E+00  1.50000000E+00  8.00000000E-01  8.00000000E-01  1.50000000E+00
  1.50000000E+00  8.00000000E-01  8.00000000E-01  1.50000000E+00  1.50000000E+00
  8.00000000E-01  8.00000000E-01  1.50000000E+00  1.50000000E+00  8.00000000E-01
  8.00000000E-01  1.50000000E+00  1.50000000E+00  8.00000000E-01  8.00000000E-01
  1.50000000E+00  1.50000000E+00  8.00000000E-01  8.00000000E-01  1.50000000E+00
  1.50000000E+00  8.00000000E-01  8.00000000E-01  1.50000000E+00  1.50000000E+00
  8.00000000E-01  8.00000000E-01  1.50000000E+00  1.50000000E+00  8.00000000E-01
  8.00000000E-01  1.50000000E+00  1.50000000E+00  8.00000000E-01  8.00000000E-01
  1.50000000E+00  1.50000000E+00  8.00000000E-01  8.00000000E-01  1.50000000E+00
  1.50000000E+00  8.00000000E-01  8.00000000E-01  1.50000000E+00  1.50000000E+00
  8.00000000E-01  8.00000000E-01  1.50000000E+00  1.50000000E+00  8.00000000E-01
  8.00000000E-01  1.50000000E+00  1.50000000E+00  8.00000000E-01  8.00000000E-01
  1.50000000E+00  1.50000000E+00  8.00000000E-01  8.00000000E-01  1.50000000E+00
  1.50000000E+00  8.00000000E-01  8.00000000E-01  1.50000000E+00  1.50000000E+00
  8.00000000E-01  8.00000000E-01  1.50000000E+00  1.50000000E+00  8.00000000E-01
  8.00000000E-01  1.50000000E+00  1.50000000E+00  8.00000000E-01  8.00000000E-01
  1.50000000E+00  1.50000000E+00  8.00000000E-01  8.00000000E-01  1.50000000E+00
  1.50000000E+00  8.00000000E-01  8.00000000E-01  1.50000000E+00  1.50000000E+00
  8.00000000E-01  8.00000000E-01  1.50000000E+00  1.50000000E+00  8.00000000E-01
  8.00000000E-01  1.50000000E+00  1.50000000E+00  8.00000000E-01  8.00000000E-01
  1.50000000E+00  1.50000000E+00  8.00000000E-01  8.00000000E-01  1.50000000E+00
  1.50000000E+00  8.00000000E-01  8.00000000E-01  1.50000000E+00  1.50000000E+00
  8.00000000E-01  8.00000000E-01  1.50000000E+00  1.50000000E+00  8.00000000E-01
  8.00000000E-01  1.50000000E+00  1.50000000E+00  8.00000000E-01  8.00000000E-01
  1.50000000E+00  1.50000000E+00  8.00000000E-01  8.00000000E-01  1.50000000E+00
  1.50000000E+00  8.00000000E-01  8.00000000E-01  1.50000000E+00  1.50000000E+00
  8.00000000E-01  8.00000000E-01  1.50000000E+00  1.50000000E+00  8.00000000E-01
  8.00000000E-01  1.50000000E+00  1.50000000E+00  8.00000000E-01  8.00000000E-01
  1.50000000E+00  1.50000000E+00  8.00000000E-01  8.00000000E-01  1.50000000E+00
  1.50000000E+00  8.00000000E-01  8.00000000E-01  1.50000000E+00  1.50000000E+00
  8.00000000E-01  8.00000000E-01  1.50000000E+00  1.50000000E+00  8.00000000E-01
  8.00000000E-01  1.50000000E+00  1.50000000E+00  8.00000000E-01  8.00000000E-01
  1.50000000E+00  1.50000000E+00  8.00000000E-01  8.00000000E-01  1.50000000E+00
  1.50000000E+00  8.00000000E-01  8.00000000E-01  1.50000000E+00  1.50000000E+00
  8.00000000E-01  8.00000000E-01  1.50000000E+00  1.50000000E+00  8.00000000E-01
  8.00000000E-01  1.50000000E+00  1.50000000E+00  8.00000000E-01  8.00000000E-01
  1.50000000E+00  1.50000000E+00  8.00000000E-01  8.00000000E-01  1.50000000E+00
  1.50000000E+00  8.00000000E-01  8.00000000E-01  1.50000000E+00  1.50000000E+00
  8.00000000E-01  8.00000000E-01  1.50000000E+00  1.50000000E+00  8.00000000E-01
  8.00000000E-01  1.50000000E+00  1.50000000E+00  8.00000000E-01  8.00000000E-01
  1.50000000E+00  1.50000000E+00  8.00000000E-01  8.00000000E-01  1.50000000E+00
  1.50000000E+00  8.00000000E-01  8.00000000E-01  1.50000000E+00  1.50000000E+00
  8.00000000E-01  8.00000000E-01  1.50000000E+00  1.50000000E+00  8.00000000E-01
  8.00000000E-01  1.50000000E+00  1.50000000E+00  8.00000000E-01  8.00000000E-01
  1.50000000E+00  1.50000000E+00  8.00000000E-01  8.00000000E-01  1.50000000E+00
  1.50000000E+00  8.00000000E-01  8.00000000E-01  1.50000000E+00  1.50000000E+00
  8.00000000E-01  8.00000000E-01  1.50000000E+00  1.50000000E+00  8.00000000E-01
  8.00000000E-01  1.50000000E+00  1.50000000E+00  8.00000000E-01  8.00000000E-01
  1.50000000E+00  1.50000000E+00  8.00000000E-01  8.00000000E-01  1.50000000E+00
  1.50000000E+00  8.00000000E-01  8.00000000E-01  1.50000000E+00  1.50000000E+00
  8.00000000E-01  8.00000000E-01  1.50000000E+00  1.50000000E+00  8.00000000E-01
  8.00000000E-01  1.50000000E+00  1.50000000E+00  8.00000000E-01  8.00000000E-01
  1.50000000E+00  1.50000000E+00  8.00000000E-01  8.00000000E-01  1.50000000E+00
  1.50000000E+00  8.00000000E-01  8.00000000E-01  1.50000000E+00  1.50000000E+00
  8.00000000E-01  8.00000000E-01  1.50000000E+00  1.50000000E+00  8.00000000E-01
  8.00000000E-01  1.50000000E+00  1.50000000E+00  8.00000000E-01  8.00000000E-01
  1.50000000E+00  1.50000000E+00  8.00000000E-01  8.00000000E-01  1.50000000E+00
  1.50000000E+00  8.00000000E-01  8.00000000E-01  1.50000000E+00  1.50000000E+00
  8.00000000E-01  8.00000000E-01  1.50000000E+00  1.50000000E+00  8.00000000E-01
  8.00000000E-01  1.50000000E+00  1.50000000E+00  8.00000000E-01  8.00000000E-01
  1.50000000E+00  1.50000000E+00  8.00000000E-01  8.00000000E-01  1.50000000E+00
  1.50000000E+00  8.00000000E-01  8.00000000E-01  1.50000000E+00  1.50000000E+00
  8.00000000E-01  8.00000000E-01  1.50000000E+00  1.50000000E+00  8.00000000E-01
  8.00000000E-01  1.50000000E+00  1.50000000E+00  8.00000000E-01  8.00000000E-01
  1.50000000E+00  1.50000000E+00  8.00000000E-01  8.00000000E-01  1.50000000E+00
  1.50000000E+00  8.00000000E-01  8.00000000E-01  1.50000000E+00  1.50000000E+00
  8.00000000E-01  8.00000000E-01  1.50000000E+00  1.50000000E+00  8.00000000E-01
  8.00000000E-01  1.50000000E+00  1.50000000E+00  8.00000000E-01  8.00000000E-01
  1.50000000E+00  1.50000000E+00  8.00000000E-01  8.00000000E-01  1.50000000E+00
  1.50000000E+00  8.00000000E-01  8.00000000E-01  1.50000000E+00  1.50000000E+00
  8.00000000E-01  8.00000000E-01  1.50000000E+00  1.50000000E+00  8.00000000E-01
  8.00000000E-01  1.50000000E+00  1.50000000E+00  8.00000000E-01  8.00000000E-01
  1.50000000E+00  1.50000000E+00  8.00000000E-01  8.00000000E-01  1.50000000E+00
  1.50000000E+00  8.00000000E-01  8.00000000E-01  1.50000000E+00  1.50000000E+00
  8.00000000E-01  8.00000000E-01  1.50000000E+00  1.50000000E+00  8.00000000E-01
  8.00000000E-01  1.50000000E+00  1.50000000E+00  8.00000000E-01  8.00000000E-01
  1.50000000E+00  1.50000000E+00  8.00000000E-01  8.00000000E-01  1.50000000E+00
  1.50000000E+00  8.00000000E-01  8.00000000E-01  1.50000000E+00  1.50000000E+00
  8.00000000E-01  8.00000000E-01  1.50000000E+00  1.50000000E+00  8.00000000E-01
  8.00000000E-01  1.50000000E+00  1.50000000E+00  8.00000000E-01  8.00000000E-01
  1.50000000E+00  1.50000000E+00  8.00000000E-01  8.00000000E-01  1.50000000E+00
  1.50000000E+00  8.00000000E-01  8.00000000E-01  1.50000000E+00  1.50000000E+00
  8.00000000E-01  8.00000000E-01  1.50000000E+00  1.50000000E+00  8.00000000E-01
  8.00000000E-01  1.50000000E+00  1.50000000E+00  8.00000000E-01  8.00000000E-01
  1.50000000E+00  1.50000000E+00  8.00000000E-01  8.00000000E-01  1.50000000E+00
  1.50000000E+00  8.00000000E-01  8.00000000E-01  1.50000000E+00  1.50000000E+00
  8.00000000E-01  8.00000000E-01  1.50000000E+00  1.50000000E+00  8.00000000E-01
  8.00000000E-01  1.50000000E+00  1.50000000E+00  8.00000000E-01  8.00000000E-01
  1.50000000E+00  1.50000000E+00  8.00000000E-01  8.00000000E-01  1.50000000E+00
  1.50000000E+00  8.00000000E-01  8.00000000E-01  1.50000000E+00  1.50000000E+00
  8.00000000E-01  8.00000000E-01  1.50000000E+00  1.50000000E+00  8.00000000E-01
  8.00000000E-01  1.50000000E+00  1.50000000E+00  8.00000000E-01  8.00000000E-01
  1.50000000E+00  1.50000000E+00  8.00000000E-01  8.00000000E-01  1.50000000E+00
  1.50000000E+00  8.00000000E-01  8.00000000E-01  1.50000000E+00  1.50000000E+00
  8.00000000E-01  8.00000000E-01  1.50000000E+00  1.50000000E+00  8.00000000E-01
  8.00000000E-01  1.50000000E+00  1.50000000E+00  8.00000000E-01  8.00000000E-01
  1.50000000E+00  1.50000000E+00  8.00000000E-01  8.00000000E-01  1.50000000E+00
  1.50000000E+00  8.00000000E-01  8.00000000E-01  1.50000000E+00  1.50000000E+00
  8.00000000E-01  8.00000000E-01  1.50000000E+00  1.50000000E+00  8.00000000E-01
  8.00000000E-01  1.50000000E+00  1.50000000E+00  8.00000000E-01  8.00000000E-01
  1.50000000E+00  1.50000000E+00  8.00000000E-01  8.00000000E-01  1.50000000E+00
  1.50000000E+00  8.00000000E-01  8.00000000E-01  1.50000000E+00  1.50000000E+00
  8.00000000E-01  8.00000000E-01  1.50000000E+00  1.50000000E+00  8.00000000E-01
  8.00000000E-01  1.50000000E+00  1.50000000E+00  8.00000000E-01  8.00000000E-01
  1.50000000E+00  1.50000000E+00  8.00000000E-01  8.00000000E-01  1.50000000E+00
  1.50000000E+00  8.00000000E-01  8.00000000E-01  1.50000000E+00  1.50000000E+00
  8.00000000E-01  8.00000000E-01  1.50000000E+00  1.50000000E+00  8.00000000E-01
  8.00000000E-01  1.50000000E+00  1.50000000E+00  8.00000000E-01  8.00000000E-01
  1.50000000E+00  1.50000000E+00  8.00000000E-01  8.00000000E-01  1.50000000E+00
  1.50000000E+00  8.00000000E-01  8.00000000E-01  1.50000000E+00  1.50000000E+00
  8.00000000E-01  8.00000000E-01  1.50000000E+00  1.50000000E+00  8.00000000E-01
  8.00000000E-01  1.50000000E+00  1.50000000E+00  8.00000000E-01  8.00000000E-01
  1.50000000E+00  1.50000000E+00  8.00000000E-01  8.00000000E-01  1.50000000E+00
  1.50000000E+00  8.00000000E-01  8.00000000E-01  1.50000000E+00  1.50000000E+00
  8.00000000E-01  8.00000000E-01  1.50000000E+00  1.50000000E+00  8.00000000E-01
  8.00000000E-01  1.50000000E+00  1.50000000E+00  8.00000000E-01  8.00000000E-01
  1.50000000E+00  1.50000000E+00  8.00000000E-01  8.00000000E-01  1.50000000E+00
  1.50000000E+00  8.00000000E-01  8.00000000E-01  1.50000000E+00  1.50000000E+00
  8.00000000E-01  8.00000000E-01  1.50000000E+00  1.50000000E+00  8.00000000E-01
  8.00000000E-01  1.50000000E+00  1.50000000E+00  8.00000000E-01  8.00000000E-01
  1.50000000E+00  1.50000000E+00  8.00000000E-01  8.00000000E-01  1.50000000E+00
  1.50000000E+00  8.00000000E-01  8.00000000E-01  1.50000000E+00  1.50000000E+00
  8.00000000E-01  8.00000000E-01  1.50000000E+00  1.50000000E+00  8.00000000E-01
  8.00000000E-01  1.50000000E+00  1.50000000E+00  8.00000000E-01  8.00000000E-01
  1.50000000E+00  1.50000000E+00  8.00000000E-01  8.00000000E-01  1.50000000E+00
  1.50000000E+00  8.00000000E-01  8.00000000E-01  1.50000000E+00  1.50000000E+00
  8.00000000E-01  8.00000000E-01  1.50000000E+00  1.50000000E+00  8.00000000E-01
  8.00000000E-01  1.50000000E+00  1.50000000E+00  8.00000000E-01  8.00000000E-01
  1.50000000E+00  1.50000000E+00  8.00000000E-01  8.00000000E-01  1.50000000E+00
  1.50000000E+00  8.00000000E-01  8.00000000E-01  1.50000000E+00  1.50000000E+00
  8.00000000E-01  8.00000000E-01  1.50000000E+00  1.50000000E+00  8.00000000E-01
  8.00000000E-01  1.50000000E+00  1.50000000E+00  8.00000000E-01  8.00000000E-01
  1.50000000E+00  1.50000000E+00  8.00000000E-01  8.00000000E-01  1.50000000E+00
  1.50000000E+00  8.00000000E-01  8.00000000E-01  1.50000000E+00  1.50000000E+00
  8.00000000E-01  8.00000000E-01  1.50000000E+00  1.50000000E+00  8.00000000E-01
  8.00000000E-01  1.50000000E+00  1.50000000E+00  8.00000000E-01  8.00000000E-01
  1.50000000E+00  1.50000000E+00  8.00000000E-01  8.00000000E-01  1.50000000E+00
  1.50000000E+00  8.00000000E-01  8.00000000E-01  1.50000000E+00  1.50000000E+00
  8.00000000E-01  8.00000000E-01  1.50000000E+00  1.50000000E+00  8.00000000E-01
  8.00000000E-01  1.50000000E+00  1.50000000E+00  8.00000000E-01  8.00000000E-01
  1.50000000E+00  1.50000000E+00  8.00000000E-01  8.00000000E-01  1.50000000E+00
  1.50000000E+00  8.00000000E-01  8.00000000E-01  1.50000000E+00  1.50000000E+00
  8.00000000E-01  8.00000000E-01  1.50000000E+00  1.50000000E+00  8.00000000E-01
  8.00000000E-01  1.50000000E+00  1.50000000E+00  8.00000000E-01  8.00000000E-01
  1.50000000E+00  1.50000000E+00  8.00000000E-01  8.00000000E-01  1.50000000E+00
  1.50000000E+00  8.00000000E-01  8.00000000E-01  1.50000000E+00  1.50000000E+00
  8.00000000E-01  8.00000000E-01  1.50000000E+00  1.50000000E+00  8.00000000E-01
  8.00000000E-01  1.50000000E+00  1.50000000E+00  8.00000000E-01  8.00000000E-01
  1.50000000E+00  1.50000000E+00  8.00000000E-01  8.00000000E-01  1.50000000E+00
  1.50000000E+00  8.00000000E-01  8.00000000E-01  1.50000000E+00  1.50000000E+00
  8.00000000E-01  8.00000000E-01  1.50000000E+00  1.50000000E+00  8.00000000E-01
  8.00000000E-01  1.50000000E+00  1.50000000E+00  8.00000000E-01  8.00000000E-01
  1.50000000E+00  1.50000000E+00  8.00000000E-01  8.00000000E-01  1.50000000E+00
  1.50000000E+00  8.00000000E-01  8.00000000E-01  1.50000000E+00  1.50000000E+00
  8.00000000E-01  8.00000000E-01  1.50000000E+00  1.50000000E+00  8.00000000E-01
  8.00000000E-01  1.50000000E+00  1.50000000E+00  8.00000000E-01  8.00000000E-01
  1.50000000E+00  1.50000000E+00  8.00000000E-01  8.00000000E-01  1.50000000E+00
  1.50000000E+00  8.00000000E-01  8.00000000E-01  1.50000000E+00  1.50000000E+00
  8.00000000E-01  8.00000000E-01  1.50000000E+00  1.50000000E+00  8.00000000E-01
  8.00000000E-01  1.50000000E+00  1.50000000E+00  8.00000000E-01  8.00000000E-01
  1.50000000E+00  1.50000000E+00  8.00000000E-01  8.00000000E-01  1.50000000E+00
  1.50000000E+00  8.00000000E-01  8.00000000E-01  1.50000000E+00  1.50000000E+00
  8.00000000E-01  8.00000000E-01  1.50000000E+00  1.50000000E+00  8.00000000E-01
  8.00000000E-01  1.50000000E+00  1.50000000E+00  8.00000000E-01  8.00000000E-01
  1.50000000E+00  1.50000000E+00  8.00000000E-01  8.00000000E-01  1.50000000E+00
  1.50000000E+00  8.00000000E-01  8.00000000E-01  1.50000000E+00  1.50000000E+00
  8.00000000E-01  8.00000000E-01  1.50000000E+00  1.50000000E+00  8.00000000E-01
  8.00000000E-01  1.50000000E+00  1.50000000E+00  8.00000000E-01  8.00000000E-01
  1.50000000E+00  1.50000000E+00  8.00000000E-01  8.00000000E-01  1.50000000E+00
  1.50000000E+00  8.00000000E-01  8.00000000E-01  1.50000000E+00  1.50000000E+00
  8.00000000E-01  8.00000000E-01  1.50000000E+00  1.50000000E+00  8.00000000E-01
  8.00000000E-01  1.50000000E+00  1.50000000E+00  8.00000000E-01  8.00000000E-01
  1.50000000E+00  1.50000000E+00  8.00000000E-01  8.00000000E-01  1.50000000E+00
  1.50000000E+00  8.00000000E-01  8.00000000E-01  1.50000000E+00  1.50000000E+00
  8.00000000E-01  8.00000000E-01  1.50000000E+00  1.50000000E+00  8.00000000E-01
  8.00000000E-01  1.50000000E+00  1.50000000E+00  8.00000000E-01  8.00000000E-01
  1.50000000E+00  1.50000000E+00  8.00000000E-01  8.00000000E-01  1.50000000E+00
  1.50000000E+00  8.00000000E-01  8.00000000E-01  1.50000000E+00  1.50000000E+00
  8.00000000E-01  8.00000000E-01  1.50000000E+00  1.50000000E+00  8.00000000E-01
  8.00000000E-01  1.50000000E+00  1.50000000E+00  8.00000000E-01  8.00000000E-01
  1.50000000E+00  1.50000000E+00  8.00000000E-01  8.00000000E-01  1.50000000E+00
  1.50000000E+00  8.00000000E-01  8.00000000E-01  1.50000000E+00  1.50000000E+00
  8.00000000E-01  8.00000000E-01  1.50000000E+00  1.50000000E+00  8.00000000E-01
  8.00000000E-01  1.50000000E+00  1.50000000E+00  8.00000000E-01  8.00000000E-01
  1.50000000E+00  1.50000000E+00  8.00000000E-01  8.00000000E-01  1.50000000E+00
  1.50000000E+00  8.00000000E-01  8.00000000E-01  1.50000000E+00  1.50000000E+00
  8.00000000E-01  8.00000000E-01  1.50000000E+00  1.50000000E+00  8.00000000E-01
  8.00000000E-01  1.50000000E+00  1.50000000E+00  8.00000000E-01  8.00000000E-01
  1.50000000E+00  1.50000000E+00  8.00000000E-01  8.00000000E-01  1.50000000E+00
  1.50000000E+00  8.00000000E-01  8.00000000E-01  1.50000000E+00  1.50000000E+00
  8.00000000E-01  8.00000000E-01  1.50000000E+00  1.50000000E+00  8.00000000E-01
  8.00000000E-01  1.50000000E+00  1.50000000E+00  8.00000000E-01  8.00000000E-01
  1.50000000E+00  1.50000000E+00  8.00000000E-01  8.00000000E-01  1.50000000E+00
  1.50000000E+00  8.00000000E-01  8.00000000E-01  1.50000000E+00  1.50000000E+00
  8.00000000E-01  8.00000000E-01  1.50000000E+00  1.50000000E+00  8.00000000E-01
  8.00000000E-01  1.50000000E+00  1.50000000E+00  8.00000000E-01  8.00000000E-01
  1.50000000E+00  1.50000000E+00  8.00000000E-01  8.00000000E-01  1.50000000E+00
  1.50000000E+00  8.00000000E-01  8.00000000E-01  1.50000000E+00  1.50000000E+00
  8.00000000E-01  8.00000000E-01  1.50000000E+00  1.50000000E+00  8.00000000E-01
  8.00000000E-01  1.50000000E+00  1.50000000E+00  8.00000000E-01  8.00000000E-01
  1.50000000E+00  1.50000000E+00  8.00000000E-01  8.00000000E-01  1.50000000E+00
  1.50000000E+00  8.00000000E-01  8.00000000E-01  1.50000000E+00  1.50000000E+00
  8.00000000E-01  8.00000000E-01  1.50000000E+00  1.50000000E+00  8.00000000E-01
  8.00000000E-01  1.50000000E+00  1.50000000E+00  8.00000000E-01  8.00000000E-01
  1.50000000E+00  1.50000000E+00  8.00000000E-01  8.00000000E-01  1.50000000E+00
  1.50000000E+00  8.00000000E-01  8.00000000E-01  1.50000000E+00  1.50000000E+00
  8.00000000E-01  8.00000000E-01  1.50000000E+00  1.50000000E+00  8.00000000E-01
  8.00000000E-01  1.50000000E+00  1.50000000E+00  8.00000000E-01  8.00000000E-01
  1.50000000E+00  1.50000000E+00  8.00000000E-01  8.00000000E-01  1.50000000E+00
  1.50000000E+00  8.00000000E-01  8.00000000E-01  1.50000000E+00  1.50000000E+00
  8.00000000E-01  8.00000000E-01  1.50000000E+00  1.50000000E+00  8.00000000E-01
  8.00000000E-01  1.50000000E+00  1.50000000E+00  8.00000000E-01  8.00000000E-01
  1.50000000E+00  1.50000000E+00  8.00000000E-01  8.00000000E-01  1.50000000E+00
  1.50000000E+00  8.00000000E-01  8.00000000E-01  1.50000000E+00  1.50000000E+00
  8.00000000E-01  8.00000000E-01  1.50000000E+00  1.50000000E+00  8.00000000E-01
  8.00000000E-01  1.50000000E+00  1.50000000E+00  8.00000000E-01  8.00000000E-01
  1.50000000E+00  1.50000000E+00  8.00000000E-01  8.00000000E-01  1.50000000E+00
  1.50000000E+00  8.00000000E-01  8.00000000E-01  1.50000000E+00  1.50000000E+00
  8.00000000E-01  8.00000000E-01  1.50000000E+00  1.50000000E+00  8.00000000E-01
  8.00000000E-01  1.50000000E+00  1.50000000E+00  8.00000000E-01  8.00000000E-01
  1.50000000E+00  1.50000000E+00  8.00000000E-01  8.00000000E-01  1.50000000E+00
  1.50000000E+00  8.00000000E-01  8.00000000E-01  1.50000000E+00  1.50000000E+00
  8.00000000E-01  8.00000000E-01  1.50000000E+00  1.50000000E+00  8.00000000E-01
  8.00000000E-01  1.50000000E+00  1.50000000E+00  8.00000000E-01  8.00000000E-01
  1.50000000E+00  1.50000000E+00  8.00000000E-01  8.00000000E-01  1.50000000E+00
  1.50000000E+00  8.00000000E-01  8.00000000E-01  1.50000000E+00  1.50000000E+00
  8.00000000E-01  8.00000000E-01  1.50000000E+00  1.50000000E+00  8.00000000E-01
  8.00000000E-01  1.50000000E+00  1.50000000E+00  8.00000000E-01  8.00000000E-01
  1.50000000E+00  1.50000000E+00  8.00000000E-01  8.00000000E-01  1.50000000E+00
  1.50000000E+00  8.00000000E-01  8.00000000E-01  1.50000000E+00  1.50000000E+00
  8.00000000E-01  8.00000000E-01  1.50000000E+00  1.50000000E+00  8.00000000E-01
  8.00000000E-01  1.50000000E+00  1.50000000E+00  8.00000000E-01  8.00000000E-01
  1.50000000E+00  1.50000000E+00  8.00000000E-01  8.00000000E-01  1.50000000E+00
  1.50000000E+00  8.00000000E-01  8.00000000E-01  1.50000000E+00  1.50000000E+00
  8.00000000E-01  8.00000000E-01  1.50000000E+00  1.50000000E+00  8.00000000E-01
  8.00000000E-01  1.50000000E+00  1.50000000E+00  8.00000000E-01  8.00000000E-01
  1.50000000E+00  1.50000000E+00  8.00000000E-01  8.00000000E-01  1.50000000E+00
  1.50000000E+00  8.00000000E-01  8.00000000E-01  1.50000000E+00  1.50000000E+00
  8.00000000E-01  8.00000000E-01  1.50000000E+00  1.50000000E+00  8.00000000E-01
  8.00000000E-01  1.50000000E+00  1.50000000E+00  8.00000000E-01  8.00000000E-01
  1.50000000E+00  1.50000000E+00  8.00000000E-01  8.00000000E-01  1.50000000E+00
  1.50000000E+00  8.00000000E-01  8.00000000E-01  1.50000000E+00  1.50000000E+00
  8.00000000E-01  8.00000000E-01  1.50000000E+00  1.50000000E+00  8.00000000E-01
  8.00000000E-01  1.50000000E+00  1.50000000E+00  8.00000000E-01  8.00000000E-01
  1.50000000E+00  1.50000000E+00  8.00000000E-01  8.00000000E-01  1.50000000E+00
  1.50000000E+00  8.00000000E-01  8.00000000E-01  1.50000000E+00  1.50000000E+00
  8.00000000E-01  8.00000000E-01  1.50000000E+00  1.50000000E+00  8.00000000E-01
  8.00000000E-01  1.50000000E+00  1.50000000E+00  8.00000000E-01  8.00000000E-01
  1.50000000E+00  1.50000000E+00  8.00000000E-01  8.00000000E-01  1.50000000E+00
  1.50000000E+00  8.00000000E-01  8.00000000E-01  1.50000000E+00  1.50000000E+00
  8.00000000E-01  8.00000000E-01  1.50000000E+00  1.50000000E+00  8.00000000E-01
  8.00000000E-01  1.50000000E+00  1.50000000E+00  8.00000000E-01  8.00000000E-01
  1.50000000E+00  1.50000000E+00  8.00000000E-01  8.00000000E-01  1.50000000E+00
  1.50000000E+00  8.00000000E-01  8.00000000E-01  1.50000000E+00  1.50000000E+00
  8.00000000E-01  8.00000000E-01  1.50000000E+00  1.50000000E+00  8.00000000E-01
  8.00000000E-01  1.50000000E+00  1.50000000E+00  8.00000000E-01  8.00000000E-01
  1.50000000E+00  1.50000000E+00  8.00000000E-01  8.00000000E-01  1.50000000E+00
  1.50000000E+00  8.00000000E-01  8.00000000E-01  1.50000000E+00  1.50000000E+00
  8.00000000E-01  8.00000000E-01  1.50000000E+00  1.50000000E+00  8.00000000E-01
  8.00000000E-01  1.50000000E+00  1.50000000E+00  8.00000000E-01  8.00000000E-01
  1.50000000E+00  1.50000000E+00  8.00000000E-01  8.00000000E-01  1.50000000E+00
  1.50000000E+00  8.00000000E-01  8.00000000E-01  1.50000000E+00  1.50000000E+00
  8.00000000E-01  8.00000000E-01  1.50000000E+00  1.50000000E+00  8.00000000E-01
  8.00000000E-01  1.50000000E+00  1.50000000E+00  8.00000000E-01  8.00000000E-01
  1.50000000E+00  1.50000000E+00  8.00000000E-01  8.00000000E-01  1.50000000E+00
  1.50000000E+00  8.00000000E-01  8.00000000E-01  1.50000000E+00  1.50000000E+00
  8.00000000E-01  8.00000000E-01  1.50000000E+00  1.50000000E+00  8.00000000E-01
  8.00000000E-01  1.50000000E+00  1.50000000E+00  8.00000000E-01  8.00000000E-01
  1.50000000E+00  1.50000000E+00  8.00000000E-01  8.00000000E-01  1.50000000E+00
  1.50000000E+00  8.00000000E-01  8.00000000E-01  1.50000000E+00  1.50000000E+00
  8.00000000E-01  8.00000000E-01  1.50000000E+00  1.50000000E+00  8.00000000E-01
  8.00000000E-01  1.50000000E+00  1.50000000E+00  8.00000000E-01  8.00000000E-01
  1.50000000E+00  1.50000000E+00  8.00000000E-01  8.00000000E-01  1.50000000E+00
  1.50000000E+00  8.00000000E-01  8.00000000E-01  1.50000000E+00  1.50000000E+00
  8.00000000E-01  8.00000000E-01  1.50000000E+00  1.50000000E+00  8.00000000E-01
  8.00000000E-01  1.50000000E+00  1.50000000E+00  8.00000000E-01  8.00000000E-01
  1.50000000E+00  1.50000000E+00  8.00000000E-01  8.00000000E-01  1.50000000E+00
  1.50000000E+00  8.00000000E-01  8.00000000E-01  1.50000000E+00  1.50000000E+00
  8.00000000E-01  8.00000000E-01  1.50000000E+00  1.50000000E+00  8.00000000E-01
  8.00000000E-01  1.50000000E+00  1.50000000E+00  8.00000000E-01  8.00000000E-01
  1.50000000E+00  1.50000000E+00  8.00000000E-01  8.00000000E-01  1.50000000E+00
  1.50000000E+00  8.00000000E-01  8.00000000E-01  1.50000000E+00  1.50000000E+00
  8.00000000E-01  8.00000000E-01  1.50000000E+00  1.50000000E+00  8.00000000E-01
  8.00000000E-01  1.50000000E+00  1.50000000E+00  8.00000000E-01  8.00000000E-01
  1.50000000E+00  1.50000000E+00  8.00000000E-01  8.00000000E-01  1.50000000E+00
  1.50000000E+00  8.00000000E-01  8.00000000E-01  1.50000000E+00  1.50000000E+00
  8.00000000E-01  8.00000000E-01  1.50000000E+00  1.50000000E+00  8.00000000E-01
  8.00000000E-01  1.50000000E+00  1.50000000E+00  8.00000000E-01  8.00000000E-01
  1.50000000E+00  1.50000000E+00  8.00000000E-01  8.00000000E-01  1.50000000E+00
  1.50000000E+00  8.00000000E-01  8.00000000E-01  1.50000000E+00  1.50000000E+00
  8.00000000E-01  8.00000000E-01  1.50000000E+00  1.50000000E+00  8.00000000E-01
  8.00000000E-01  1.50000000E+00  1.50000000E+00  8.00000000E-01  8.00000000E-01
  1.50000000E+00  1.50000000E+00  8.00000000E-01  8.00000000E-01  1.50000000E+00
  1.50000000E+00  8.00000000E-01  8.00000000E-01  1.50000000E+00  1.50000000E+00
  8.00000000E-01  8.00000000E-01  1.50000000E+00  1.50000000E+00  8.00000000E-01
  8.00000000E-01  1.50000000E+00  1.50000000E+00  8.00000000E-01  8.00000000E-01
  1.50000000E+00  1.50000000E+00  8.00000000E-01  8.00000000E-01  1.50000000E+00
  1.50000000E+00  8.00000000E-01  8.00000000E-01  1.50000000E+00  1.50000000E+00
  8.00000000E-01  8.00000000E-01  1.50000000E+00  1.50000000E+00  8.00000000E-01
  8.00000000E-01  1.50000000E+00  1.50000000E+00  8.00000000E-01  8.00000000E-01
  1.50000000E+00  1.50000000E+00  8.00000000E-01  8.00000000E-01  1.50000000E+00
  1.50000000E+00  8.00000000E-01  8.00000000E-01  1.50000000E+00  1.50000000E+00
  8.00000000E-01  8.00000000E-01  1.50000000E+00  1.50000000E+00  8.00000000E-01
  8.00000000E-01  1.50000000E+00  1.50000000E+00  8.00000000E-01  8.00000000E-01
  1.50000000E+00  1.50000000E+00  8.00000000E-01  8.00000000E-01  1.50000000E+00
  1.50000000E+00  8.00000000E-01  8.00000000E-01  1.50000000E+00  1.50000000E+00
  8.00000000E-01  8.00000000E-01  1.50000000E+00  1.50000000E+00  8.00000000E-01
  8.00000000E-01  1.50000000E+00  1.50000000E+00  8.00000000E-01  8.00000000E-01
  1.50000000E+00  1.50000000E+00  8.00000000E-01  8.00000000E-01  1.50000000E+00
  1.50000000E+00  8.00000000E-01  8.00000000E-01  1.50000000E+00  1.50000000E+00
  8.00000000E-01  8.00000000E-01  1.50000000E+00  1.50000000E+00  8.00000000E-01
  8.00000000E-01  1.50000000E+00  1.50000000E+00  8.00000000E-01  8.00000000E-01
  1.50000000E+00  1.50000000E+00  8.00000000E-01  8.00000000E-01  1.50000000E+00
  1.50000000E+00  8.00000000E-01  8.00000000E-01  1.50000000E+00  1.50000000E+00
  8.00000000E-01  8.00000000E-01  1.50000000E+00  1.50000000E+00  8.00000000E-01
  8.00000000E-01  1.50000000E+00  1.50000000E+00  8.00000000E-01  8.00000000E-01
  1.50000000E+00  1.50000000E+00  8.00000000E-01  8.00000000E-01  1.50000000E+00
  1.50000000E+00  8.00000000E-01  8.00000000E-01  1.50000000E+00  1.50000000E+00
  8.00000000E-01  8.00000000E-01  1.50000000E+00  1.50000000E+00  8.00000000E-01
  8.00000000E-01  1.50000000E+00  1.50000000E+00  8.00000000E-01  8.00000000E-01
  1.50000000E+00  1.50000000E+00  8.00000000E-01  8.00000000E-01  1.50000000E+00
  1.50000000E+00  8.00000000E-01  8.00000000E-01  1.50000000E+00  1.50000000E+00
  8.00000000E-01  8.00000000E-01  1.50000000E+00  1.50000000E+00  8.00000000E-01
  8.00000000E-01  1.50000000E+00  1.50000000E+00  8.00000000E-01  8.00000000E-01
  1.50000000E+00  1.50000000E+00  8.00000000E-01  8.00000000E-01  1.50000000E+00
  1.50000000E+00  8.00000000E-01  8.00000000E-01  1.50000000E+00  1.50000000E+00
  8.00000000E-01  8.00000000E-01  1.50000000E+00  1.50000000E+00  8.00000000E-01
  8.00000000E-01  1.50000000E+00  1.50000000E+00  8.00000000E-01  8.00000000E-01
  1.50000000E+00  1.50000000E+00  8.00000000E-01  8.00000000E-01  1.50000000E+00
  1.50000000E+00  8.00000000E-01  8.00000000E-01  1.50000000E+00  1.50000000E+00
  8.00000000E-01  8.00000000E-01  1.50000000E+00  1.50000000E+00  8.00000000E-01
  8.00000000E-01  1.50000000E+00  1.50000000E+00  8.00000000E-01  8.00000000E-01
  1.50000000E+00  1.50000000E+00  8.00000000E-01  8.00000000E-01  1.50000000E+00
  1.50000000E+00  8.00000000E-01  8.00000000E-01  1.50000000E+00  1.50000000E+00
  8.00000000E-01  8.00000000E-01  1.50000000E+00  1.50000000E+00  8.00000000E-01
  8.00000000E-01  1.50000000E+00  1.50000000E+00  8.00000000E-01  8.00000000E-01
  1.50000000E+00  1.50000000E+00  8.00000000E-01  8.00000000E-01  1.50000000E+00
  1.50000000E+00  8.00000000E-01  8.00000000E-01  1.50000000E+00  1.50000000E+00
  8.00000000E-01  8.00000000E-01  1.50000000E+00  1.50000000E+00  8.00000000E-01
  8.00000000E-01  1.50000000E+00  1.50000000E+00  8.00000000E-01  8.00000000E-01
  1.50000000E+00  1.50000000E+00  8.00000000E-01  8.00000000E-01  1.50000000E+00
  1.50000000E+00  8.00000000E-01  8.00000000E-01  1.50000000E+00  1.50000000E+00
  8.00000000E-01  8.00000000E-01  1.50000000E+00  1.50000000E+00  8.00000000E-01
  8.00000000E-01  1.50000000E+00  1.50000000E+00  8.00000000E-01  8.00000000E-01
  1.50000000E+00  1.50000000E+00  8.00000000E-01  8.00000000E-01  1.50000000E+00
  1.50000000E+00  8.00000000E-01  8.00000000E-01  1.50000000E+00  1.50000000E+00
  8.00000000E-01  8.00000000E-01  1.50000000E+00  1.50000000E+00  8.00000000E-01
  8.00000000E-01  1.50000000E+00  1.50000000E+00  8.00000000E-01  8.00000000E-01
  1.50000000E+00  1.50000000E+00  8.00000000E-01  8.00000000E-01  1.50000000E+00
  1.50000000E+00  8.00000000E-01  8.00000000E-01  1.50000000E+00  1.50000000E+00
  8.00000000E-01  8.00000000E-01  1.50000000E+00  1.50000000E+00  8.00000000E-01
  8.00000000E-01  1.50000000E+00  1.50000000E+00  8.00000000E-01  8.00000000E-01
  1.50000000E+00  1.50000000E+00  8.00000000E-01  8.00000000E-01  1.50000000E+00
  1.50000000E+00  8.00000000E-01  8.00000000E-01  1.50000000E+00  1.50000000E+00
  8.00000000E-01  8.00000000E-01  1.50000000E+00  1.50000000E+00  8.00000000E-01
  8.00000000E-01  1.50000000E+00  1.50000000E+00  8.00000000E-01  8.00000000E-01
  1.50000000E+00  1.50000000E+00  8.00000000E-01  8.00000000E-01  1.50000000E+00
  1.50000000E+00  8.00000000E-01  8.00000000E-01  1.50000000E+00  1.50000000E+00
  8.00000000E-01  8.00000000E-01  1.50000000E+00  1.50000000E+00  8.00000000E-01
  8.00000000E-01  1.50000000E+00  1.50000000E+00  8.00000000E-01  8.00000000E-01
  1.50000000E+00  1.50000000E+00  8.00000000E-01  8.00000000E-01  1.50000000E+00
  1.50000000E+00  8.00000000E-01  8.00000000E-01  1.50000000E+00  1.50000000E+00
  8.00000000E-01  8.00000000E-01  1.50000000E+00  1.50000000E+00  8.00000000E-01
  8.00000000E-01  1.50000000E+00  1.50000000E+00  8.00000000E-01  8.00000000E-01
  1.50000000E+00  1.50000000E+00  8.00000000E-01  8.00000000E-01  1.50000000E+00
  1.50000000E+00  8.00000000E-01  8.00000000E-01  1.50000000E+00  1.50000000E+00
  8.00000000E-01  8.00000000E-01  1.50000000E+00  1.50000000E+00  8.00000000E-01
  8.00000000E-01  1.50000000E+00  1.50000000E+00  8.00000000E-01  8.00000000E-01
  1.50000000E+00  1.50000000E+00  8.00000000E-01  8.00000000E-01  1.50000000E+00
  1.50000000E+00  8.00000000E-01  8.00000000E-01  1.50000000E+00  1.50000000E+00
  8.00000000E-01  8.00000000E-01  1.50000000E+00  1.50000000E+00  8.00000000E-01
  8.00000000E-01  1.50000000E+00  1.50000000E+00  8.00000000E-01  8.00000000E-01
  1.50000000E+00  1.50000000E+00  8.00000000E-01  8.00000000E-01  1.50000000E+00
  1.50000000E+00  8.00000000E-01  8.00000000E-01  1.50000000E+00  1.50000000E+00
  8.00000000E-01  8.00000000E-01  1.50000000E+00  1.50000000E+00  8.00000000E-01
  8.00000000E-01  1.50000000E+00  1.50000000E+00  8.00000000E-01  8.00000000E-01
  1.50000000E+00  1.50000000E+00  8.00000000E-01  8.00000000E-01  1.50000000E+00
  1.50000000E+00  8.00000000E-01  8.00000000E-01  1.50000000E+00  1.50000000E+00
  8.00000000E-01  8.00000000E-01  1.50000000E+00  1.50000000E+00  8.00000000E-01
  8.00000000E-01  1.50000000E+00  1.50000000E+00  8.00000000E-01  8.00000000E-01
  1.50000000E+00  1.50000000E+00  8.00000000E-01  8.00000000E-01  1.50000000E+00
  1.50000000E+00  8.00000000E-01  8.00000000E-01  1.50000000E+00  1.50000000E+00
  8.00000000E-01  8.00000000E-01  1.50000000E+00  1.50000000E+00  8.00000000E-01
  8.00000000E-01  1.50000000E+00  1.50000000E+00  8.00000000E-01  8.00000000E-01
  1.50000000E+00  1.50000000E+00  8.00000000E-01  8.00000000E-01  1.50000000E+00
  1.50000000E+00  8.00000000E-01  8.00000000E-01  1.50000000E+00  1.50000000E+00
  8.00000000E-01  8.00000000E-01  1.50000000E+00  1.50000000E+00  8.00000000E-01
  8.00000000E-01  1.50000000E+00  1.50000000E+00  8.00000000E-01  8.00000000E-01
  1.50000000E+00  1.50000000E+00  8.00000000E-01  8.00000000E-01  1.50000000E+00
  1.50000000E+00  8.00000000E-01  8.00000000E-01  1.50000000E+00  1.50000000E+00
  8.00000000E-01  8.00000000E-01  1.50000000E+00  1.50000000E+00  8.00000000E-01
  8.00000000E-01  1.50000000E+00  1.50000000E+00  8.00000000E-01  8.00000000E-01
  1.50000000E+00  1.50000000E+00  8.00000000E-01  8.00000000E-01  1.50000000E+00
  1.50000000E+00  8.00000000E-01  8.00000000E-01  1.50000000E+00  1.50000000E+00
  8.00000000E-01  8.00000000E-01  1.50000000E+00  1.50000000E+00  8.00000000E-01
  8.00000000E-01  1.50000000E+00  1.50000000E+00  8.00000000E-01  8.00000000E-01
  1.50000000E+00  1.50000000E+00  8.00000000E-01  8.00000000E-01  1.50000000E+00
  1.50000000E+00  8.00000000E-01  8.00000000E-01  1.50000000E+00  1.50000000E+00
  8.00000000E-01  8.00000000E-01  1.50000000E+00  1.50000000E+00  8.00000000E-01
  8.00000000E-01  1.50000000E+00  1.50000000E+00  8.00000000E-01  8.00000000E-01
  1.50000000E+00  1.50000000E+00  8.00000000E-01  8.00000000E-01  1.50000000E+00
  1.50000000E+00  8.00000000E-01  8.00000000E-01  1.50000000E+00  1.50000000E+00
  8.00000000E-01  8.00000000E-01  1.50000000E+00  1.50000000E+00  8.00000000E-01
  8.00000000E-01  1.50000000E+00  1.50000000E+00  8.00000000E-01  8.00000000E-01
  1.50000000E+00  1.50000000E+00  8.00000000E-01  8.00000000E-01  1.50000000E+00
  1.50000000E+00  8.00000000E-01  8.00000000E-01  1.50000000E+00  1.50000000E+00
  8.00000000E-01  8.00000000E-01  1.50000000E+00  1.50000000E+00  8.00000000E-01
  8.00000000E-01  1.50000000E+00  1.50000000E+00  8.00000000E-01  8.00000000E-01
  1.50000000E+00  1.50000000E+00  8.00000000E-01  8.00000000E-01  1.50000000E+00
  1.50000000E+00  8.00000000E-01  8.00000000E-01  1.50000000E+00  1.50000000E+00
  8.00000000E-01  8.00000000E-01  1.50000000E+00  1.50000000E+00  8.00000000E-01
  8.00000000E-01  1.50000000E+00  1.50000000E+00  8.00000000E-01  8.00000000E-01
  1.50000000E+00  1.50000000E+00  8.00000000E-01  8.00000000E-01  1.50000000E+00
  1.50000000E+00  8.00000000E-01  8.00000000E-01  1.50000000E+00  1.50000000E+00
  8.00000000E-01  8.00000000E-01  1.50000000E+00  1.50000000E+00  8.00000000E-01
  8.00000000E-01  1.50000000E+00  1.50000000E+00  8.00000000E-01  8.00000000E-01
  1.50000000E+00  1.50000000E+00  8.00000000E-01  8.00000000E-01  1.50000000E+00
  1.50000000E+00  8.00000000E-01  8.00000000E-01  1.50000000E+00  1.50000000E+00
  8.00000000E-01  8.00000000E-01  1.50000000E+00  1.50000000E+00  8.00000000E-01
  8.00000000E-01  1.50000000E+00  1.50000000E+00  8.00000000E-01  8.00000000E-01
  1.50000000E+00  1.50000000E+00  8.00000000E-01  8.00000000E-01  1.50000000E+00
  1.50000000E+00  8.00000000E-01  8.00000000E-01  1.50000000E+00  1.50000000E+00
  8.00000000E-01  8.00000000E-01  1.50000000E+00  1.50000000E+00  8.00000000E-01
  8.00000000E-01  1.50000000E+00  1.50000000E+00  8.00000000E-01  8.00000000E-01
  1.50000000E+00  1.50000000E+00  8.00000000E-01  8.00000000E-01  1.50000000E+00
  1.50000000E+00  8.00000000E-01  8.00000000E-01  1.50000000E+00  1.50000000E+00
  8.00000000E-01  8.00000000E-01  1.50000000E+00  1.50000000E+00  8.00000000E-01
  8.00000000E-01  1.50000000E+00  1.50000000E+00  8.00000000E-01  8.00000000E-01
  1.50000000E+00  1.50000000E+00  8.00000000E-01  8.00000000E-01  1.50000000E+00
  1.50000000E+00  8.00000000E-01  8.00000000E-01  1.50000000E+00  1.50000000E+00
  8.00000000E-01  8.00000000E-01  1.50000000E+00  1.50000000E+00  8.00000000E-01
  8.00000000E-01  1.50000000E+00  1.50000000E+00  8.00000000E-01  8.00000000E-01
  1.50000000E+00  1.50000000E+00  8.00000000E-01  8.00000000E-01  1.50000000E+00
  1.50000000E+00  8.00000000E-01  8.00000000E-01  1.50000000E+00  1.50000000E+00
  8.00000000E-01  8.00000000E-01  1.50000000E+00  1.50000000E+00  8.00000000E-01
  8.00000000E-01  1.50000000E+00  1.50000000E+00  8.00000000E-01  8.00000000E-01
  1.50000000E+00  1.50000000E+00  8.00000000E-01  8.00000000E-01  1.50000000E+00
  1.50000000E+00  8.00000000E-01  8.00000000E-01  1.50000000E+00  1.50000000E+00
  8.00000000E-01  8.00000000E-01  1.50000000E+00  1.50000000E+00  8.00000000E-01
  8.00000000E-01  1.50000000E+00  1.50000000E+00  8.00000000E-01  8.00000000E-01
  1.50000000E+00  1.50000000E+00  8.00000000E-01  8.00000000E-01  1.50000000E+00
  1.50000000E+00  8.00000000E-01  8.00000000E-01  1.50000000E+00  1.50000000E+00
  8.00000000E-01  8.00000000E-01  1.50000000E+00  1.50000000E+00  8.00000000E-01
  8.00000000E-01  1.50000000E+00  1.50000000E+00  8.00000000E-01  8.00000000E-01
  1.50000000E+00  1.50000000E+00  8.00000000E-01  8.00000000E-01  1.50000000E+00
  1.50000000E+00  8.00000000E-01  8.00000000E-01  1.50000000E+00  1.50000000E+00
  8.00000000E-01  8.00000000E-01  1.50000000E+00  1.50000000E+00  8.00000000E-01
  8.00000000E-01  1.50000000E+00  1.50000000E+00  8.00000000E-01  8.00000000E-01
  1.50000000E+00  1.50000000E+00  8.00000000E-01  8.00000000E-01  1.50000000E+00
  1.50000000E+00  8.00000000E-01  8.00000000E-01  1.50000000E+00  1.50000000E+00
  8.00000000E-01  8.00000000E-01  1.50000000E+00  1.50000000E+00  8.00000000E-01
  8.00000000E-01  1.50000000E+00  1.50000000E+00  8.00000000E-01  8.00000000E-01
  1.50000000E+00  1.50000000E+00  8.00000000E-01  8.00000000E-01  1.50000000E+00
  1.50000000E+00  8.00000000E-01  8.00000000E-01  1.50000000E+00  1.50000000E+00
  8.00000000E-01  8.00000000E-01  1.50000000E+00  1.50000000E+00  8.00000000E-01
  8.00000000E-01  1.50000000E+00  1.50000000E+00  8.00000000E-01  8.00000000E-01
  1.50000000E+00  1.50000000E+00  8.00000000E-01  8.00000000E-01  1.50000000E+00
  1.50000000E+00  8.00000000E-01  8.00000000E-01  1.50000000E+00  1.50000000E+00
  8.00000000E-01  8.00000000E-01  1.50000000E+00  1.50000000E+00  8.00000000E-01
  8.00000000E-01  1.50000000E+00  1.50000000E+00  8.00000000E-01  8.00000000E-01
  1.50000000E+00  1.50000000E+00  8.00000000E-01  8.00000000E-01  1.50000000E+00
  1.50000000E+00  8.00000000E-01  8.00000000E-01  1.50000000E+00  1.50000000E+00
  8.00000000E-01  8.00000000E-01  1.50000000E+00  1.50000000E+00  8.00000000E-01
  8.00000000E-01  1.50000000E+00  1.50000000E+00  8.00000000E-01  8.00000000E-01
  1.50000000E+00  1.50000000E+00  8.00000000E-01  8.00000000E-01  1.50000000E+00
  1.50000000E+00  8.00000000E-01  8.00000000E-01  1.50000000E+00  1.50000000E+00
  8.00000000E-01  8.00000000E-01  1.50000000E+00  1.50000000E+00  8.00000000E-01
  8.00000000E-01  1.50000000E+00  1.50000000E+00  8.00000000E-01  8.00000000E-01
  1.50000000E+00  1.50000000E+00  8.00000000E-01  8.00000000E-01  1.50000000E+00
  1.50000000E+00  8.00000000E-01  8.00000000E-01  1.50000000E+00  1.50000000E+00
  8.00000000E-01  8.00000000E-01  1.50000000E+00  1.50000000E+00  8.00000000E-01
  8.00000000E-01  1.50000000E+00  1.50000000E+00  8.00000000E-01  8.00000000E-01
  1.50000000E+00  1.50000000E+00  8.00000000E-01  8.00000000E-01  1.50000000E+00
  1.50000000E+00  8.00000000E-01  8.00000000E-01  1.50000000E+00  1.50000000E+00
  8.00000000E-01  8.00000000E-01  1.50000000E+00  1.50000000E+00  8.00000000E-01
  8.00000000E-01  1.50000000E+00  1.50000000E+00  8.00000000E-01  8.00000000E-01
  1.50000000E+00  1.50000000E+00  8.00000000E-01  8.00000000E-01  1.50000000E+00
  1.50000000E+00  8.00000000E-01  8.00000000E-01  1.50000000E+00  1.50000000E+00
  8.00000000E-01  8.00000000E-01  1.50000000E+00  1.50000000E+00  8.00000000E-01
  8.00000000E-01  1.50000000E+00  1.50000000E+00  8.00000000E-01  8.00000000E-01
  1.50000000E+00  1.50000000E+00  8.00000000E-01  8.00000000E-01  1.50000000E+00
  1.50000000E+00  8.00000000E-01  8.00000000E-01  1.50000000E+00  1.50000000E+00
  8.00000000E-01  8.00000000E-01  1.50000000E+00  1.50000000E+00  8.00000000E-01
  8.00000000E-01  1.50000000E+00  1.50000000E+00  8.00000000E-01  8.00000000E-01
  1.50000000E+00  1.50000000E+00  8.00000000E-01  8.00000000E-01  1.50000000E+00
  1.50000000E+00  8.00000000E-01  8.00000000E-01  1.50000000E+00  1.50000000E+00
  8.00000000E-01  8.00000000E-01  1.50000000E+00  1.50000000E+00  8.00000000E-01
  8.00000000E-01  1.50000000E+00  1.50000000E+00  8.00000000E-01  8.00000000E-01
  1.50000000E+00  1.50000000E+00  8.00000000E-01  8.00000000E-01  1.50000000E+00
  1.50000000E+00  8.00000000E-01  8.00000000E-01  1.50000000E+00  1.50000000E+00
  8.00000000E-01  8.00000000E-01  1.50000000E+00  1.50000000E+00  8.00000000E-01
  8.00000000E-01  1.50000000E+00  1.50000000E+00  8.00000000E-01  8.00000000E-01
  1.50000000E+00  1.50000000E+00  8.00000000E-01  8.00000000E-01  1.50000000E+00
  1.50000000E+00  8.00000000E-01  8.00000000E-01  1.50000000E+00  1.50000000E+00
  8.00000000E-01  8.00000000E-01  1.50000000E+00  1.50000000E+00  8.00000000E-01
  8.00000000E-01  1.50000000E+00  1.50000000E+00  8.00000000E-01  8.00000000E-01
  1.50000000E+00  1.50000000E+00  8.00000000E-01  8.00000000E-01  1.50000000E+00
  1.50000000E+00  8.00000000E-01  8.00000000E-01  1.50000000E+00  1.50000000E+00
  8.00000000E-01  8.00000000E-01  1.50000000E+00  1.50000000E+00  8.00000000E-01
  8.00000000E-01  1.50000000E+00  1.50000000E+00  8.00000000E-01  8.00000000E-01
  1.50000000E+00  1.50000000E+00  8.00000000E-01  8.00000000E-01  1.50000000E+00
  1.50000000E+00  8.00000000E-01  8.00000000E-01  1.50000000E+00  1.50000000E+00
  8.00000000E-01  8.00000000E-01  1.50000000E+00  1.50000000E+00  8.00000000E-01
  8.00000000E-01  1.50000000E+00  1.50000000E+00  8.00000000E-01  8.00000000E-01
  1.50000000E+00  1.50000000E+00  8.00000000E-01  8.00000000E-01  1.50000000E+00
  1.50000000E+00  8.00000000E-01  8.00000000E-01  1.50000000E+00  1.50000000E+00
  8.00000000E-01  8.00000000E-01  1.50000000E+00  1.50000000E+00  8.00000000E-01
  8.00000000E-01  1.50000000E+00  1.50000000E+00  8.00000000E-01  8.00000000E-01
  1.50000000E+00  1.50000000E+00  8.00000000E-01  8.00000000E-01  1.50000000E+00
  1.50000000E+00  8.00000000E-01  8.00000000E-01  1.50000000E+00  1.50000000E+00
  8.00000000E-01  8.00000000E-01  1.50000000E+00  1.50000000E+00  8.00000000E-01
  8.00000000E-01  1.50000000E+00  1.50000000E+00  8.00000000E-01  8.00000000E-01
  1.50000000E+00  1.50000000E+00  8.00000000E-01  8.00000000E-01  1.50000000E+00
  1.50000000E+00  8.00000000E-01  8.00000000E-01  1.50000000E+00  1.50000000E+00
  8.00000000E-01  8.00000000E-01  1.50000000E+00  1.50000000E+00  8.00000000E-01
  8.00000000E-01  1.50000000E+00  1.50000000E+00  8.00000000E-01  8.00000000E-01
  1.50000000E+00  1.50000000E+00  8.00000000E-01  8.00000000E-01  1.50000000E+00
  1.50000000E+00  8.00000000E-01  8.00000000E-01  1.50000000E+00  1.50000000E+00
  8.00000000E-01  8.00000000E-01  1.50000000E+00  1.50000000E+00  8.00000000E-01
  8.00000000E-01  1.50000000E+00  1.50000000E+00  8.00000000E-01  8.00000000E-01
  1.50000000E+00  1.50000000E+00  8.00000000E-01  8.00000000E-01  1.50000000E+00
  1.50000000E+00  8.00000000E-01  8.00000000E-01  1.50000000E+00  1.50000000E+00
  8.00000000E-01  8.00000000E-01  1.50000000E+00  1.50000000E+00  8.00000000E-01
  8.00000000E-01  1.50000000E+00  1.50000000E+00  8.00000000E-01  8.00000000E-01
  1.50000000E+00  1.50000000E+00  8.00000000E-01  8.00000000E-01  1.50000000E+00
  1.50000000E+00  8.00000000E-01  8.00000000E-01  1.50000000E+00  1.50000000E+00
  8.00000000E-01  8.00000000E-01  1.50000000E+00  1.50000000E+00  8.00000000E-01
  8.00000000E-01  1.50000000E+00  1.50000000E+00  8.00000000E-01  8.00000000E-01
  1.50000000E+00  1.50000000E+00  8.00000000E-01  8.00000000E-01  1.50000000E+00
  1.50000000E+00  8.00000000E-01  8.00000000E-01  1.50000000E+00  1.50000000E+00
  8.00000000E-01  8.00000000E-01  1.50000000E+00  1.50000000E+00  8.00000000E-01
  8.00000000E-01  1.50000000E+00  1.50000000E+00  8.00000000E-01  8.00000000E-01
  1.50000000E+00  1.50000000E+00  8.00000000E-01  8.00000000E-01  1.50000000E+00
  1.50000000E+00  8.00000000E-01  8.00000000E-01  1.50000000E+00  1.50000000E+00
  8.00000000E-01  8.00000000E-01  1.50000000E+00  1.50000000E+00  8.00000000E-01
  8.00000000E-01  1.50000000E+00  1.50000000E+00  8.00000000E-01  8.00000000E-01
  1.50000000E+00  1.50000000E+00  8.00000000E-01  8.00000000E-01  1.50000000E+00
  1.50000000E+00  8.00000000E-01  8.00000000E-01  1.50000000E+00  1.50000000E+00
  8.00000000E-01  8.00000000E-01  1.50000000E+00  1.50000000E+00  8.00000000E-01
  8.00000000E-01  1.50000000E+00  1.50000000E+00  8.00000000E-01  8.00000000E-01
  1.50000000E+00  1.50000000E+00  8.00000000E-01  8.00000000E-01  1.50000000E+00
  1.50000000E+00  8.00000000E-01  8.00000000E-01  1.50000000E+00  1.50000000E+00
  8.00000000E-01  8.00000000E-01  1.50000000E+00  1.50000000E+00  8.00000000E-01
  8.00000000E-01  1.50000000E+00  1.50000000E+00  8.00000000E-01  8.00000000E-01
  1.50000000E+00  1.50000000E+00  8.00000000E-01  8.00000000E-01  1.50000000E+00
  1.50000000E+00  8.00000000E-01  8.00000000E-01  1.50000000E+00  1.50000000E+00
  8.00000000E-01  8.00000000E-01  1.50000000E+00  1.50000000E+00  8.00000000E-01
  8.00000000E-01  1.50000000E+00  1.50000000E+00  8.00000000E-01  8.00000000E-01
  1.50000000E+00  1.50000000E+00  8.00000000E-01  8.00000000E-01  1.50000000E+00
  1.50000000E+00  8.00000000E-01  8.00000000E-01  1.50000000E+00  1.50000000E+00
  8.00000000E-01  8.00000000E-01  1.50000000E+00  1.50000000E+00  8.00000000E-01
  8.00000000E-01  1.50000000E+00  1.50000000E+00  8.00000000E-01  8.00000000E-01
  1.50000000E+00  1.50000000E+00  8.00000000E-01  8.00000000E-01  1.50000000E+00
  1.50000000E+00  8.00000000E-01  8.00000000E-01  1.50000000E+00  1.50000000E+00
  8.00000000E-01  8.00000000E-01  1.50000000E+00  1.50000000E+00  8.00000000E-01
  8.00000000E-01  1.50000000E+00  1.50000000E+00  8.00000000E-01  8.00000000E-01
  1.50000000E+00  1.50000000E+00  8.00000000E-01  8.00000000E-01  1.50000000E+00
  1.50000000E+00  8.00000000E-01  8.00000000E-01  1.50000000E+00  1.50000000E+00
  8.00000000E-01  8.00000000E-01  1.50000000E+00  1.50000000E+00  8.00000000E-01
  8.00000000E-01  1.50000000E+00  1.50000000E+00  8.00000000E-01  8.00000000E-01
  1.50000000E+00  1.50000000E+00  8.00000000E-01  8.00000000E-01  1.50000000E+00
  1.50000000E+00  8.00000000E-01  8.00000000E-01  1.50000000E+00  1.50000000E+00
  8.00000000E-01  8.00000000E-01  1.50000000E+00  1.50000000E+00  8.00000000E-01
  8.00000000E-01  1.50000000E+00  1.50000000E+00  8.00000000E-01  8.00000000E-01
  1.50000000E+00  1.50000000E+00  8.00000000E-01  8.00000000E-01  1.50000000E+00
  1.50000000E+00  8.00000000E-01  8.00000000E-01  1.50000000E+00  1.50000000E+00
  8.00000000E-01  8.00000000E-01  1.50000000E+00  1.50000000E+00  8.00000000E-01
  8.00000000E-01  1.50000000E+00  1.50000000E+00  8.00000000E-01  8.00000000E-01
  1.50000000E+00  1.50000000E+00  8.00000000E-01  8.00000000E-01  1.50000000E+00
  1.50000000E+00  8.00000000E-01  8.00000000E-01  1.50000000E+00  1.50000000E+00
  8.00000000E-01  8.00000000E-01  1.50000000E+00  1.50000000E+00  8.00000000E-01
  8.00000000E-01  1.50000000E+00  1.50000000E+00  8.00000000E-01  8.00000000E-01
  1.50000000E+00  1.50000000E+00  8.00000000E-01  8.00000000E-01  1.50000000E+00
  1.50000000E+00  8.00000000E-01  8.00000000E-01  1.50000000E+00  1.50000000E+00
  8.00000000E-01  8.00000000E-01  1.50000000E+00  1.50000000E+00  8.00000000E-01
  8.00000000E-01  1.50000000E+00  1.50000000E+00  8.00000000E-01  8.00000000E-01
  1.50000000E+00  1.50000000E+00  8.00000000E-01  8.00000000E-01  1.50000000E+00
  1.50000000E+00  8.00000000E-01  8.00000000E-01  1.50000000E+00  1.50000000E+00
  8.00000000E-01  8.00000000E-01  1.50000000E+00  1.50000000E+00  8.00000000E-01
  8.00000000E-01  1.50000000E+00  1.50000000E+00  8.00000000E-01  8.00000000E-01
  1.50000000E+00  1.50000000E+00  8.00000000E-01  8.00000000E-01  1.50000000E+00
  1.50000000E+00  8.00000000E-01  8.00000000E-01  1.50000000E+00  1.50000000E+00
  8.00000000E-01  8.00000000E-01  1.50000000E+00  1.50000000E+00  8.00000000E-01
  8.00000000E-01  1.50000000E+00  1.50000000E+00  8.00000000E-01  8.00000000E-01
  1.50000000E+00  1.50000000E+00  8.00000000E-01  8.00000000E-01  1.50000000E+00
  1.50000000E+00  8.00000000E-01  8.00000000E-01  1.50000000E+00  1.50000000E+00
  8.00000000E-01  8.00000000E-01  1.50000000E+00  1.50000000E+00  8.00000000E-01
  8.00000000E-01  1.50000000E+00  1.50000000E+00  8.00000000E-01  8.00000000E-01
  1.50000000E+00  1.50000000E+00  8.00000000E-01  8.00000000E-01  1.50000000E+00
  1.50000000E+00  8.00000000E-01  8.00000000E-01  1.50000000E+00  1.50000000E+00
  8.00000000E-01  8.00000000E-01  1.50000000E+00  1.50000000E+00  8.00000000E-01
  8.00000000E-01  1.50000000E+00  1.50000000E+00  8.00000000E-01  8.00000000E-01
  1.50000000E+00  1.50000000E+00  8.00000000E-01  8.00000000E-01  1.50000000E+00
  1.50000000E+00  8.00000000E-01  8.00000000E-01  1.50000000E+00  1.50000000E+00
  8.00000000E-01  8.00000000E-01  1.50000000E+00  1.50000000E+00  8.00000000E-01
  8.00000000E-01  1.50000000E+00  1.50000000E+00  8.00000000E-01  8.00000000E-01
  1.50000000E+00  1.50000000E+00  8.00000000E-01  8.00000000E-01  1.50000000E+00
  1.50000000E+00  8.00000000E-01  8.00000000E-01  1.50000000E+00  1.50000000E+00
  8.00000000E-01  8.00000000E-01  1.50000000E+00  1.50000000E+00  8.00000000E-01
  8.00000000E-01  1.50000000E+00  1.50000000E+00  8.00000000E-01  8.00000000E-01
  1.50000000E+00  1.50000000E+00  8.00000000E-01  8.00000000E-01  1.50000000E+00
  1.50000000E+00  8.00000000E-01  8.00000000E-01  1.50000000E+00  1.50000000E+00
  8.00000000E-01  8.00000000E-01  1.50000000E+00  1.50000000E+00  8.00000000E-01
  8.00000000E-01  1.50000000E+00  1.50000000E+00  8.00000000E-01  8.00000000E-01
  1.50000000E+00  1.50000000E+00  8.00000000E-01  8.00000000E-01  1.50000000E+00
  1.50000000E+00  8.00000000E-01  8.00000000E-01  1.50000000E+00  1.50000000E+00
  8.00000000E-01  8.00000000E-01  1.50000000E+00  1.50000000E+00  8.00000000E-01
  8.00000000E-01  1.50000000E+00  1.50000000E+00  8.00000000E-01  8.00000000E-01
  1.50000000E+00  1.50000000E+00  8.00000000E-01  8.00000000E-01  1.50000000E+00
  1.50000000E+00  8.00000000E-01  8.00000000E-01  1.50000000E+00  1.50000000E+00
  8.00000000E-01  8.00000000E-01  1.50000000E+00  1.50000000E+00  8.00000000E-01
  8.00000000E-01  1.50000000E+00  1.50000000E+00  8.00000000E-01  8.00000000E-01
  1.50000000E+00  1.50000000E+00  8.00000000E-01  8.00000000E-01  1.50000000E+00
  1.50000000E+00  8.00000000E-01  8.00000000E-01  1.50000000E+00  1.50000000E+00
  8.00000000E-01  8.00000000E-01  1.50000000E+00  1.50000000E+00  8.00000000E-01
  8.00000000E-01  1.50000000E+00  1.50000000E+00  8.00000000E-01  8.00000000E-01
  1.50000000E+00  1.50000000E+00  8.00000000E-01  8.00000000E-01  1.50000000E+00
  1.50000000E+00  8.00000000E-01  8.00000000E-01  1.50000000E+00  1.50000000E+00
  8.00000000E-01  8.00000000E-01  1.50000000E+00  1.50000000E+00  8.00000000E-01
  8.00000000E-01  1.50000000E+00  1.50000000E+00  8.00000000E-01  8.00000000E-01
  1.50000000E+00  1.50000000E+00  8.00000000E-01  8.00000000E-01  1.50000000E+00
  1.50000000E+00  8.00000000E-01  8.00000000E-01  1.50000000E+00  1.50000000E+00
  8.00000000E-01  8.00000000E-01  1.50000000E+00  1.50000000E+00  8.00000000E-01
  8.00000000E-01  1.50000000E+00  1.50000000E+00  8.00000000E-01  8.00000000E-01
  1.50000000E+00  1.50000000E+00  8.00000000E-01  8.00000000E-01  1.50000000E+00
  1.50000000E+00  8.00000000E-01  8.00000000E-01  1.50000000E+00  1.50000000E+00
  8.00000000E-01  8.00000000E-01  1.50000000E+00  1.50000000E+00  8.00000000E-01
  8.00000000E-01  1.50000000E+00  1.50000000E+00  8.00000000E-01  8.00000000E-01
  1.50000000E+00  1.50000000E+00  8.00000000E-01  8.00000000E-01  1.50000000E+00
  1.50000000E+00  8.00000000E-01  8.00000000E-01  1.50000000E+00  1.50000000E+00
  8.00000000E-01  8.00000000E-01  1.50000000E+00  1.50000000E+00  8.00000000E-01
  8.00000000E-01  1.50000000E+00  1.50000000E+00  8.00000000E-01  8.00000000E-01
  1.50000000E+00  1.50000000E+00  8.00000000E-01  8.00000000E-01  1.50000000E+00
  1.50000000E+00  8.00000000E-01  8.00000000E-01  1.50000000E+00  1.50000000E+00
  8.00000000E-01  8.00000000E-01  1.50000000E+00  1.50000000E+00  8.00000000E-01
  8.00000000E-01  1.50000000E+00  1.50000000E+00  8.00000000E-01  8.00000000E-01
  1.50000000E+00  1.50000000E+00  8.00000000E-01  8.00000000E-01  1.50000000E+00
  1.50000000E+00  8.00000000E-01  8.00000000E-01  1.50000000E+00  1.50000000E+00
  8.00000000E-01  8.00000000E-01  1.50000000E+00  1.50000000E+00  8.00000000E-01
  8.00000000E-01  1.50000000E+00  1.50000000E+00  8.00000000E-01  8.00000000E-01
  1.50000000E+00  1.50000000E+00  8.00000000E-01  8.00000000E-01  1.50000000E+00
  1.50000000E+00  8.00000000E-01  8.00000000E-01  1.50000000E+00  1.50000000E+00
  8.00000000E-01  8.00000000E-01  1.50000000E+00  1.50000000E+00  8.00000000E-01
  8.00000000E-01  1.50000000E+00  1.50000000E+00  8.00000000E-01  8.00000000E-01
  1.50000000E+00  1.50000000E+00  8.00000000E-01  8.00000000E-01  1.50000000E+00
  1.50000000E+00  8.00000000E-01  8.00000000E-01  1.50000000E+00  1.50000000E+00
  8.00000000E-01  8.00000000E-01  1.50000000E+00  1.50000000E+00  8.00000000E-01
  8.00000000E-01  1.50000000E+00  1.50000000E+00  8.00000000E-01  8.00000000E-01
  1.50000000E+00  1.50000000E+00  8.00000000E-01  8.00000000E-01  1.50000000E+00
  1.50000000E+00  8.00000000E-01  8.00000000E-01  1.50000000E+00  1.50000000E+00
  8.00000000E-01  8.00000000E-01  1.50000000E+00  1.50000000E+00  8.00000000E-01
  8.00000000E-01  1.50000000E+00  1.50000000E+00  8.00000000E-01  8.00000000E-01
  1.50000000E+00  1.50000000E+00  8.00000000E-01  8.00000000E-01  1.50000000E+00
  1.50000000E+00  8.00000000E-01  8.00000000E-01  1.50000000E+00  1.50000000E+00
  8.00000000E-01  8.00000000E-01  1.50000000E+00  1.50000000E+00  8.00000000E-01
  8.00000000E-01  1.50000000E+00  1.50000000E+00  8.00000000E-01  8.00000000E-01
  1.50000000E+00  1.50000000E+00  8.00000000E-01  8.00000000E-01  1.50000000E+00
  1.50000000E+00  8.00000000E-01  8.00000000E-01  1.50000000E+00  1.50000000E+00
  8.00000000E-01  8.00000000E-01  1.50000000E+00  1.50000000E+00  8.00000000E-01
  8.00000000E-01  1.50000000E+00  1.50000000E+00  8.00000000E-01  8.00000000E-01
  1.50000000E+00  1.50000000E+00  8.00000000E-01  8.00000000E-01  1.50000000E+00
  1.50000000E+00  8.00000000E-01  8.00000000E-01  1.50000000E+00  1.50000000E+00
  8.00000000E-01  8.00000000E-01  1.50000000E+00  1.50000000E+00  8.00000000E-01
  8.00000000E-01  1.50000000E+00  1.50000000E+00  8.00000000E-01  8.00000000E-01
  1.50000000E+00  1.50000000E+00  8.00000000E-01  8.00000000E-01  1.50000000E+00
  1.50000000E+00  8.00000000E-01  8.00000000E-01  1.50000000E+00  1.50000000E+00
  8.00000000E-01  8.00000000E-01  1.50000000E+00  1.50000000E+00  8.00000000E-01
  8.00000000E-01  1.50000000E+00  1.50000000E+00  8.00000000E-01  8.00000000E-01
  1.50000000E+00  1.50000000E+00  8.00000000E-01  8.00000000E-01  1.50000000E+00
  1.50000000E+00  8.00000000E-01  8.00000000E-01  1.50000000E+00  1.50000000E+00
  8.00000000E-01  8.00000000E-01  1.50000000E+00  1.50000000E+00  8.00000000E-01
  8.00000000E-01  1.50000000E+00  1.50000000E+00  8.00000000E-01  8.00000000E-01
  1.50000000E+00  1.50000000E+00  8.00000000E-01  8.00000000E-01  1.50000000E+00
  1.50000000E+00  8.00000000E-01  8.00000000E-01  1.50000000E+00  1.50000000E+00
  8.00000000E-01  8.00000000E-01  1.50000000E+00  1.50000000E+00  8.00000000E-01
  8.00000000E-01  1.50000000E+00  1.50000000E+00  8.00000000E-01  8.00000000E-01
  1.50000000E+00  1.50000000E+00  8.00000000E-01  8.00000000E-01  1.50000000E+00
  1.50000000E+00  8.00000000E-01  8.00000000E-01  1.50000000E+00  1.50000000E+00
  8.00000000E-01  8.00000000E-01  1.50000000E+00  1.50000000E+00  8.00000000E-01
  8.00000000E-01  1.50000000E+00  1.50000000E+00  8.00000000E-01  8.00000000E-01
  1.50000000E+00  1.50000000E+00  8.00000000E-01  8.00000000E-01  1.50000000E+00
  1.50000000E+00  8.00000000E-01  8.00000000E-01  1.50000000E+00  1.50000000E+00
  8.00000000E-01  8.00000000E-01  1.50000000E+00  1.50000000E+00  8.00000000E-01
  8.00000000E-01  1.50000000E+00  1.50000000E+00  8.00000000E-01  8.00000000E-01
  1.50000000E+00  1.50000000E+00  8.00000000E-01  8.00000000E-01  1.50000000E+00
  1.50000000E+00  8.00000000E-01  8.00000000E-01  1.50000000E+00  1.50000000E+00
  8.00000000E-01  8.00000000E-01  1.50000000E+00  1.50000000E+00  8.00000000E-01
  8.00000000E-01  1.50000000E+00  1.50000000E+00  8.00000000E-01  8.00000000E-01
  1.50000000E+00  1.50000000E+00  8.00000000E-01  8.00000000E-01  1.50000000E+00
  1.50000000E+00  8.00000000E-01  8.00000000E-01  1.50000000E+00  1.50000000E+00
  8.00000000E-01  8.00000000E-01  1.50000000E+00  1.50000000E+00  8.00000000E-01
  8.00000000E-01  1.50000000E+00  1.50000000E+00  8.00000000E-01  8.00000000E-01
  1.50000000E+00  1.50000000E+00  8.00000000E-01  8.00000000E-01  1.50000000E+00
  1.50000000E+00  8.00000000E-01  8.00000000E-01  1.50000000E+00  1.50000000E+00
  8.00000000E-01  8.00000000E-01  1.50000000E+00  1.50000000E+00  8.00000000E-01
  8.00000000E-01  1.50000000E+00  1.50000000E+00  8.00000000E-01  8.00000000E-01
  1.50000000E+00  1.50000000E+00  8.00000000E-01  8.00000000E-01  1.50000000E+00
  1.50000000E+00  8.00000000E-01  8.00000000E-01  1.50000000E+00  1.50000000E+00
  8.00000000E-01  8.00000000E-01  1.50000000E+00  1.50000000E+00  8.00000000E-01
  8.00000000E-01  1.50000000E+00  1.50000000E+00  8.00000000E-01  8.00000000E-01
  1.50000000E+00  1.50000000E+00  8.00000000E-01  8.00000000E-01  1.50000000E+00
  1.50000000E+00  8.00000000E-01  8.00000000E-01  1.50000000E+00  1.50000000E+00
  8.00000000E-01  8.00000000E-01  1.50000000E+00  1.50000000E+00  8.00000000E-01
  8.00000000E-01  1.50000000E+00  1.50000000E+00  8.00000000E-01  8.00000000E-01
  1.50000000E+00  1.50000000E+00  8.00000000E-01  8.00000000E-01  1.50000000E+00
  1.50000000E+00  8.00000000E-01  8.00000000E-01  1.50000000E+00  1.50000000E+00
  8.00000000E-01  8.00000000E-01  1.50000000E+00  1.50000000E+00  8.00000000E-01
  8.00000000E-01  1.50000000E+00  1.50000000E+00  8.00000000E-01  8.00000000E-01
  1.50000000E+00  1.50000000E+00  8.00000000E-01  8.00000000E-01  1.50000000E+00
  1.50000000E+00  8.00000000E-01  8.00000000E-01  1.50000000E+00  1.50000000E+00
  8.00000000E-01  8.00000000E-01  1.50000000E+00  1.50000000E+00  8.00000000E-01
  8.00000000E-01  1.50000000E+00  1.50000000E+00  8.00000000E-01  8.00000000E-01
  1.50000000E+00  1.50000000E+00  8.00000000E-01  8.00000000E-01  1.50000000E+00
  1.50000000E+00  8.00000000E-01  8.00000000E-01  1.50000000E+00  1.50000000E+00
  8.00000000E-01  8.00000000E-01  1.50000000E+00  1.50000000E+00  8.00000000E-01
  8.00000000E-01  1.50000000E+00  1.50000000E+00  8.00000000E-01  8.00000000E-01
  1.50000000E+00  1.50000000E+00  8.00000000E-01  8.00000000E-01  1.50000000E+00
  1.50000000E+00  8.00000000E-01  8.00000000E-01  1.50000000E+00  1.50000000E+00
  8.00000000E-01  8.00000000E-01  1.50000000E+00  1.50000000E+00  8.00000000E-01
  8.00000000E-01  1.50000000E+00  1.50000000E+00  8.00000000E-01  8.00000000E-01
  1.50000000E+00  1.50000000E+00  8.00000000E-01  8.00000000E-01  1.50000000E+00
  1.50000000E+00  8.00000000E-01  8.00000000E-01  1.50000000E+00  1.50000000E+00
  8.00000000E-01  8.00000000E-01  1.50000000E+00  1.50000000E+00  8.00000000E-01
  8.00000000E-01  1.50000000E+00  1.50000000E+00  8.00000000E-01  8.00000000E-01
  1.50000000E+00  1.50000000E+00  8.00000000E-01  8.00000000E-01  1.50000000E+00
  1.50000000E+00  8.00000000E-01  8.00000000E-01  1.50000000E+00  1.50000000E+00
  8.00000000E-01  8.00000000E-01  1.50000000E+00  1.50000000E+00  8.00000000E-01
  8.00000000E-01  1.50000000E+00  1.50000000E+00  8.00000000E-01  8.00000000E-01
  1.50000000E+00  1.50000000E+00  8.00000000E-01  8.00000000E-01  1.50000000E+00
  1.50000000E+00  8.00000000E-01  8.00000000E-01  1.50000000E+00  1.50000000E+00
  8.00000000E-01  8.00000000E-01  1.50000000E+00  1.50000000E+00  8.00000000E-01
  8.00000000E-01  1.50000000E+00  1.50000000E+00  8.00000000E-01  8.00000000E-01
  1.50000000E+00  1.50000000E+00  8.00000000E-01  8.00000000E-01  1.50000000E+00
  1.50000000E+00  8.00000000E-01  8.00000000E-01  1.50000000E+00  1.50000000E+00
  8.00000000E-01  8.00000000E-01  1.50000000E+00  1.50000000E+00  8.00000000E-01
  8.00000000E-01  1.50000000E+00  1.50000000E+00  8.00000000E-01  8.00000000E-01
  1.50000000E+00  1.50000000E+00  8.00000000E-01  8.00000000E-01  1.50000000E+00
  1.50000000E+00  8.00000000E-01  8.00000000E-01  1.50000000E+00  1.50000000E+00
  8.00000000E-01  8.00000000E-01  1.50000000E+00  1.50000000E+00  8.00000000E-01
  8.00000000E-01  1.50000000E+00  1.50000000E+00  8.00000000E-01  8.00000000E-01
  1.50000000E+00  1.50000000E+00  8.00000000E-01  8.00000000E-01  1.50000000E+00
  1.50000000E+00  8.00000000E-01  8.00000000E-01  1.50000000E+00  1.50000000E+00
  8.00000000E-01  8.00000000E-01  1.50000000E+00  1.50000000E+00  8.00000000E-01
  8.00000000E-01  1.50000000E+00  1.50000000E+00  8.00000000E-01  8.00000000E-01
  1.50000000E+00  1.50000000E+00  8.00000000E-01  8.00000000E-01  1.50000000E+00
  1.50000000E+00  8.00000000E-01  8.00000000E-01  1.50000000E+00  1.50000000E+00
  8.00000000E-01  8.00000000E-01  1.50000000E+00  1.50000000E+00  8.00000000E-01
  8.00000000E-01  1.50000000E+00  1.50000000E+00  8.00000000E-01  8.00000000E-01
  1.50000000E+00  1.50000000E+00  8.00000000E-01  8.00000000E-01  1.50000000E+00
  1.50000000E+00  8.00000000E-01  8.00000000E-01  1.50000000E+00  1.50000000E+00
  8.00000000E-01  8.00000000E-01  1.50000000E+00  1.50000000E+00  8.00000000E-01
  8.00000000E-01  1.50000000E+00  1.50000000E+00  8.00000000E-01  8.00000000E-01
  1.50000000E+00  1.50000000E+00  8.00000000E-01  8.00000000E-01  1.50000000E+00
  1.50000000E+00  8.00000000E-01  8.00000000E-01  1.50000000E+00  1.50000000E+00
  8.00000000E-01  8.00000000E-01  1.50000000E+00  1.50000000E+00  8.00000000E-01
  8.00000000E-01  1.50000000E+00  1.50000000E+00  8.00000000E-01  8.00000000E-01
  1.50000000E+00  1.50000000E+00  8.00000000E-01  8.00000000E-01  1.50000000E+00
  1.50000000E+00  8.00000000E-01  8.00000000E-01  1.50000000E+00  1.50000000E+00
  8.00000000E-01  8.00000000E-01  1.50000000E+00  1.50000000E+00  8.00000000E-01
  8.00000000E-01  1.50000000E+00  1.50000000E+00  8.00000000E-01  8.00000000E-01
  1.50000000E+00  1.50000000E+00  8.00000000E-01  8.00000000E-01  1.50000000E+00
  1.50000000E+00  8.00000000E-01  8.00000000E-01  1.50000000E+00  1.50000000E+00
  8.00000000E-01  8.00000000E-01  1.50000000E+00  1.50000000E+00  8.00000000E-01
  8.00000000E-01  1.50000000E+00  1.50000000E+00  8.00000000E-01  8.00000000E-01
  1.50000000E+00  1.50000000E+00  8.00000000E-01  8.00000000E-01  1.50000000E+00
  1.50000000E+00  8.00000000E-01  8.00000000E-01  1.50000000E+00  1.50000000E+00
  8.00000000E-01  8.00000000E-01  1.50000000E+00  1.50000000E+00  8.00000000E-01
  8.00000000E-01  1.50000000E+00  1.50000000E+00  8.00000000E-01  8.00000000E-01
  1.50000000E+00  1.50000000E+00  8.00000000E-01  8.00000000E-01  1.50000000E+00
  1.50000000E+00  8.00000000E-01  8.00000000E-01  1.50000000E+00  1.50000000E+00
  8.00000000E-01  8.00000000E-01  1.50000000E+00  1.50000000E+00  8.00000000E-01
  8.00000000E-01  1.50000000E+00  1.50000000E+00  8.00000000E-01  8.00000000E-01
  1.50000000E+00  1.50000000E+00  8.00000000E-01  8.00000000E-01  1.50000000E+00
  1.50000000E+00  8.00000000E-01  8.00000000E-01  1.50000000E+00  1.50000000E+00
  8.00000000E-01  8.00000000E-01  1.50000000E+00  1.50000000E+00  8.00000000E-01
  8.00000000E-01  1.50000000E+00  1.50000000E+00  8.00000000E-01  8.00000000E-01
  1.50000000E+00  1.50000000E+00  8.00000000E-01  8.00000000E-01  1.50000000E+00
  1.50000000E+00  8.00000000E-01  8.00000000E-01  1.50000000E+00  1.50000000E+00
  8.00000000E-01  8.00000000E-01  1.50000000E+00  1.50000000E+00  8.00000000E-01
  8.00000000E-01  1.50000000E+00  1.50000000E+00  8.00000000E-01  8.00000000E-01
  1.50000000E+00  1.50000000E+00  8.00000000E-01  8.00000000E-01  1.50000000E+00
  1.50000000E+00  8.00000000E-01  8.00000000E-01  1.50000000E+00  1.50000000E+00
  8.00000000E-01  8.00000000E-01  1.50000000E+00  1.50000000E+00  8.00000000E-01
  8.00000000E-01  1.50000000E+00  1.50000000E+00  8.00000000E-01  8.00000000E-01
  1.50000000E+00  1.50000000E+00  8.00000000E-01  8.00000000E-01  1.50000000E+00
  1.50000000E+00  8.00000000E-01  8.00000000E-01  1.50000000E+00  1.50000000E+00
  8.00000000E-01  8.00000000E-01  1.50000000E+00  1.50000000E+00  8.00000000E-01
  8.00000000E-01  1.50000000E+00  1.50000000E+00  8.00000000E-01  8.00000000E-01
  1.50000000E+00  1.50000000E+00  8.00000000E-01  8.00000000E-01  1.50000000E+00
  1.50000000E+00  8.00000000E-01  8.00000000E-01  1.50000000E+00  1.50000000E+00
  8.00000000E-01  8.00000000E-01  1.50000000E+00  1.50000000E+00  8.00000000E-01
  8.00000000E-01  1.50000000E+00  1.50000000E+00  8.00000000E-01  8.00000000E-01
  1.50000000E+00  1.50000000E+00  8.00000000E-01  8.00000000E-01  1.50000000E+00
  1.50000000E+00  8.00000000E-01  8.00000000E-01  1.50000000E+00  1.50000000E+00
  8.00000000E-01  8.00000000E-01  1.50000000E+00  1.50000000E+00  8.00000000E-01
  8.00000000E-01  1.50000000E+00  1.50000000E+00  8.00000000E-01  8.00000000E-01
  1.50000000E+00  1.50000000E+00  8.00000000E-01  8.00000000E-01  1.50000000E+00
  1.50000000E+00  8.00000000E-01  8.00000000E-01  1.50000000E+00  1.50000000E+00
  8.00000000E-01  8.00000000E-01  1.50000000E+00  1.50000000E+00  8.00000000E-01
  8.00000000E-01  1.50000000E+00  1.50000000E+00  8.00000000E-01  8.00000000E-01
  1.50000000E+00  1.50000000E+00  8.00000000E-01  8.00000000E-01  1.50000000E+00
  1.50000000E+00  8.00000000E-01  8.00000000E-01  1.50000000E+00  1.50000000E+00
  8.00000000E-01  8.00000000E-01  1.50000000E+00  1.50000000E+00  8.00000000E-01
  8.00000000E-01  1.50000000E+00  1.50000000E+00  8.00000000E-01  8.00000000E-01
  1.50000000E+00  1.50000000E+00  8.00000000E-01  8.00000000E-01  1.50000000E+00
  1.50000000E+00  8.00000000E-01  8.00000000E-01  1.50000000E+00  1.50000000E+00
  8.00000000E-01  8.00000000E-01  1.50000000E+00  1.50000000E+00  8.00000000E-01
  8.00000000E-01  1.50000000E+00  1.50000000E+00  8.00000000E-01  8.00000000E-01
  1.50000000E+00  1.50000000E+00  8.00000000E-01  8.00000000E-01  1.50000000E+00
  1.50000000E+00  8.00000000E-01  8.00000000E-01  1.50000000E+00  1.50000000E+00
  8.00000000E-01  8.00000000E-01  1.50000000E+00  1.50000000E+00  8.00000000E-01
  8.00000000E-01  1.50000000E+00  1.50000000E+00  8.00000000E-01  8.00000000E-01
  1.50000000E+00  1.50000000E+00  8.00000000E-01  8.00000000E-01  1.50000000E+00
  1.50000000E+00  8.00000000E-01  8.00000000E-01  1.50000000E+00  1.50000000E+00
  8.00000000E-01  8.00000000E-01  1.50000000E+00  1.50000000E+00  8.00000000E-01
  8.00000000E-01  1.50000000E+00  1.50000000E+00  8.00000000E-01  8.00000000E-01
  1.50000000E+00  1.50000000E+00  8.00000000E-01  8.00000000E-01  1.50000000E+00
  1.50000000E+00  8.00000000E-01  8.00000000E-01  1.50000000E+00  1.50000000E+00
  8.00000000E-01  8.00000000E-01  1.50000000E+00  1.50000000E+00  8.00000000E-01
  8.00000000E-01  1.50000000E+00  1.50000000E+00  8.00000000E-01  8.00000000E-01
  1.50000000E+00  1.50000000E+00  8.00000000E-01  8.00000000E-01  1.50000000E+00
  1.50000000E+00  8.00000000E-01  8.00000000E-01  1.50000000E+00  1.50000000E+00
  8.00000000E-01  8.00000000E-01  1.50000000E+00  1.50000000E+00  8.00000000E-01
  8.00000000E-01  1.50000000E+00  1.50000000E+00  8.00000000E-01  8.00000000E-01
  1.50000000E+00  1.50000000E+00  8.00000000E-01  8.00000000E-01  1.50000000E+00
  1.50000000E+00  8.00000000E-01  8.00000000E-01  1.50000000E+00  1.50000000E+00
  8.00000000E-01  8.00000000E-01  1.50000000E+00  1.50000000E+00  8.00000000E-01
  8.00000000E-01  1.50000000E+00  1.50000000E+00  8.00000000E-01  8.00000000E-01
  1.50000000E+00  1.50000000E+00  8.00000000E-01  8.00000000E-01  1.50000000E+00
  1.50000000E+00  8.00000000E-01  8.00000000E-01  1.50000000E+00  1.50000000E+00
  8.00000000E-01  8.00000000E-01  1.50000000E+00  1.50000000E+00  8.00000000E-01
  8.00000000E-01  1.50000000E+00  1.50000000E+00  8.00000000E-01  8.00000000E-01
  1.50000000E+00  1.50000000E+00  8.00000000E-01  8.00000000E-01  1.50000000E+00
  1.50000000E+00  8.00000000E-01  8.00000000E-01  1.50000000E+00  1.50000000E+00
  8.00000000E-01  8.00000000E-01  1.50000000E+00  1.50000000E+00  8.00000000E-01
  8.00000000E-01  1.50000000E+00  1.50000000E+00  8.00000000E-01  8.00000000E-01
  1.50000000E+00  1.50000000E+00  8.00000000E-01  8.00000000E-01  1.50000000E+00
  1.50000000E+00  8.00000000E-01  8.00000000E-01  1.50000000E+00  1.50000000E+00
  8.00000000E-01  8.00000000E-01  1.50000000E+00  1.50000000E+00  8.00000000E-01
  8.00000000E-01  1.50000000E+00  1.50000000E+00  8.00000000E-01  8.00000000E-01
  1.50000000E+00  1.50000000E+00  8.00000000E-01  8.00000000E-01  1.50000000E+00
  1.50000000E+00  8.00000000E-01  8.00000000E-01  1.50000000E+00  1.50000000E+00
  8.00000000E-01  8.00000000E-01  1.50000000E+00  1.50000000E+00  8.00000000E-01
  8.00000000E-01  1.50000000E+00  1.50000000E+00  8.00000000E-01  8.00000000E-01
  1.50000000E+00  1.50000000E+00  8.00000000E-01  8.00000000E-01  1.50000000E+00
  1.50000000E+00  8.00000000E-01  8.00000000E-01  1.50000000E+00  1.50000000E+00
  8.00000000E-01  8.00000000E-01  1.50000000E+00  1.50000000E+00  8.00000000E-01
  8.00000000E-01  1.50000000E+00  1.50000000E+00  8.00000000E-01  8.00000000E-01
  1.50000000E+00  1.50000000E+00  8.00000000E-01  8.00000000E-01  1.50000000E+00
  1.50000000E+00  8.00000000E-01  8.00000000E-01  1.50000000E+00  1.50000000E+00
  8.00000000E-01  8.00000000E-01  1.50000000E+00  1.50000000E+00  8.00000000E-01
  8.00000000E-01  1.50000000E+00  1.50000000E+00  8.00000000E-01  8.00000000E-01
  1.50000000E+00  1.50000000E+00  8.00000000E-01  8.00000000E-01  1.50000000E+00
  1.50000000E+00  8.00000000E-01  8.00000000E-01  1.50000000E+00  1.50000000E+00
  8.00000000E-01  8.00000000E-01  1.50000000E+00  1.50000000E+00  8.00000000E-01
  8.00000000E-01  1.50000000E+00  1.50000000E+00  8.00000000E-01  8.00000000E-01
  1.50000000E+00  1.50000000E+00  8.00000000E-01  8.00000000E-01  1.50000000E+00
  1.50000000E+00  8.00000000E-01  8.00000000E-01  1.50000000E+00  1.50000000E+00
  8.00000000E-01  8.00000000E-01  1.50000000E+00  1.50000000E+00  8.00000000E-01
  8.00000000E-01  1.50000000E+00  1.50000000E+00  8.00000000E-01  8.00000000E-01
  1.50000000E+00  1.50000000E+00  8.00000000E-01  8.00000000E-01  1.50000000E+00
  1.50000000E+00  8.00000000E-01  8.00000000E-01  1.50000000E+00  1.50000000E+00
  8.00000000E-01  8.00000000E-01  1.50000000E+00  1.50000000E+00  8.00000000E-01
  8.00000000E-01  1.50000000E+00  1.50000000E+00  8.00000000E-01  8.00000000E-01
  1.50000000E+00  1.50000000E+00  8.00000000E-01  8.00000000E-01  1.50000000E+00
  1.50000000E+00  8.00000000E-01  8.00000000E-01  1.50000000E+00  1.50000000E+00
  8.00000000E-01  8.00000000E-01  1.50000000E+00  1.50000000E+00  8.00000000E-01
  8.00000000E-01  1.50000000E+00  1.50000000E+00  8.00000000E-01  8.00000000E-01
  1.50000000E+00  1.50000000E+00  8.00000000E-01  8.00000000E-01  1.50000000E+00
  1.50000000E+00  8.00000000E-01  8.00000000E-01  1.50000000E+00  1.50000000E+00
  8.00000000E-01  8.00000000E-01  1.50000000E+00  1.50000000E+00  8.00000000E-01
  8.00000000E-01  1.50000000E+00  1.50000000E+00  8.00000000E-01  8.00000000E-01
  1.50000000E+00  1.50000000E+00  8.00000000E-01  8.00000000E-01  1.50000000E+00
  1.50000000E+00  8.00000000E-01  8.00000000E-01  1.50000000E+00  1.50000000E+00
  8.00000000E-01  8.00000000E-01  1.50000000E+00  1.50000000E+00  8.00000000E-01
  8.00000000E-01  1.50000000E+00  1.50000000E+00  8.00000000E-01  8.00000000E-01
  1.50000000E+00  1.50000000E+00  8.00000000E-01  8.00000000E-01  1.50000000E+00
  1.50000000E+00  8.00000000E-01  8.00000000E-01  1.50000000E+00  1.50000000E+00
  8.00000000E-01  8.00000000E-01  1.50000000E+00  1.50000000E+00  8.00000000E-01
  8.00000000E-01  1.50000000E+00  1.50000000E+00  8.00000000E-01  8.00000000E-01
  1.50000000E+00  1.50000000E+00  8.00000000E-01  8.00000000E-01  1.50000000E+00
  1.50000000E+00  8.00000000E-01  8.00000000E-01  1.50000000E+00  1.50000000E+00
  8.00000000E-01  8.00000000E-01  1.50000000E+00  1.50000000E+00  8.00000000E-01
  8.00000000E-01  1.50000000E+00  1.50000000E+00  8.00000000E-01  8.00000000E-01
  1.50000000E+00  1.50000000E+00  8.00000000E-01  8.00000000E-01  1.50000000E+00
  1.50000000E+00  8.00000000E-01  8.00000000E-01  1.50000000E+00  1.50000000E+00
  8.00000000E-01  8.00000000E-01  1.50000000E+00  1.50000000E+00  8.00000000E-01
  8.00000000E-01  1.50000000E+00  1.50000000E+00  8.00000000E-01  8.00000000E-01
  1.50000000E+00  1.50000000E+00  8.00000000E-01  8.00000000E-01  1.50000000E+00
  1.50000000E+00  8.00000000E-01  8.00000000E-01  1.50000000E+00  1.50000000E+00
  8.00000000E-01  8.00000000E-01  1.50000000E+00  1.50000000E+00  8.00000000E-01
  8.00000000E-01  1.50000000E+00  1.50000000E+00  8.00000000E-01  8.00000000E-01
  1.50000000E+00  1.50000000E+00  8.00000000E-01  8.00000000E-01  1.50000000E+00
  1.50000000E+00  8.00000000E-01  8.00000000E-01  1.50000000E+00  1.50000000E+00
  8.00000000E-01  8.00000000E-01  1.50000000E+00  1.50000000E+00  8.00000000E-01
  8.00000000E-01  1.50000000E+00  1.50000000E+00  8.00000000E-01  8.00000000E-01
  1.50000000E+00  1.50000000E+00  8.00000000E-01  8.00000000E-01  1.50000000E+00
  1.50000000E+00  8.00000000E-01  8.00000000E-01  1.50000000E+00  1.50000000E+00
  8.00000000E-01  8.00000000E-01  1.50000000E+00  1.50000000E+00  8.00000000E-01
  8.00000000E-01  1.50000000E+00  1.50000000E+00  8.00000000E-01  8.00000000E-01
  1.50000000E+00  1.50000000E+00  8.00000000E-01  8.00000000E-01  1.50000000E+00
  1.50000000E+00  8.00000000E-01  8.00000000E-01  1.50000000E+00  1.50000000E+00
  8.00000000E-01  8.00000000E-01  1.50000000E+00  1.50000000E+00  8.00000000E-01
  8.00000000E-01  1.50000000E+00  1.50000000E+00  8.00000000E-01  8.00000000E-01
  1.50000000E+00  1.50000000E+00  8.00000000E-01  8.00000000E-01  1.50000000E+00
  1.50000000E+00  8.00000000E-01  8.00000000E-01  1.50000000E+00  1.50000000E+00
  8.00000000E-01  8.00000000E-01  1.50000000E+00  1.50000000E+00  8.00000000E-01
  8.00000000E-01  1.50000000E+00  1.50000000E+00  8.00000000E-01  8.00000000E-01
  1.50000000E+00  1.50000000E+00  8.00000000E-01  8.00000000E-01  1.50000000E+00
  1.50000000E+00  8.00000000E-01  8.00000000E-01  1.50000000E+00  1.50000000E+00
  8.00000000E-01  8.00000000E-01  1.50000000E+00  1.50000000E+00  8.00000000E-01
  8.00000000E-01  1.50000000E+00  1.50000000E+00  8.00000000E-01  8.00000000E-01
  1.50000000E+00  1.50000000E+00  8.00000000E-01  8.00000000E-01  1.50000000E+00
  1.50000000E+00  8.00000000E-01  8.00000000E-01  1.50000000E+00  1.50000000E+00
  8.00000000E-01  8.00000000E-01  1.50000000E+00  1.50000000E+00  8.00000000E-01
  8.00000000E-01  1.50000000E+00  1.50000000E+00  8.00000000E-01  8.00000000E-01
  1.50000000E+00  1.50000000E+00  8.00000000E-01  8.00000000E-01  1.50000000E+00
  1.50000000E+00  8.00000000E-01  8.00000000E-01  1.50000000E+00  1.50000000E+00
  8.00000000E-01  8.00000000E-01  1.50000000E+00  1.50000000E+00  8.00000000E-01
  8.00000000E-01  1.50000000E+00  1.50000000E+00  8.00000000E-01  8.00000000E-01
  1.50000000E+00  1.50000000E+00  8.00000000E-01  8.00000000E-01  1.50000000E+00
  1.50000000E+00  8.00000000E-01  8.00000000E-01  1.50000000E+00  1.50000000E+00
  8.00000000E-01  8.00000000E-01  1.50000000E+00  1.50000000E+00  8.00000000E-01
  8.00000000E-01  1.50000000E+00  1.50000000E+00  8.00000000E-01  8.00000000E-01
  1.50000000E+00  1.50000000E+00  8.00000000E-01  8.00000000E-01  1.50000000E+00
  1.50000000E+00  8.00000000E-01  8.00000000E-01  1.50000000E+00  1.50000000E+00
  8.00000000E-01  8.00000000E-01  1.50000000E+00  1.50000000E+00  8.00000000E-01
  8.00000000E-01  1.50000000E+00  1.50000000E+00  8.00000000E-01  8.00000000E-01
  1.50000000E+00  1.50000000E+00  8.00000000E-01  8.00000000E-01  1.50000000E+00
  1.50000000E+00  8.00000000E-01  8.00000000E-01  1.50000000E+00  1.50000000E+00
  8.00000000E-01  8.00000000E-01  1.50000000E+00  1.50000000E+00  8.00000000E-01
  8.00000000E-01  1.50000000E+00  1.50000000E+00  8.00000000E-01  8.00000000E-01
  1.50000000E+00  1.50000000E+00  8.00000000E-01  8.00000000E-01  1.50000000E+00
  1.50000000E+00  8.00000000E-01  8.00000000E-01  1.50000000E+00  1.50000000E+00
  8.00000000E-01  8.00000000E-01  1.50000000E+00  1.50000000E+00  8.00000000E-01
  8.00000000E-01  1.50000000E+00  1.50000000E+00  8.00000000E-01  8.00000000E-01
  1.50000000E+00  1.50000000E+00  8.00000000E-01  8.00000000E-01  1.50000000E+00
  1.50000000E+00  8.00000000E-01  8.00000000E-01  1.50000000E+00  1.50000000E+00
  8.00000000E-01  8.00000000E-01  1.50000000E+00  1.50000000E+00  8.00000000E-01
  8.00000000E-01  1.50000000E+00  1.50000000E+00  8.00000000E-01  8.00000000E-01
  1.50000000E+00  1.50000000E+00  8.00000000E-01  8.00000000E-01  1.50000000E+00
  1.50000000E+00  8.00000000E-01  8.00000000E-01  1.50000000E+00  1.50000000E+00
  8.00000000E-01  8.00000000E-01  1.50000000E+00  1.50000000E+00  8.00000000E-01
  8.00000000E-01  1.50000000E+00  1.50000000E+00  8.00000000E-01  8.00000000E-01
  1.50000000E+00  1.50000000E+00  8.00000000E-01  8.00000000E-01  1.50000000E+00
  1.50000000E+00  8.00000000E-01  8.00000000E-01  1.50000000E+00  1.50000000E+00
  8.00000000E-01  8.00000000E-01  1.50000000E+00  1.50000000E+00  8.00000000E-01
  8.00000000E-01  1.50000000E+00  1.50000000E+00  8.00000000E-01  8.00000000E-01
  1.50000000E+00  1.50000000E+00  8.00000000E-01  8.00000000E-01  1.50000000E+00
  1.50000000E+00  8.00000000E-01  8.00000000E-01  1.50000000E+00  1.50000000E+00
  8.00000000E-01  8.00000000E-01  1.50000000E+00  1.50000000E+00  8.00000000E-01
  8.00000000E-01  1.50000000E+00  1.50000000E+00  8.00000000E-01  8.00000000E-01
  1.50000000E+00  1.50000000E+00  8.00000000E-01  8.00000000E-01  1.50000000E+00
  1.50000000E+00  8.00000000E-01  8.00000000E-01  1.50000000E+00  1.50000000E+00
  8.00000000E-01  8.00000000E-01  1.50000000E+00  1.50000000E+00  8.00000000E-01
  8.00000000E-01  1.50000000E+00  1.50000000E+00  8.00000000E-01  8.00000000E-01
  1.50000000E+00  1.50000000E+00  8.00000000E-01  8.00000000E-01  1.50000000E+00
  1.50000000E+00  8.00000000E-01  8.00000000E-01  1.50000000E+00  1.50000000E+00
  8.00000000E-01  8.00000000E-01  1.50000000E+00  1.50000000E+00  8.00000000E-01
  8.00000000E-01  1.50000000E+00  1.50000000E+00  8.00000000E-01  8.00000000E-01
  1.50000000E+00  1.50000000E+00  8.00000000E-01  8.00000000E-01  1.50000000E+00
  1.50000000E+00  8.00000000E-01  8.00000000E-01  1.50000000E+00  1.50000000E+00
  8.00000000E-01  8.00000000E-01  1.50000000E+00  1.50000000E+00  8.00000000E-01
  8.00000000E-01  1.50000000E+00  1.50000000E+00  8.00000000E-01  8.00000000E-01
  1.50000000E+00  1.50000000E+00  8.00000000E-01  8.00000000E-01  1.50000000E+00
  1.50000000E+00  8.00000000E-01  8.00000000E-01  1.50000000E+00  1.50000000E+00
  8.00000000E-01  8.00000000E-01  1.50000000E+00  1.50000000E+00  8.00000000E-01
  8.00000000E-01  1.50000000E+00  1.50000000E+00  8.00000000E-01  8.00000000E-01
  1.50000000E+00  1.50000000E+00  8.00000000E-01  8.00000000E-01  1.50000000E+00
  1.50000000E+00  8.00000000E-01  8.00000000E-01  1.50000000E+00  1.50000000E+00
  8.00000000E-01  8.00000000E-01  1.50000000E+00  1.50000000E+00  8.00000000E-01
  8.00000000E-01  1.50000000E+00  1.50000000E+00  8.00000000E-01  8.00000000E-01
  1.50000000E+00  1.50000000E+00  8.00000000E-01  8.00000000E-01  1.50000000E+00
  1.50000000E+00  8.00000000E-01  8.00000000E-01  1.50000000E+00  1.50000000E+00
  8.00000000E-01  8.00000000E-01  1.50000000E+00  1.50000000E+00  8.00000000E-01
  8.00000000E-01  1.50000000E+00  1.50000000E+00  8.00000000E-01  8.00000000E-01
  1.50000000E+00  1.50000000E+00  8.00000000E-01  8.00000000E-01  1.50000000E+00
  1.50000000E+00  8.00000000E-01  8.00000000E-01  1.50000000E+00  1.50000000E+00
  8.00000000E-01  8.00000000E-01  1.50000000E+00  1.50000000E+00  8.00000000E-01
  8.00000000E-01  1.50000000E+00  1.50000000E+00  8.00000000E-01  8.00000000E-01
  1.50000000E+00  1.50000000E+00  8.00000000E-01  8.00000000E-01  1.50000000E+00
  1.50000000E+00  8.00000000E-01  8.00000000E-01  1.50000000E+00  1.50000000E+00
  8.00000000E-01  8.00000000E-01  1.50000000E+00  1.50000000E+00  8.00000000E-01
  8.00000000E-01  1.50000000E+00  1.50000000E+00  8.00000000E-01  8.00000000E-01
  1.50000000E+00  1.50000000E+00  8.00000000E-01  8.00000000E-01  1.50000000E+00
  1.50000000E+00  8.00000000E-01  8.00000000E-01  1.50000000E+00  1.50000000E+00
  8.00000000E-01  8.00000000E-01  1.50000000E+00  1.50000000E+00  8.00000000E-01
  8.00000000E-01  1.50000000E+00  1.50000000E+00  8.00000000E-01  8.00000000E-01
  1.50000000E+00  1.50000000E+00  8.00000000E-01  8.00000000E-01  1.50000000E+00
  1.50000000E+00  8.00000000E-01  8.00000000E-01  1.50000000E+00  1.50000000E+00
  8.00000000E-01  8.00000000E-01  1.50000000E+00  1.50000000E+00  8.00000000E-01
  8.00000000E-01  1.50000000E+00  1.50000000E+00  8.00000000E-01  8.00000000E-01
  1.50000000E+00  1.50000000E+00  8.00000000E-01  8.00000000E-01  1.50000000E+00
  1.50000000E+00  8.00000000E-01  8.00000000E-01  1.50000000E+00  1.50000000E+00
  8.00000000E-01  8.00000000E-01  1.50000000E+00  1.50000000E+00  8.00000000E-01
  8.00000000E-01  1.50000000E+00  1.50000000E+00  8.00000000E-01  8.00000000E-01
  1.50000000E+00  1.50000000E+00  8.00000000E-01  8.00000000E-01  1.50000000E+00
  1.50000000E+00  8.00000000E-01  8.00000000E-01  1.50000000E+00  1.50000000E+00
  8.00000000E-01  8.00000000E-01  1.50000000E+00  1.50000000E+00  8.00000000E-01
  8.00000000E-01  1.50000000E+00  1.50000000E+00  8.00000000E-01  8.00000000E-01
  1.50000000E+00  1.50000000E+00  8.00000000E-01  8.00000000E-01  1.50000000E+00
  1.50000000E+00  8.00000000E-01  8.00000000E-01  1.50000000E+00  1.50000000E+00
  8.00000000E-01  8.00000000E-01  1.50000000E+00  1.50000000E+00  8.00000000E-01
  8.00000000E-01  1.50000000E+00  1.50000000E+00  8.00000000E-01  8.00000000E-01
  1.50000000E+00  1.50000000E+00  8.00000000E-01  8.00000000E-01  1.50000000E+00
  1.50000000E+00  8.00000000E-01  8.00000000E-01  1.50000000E+00  1.50000000E+00
  8.00000000E-01  8.00000000E-01  1.50000000E+00  1.50000000E+00  8.00000000E-01
  8.00000000E-01  1.50000000E+00  1.50000000E+00  8.00000000E-01  8.00000000E-01
  1.50000000E+00  1.50000000E+00  8.00000000E-01  8.00000000E-01  1.50000000E+00
  1.50000000E+00  8.00000000E-01  8.00000000E-01  1.50000000E+00  1.50000000E+00
  8.00000000E-01  8.00000000E-01  1.50000000E+00  1.50000000E+00  8.00000000E-01
  8.00000000E-01  1.50000000E+00  1.50000000E+00  8.00000000E-01  8.00000000E-01
  1.50000000E+00  1.50000000E+00  8.00000000E-01  8.00000000E-01  1.50000000E+00
  1.50000000E+00  8.00000000E-01  8.00000000E-01  1.50000000E+00  1.50000000E+00
  8.00000000E-01  8.00000000E-01  1.50000000E+00  1.50000000E+00  8.00000000E-01
  8.00000000E-01  1.50000000E+00  1.50000000E+00  8.00000000E-01  8.00000000E-01
  1.50000000E+00  1.50000000E+00  8.00000000E-01  8.00000000E-01  1.50000000E+00
  1.50000000E+00  8.00000000E-01  8.00000000E-01  1.50000000E+00  1.50000000E+00
  8.00000000E-01  8.00000000E-01  1.50000000E+00  1.50000000E+00  8.00000000E-01
  8.00000000E-01  1.50000000E+00  1.50000000E+00  8.00000000E-01  8.00000000E-01
  1.50000000E+00  1.50000000E+00  8.00000000E-01  8.00000000E-01  1.50000000E+00
  1.50000000E+00  8.00000000E-01  8.00000000E-01  1.50000000E+00  1.50000000E+00
  8.00000000E-01  8.00000000E-01  1.50000000E+00  1.50000000E+00  8.00000000E-01
  8.00000000E-01  1.50000000E+00  1.50000000E+00  8.00000000E-01  8.00000000E-01
  1.50000000E+00  1.50000000E+00  8.00000000E-01  8.00000000E-01  1.50000000E+00
  1.50000000E+00  8.00000000E-01  8.00000000E-01  1.50000000E+00  1.50000000E+00
  8.00000000E-01  8.00000000E-01  1.50000000E+00  1.50000000E+00  8.00000000E-01
  8.00000000E-01  1.50000000E+00  1.50000000E+00  8.00000000E-01  8.00000000E-01
  1.50000000E+00  1.50000000E+00  8.00000000E-01  8.00000000E-01  1.50000000E+00
  1.50000000E+00  8.00000000E-01  8.00000000E-01  1.50000000E+00  1.50000000E+00
  8.00000000E-01  8.00000000E-01  1.50000000E+00  1.50000000E+00  8.00000000E-01
  8.00000000E-01  1.50000000E+00  1.50000000E+00  8.00000000E-01  8.00000000E-01
  1.50000000E+00  1.50000000E+00  8.00000000E-01  8.00000000E-01  1.50000000E+00
  1.50000000E+00  8.00000000E-01  8.00000000E-01  1.50000000E+00  1.50000000E+00
  8.00000000E-01  8.00000000E-01  1.50000000E+00  1.50000000E+00  8.00000000E-01
  8.00000000E-01  1.50000000E+00  1.50000000E+00  8.00000000E-01  8.00000000E-01
  1.50000000E+00  1.50000000E+00  8.00000000E-01  8.00000000E-01  1.50000000E+00
  1.50000000E+00  8.00000000E-01  8.00000000E-01  1.50000000E+00  1.50000000E+00
  8.00000000E-01  8.00000000E-01  1.50000000E+00  1.50000000E+00  8.00000000E-01
  8.00000000E-01  1.50000000E+00  1.50000000E+00  8.00000000E-01  8.00000000E-01
  1.50000000E+00  1.50000000E+00  8.00000000E-01  8.00000000E-01  1.50000000E+00
  1.50000000E+00  8.00000000E-01  8.00000000E-01  1.50000000E+00  1.50000000E+00
  8.00000000E-01  8.00000000E-01  1.50000000E+00  1.50000000E+00  8.00000000E-01
  8.00000000E-01  1.50000000E+00  1.50000000E+00  8.00000000E-01  8.00000000E-01
  1.50000000E+00  1.50000000E+00  8.00000000E-01  8.00000000E-01  1.50000000E+00
  1.50000000E+00  8.00000000E-01  8.00000000E-01  1.50000000E+00  1.50000000E+00
  8.00000000E-01  8.00000000E-01  1.50000000E+00  1.50000000E+00  8.00000000E-01
  8.00000000E-01  1.50000000E+00  1.50000000E+00  8.00000000E-01  8.00000000E-01
  1.50000000E+00  1.50000000E+00  8.00000000E-01  8.00000000E-01  1.50000000E+00
  1.50000000E+00  8.00000000E-01  8.00000000E-01  1.50000000E+00  1.50000000E+00
  8.00000000E-01  8.00000000E-01  1.50000000E+00  1.50000000E+00  8.00000000E-01
  8.00000000E-01  1.50000000E+00  1.50000000E+00  8.00000000E-01  8.00000000E-01
  1.50000000E+00  1.50000000E+00  8.00000000E-01  8.00000000E-01  1.50000000E+00
  1.50000000E+00  8.00000000E-01  8.00000000E-01  1.50000000E+00  1.50000000E+00
  8.00000000E-01  8.00000000E-01  1.50000000E+00  1.50000000E+00  8.00000000E-01
  8.00000000E-01  1.50000000E+00  1.50000000E+00  8.00000000E-01  8.00000000E-01
  1.50000000E+00  1.50000000E+00  8.00000000E-01  8.00000000E-01  1.50000000E+00
  1.50000000E+00  8.00000000E-01  8.00000000E-01  1.50000000E+00  1.50000000E+00
  8.00000000E-01  8.00000000E-01  1.50000000E+00  1.50000000E+00  8.00000000E-01
  8.00000000E-01  1.50000000E+00  1.50000000E+00  8.00000000E-01  8.00000000E-01
  1.50000000E+00  1.50000000E+00  8.00000000E-01  8.00000000E-01  1.50000000E+00
  1.50000000E+00  8.00000000E-01  8.00000000E-01  1.50000000E+00  1.50000000E+00
  8.00000000E-01  8.00000000E-01  1.50000000E+00  1.50000000E+00  8.00000000E-01
  8.00000000E-01  1.50000000E+00  1.50000000E+00  8.00000000E-01  8.00000000E-01
  1.50000000E+00  1.50000000E+00  8.00000000E-01  8.00000000E-01  1.50000000E+00
  1.50000000E+00  8.00000000E-01  8.00000000E-01  1.50000000E+00  1.50000000E+00
  8.00000000E-01  8.00000000E-01  1.50000000E+00  1.50000000E+00  8.00000000E-01
  8.00000000E-01  1.50000000E+00  1.50000000E+00  8.00000000E-01  8.00000000E-01
  1.50000000E+00  1.50000000E+00  8.00000000E-01  8.00000000E-01  1.50000000E+00
  1.50000000E+00  8.00000000E-01  8.00000000E-01  1.50000000E+00  1.50000000E+00
  8.00000000E-01  8.00000000E-01  1.50000000E+00  1.50000000E+00  8.00000000E-01
  8.00000000E-01  1.50000000E+00  1.50000000E+00  8.00000000E-01  8.00000000E-01
  1.50000000E+00  1.50000000E+00  8.00000000E-01  8.00000000E-01  1.50000000E+00
  1.50000000E+00  8.00000000E-01  8.00000000E-01  1.50000000E+00  1.50000000E+00
  8.00000000E-01  8.00000000E-01  1.50000000E+00  1.50000000E+00  8.00000000E-01
  8.00000000E-01  1.50000000E+00  1.50000000E+00  8.00000000E-01  8.00000000E-01
  1.50000000E+00  1.50000000E+00  8.00000000E-01  8.00000000E-01  1.50000000E+00
  1.50000000E+00  8.00000000E-01  8.00000000E-01  1.50000000E+00  1.50000000E+00
  8.00000000E-01  8.00000000E-01  1.50000000E+00  1.50000000E+00  8.00000000E-01
  8.00000000E-01  1.50000000E+00  1.50000000E+00  8.00000000E-01  8.00000000E-01
  1.50000000E+00  1.50000000E+00  8.00000000E-01  8.00000000E-01  1.50000000E+00
  1.50000000E+00  8.00000000E-01  8.00000000E-01  1.50000000E+00  1.50000000E+00
  8.00000000E-01  8.00000000E-01  1.50000000E+00  1.50000000E+00  8.00000000E-01
  8.00000000E-01  1.50000000E+00  1.50000000E+00  8.00000000E-01  8.00000000E-01
  1.50000000E+00  1.50000000E+00  8.00000000E-01  8.00000000E-01  1.50000000E+00
  1.50000000E+00  8.00000000E-01  8.00000000E-01  1.50000000E+00  1.50000000E+00
  8.00000000E-01  8.00000000E-01  1.50000000E+00  1.50000000E+00  8.00000000E-01
  8.00000000E-01  1.50000000E+00  1.50000000E+00  8.00000000E-01  8.00000000E-01
  1.50000000E+00  1.50000000E+00  8.00000000E-01  8.00000000E-01  1.50000000E+00
  1.50000000E+00  8.00000000E-01  8.00000000E-01  1.50000000E+00  1.50000000E+00
  8.00000000E-01  8.00000000E-01  1.50000000E+00  1.50000000E+00  8.00000000E-01
  8.00000000E-01  1.50000000E+00  1.50000000E+00  8.00000000E-01  8.00000000E-01
  1.50000000E+00  1.50000000E+00  8.00000000E-01  8.00000000E-01  1.50000000E+00
  1.50000000E+00  8.00000000E-01  8.00000000E-01  1.50000000E+00  1.50000000E+00
  8.00000000E-01  8.00000000E-01  1.50000000E+00  1.50000000E+00  8.00000000E-01
  8.00000000E-01  1.50000000E+00  1.50000000E+00  8.00000000E-01  8.00000000E-01
  1.50000000E+00  1.50000000E+00  8.00000000E-01  8.00000000E-01  1.50000000E+00
  1.50000000E+00  8.00000000E-01  8.00000000E-01  1.50000000E+00  1.50000000E+00
  8.00000000E-01  8.00000000E-01  1.50000000E+00  1.50000000E+00  8.00000000E-01
  8.00000000E-01  1.50000000E+00  1.50000000E+00  8.00000000E-01  8.00000000E-01
  1.50000000E+00  1.50000000E+00  8.00000000E-01  8.00000000E-01  1.50000000E+00
  1.50000000E+00  8.00000000E-01  8.00000000E-01  1.50000000E+00  1.50000000E+00
  8.00000000E-01  8.00000000E-01  1.50000000E+00  1.50000000E+00  8.00000000E-01
  8.00000000E-01  1.50000000E+00  1.50000000E+00  8.00000000E-01  8.00000000E-01
  1.50000000E+00  1.50000000E+00  8.00000000E-01  8.00000000E-01  1.50000000E+00
  1.50000000E+00  8.00000000E-01  8.00000000E-01  1.50000000E+00  1.50000000E+00
  8.00000000E-01  8.00000000E-01  1.50000000E+00  1.50000000E+00  8.00000000E-01
  8.00000000E-01  1.50000000E+00  1.50000000E+00  8.00000000E-01  8.00000000E-01
  1.50000000E+00  1.50000000E+00  8.00000000E-01  8.00000000E-01  1.50000000E+00
  1.50000000E+00  8.00000000E-01  8.00000000E-01  1.50000000E+00  1.50000000E+00
  8.00000000E-01  8.00000000E-01  1.50000000E+00  1.50000000E+00  8.00000000E-01
  8.00000000E-01  1.50000000E+00  1.50000000E+00  8.00000000E-01  8.00000000E-01
  1.50000000E+00  1.50000000E+00  8.00000000E-01  8.00000000E-01  1.50000000E+00
  1.50000000E+00  8.00000000E-01  8.00000000E-01  1.50000000E+00  1.50000000E+00
  8.00000000E-01  8.00000000E-01  1.50000000E+00  1.50000000E+00  8.00000000E-01
  8.00000000E-01  1.50000000E+00  1.50000000E+00  8.00000000E-01  8.00000000E-01
  1.50000000E+00  1.50000000E+00  8.00000000E-01  8.00000000E-01  1.50000000E+00
  1.50000000E+00  8.00000000E-01  8.00000000E-01  1.50000000E+00  1.50000000E+00
  8.00000000E-01  8.00000000E-01  1.50000000E+00  1.50000000E+00  8.00000000E-01
  8.00000000E-01  1.50000000E+00  1.50000000E+00  8.00000000E-01  8.00000000E-01
  1.50000000E+00  1.50000000E+00  8.00000000E-01  8.00000000E-01  1.50000000E+00
  1.50000000E+00  8.00000000E-01  8.00000000E-01  1.50000000E+00  1.50000000E+00
  8.00000000E-01  8.00000000E-01  1.50000000E+00  1.50000000E+00  8.00000000E-01
  8.00000000E-01  1.50000000E+00  1.50000000E+00  8.00000000E-01  8.00000000E-01
  1.50000000E+00  1.50000000E+00  8.00000000E-01  8.00000000E-01  1.50000000E+00
  1.50000000E+00  8.00000000E-01  8.00000000E-01  1.50000000E+00  1.50000000E+00
  8.00000000E-01  8.00000000E-01  1.50000000E+00  1.50000000E+00  8.00000000E-01
  8.00000000E-01  1.50000000E+00  1.50000000E+00  8.00000000E-01  8.00000000E-01
  1.50000000E+00  1.50000000E+00  8.00000000E-01  8.00000000E-01  1.50000000E+00
  1.50000000E+00  8.00000000E-01  8.00000000E-01  1.50000000E+00  1.50000000E+00
  8.00000000E-01  8.00000000E-01  1.50000000E+00  1.50000000E+00  8.00000000E-01
  8.00000000E-01  1.50000000E+00  1.50000000E+00  8.00000000E-01  8.00000000E-01
  1.50000000E+00  1.50000000E+00  8.00000000E-01  8.00000000E-01  1.50000000E+00
  1.50000000E+00  8.00000000E-01  8.00000000E-01  1.50000000E+00  1.50000000E+00
  8.00000000E-01  8.00000000E-01  1.50000000E+00  1.50000000E+00  8.00000000E-01
  8.00000000E-01  1.50000000E+00  1.50000000E+00  8.00000000E-01  8.00000000E-01
  1.50000000E+00  1.50000000E+00  8.00000000E-01  8.00000000E-01  1.50000000E+00
  1.50000000E+00  8.00000000E-01  8.00000000E-01  1.50000000E+00  1.50000000E+00
  8.00000000E-01  8.00000000E-01  1.50000000E+00  1.50000000E+00  8.00000000E-01
  8.00000000E-01  1.50000000E+00  1.50000000E+00  8.00000000E-01  8.00000000E-01
  1.50000000E+00  1.50000000E+00  8.00000000E-01  8.00000000E-01  1.50000000E+00
  1.50000000E+00  8.00000000E-01  8.00000000E-01  1.50000000E+00  1.50000000E+00
  8.00000000E-01  8.00000000E-01  1.50000000E+00  1.50000000E+00  8.00000000E-01
  8.00000000E-01  1.50000000E+00  1.50000000E+00  8.00000000E-01  8.00000000E-01
  1.50000000E+00  1.50000000E+00  8.00000000E-01  8.00000000E-01  1.50000000E+00
  1.50000000E+00  8.00000000E-01  8.00000000E-01  1.50000000E+00  1.50000000E+00
  8.00000000E-01  8.00000000E-01  1.50000000E+00  1.50000000E+00  8.00000000E-01
  8.00000000E-01  1.50000000E+00  1.50000000E+00  8.00000000E-01  8.00000000E-01
  1.50000000E+00  1.50000000E+00  8.00000000E-01  8.00000000E-01  1.50000000E+00
  1.50000000E+00  8.00000000E-01  8.00000000E-01  1.50000000E+00  1.50000000E+00
  8.00000000E-01  8.00000000E-01  1.50000000E+00  1.50000000E+00  8.00000000E-01
  8.00000000E-01  1.50000000E+00  1.50000000E+00  8.00000000E-01  8.00000000E-01
  1.50000000E+00  1.50000000E+00  8.00000000E-01  8.00000000E-01  1.50000000E+00
  1.50000000E+00  8.00000000E-01  8.00000000E-01  1.50000000E+00  1.50000000E+00
  8.00000000E-01  8.00000000E-01  1.50000000E+00  1.50000000E+00  8.00000000E-01
  8.00000000E-01  1.50000000E+00  1.50000000E+00  8.00000000E-01  8.00000000E-01
  1.50000000E+00  1.50000000E+00  8.00000000E-01  8.00000000E-01  1.50000000E+00
  1.50000000E+00  8.00000000E-01  8.00000000E-01  1.50000000E+00  1.50000000E+00
  8.00000000E-01  8.00000000E-01  1.50000000E+00  1.50000000E+00  8.00000000E-01
  8.00000000E-01  1.50000000E+00  1.50000000E+00  8.00000000E-01  8.00000000E-01
  1.50000000E+00  1.50000000E+00  8.00000000E-01  8.00000000E-01  1.50000000E+00
  1.50000000E+00  8.00000000E-01  8.00000000E-01  1.50000000E+00  1.50000000E+00
  8.00000000E-01  8.00000000E-01  1.50000000E+00  1.50000000E+00  8.00000000E-01
  8.00000000E-01  1.50000000E+00  1.50000000E+00  8.00000000E-01  8.00000000E-01
  1.50000000E+00  1.50000000E+00  8.00000000E-01  8.00000000E-01  1.50000000E+00
  1.50000000E+00  8.00000000E-01  8.00000000E-01  1.50000000E+00  1.50000000E+00
  8.00000000E-01  8.00000000E-01  1.50000000E+00  1.50000000E+00  8.00000000E-01
  8.00000000E-01  1.50000000E+00  1.50000000E+00  8.00000000E-01  8.00000000E-01
  1.50000000E+00  1.50000000E+00  8.00000000E-01  8.00000000E-01  1.50000000E+00
  1.50000000E+00  8.00000000E-01  8.00000000E-01  1.50000000E+00  1.50000000E+00
  8.00000000E-01  8.00000000E-01  1.50000000E+00  1.50000000E+00  8.00000000E-01
  8.00000000E-01  1.50000000E+00  1.50000000E+00  8.00000000E-01  8.00000000E-01
  1.50000000E+00  1.50000000E+00  8.00000000E-01  8.00000000E-01  1.50000000E+00
  1.50000000E+00  8.00000000E-01  8.00000000E-01  1.50000000E+00  1.50000000E+00
  8.00000000E-01  8.00000000E-01  1.50000000E+00  1.50000000E+00  8.00000000E-01
  8.00000000E-01  1.50000000E+00  1.50000000E+00  8.00000000E-01  8.00000000E-01
  1.50000000E+00  1.50000000E+00  8.00000000E-01  8.00000000E-01  1.50000000E+00
  1.50000000E+00  8.00000000E-01  8.00000000E-01  1.50000000E+00  1.50000000E+00
  8.00000000E-01  8.00000000E-01  1.50000000E+00  1.50000000E+00  8.00000000E-01
  8.00000000E-01  1.50000000E+00  1.50000000E+00  8.00000000E-01  8.00000000E-01
  1.50000000E+00  1.50000000E+00  8.00000000E-01  8.00000000E-01  1.50000000E+00
  1.50000000E+00  8.00000000E-01  8.00000000E-01  1.50000000E+00  1.50000000E+00
  8.00000000E-01  8.00000000E-01  1.50000000E+00  1.50000000E+00  8.00000000E-01
  8.00000000E-01  1.50000000E+00  1.50000000E+00  8.00000000E-01  8.00000000E-01
  1.50000000E+00  1.50000000E+00  8.00000000E-01  8.00000000E-01  1.50000000E+00
  1.50000000E+00  8.00000000E-01  8.00000000E-01  1.50000000E+00  1.50000000E+00
  8.00000000E-01  8.00000000E-01  1.50000000E+00  1.50000000E+00  8.00000000E-01
  8.00000000E-01  1.50000000E+00  1.50000000E+00  8.00000000E-01  8.00000000E-01
  1.50000000E+00  1.50000000E+00  8.00000000E-01  8.00000000E-01  1.50000000E+00
  1.50000000E+00  8.00000000E-01  8.00000000E-01  1.50000000E+00  1.50000000E+00
  8.00000000E-01  8.00000000E-01  1.50000000E+00  1.50000000E+00  8.00000000E-01
  8.00000000E-01  1.50000000E+00  1.50000000E+00  8.00000000E-01  8.00000000E-01
  1.50000000E+00  1.50000000E+00  8.00000000E-01  8.00000000E-01  1.50000000E+00
  1.50000000E+00  8.00000000E-01  8.00000000E-01  1.50000000E+00  1.50000000E+00
  8.00000000E-01  8.00000000E-01  1.50000000E+00  1.50000000E+00  8.00000000E-01
  8.00000000E-01  1.50000000E+00  1.50000000E+00  8.00000000E-01  8.00000000E-01
  1.50000000E+00  1.50000000E+00  8.00000000E-01  8.00000000E-01  1.50000000E+00
  1.50000000E+00  8.00000000E-01  8.00000000E-01  1.50000000E+00  1.50000000E+00
  8.00000000E-01  8.00000000E-01  1.50000000E+00  1.50000000E+00  8.00000000E-01
  8.00000000E-01  1.50000000E+00  1.50000000E+00  8.00000000E-01  8.00000000E-01
  1.50000000E+00  1.50000000E+00  8.00000000E-01  8.00000000E-01  1.50000000E+00
  1.50000000E+00  8.00000000E-01  8.00000000E-01  1.50000000E+00  1.50000000E+00
  8.00000000E-01  8.00000000E-01  1.50000000E+00  1.50000000E+00  8.00000000E-01
  8.00000000E-01  1.50000000E+00  1.50000000E+00  8.00000000E-01  8.00000000E-01
  1.50000000E+00  1.50000000E+00  8.00000000E-01  8.00000000E-01  1.50000000E+00
  1.50000000E+00  8.00000000E-01  8.00000000E-01  1.50000000E+00  1.50000000E+00
  8.00000000E-01  8.00000000E-01  1.50000000E+00  1.50000000E+00  8.00000000E-01
  8.00000000E-01  1.50000000E+00  1.50000000E+00  8.00000000E-01  8.00000000E-01
  1.50000000E+00  1.50000000E+00  8.00000000E-01  8.00000000E-01  1.50000000E+00
  1.50000000E+00  8.00000000E-01  8.00000000E-01  1.50000000E+00  1.50000000E+00
  8.00000000E-01  8.00000000E-01  1.50000000E+00  1.50000000E+00  8.00000000E-01
  8.00000000E-01  1.50000000E+00  1.50000000E+00  8.00000000E-01  8.00000000E-01
  1.50000000E+00  1.50000000E+00  8.00000000E-01  8.00000000E-01  1.50000000E+00
  1.50000000E+00  8.00000000E-01  8.00000000E-01  1.50000000E+00  1.50000000E+00
  8.00000000E-01  8.00000000E-01  1.50000000E+00  1.50000000E+00  8.00000000E-01
  8.00000000E-01  1.50000000E+00  1.50000000E+00  8.00000000E-01  8.00000000E-01
  1.50000000E+00  1.50000000E+00  8.00000000E-01  8.00000000E-01  1.50000000E+00
  1.50000000E+00  8.00000000E-01  8.00000000E-01  1.50000000E+00  1.50000000E+00
  8.00000000E-01  8.00000000E-01  1.50000000E+00  1.50000000E+00  8.00000000E-01
  8.00000000E-01  1.50000000E+00  1.50000000E+00  8.00000000E-01  8.00000000E-01
  1.50000000E+00  1.50000000E+00  8.00000000E-01  8.00000000E-01  1.50000000E+00
  1.50000000E+00  8.00000000E-01  8.00000000E-01  1.50000000E+00  1.50000000E+00
  8.00000000E-01  8.00000000E-01  1.50000000E+00  1.50000000E+00  8.00000000E-01
  8.00000000E-01  1.50000000E+00  1.50000000E+00  8.00000000E-01  8.00000000E-01
  1.50000000E+00  1.50000000E+00  8.00000000E-01  8.00000000E-01  1.50000000E+00
  1.50000000E+00  8.00000000E-01  8.00000000E-01  1.50000000E+00  1.50000000E+00
  8.00000000E-01  8.00000000E-01  1.50000000E+00  1.50000000E+00  8.00000000E-01
  8.00000000E-01  1.50000000E+00  1.50000000E+00  8.00000000E-01  8.00000000E-01
  1.50000000E+00  1.50000000E+00  8.00000000E-01  8.00000000E-01  1.50000000E+00
  1.50000000E+00  8.00000000E-01  8.00000000E-01  1.50000000E+00  1.50000000E+00
  8.00000000E-01  8.00000000E-01  1.50000000E+00  1.50000000E+00  8.00000000E-01
  8.00000000E-01  1.50000000E+00  1.50000000E+00  8.00000000E-01  8.00000000E-01
  1.50000000E+00  1.50000000E+00  8.00000000E-01  8.00000000E-01  1.50000000E+00
  1.50000000E+00  8.00000000E-01  8.00000000E-01  1.50000000E+00  1.50000000E+00
  8.00000000E-01  8.00000000E-01  1.50000000E+00  1.50000000E+00  8.00000000E-01
  8.00000000E-01  1.50000000E+00  1.50000000E+00  8.00000000E-01  8.00000000E-01
  1.50000000E+00  1.50000000E+00  8.00000000E-01  8.00000000E-01  1.50000000E+00
  1.50000000E+00  8.00000000E-01  8.00000000E-01  1.50000000E+00  1.50000000E+00
  8.00000000E-01  8.00000000E-01  1.50000000E+00  1.50000000E+00  8.00000000E-01
  8.00000000E-01  1.50000000E+00  1.50000000E+00  8.00000000E-01  8.00000000E-01
  1.50000000E+00  1.50000000E+00  8.00000000E-01  8.00000000E-01  1.50000000E+00
  1.50000000E+00  8.00000000E-01  8.00000000E-01  1.50000000E+00  1.50000000E+00
  8.00000000E-01  8.00000000E-01  1.50000000E+00  1.50000000E+00  8.00000000E-01
  8.00000000E-01  1.50000000E+00  1.50000000E+00  8.00000000E-01  8.00000000E-01
  1.50000000E+00  1.50000000E+00  8.00000000E-01  8.00000000E-01  1.50000000E+00
  1.50000000E+00  8.00000000E-01  8.00000000E-01  1.50000000E+00  1.50000000E+00
  8.00000000E-01  8.00000000E-01  1.50000000E+00  1.50000000E+00  8.00000000E-01
  8.00000000E-01  1.50000000E+00  1.50000000E+00  8.00000000E-01  8.00000000E-01
  1.50000000E+00  1.50000000E+00  8.00000000E-01  8.00000000E-01  1.50000000E+00
  1.50000000E+00  8.00000000E-01  8.00000000E-01  1.50000000E+00  1.50000000E+00
  8.00000000E-01  8.00000000E-01  1.50000000E+00  1.50000000E+00  8.00000000E-01
  8.00000000E-01  1.50000000E+00  1.50000000E+00  8.00000000E-01  8.00000000E-01
  1.50000000E+00  1.50000000E+00  8.00000000E-01  8.00000000E-01  1.50000000E+00
  1.50000000E+00  8.00000000E-01  8.00000000E-01  1.50000000E+00  1.50000000E+00
  8.00000000E-01  8.00000000E-01  1.50000000E+00  1.50000000E+00  8.00000000E-01
  8.00000000E-01  1.50000000E+00  1.50000000E+00  8.00000000E-01  8.00000000E-01
  1.50000000E+00  1.50000000E+00  8.00000000E-01  8.00000000E-01  1.50000000E+00
  1.50000000E+00  8.00000000E-01  8.00000000E-01  1.50000000E+00  1.50000000E+00
  8.00000000E-01  8.00000000E-01  1.50000000E+00  1.50000000E+00  8.00000000E-01
  8.00000000E-01  1.50000000E+00  1.50000000E+00  8.00000000E-01  8.00000000E-01
  1.50000000E+00  1.50000000E+00  8.00000000E-01  8.00000000E-01  1.50000000E+00
  1.50000000E+00  8.00000000E-01  8.00000000E-01  1.50000000E+00  1.50000000E+00
  8.00000000E-01  8.00000000E-01  1.50000000E+00  1.50000000E+00  8.00000000E-01
  8.00000000E-01  1.50000000E+00  1.50000000E+00  8.00000000E-01  8.00000000E-01
  1.50000000E+00  1.50000000E+00  8.00000000E-01  8.00000000E-01  1.50000000E+00
  1.50000000E+00  8.00000000E-01  8.00000000E-01  1.50000000E+00  1.50000000E+00
  8.00000000E-01  8.00000000E-01  1.50000000E+00  1.50000000E+00  8.00000000E-01
  8.00000000E-01  1.50000000E+00  1.50000000E+00  8.00000000E-01  8.00000000E-01
  1.50000000E+00  1.50000000E+00  8.00000000E-01  8.00000000E-01  1.50000000E+00
  1.50000000E+00  8.00000000E-01  8.00000000E-01  1.50000000E+00  1.50000000E+00
  8.00000000E-01  8.00000000E-01  1.50000000E+00  1.50000000E+00  8.00000000E-01
  8.00000000E-01  1.50000000E+00  1.50000000E+00  8.00000000E-01  8.00000000E-01
  1.50000000E+00  1.50000000E+00  8.00000000E-01  8.00000000E-01  1.50000000E+00
  1.50000000E+00  8.00000000E-01  8.00000000E-01  1.50000000E+00  1.50000000E+00
  8.00000000E-01  8.00000000E-01  1.50000000E+00  1.50000000E+00  8.00000000E-01
  8.00000000E-01  1.50000000E+00  1.50000000E+00  8.00000000E-01  8.00000000E-01
  1.50000000E+00  1.50000000E+00  8.00000000E-01  8.00000000E-01  1.50000000E+00
  1.50000000E+00  8.00000000E-01  8.00000000E-01  1.50000000E+00  1.50000000E+00
  8.00000000E-01  8.00000000E-01  1.50000000E+00  1.50000000E+00  8.00000000E-01
  8.00000000E-01  1.50000000E+00  1.50000000E+00  8.00000000E-01  8.00000000E-01
  1.50000000E+00  1.50000000E+00  8.00000000E-01  8.00000000E-01  1.50000000E+00
  1.50000000E+00  8.00000000E-01  8.00000000E-01  1.50000000E+00  1.50000000E+00
  8.00000000E-01  8.00000000E-01  1.50000000E+00  1.50000000E+00  8.00000000E-01
  8.00000000E-01  1.50000000E+00  1.50000000E+00  8.00000000E-01  8.00000000E-01
  1.50000000E+00  1.50000000E+00  8.00000000E-01  8.00000000E-01  1.50000000E+00
  1.50000000E+00  8.00000000E-01  8.00000000E-01  1.50000000E+00  1.50000000E+00
  8.00000000E-01  8.00000000E-01  1.50000000E+00  1.50000000E+00  8.00000000E-01
  8.00000000E-01  1.50000000E+00  1.50000000E+00  8.00000000E-01  8.00000000E-01
  1.50000000E+00  1.50000000E+00  8.00000000E-01  8.00000000E-01  1.50000000E+00
  1.50000000E+00  8.00000000E-01  8.00000000E-01  1.50000000E+00  1.50000000E+00
  8.00000000E-01  8.00000000E-01  1.50000000E+00  1.50000000E+00  8.00000000E-01
  8.00000000E-01  1.50000000E+00  1.50000000E+00  8.00000000E-01  8.00000000E-01
  1.50000000E+00  1.50000000E+00  8.00000000E-01  8.00000000E-01  1.50000000E+00
  1.50000000E+00  8.00000000E-01  8.00000000E-01  1.50000000E+00  1.50000000E+00
  8.00000000E-01  8.00000000E-01  1.50000000E+00  1.50000000E+00  8.00000000E-01
  8.00000000E-01  1.50000000E+00  1.50000000E+00  8.00000000E-01  8.00000000E-01
  1.50000000E+00  1.50000000E+00  8.00000000E-01  8.00000000E-01  1.50000000E+00
  1.50000000E+00  8.00000000E-01  8.00000000E-01  1.50000000E+00  1.50000000E+00
  8.00000000E-01  8.00000000E-01  1.50000000E+00  1.50000000E+00  8.00000000E-01
  8.00000000E-01  1.50000000E+00  1.50000000E+00  8.00000000E-01  8.00000000E-01
  1.50000000E+00  1.50000000E+00  8.00000000E-01  8.00000000E-01  1.50000000E+00
  1.50000000E+00  8.00000000E-01  8.00000000E-01  1.50000000E+00  1.50000000E+00
  8.00000000E-01  8.00000000E-01  1.50000000E+00  1.50000000E+00  8.00000000E-01
  8.00000000E-01  1.50000000E+00  1.50000000E+00  8.00000000E-01  8.00000000E-01
  1.50000000E+00  1.50000000E+00  8.00000000E-01  8.00000000E-01  1.50000000E+00
  1.50000000E+00  8.00000000E-01  8.00000000E-01  1.50000000E+00  1.50000000E+00
  8.00000000E-01  8.00000000E-01  1.50000000E+00  1.50000000E+00  8.00000000E-01
  8.00000000E-01  1.50000000E+00  1.50000000E+00  8.00000000E-01  8.00000000E-01
  1.50000000E+00  1.50000000E+00  8.00000000E-01  8.00000000E-01  1.50000000E+00
  1.50000000E+00  8.00000000E-01  8.00000000E-01  1.50000000E+00  1.50000000E+00
  8.00000000E-01  8.00000000E-01  1.50000000E+00  1.50000000E+00  8.00000000E-01
  8.00000000E-01  1.50000000E+00  1.50000000E+00  8.00000000E-01  8.00000000E-01
  1.50000000E+00  1.50000000E+00  8.00000000E-01  8.00000000E-01  1.50000000E+00
  1.50000000E+00  8.00000000E-01  8.00000000E-01  1.50000000E+00  1.50000000E+00
  8.00000000E-01  8.00000000E-01  1.50000000E+00  1.50000000E+00  8.00000000E-01
  8.00000000E-01  1.50000000E+00  1.50000000E+00  8.00000000E-01  8.00000000E-01
  1.50000000E+00  1.50000000E+00  8.00000000E-01  8.00000000E-01  1.50000000E+00
  1.50000000E+00  8.00000000E-01  8.00000000E-01  1.50000000E+00  1.50000000E+00
  8.00000000E-01  8.00000000E-01  1.50000000E+00  1.50000000E+00  8.00000000E-01
  8.00000000E-01  1.50000000E+00  1.50000000E+00  8.00000000E-01  8.00000000E-01
  1.50000000E+00  1.50000000E+00  8.00000000E-01  8.00000000E-01  1.50000000E+00
  1.50000000E+00  8.00000000E-01  8.00000000E-01  1.50000000E+00  1.50000000E+00
  8.00000000E-01  8.00000000E-01  1.50000000E+00  1.50000000E+00  8.00000000E-01
  8.00000000E-01  1.50000000E+00  1.50000000E+00  8.00000000E-01  8.00000000E-01
  1.50000000E+00  1.50000000E+00  8.00000000E-01  8.00000000E-01  1.50000000E+00
  1.50000000E+00  8.00000000E-01  8.00000000E-01  1.50000000E+00  1.50000000E+00
  8.00000000E-01  8.00000000E-01  1.50000000E+00  1.50000000E+00  8.00000000E-01
  8.00000000E-01  1.50000000E+00  1.50000000E+00  8.00000000E-01  8.00000000E-01
  1.50000000E+00  1.50000000E+00  8.00000000E-01  8.00000000E-01  1.50000000E+00
  1.50000000E+00  8.00000000E-01  8.00000000E-01  1.50000000E+00  1.50000000E+00
  8.00000000E-01  8.00000000E-01  1.50000000E+00  1.50000000E+00  8.00000000E-01
  8.00000000E-01  1.50000000E+00  1.50000000E+00  8.00000000E-01  8.00000000E-01
  1.50000000E+00  1.50000000E+00  8.00000000E-01  8.00000000E-01  1.50000000E+00
  1.50000000E+00  8.00000000E-01  8.00000000E-01  1.50000000E+00  1.50000000E+00
  8.00000000E-01  8.00000000E-01  1.50000000E+00  1.50000000E+00  8.00000000E-01
  8.00000000E-01  1.50000000E+00  1.50000000E+00  8.00000000E-01  8.00000000E-01
  1.50000000E+00  1.50000000E+00  8.00000000E-01  8.00000000E-01  1.50000000E+00
  1.50000000E+00  8.00000000E-01  8.00000000E-01  1.50000000E+00  1.50000000E+00
  8.00000000E-01  8.00000000E-01  1.50000000E+00  1.50000000E+00  8.00000000E-01
  8.00000000E-01  1.50000000E+00  1.50000000E+00  8.00000000E-01  8.00000000E-01
  1.50000000E+00  1.50000000E+00  8.00000000E-01  8.00000000E-01  1.50000000E+00
  1.50000000E+00  8.00000000E-01  8.00000000E-01  1.50000000E+00  1.50000000E+00
  8.00000000E-01  8.00000000E-01  1.50000000E+00  1.50000000E+00  8.00000000E-01
  8.00000000E-01  1.50000000E+00  1.50000000E+00  8.00000000E-01  8.00000000E-01
  1.50000000E+00  1.50000000E+00  8.00000000E-01  8.00000000E-01  1.50000000E+00
  1.50000000E+00  8.00000000E-01  8.00000000E-01  1.50000000E+00  1.50000000E+00
  8.00000000E-01  8.00000000E-01  1.50000000E+00  1.50000000E+00  8.00000000E-01
  8.00000000E-01  1.50000000E+00  1.50000000E+00  8.00000000E-01  8.00000000E-01
  1.50000000E+00  1.50000000E+00  8.00000000E-01  8.00000000E-01  1.50000000E+00
  1.50000000E+00  8.00000000E-01  8.00000000E-01  1.50000000E+00  1.50000000E+00
  8.00000000E-01  8.00000000E-01  1.50000000E+00  1.50000000E+00  8.00000000E-01
  8.00000000E-01  1.50000000E+00  1.50000000E+00  8.00000000E-01  8.00000000E-01
  1.50000000E+00  1.50000000E+00  8.00000000E-01  8.00000000E-01  1.50000000E+00
  1.50000000E+00  8.00000000E-01  8.00000000E-01  1.50000000E+00  1.50000000E+00
  8.00000000E-01  8.00000000E-01  1.50000000E+00  1.50000000E+00  8.00000000E-01
  8.00000000E-01  1.50000000E+00  1.50000000E+00  8.00000000E-01  8.00000000E-01
  1.50000000E+00  1.50000000E+00  8.00000000E-01  8.00000000E-01  1.50000000E+00
  1.50000000E+00  8.00000000E-01  8.00000000E-01  1.50000000E+00  1.50000000E+00
  8.00000000E-01  8.00000000E-01  1.50000000E+00  1.50000000E+00  8.00000000E-01
  8.00000000E-01  1.50000000E+00  1.50000000E+00  8.00000000E-01  8.00000000E-01
  1.50000000E+00  1.50000000E+00  8.00000000E-01  8.00000000E-01  1.50000000E+00
  1.50000000E+00  8.00000000E-01  8.00000000E-01  1.50000000E+00  1.50000000E+00
  8.00000000E-01  8.00000000E-01  1.50000000E+00  1.50000000E+00  8.00000000E-01
  8.00000000E-01  1.50000000E+00  1.50000000E+00  8.00000000E-01  8.00000000E-01
  1.50000000E+00  1.50000000E+00  8.00000000E-01  8.00000000E-01  1.50000000E+00
  1.50000000E+00  8.00000000E-01  8.00000000E-01  1.50000000E+00  1.50000000E+00
  8.00000000E-01  8.00000000E-01  1.50000000E+00  1.50000000E+00  8.00000000E-01
  8.00000000E-01  1.50000000E+00  1.50000000E+00  8.00000000E-01  8.00000000E-01
  1.50000000E+00  1.50000000E+00  8.00000000E-01  8.00000000E-01  1.50000000E+00
  1.50000000E+00  8.00000000E-01  8.00000000E-01  1.50000000E+00  1.50000000E+00
  8.00000000E-01  8.00000000E-01  1.50000000E+00  1.50000000E+00  8.00000000E-01
  8.00000000E-01  1.50000000E+00  1.50000000E+00  8.00000000E-01  8.00000000E-01
  1.50000000E+00  1.50000000E+00  8.00000000E-01  8.00000000E-01  1.50000000E+00
  1.50000000E+00  8.00000000E-01  8.00000000E-01  1.50000000E+00  1.50000000E+00
  8.00000000E-01  8.00000000E-01  1.50000000E+00  1.50000000E+00  8.00000000E-01
  8.00000000E-01  1.50000000E+00  1.50000000E+00  8.00000000E-01  8.00000000E-01
  1.50000000E+00  1.50000000E+00  8.00000000E-01  8.00000000E-01  1.50000000E+00
  1.50000000E+00  8.00000000E-01  8.00000000E-01  1.50000000E+00  1.50000000E+00
  8.00000000E-01  8.00000000E-01  1.50000000E+00  1.50000000E+00  8.00000000E-01
  8.00000000E-01  1.50000000E+00  1.50000000E+00  8.00000000E-01  8.00000000E-01
  1.50000000E+00  1.50000000E+00  8.00000000E-01  8.00000000E-01  1.50000000E+00
  1.50000000E+00  8.00000000E-01  8.00000000E-01  1.50000000E+00  1.50000000E+00
  8.00000000E-01  8.00000000E-01  1.50000000E+00  1.50000000E+00  8.00000000E-01
  8.00000000E-01  1.50000000E+00  1.50000000E+00  8.00000000E-01  8.00000000E-01
  1.50000000E+00  1.50000000E+00  8.00000000E-01  8.00000000E-01  1.50000000E+00
  1.50000000E+00  8.00000000E-01  8.00000000E-01  1.50000000E+00  1.50000000E+00
  8.00000000E-01  8.00000000E-01  1.50000000E+00  1.50000000E+00  8.00000000E-01
  8.00000000E-01  1.50000000E+00  1.50000000E+00  8.00000000E-01  8.00000000E-01
  1.50000000E+00  1.50000000E+00  8.00000000E-01  8.00000000E-01  1.50000000E+00
  1.50000000E+00  8.00000000E-01  8.00000000E-01  1.50000000E+00  1.50000000E+00
  8.00000000E-01  8.00000000E-01  1.50000000E+00  1.50000000E+00  8.00000000E-01
  8.00000000E-01  1.50000000E+00  1.50000000E+00  8.00000000E-01  8.00000000E-01
  1.50000000E+00  1.50000000E+00  8.00000000E-01  8.00000000E-01  1.50000000E+00
  1.50000000E+00  8.00000000E-01  8.00000000E-01  1.50000000E+00  1.50000000E+00
  8.00000000E-01  8.00000000E-01  1.50000000E+00  1.50000000E+00  8.00000000E-01
  8.00000000E-01  1.50000000E+00  1.50000000E+00  8.00000000E-01  8.00000000E-01
  1.50000000E+00  1.50000000E+00  8.00000000E-01  8.00000000E-01  1.50000000E+00
  1.50000000E+00  8.00000000E-01  8.00000000E-01  1.50000000E+00  1.50000000E+00
  8.00000000E-01  8.00000000E-01  1.50000000E+00  1.50000000E+00  8.00000000E-01
  8.00000000E-01  1.50000000E+00  1.50000000E+00  8.00000000E-01  8.00000000E-01
  1.50000000E+00  1.50000000E+00  8.00000000E-01  8.00000000E-01  1.50000000E+00
  1.50000000E+00  8.00000000E-01  8.00000000E-01  1.50000000E+00  1.50000000E+00
  8.00000000E-01  8.00000000E-01  1.50000000E+00  1.50000000E+00  8.00000000E-01
  8.00000000E-01  1.50000000E+00  1.50000000E+00  8.00000000E-01  8.00000000E-01
  1.50000000E+00  1.50000000E+00  8.00000000E-01  8.00000000E-01  1.50000000E+00
  1.50000000E+00  8.00000000E-01  8.00000000E-01  1.50000000E+00  1.50000000E+00
  8.00000000E-01  8.00000000E-01  1.50000000E+00  1.50000000E+00  8.00000000E-01
  8.00000000E-01  1.50000000E+00  1.50000000E+00  8.00000000E-01  8.00000000E-01
  1.50000000E+00  1.50000000E+00  8.00000000E-01  8.00000000E-01  1.50000000E+00
  1.50000000E+00  8.00000000E-01  8.00000000E-01  1.50000000E+00  1.50000000E+00
  8.00000000E-01  8.00000000E-01  1.50000000E+00  1.50000000E+00  8.00000000E-01
  8.00000000E-01  1.50000000E+00  1.50000000E+00  8.00000000E-01  8.00000000E-01
  1.50000000E+00  1.50000000E+00  8.00000000E-01  8.00000000E-01  1.50000000E+00
  1.50000000E+00  8.00000000E-01  8.00000000E-01  1.50000000E+00  1.50000000E+00
  8.00000000E-01  8.00000000E-01  1.50000000E+00  1.50000000E+00  8.00000000E-01
  8.00000000E-01  1.50000000E+00  1.50000000E+00  8.00000000E-01  8.00000000E-01
  1.50000000E+00  1.50000000E+00  8.00000000E-01  8.00000000E-01  1.50000000E+00
  1.50000000E+00  8.00000000E-01  8.00000000E-01  1.50000000E+00  1.50000000E+00
  8.00000000E-01  8.00000000E-01  1.50000000E+00  1.50000000E+00  8.00000000E-01
  8.00000000E-01  1.50000000E+00  1.50000000E+00  8.00000000E-01  8.00000000E-01
  1.50000000E+00  1.50000000E+00  8.00000000E-01  8.00000000E-01  1.50000000E+00
  1.50000000E+00  8.00000000E-01  8.00000000E-01  1.50000000E+00  1.50000000E+00
  8.00000000E-01  8.00000000E-01  1.50000000E+00  1.50000000E+00  8.00000000E-01
  8.00000000E-01  1.50000000E+00  1.50000000E+00  8.00000000E-01  8.00000000E-01
  1.50000000E+00  1.50000000E+00  8.00000000E-01  8.00000000E-01  1.50000000E+00
  1.50000000E+00  8.00000000E-01  8.00000000E-01  1.50000000E+00  1.50000000E+00
  8.00000000E-01  8.00000000E-01  1.50000000E+00  1.50000000E+00  8.00000000E-01
  8.00000000E-01  1.50000000E+00  1.50000000E+00  8.00000000E-01  8.00000000E-01
  1.50000000E+00  1.50000000E+00  8.00000000E-01  8.00000000E-01  1.50000000E+00
  1.50000000E+00  8.00000000E-01  8.00000000E-01  1.50000000E+00  1.50000000E+00
  8.00000000E-01  8.00000000E-01  1.50000000E+00  1.50000000E+00  8.00000000E-01
  8.00000000E-01  1.50000000E+00  1.50000000E+00  8.00000000E-01  8.00000000E-01
  1.50000000E+00  1.50000000E+00  8.00000000E-01  8.00000000E-01  1.50000000E+00
  1.50000000E+00  8.00000000E-01  8.00000000E-01  1.50000000E+00  1.50000000E+00
  8.00000000E-01  8.00000000E-01  1.50000000E+00  1.50000000E+00  8.00000000E-01
  8.00000000E-01  1.50000000E+00  1.50000000E+00  8.00000000E-01  8.00000000E-01
  1.50000000E+00  1.50000000E+00  8.00000000E-01  8.00000000E-01  1.50000000E+00
  1.50000000E+00  8.00000000E-01  8.00000000E-01  1.50000000E+00  1.50000000E+00
  8.00000000E-01  8.00000000E-01  1.50000000E+00  1.50000000E+00  8.00000000E-01
  8.00000000E-01  1.50000000E+00  1.50000000E+00  8.00000000E-01  8.00000000E-01
  1.50000000E+00  1.50000000E+00  8.00000000E-01  8.00000000E-01  1.50000000E+00
  1.50000000E+00  8.00000000E-01  8.00000000E-01  1.50000000E+00  1.50000000E+00
  8.00000000E-01  8.00000000E-01  1.50000000E+00  1.50000000E+00  8.00000000E-01
  8.00000000E-01  1.50000000E+00  1.50000000E+00  8.00000000E-01  8.00000000E-01
  1.50000000E+00  1.50000000E+00  8.00000000E-01  8.00000000E-01  1.50000000E+00
  1.50000000E+00  8.00000000E-01  8.00000000E-01  1.50000000E+00  1.50000000E+00
  8.00000000E-01  8.00000000E-01  1.50000000E+00  1.50000000E+00  8.00000000E-01
  8.00000000E-01  1.50000000E+00  1.50000000E+00  8.00000000E-01  8.00000000E-01
  1.50000000E+00  1.50000000E+00  8.00000000E-01  8.00000000E-01  1.50000000E+00
  1.50000000E+00  8.00000000E-01  8.00000000E-01  1.50000000E+00  1.50000000E+00
  8.00000000E-01  8.00000000E-01  1.50000000E+00  1.50000000E+00  8.00000000E-01
  8.00000000E-01  1.50000000E+00  1.50000000E+00  8.00000000E-01  8.00000000E-01
  1.50000000E+00  1.50000000E+00  8.00000000E-01  8.00000000E-01  1.50000000E+00
  1.50000000E+00  8.00000000E-01  8.00000000E-01  1.50000000E+00  1.50000000E+00
  8.00000000E-01  8.00000000E-01  1.50000000E+00  1.50000000E+00  8.00000000E-01
  8.00000000E-01  1.50000000E+00  1.50000000E+00  8.00000000E-01  8.00000000E-01
  1.50000000E+00  1.50000000E+00  8.00000000E-01  8.00000000E-01  1.50000000E+00
  1.50000000E+00  8.00000000E-01  8.00000000E-01  1.50000000E+00  1.50000000E+00
  8.00000000E-01  8.00000000E-01  1.50000000E+00  1.50000000E+00  8.00000000E-01
  8.00000000E-01  1.50000000E+00  1.50000000E+00  8.00000000E-01  8.00000000E-01
  1.50000000E+00  1.50000000E+00  8.00000000E-01  8.00000000E-01  1.50000000E+00
  1.50000000E+00  8.00000000E-01  8.00000000E-01  1.50000000E+00  1.50000000E+00
  8.00000000E-01  8.00000000E-01  1.50000000E+00  1.50000000E+00  8.00000000E-01
  8.00000000E-01  1.50000000E+00  1.50000000E+00  8.00000000E-01  8.00000000E-01
  1.50000000E+00  1.50000000E+00  8.00000000E-01  8.00000000E-01  1.50000000E+00
  1.50000000E+00  8.00000000E-01  8.00000000E-01  1.50000000E+00  1.50000000E+00
  8.00000000E-01  8.00000000E-01  1.50000000E+00  1.50000000E+00  8.00000000E-01
  8.00000000E-01  1.50000000E+00  1.50000000E+00  8.00000000E-01  8.00000000E-01
  1.50000000E+00  1.50000000E+00  8.00000000E-01  8.00000000E-01  1.50000000E+00
  1.50000000E+00  8.00000000E-01  8.00000000E-01  1.50000000E+00  1.50000000E+00
  8.00000000E-01  8.00000000E-01  1.50000000E+00  1.50000000E+00  8.00000000E-01
  8.00000000E-01  1.50000000E+00  1.50000000E+00  8.00000000E-01  8.00000000E-01
  1.50000000E+00  1.50000000E+00  8.00000000E-01  8.00000000E-01  1.50000000E+00
  1.50000000E+00  8.00000000E-01  8.00000000E-01  1.50000000E+00  1.50000000E+00
  8.00000000E-01  8.00000000E-01  1.50000000E+00  1.50000000E+00  8.00000000E-01
  8.00000000E-01  1.50000000E+00  1.50000000E+00  8.00000000E-01  8.00000000E-01
  1.50000000E+00  1.50000000E+00  8.00000000E-01  8.00000000E-01  1.50000000E+00
  1.50000000E+00  8.00000000E-01  8.00000000E-01  1.50000000E+00  1.50000000E+00
  8.00000000E-01  8.00000000E-01  1.50000000E+00  1.50000000E+00  8.00000000E-01
  8.00000000E-01  1.50000000E+00  1.50000000E+00  8.00000000E-01  8.00000000E-01
  1.50000000E+00  1.50000000E+00  8.00000000E-01  8.00000000E-01  1.50000000E+00
  1.50000000E+00  8.00000000E-01  8.00000000E-01  1.50000000E+00  1.50000000E+00
  8.00000000E-01  8.00000000E-01  1.50000000E+00  1.50000000E+00  8.00000000E-01
  8.00000000E-01  1.50000000E+00  1.50000000E+00  8.00000000E-01  8.00000000E-01
  1.50000000E+00  1.50000000E+00  8.00000000E-01  8.00000000E-01  1.50000000E+00
  1.50000000E+00  8.00000000E-01  8.00000000E-01  1.50000000E+00  1.50000000E+00
  8.00000000E-01  8.00000000E-01  1.50000000E+00  1.50000000E+00  8.00000000E-01
  8.00000000E-01  1.50000000E+00  1.50000000E+00  8.00000000E-01  8.00000000E-01
  1.50000000E+00  1.50000000E+00  8.00000000E-01  8.00000000E-01  1.50000000E+00
  1.50000000E+00  8.00000000E-01  8.00000000E-01  1.50000000E+00  1.50000000E+00
  8.00000000E-01  8.00000000E-01  1.50000000E+00  1.50000000E+00  8.00000000E-01
  8.00000000E-01  1.50000000E+00  1.50000000E+00  8.00000000E-01  8.00000000E-01
  1.50000000E+00  1.50000000E+00  8.00000000E-01  8.00000000E-01  1.50000000E+00
  1.50000000E+00  8.00000000E-01  8.00000000E-01  1.50000000E+00  1.50000000E+00
  8.00000000E-01  8.00000000E-01  1.50000000E+00  1.50000000E+00  8.00000000E-01
  8.00000000E-01  1.50000000E+00  1.50000000E+00  8.00000000E-01  8.00000000E-01
  1.50000000E+00  1.50000000E+00  8.00000000E-01  8.00000000E-01  1.50000000E+00
  1.50000000E+00  8.00000000E-01  8.00000000E-01  1.50000000E+00  1.50000000E+00
  8.00000000E-01  8.00000000E-01  1.50000000E+00  1.50000000E+00  8.00000000E-01
  8.00000000E-01  1.50000000E+00  1.50000000E+00  8.00000000E-01  8.00000000E-01
  1.50000000E+00  1.50000000E+00  8.00000000E-01  8.00000000E-01  1.50000000E+00
  1.50000000E+00  8.00000000E-01  8.00000000E-01  1.50000000E+00  1.50000000E+00
  8.00000000E-01  8.00000000E-01  1.50000000E+00  1.50000000E+00  8.00000000E-01
  8.00000000E-01  1.50000000E+00  1.50000000E+00  8.00000000E-01  8.00000000E-01
  1.50000000E+00  1.50000000E+00  8.00000000E-01  8.00000000E-01  1.50000000E+00
  1.50000000E+00  8.00000000E-01  8.00000000E-01  1.50000000E+00  1.50000000E+00
  8.00000000E-01  8.00000000E-01  1.50000000E+00  1.50000000E+00  8.00000000E-01
  8.00000000E-01  1.50000000E+00  1.50000000E+00  8.00000000E-01  8.00000000E-01
  1.50000000E+00  1.50000000E+00  8.00000000E-01  8.00000000E-01  1.50000000E+00
  1.50000000E+00  8.00000000E-01  8.00000000E-01  1.50000000E+00  1.50000000E+00
  8.00000000E-01  8.00000000E-01  1.50000000E+00  1.50000000E+00  8.00000000E-01
  8.00000000E-01  1.50000000E+00  1.50000000E+00  8.00000000E-01  8.00000000E-01
  1.50000000E+00  1.50000000E+00  8.00000000E-01  8.00000000E-01  1.50000000E+00
  1.50000000E+00  8.00000000E-01  8.00000000E-01  1.50000000E+00  1.50000000E+00
  8.00000000E-01  8.00000000E-01  1.50000000E+00  1.50000000E+00  8.00000000E-01
  8.00000000E-01  1.50000000E+00  1.50000000E+00  8.00000000E-01  8.00000000E-01
  1.50000000E+00  1.50000000E+00  8.00000000E-01  8.00000000E-01  1.50000000E+00
  1.50000000E+00  8.00000000E-01  8.00000000E-01  1.50000000E+00  1.50000000E+00
  8.00000000E-01  8.00000000E-01  1.50000000E+00  1.50000000E+00  8.00000000E-01
  8.00000000E-01  1.50000000E+00  1.50000000E+00  8.00000000E-01  8.00000000E-01
  1.50000000E+00  1.50000000E+00  8.00000000E-01  8.00000000E-01  1.50000000E+00
  1.50000000E+00  8.00000000E-01  8.00000000E-01  1.50000000E+00  1.50000000E+00
  8.00000000E-01  8.00000000E-01  1.50000000E+00  1.50000000E+00  8.00000000E-01
  8.00000000E-01  1.50000000E+00  1.50000000E+00  8.00000000E-01  8.00000000E-01
  1.50000000E+00  1.50000000E+00  8.00000000E-01  8.00000000E-01  1.50000000E+00
  1.50000000E+00  8.00000000E-01  8.00000000E-01  1.50000000E+00  1.50000000E+00
  8.00000000E-01  8.00000000E-01  1.50000000E+00  1.50000000E+00  8.00000000E-01
  8.00000000E-01  1.50000000E+00  1.50000000E+00  8.00000000E-01  8.00000000E-01
  1.50000000E+00  1.50000000E+00  8.00000000E-01  8.00000000E-01  1.50000000E+00
  1.50000000E+00  8.00000000E-01  8.00000000E-01  1.50000000E+00  1.50000000E+00
  8.00000000E-01  8.00000000E-01  1.50000000E+00  1.50000000E+00  8.00000000E-01
  8.00000000E-01  1.50000000E+00  1.50000000E+00  8.00000000E-01  8.00000000E-01
  1.50000000E+00  1.50000000E+00  8.00000000E-01  8.00000000E-01  1.50000000E+00
  1.50000000E+00  8.00000000E-01  8.00000000E-01  1.50000000E+00  1.50000000E+00
  8.00000000E-01  8.00000000E-01  1.50000000E+00  1.50000000E+00  8.00000000E-01
  8.00000000E-01  1.50000000E+00  1.50000000E+00  8.00000000E-01  8.00000000E-01
  1.50000000E+00  1.50000000E+00  8.00000000E-01  8.00000000E-01  1.50000000E+00
  1.50000000E+00  8.00000000E-01  8.00000000E-01  1.50000000E+00  1.50000000E+00
  8.00000000E-01  8.00000000E-01  1.50000000E+00  1.50000000E+00  8.00000000E-01
  8.00000000E-01  1.50000000E+00  1.50000000E+00  8.00000000E-01  8.00000000E-01
  1.50000000E+00  1.50000000E+00  8.00000000E-01  8.00000000E-01  1.50000000E+00
  1.50000000E+00  8.00000000E-01  8.00000000E-01  1.50000000E+00  1.50000000E+00
  8.00000000E-01  8.00000000E-01  1.50000000E+00  1.50000000E+00  8.00000000E-01
  8.00000000E-01  1.50000000E+00  1.50000000E+00  8.00000000E-01  8.00000000E-01
  1.50000000E+00  1.50000000E+00  8.00000000E-01  8.00000000E-01  1.50000000E+00
  1.50000000E+00  8.00000000E-01  8.00000000E-01  1.50000000E+00  1.50000000E+00
  8.00000000E-01  8.00000000E-01  1.50000000E+00  1.50000000E+00  8.00000000E-01
  8.00000000E-01  1.50000000E+00  1.50000000E+00  8.00000000E-01  8.00000000E-01
  1.50000000E+00  1.50000000E+00  8.00000000E-01  8.00000000E-01  1.50000000E+00
  1.50000000E+00  8.00000000E-01  8.00000000E-01  1.50000000E+00  1.50000000E+00
  8.00000000E-01  8.00000000E-01  1.50000000E+00  1.50000000E+00  8.00000000E-01
  8.00000000E-01  1.50000000E+00  1.50000000E+00  8.00000000E-01  8.00000000E-01
  1.50000000E+00  1.50000000E+00  8.00000000E-01  8.00000000E-01  1.50000000E+00
  1.50000000E+00  8.00000000E-01  8.00000000E-01  1.50000000E+00  1.50000000E+00
  8.00000000E-01  8.00000000E-01  1.50000000E+00  1.50000000E+00  8.00000000E-01
  8.00000000E-01  1.50000000E+00  1.50000000E+00  8.00000000E-01  8.00000000E-01
  1.50000000E+00  1.50000000E+00  8.00000000E-01  8.00000000E-01  1.50000000E+00
  1.50000000E+00  8.00000000E-01  8.00000000E-01  1.50000000E+00  1.50000000E+00
  8.00000000E-01  8.00000000E-01  1.50000000E+00  1.50000000E+00  8.00000000E-01
  8.00000000E-01  1.50000000E+00  1.50000000E+00  8.00000000E-01  8.00000000E-01
  1.50000000E+00  1.50000000E+00  8.00000000E-01  8.00000000E-01  1.50000000E+00
  1.50000000E+00  8.00000000E-01  8.00000000E-01  1.50000000E+00  1.50000000E+00
  8.00000000E-01  8.00000000E-01  1.50000000E+00  1.50000000E+00  8.00000000E-01
  8.00000000E-01  1.50000000E+00  1.50000000E+00  8.00000000E-01  8.00000000E-01
  1.50000000E+00  1.50000000E+00  8.00000000E-01  8.00000000E-01  1.50000000E+00
  1.50000000E+00  8.00000000E-01  8.00000000E-01  1.50000000E+00  1.50000000E+00
  8.00000000E-01  8.00000000E-01  1.50000000E+00  1.50000000E+00  8.00000000E-01
  8.00000000E-01  1.50000000E+00  1.50000000E+00  8.00000000E-01  8.00000000E-01
  1.50000000E+00  1.50000000E+00  8.00000000E-01  8.00000000E-01  1.50000000E+00
  1.50000000E+00  8.00000000E-01  8.00000000E-01  1.50000000E+00  1.50000000E+00
  8.00000000E-01  8.00000000E-01  1.50000000E+00  1.50000000E+00  8.00000000E-01
  8.00000000E-01  1.50000000E+00  1.50000000E+00  8.00000000E-01  8.00000000E-01
  1.50000000E+00  1.50000000E+00  8.00000000E-01  8.00000000E-01  1.50000000E+00
  1.50000000E+00  8.00000000E-01  8.00000000E-01  1.50000000E+00  1.50000000E+00
  8.00000000E-01  8.00000000E-01  1.50000000E+00  1.50000000E+00  8.00000000E-01
  8.00000000E-01  1.50000000E+00  1.50000000E+00  8.00000000E-01  8.00000000E-01
  1.50000000E+00  1.50000000E+00  8.00000000E-01  8.00000000E-01  1.50000000E+00
  1.50000000E+00  8.00000000E-01  8.00000000E-01  1.50000000E+00  1.50000000E+00
  8.00000000E-01  8.00000000E-01  1.50000000E+00  1.50000000E+00  8.00000000E-01
  8.00000000E-01  1.50000000E+00  1.50000000E+00  8.00000000E-01  8.00000000E-01
  1.50000000E+00  1.50000000E+00  8.00000000E-01  8.00000000E-01  1.50000000E+00
  1.50000000E+00  8.00000000E-01  8.00000000E-01  1.50000000E+00  1.50000000E+00
  8.00000000E-01  8.00000000E-01  1.50000000E+00  1.50000000E+00  8.00000000E-01
  8.00000000E-01  1.50000000E+00  1.50000000E+00  8.00000000E-01  8.00000000E-01
  1.50000000E+00  1.50000000E+00  8.00000000E-01  8.00000000E-01  1.50000000E+00
  1.50000000E+00  8.00000000E-01  8.00000000E-01  1.50000000E+00  1.50000000E+00
  8.00000000E-01  8.00000000E-01  1.50000000E+00  1.50000000E+00  8.00000000E-01
  8.00000000E-01  1.50000000E+00  1.50000000E+00  8.00000000E-01  8.00000000E-01
  1.50000000E+00  1.50000000E+00  8.00000000E-01  8.00000000E-01  1.50000000E+00
  1.50000000E+00  8.00000000E-01  8.00000000E-01  1.50000000E+00  1.50000000E+00
  8.00000000E-01  8.00000000E-01  1.50000000E+00  1.50000000E+00  8.00000000E-01
  8.00000000E-01  1.50000000E+00  1.50000000E+00  8.00000000E-01  8.00000000E-01
  1.50000000E+00  1.50000000E+00  8.00000000E-01  8.00000000E-01  1.50000000E+00
  1.50000000E+00  8.00000000E-01  8.00000000E-01  1.50000000E+00  1.50000000E+00
  8.00000000E-01  8.00000000E-01  1.50000000E+00  1.50000000E+00  8.00000000E-01
  8.00000000E-01  1.50000000E+00  1.50000000E+00  8.00000000E-01  8.00000000E-01
  1.50000000E+00  1.50000000E+00  8.00000000E-01  8.00000000E-01  1.50000000E+00
  1.50000000E+00  8.00000000E-01  8.00000000E-01  1.50000000E+00  1.50000000E+00
  8.00000000E-01  8.00000000E-01  1.50000000E+00  1.50000000E+00  8.00000000E-01
  8.00000000E-01  1.50000000E+00  1.50000000E+00  8.00000000E-01  8.00000000E-01
  1.50000000E+00  1.50000000E+00  8.00000000E-01  8.00000000E-01  1.50000000E+00
  1.50000000E+00  8.00000000E-01  8.00000000E-01  1.50000000E+00  1.50000000E+00
  8.00000000E-01  8.00000000E-01  1.50000000E+00  1.50000000E+00  8.00000000E-01
  8.00000000E-01  1.50000000E+00  1.50000000E+00  8.00000000E-01  8.00000000E-01
  1.50000000E+00  1.50000000E+00  8.00000000E-01  8.00000000E-01  1.50000000E+00
  1.50000000E+00  8.00000000E-01  8.00000000E-01  1.50000000E+00  1.50000000E+00
  8.00000000E-01  8.00000000E-01  1.50000000E+00  1.50000000E+00  8.00000000E-01
  8.00000000E-01  1.50000000E+00  1.50000000E+00  8.00000000E-01  8.00000000E-01
  1.50000000E+00  1.50000000E+00  8.00000000E-01  8.00000000E-01  1.50000000E+00
  1.50000000E+00  8.00000000E-01  8.00000000E-01  1.50000000E+00  1.50000000E+00
  8.00000000E-01  8.00000000E-01  1.50000000E+00  1.50000000E+00  8.00000000E-01
  8.00000000E-01  1.50000000E+00  1.50000000E+00  8.00000000E-01  8.00000000E-01
  1.50000000E+00  1.50000000E+00  8.00000000E-01  8.00000000E-01  1.50000000E+00
  1.50000000E+00  8.00000000E-01  8.00000000E-01  1.50000000E+00  1.50000000E+00
  8.00000000E-01  8.00000000E-01  1.50000000E+00  1.50000000E+00  8.00000000E-01
  8.00000000E-01  1.50000000E+00  1.50000000E+00  8.00000000E-01  8.00000000E-01
  1.50000000E+00  1.50000000E+00  8.00000000E-01  8.00000000E-01  1.50000000E+00
  1.50000000E+00  8.00000000E-01  8.00000000E-01  1.50000000E+00  1.50000000E+00
  8.00000000E-01  8.00000000E-01  1.50000000E+00  1.50000000E+00  8.00000000E-01
  8.00000000E-01  1.50000000E+00  1.50000000E+00  8.00000000E-01  8.00000000E-01
  1.50000000E+00  1.50000000E+00  8.00000000E-01  8.00000000E-01  1.50000000E+00
  1.50000000E+00  8.00000000E-01  8.00000000E-01  1.50000000E+00  1.50000000E+00
  8.00000000E-01  8.00000000E-01  1.50000000E+00  1.50000000E+00  8.00000000E-01
  8.00000000E-01  1.50000000E+00  1.50000000E+00  8.00000000E-01  8.00000000E-01
  1.50000000E+00  1.50000000E+00  8.00000000E-01  8.00000000E-01  1.50000000E+00
  1.50000000E+00  8.00000000E-01  8.00000000E-01  1.50000000E+00  1.50000000E+00
  8.00000000E-01  8.00000000E-01  1.50000000E+00  1.50000000E+00  8.00000000E-01
  8.00000000E-01  1.50000000E+00  1.50000000E+00  8.00000000E-01  8.00000000E-01
  1.50000000E+00  1.50000000E+00  8.00000000E-01  8.00000000E-01  1.50000000E+00
  1.50000000E+00  8.00000000E-01  8.00000000E-01  1.50000000E+00  1.50000000E+00
  8.00000000E-01  8.00000000E-01  1.50000000E+00  1.50000000E+00  8.00000000E-01
  8.00000000E-01  1.50000000E+00  1.50000000E+00  8.00000000E-01  8.00000000E-01
  1.50000000E+00  1.50000000E+00  8.00000000E-01  8.00000000E-01  1.50000000E+00
  1.50000000E+00  8.00000000E-01  8.00000000E-01  1.50000000E+00  1.50000000E+00
  8.00000000E-01  8.00000000E-01  1.50000000E+00  1.50000000E+00  8.00000000E-01
  8.00000000E-01  1.50000000E+00  1.50000000E+00  8.00000000E-01  8.00000000E-01
  1.50000000E+00  1.50000000E+00  8.00000000E-01  8.00000000E-01  1.50000000E+00
  1.50000000E+00  8.00000000E-01  8.00000000E-01  1.50000000E+00  1.50000000E+00
  8.00000000E-01  8.00000000E-01  1.50000000E+00  1.50000000E+00  8.00000000E-01
  8.00000000E-01  1.50000000E+00  1.50000000E+00  8.00000000E-01  8.00000000E-01
  1.50000000E+00  1.50000000E+00  8.00000000E-01  8.00000000E-01  1.50000000E+00
  1.50000000E+00  8.00000000E-01  8.00000000E-01  1.50000000E+00  1.50000000E+00
  8.00000000E-01  8.00000000E-01  1.50000000E+00  1.50000000E+00  8.00000000E-01
  8.00000000E-01  1.50000000E+00  1.50000000E+00  8.00000000E-01  8.00000000E-01
  1.50000000E+00  1.50000000E+00  8.00000000E-01  8.00000000E-01  1.50000000E+00
  1.50000000E+00  8.00000000E-01  8.00000000E-01  1.50000000E+00  1.50000000E+00
  8.00000000E-01  8.00000000E-01  1.50000000E+00  1.50000000E+00  8.00000000E-01
  8.00000000E-01  1.50000000E+00  1.50000000E+00  8.00000000E-01  8.00000000E-01
  1.50000000E+00  1.50000000E+00  8.00000000E-01  8.00000000E-01  1.50000000E+00
  1.50000000E+00  8.00000000E-01  8.00000000E-01  1.50000000E+00  1.50000000E+00
  8.00000000E-01  8.00000000E-01  1.50000000E+00  1.50000000E+00  8.00000000E-01
  8.00000000E-01  1.50000000E+00  1.50000000E+00  8.00000000E-01  8.00000000E-01
  1.50000000E+00  1.50000000E+00  8.00000000E-01  8.00000000E-01  1.50000000E+00
  1.50000000E+00  8.00000000E-01  8.00000000E-01  1.50000000E+00  1.50000000E+00
  8.00000000E-01  8.00000000E-01  1.50000000E+00  1.50000000E+00  8.00000000E-01
  8.00000000E-01  1.50000000E+00  1.50000000E+00  8.00000000E-01  8.00000000E-01
  1.50000000E+00  1.50000000E+00  8.00000000E-01  8.00000000E-01  1.50000000E+00
  1.50000000E+00  8.00000000E-01  8.00000000E-01  1.50000000E+00  1.50000000E+00
  8.00000000E-01  8.00000000E-01  1.50000000E+00  1.50000000E+00  8.00000000E-01
  8.00000000E-01  1.50000000E+00  1.50000000E+00  8.00000000E-01  8.00000000E-01
  1.50000000E+00  1.50000000E+00  8.00000000E-01  8.00000000E-01  1.50000000E+00
  1.50000000E+00  8.00000000E-01  8.00000000E-01  1.50000000E+00  1.50000000E+00
  8.00000000E-01  8.00000000E-01  1.50000000E+00  1.50000000E+00  8.00000000E-01
  8.00000000E-01  1.50000000E+00  1.50000000E+00  8.00000000E-01  8.00000000E-01
  1.50000000E+00  1.50000000E+00  8.00000000E-01  8.00000000E-01  1.50000000E+00
  1.50000000E+00  8.00000000E-01  8.00000000E-01  1.50000000E+00  1.50000000E+00
  8.00000000E-01  8.00000000E-01  1.50000000E+00  1.50000000E+00  8.00000000E-01
  8.00000000E-01  1.50000000E+00  1.50000000E+00  8.00000000E-01  8.00000000E-01
  1.50000000E+00  1.50000000E+00  8.00000000E-01  8.00000000E-01  1.50000000E+00
  1.50000000E+00  8.00000000E-01  8.00000000E-01  1.50000000E+00  1.50000000E+00
  8.00000000E-01  8.00000000E-01  1.50000000E+00  1.50000000E+00  8.00000000E-01
  8.00000000E-01  1.50000000E+00  1.50000000E+00  8.00000000E-01  8.00000000E-01
  1.50000000E+00  1.50000000E+00  8.00000000E-01  8.00000000E-01  1.50000000E+00
  1.50000000E+00  8.00000000E-01  8.00000000E-01  1.50000000E+00  1.50000000E+00
  8.00000000E-01  8.00000000E-01  1.50000000E+00  1.50000000E+00  8.00000000E-01
  8.00000000E-01  1.50000000E+00  1.50000000E+00  8.00000000E-01  8.00000000E-01
  1.50000000E+00  1.50000000E+00  8.00000000E-01  8.00000000E-01  1.50000000E+00
  1.50000000E+00  8.00000000E-01  8.00000000E-01  1.50000000E+00  1.50000000E+00
  8.00000000E-01  8.00000000E-01  1.50000000E+00  1.50000000E+00  8.00000000E-01
  8.00000000E-01  1.50000000E+00  1.50000000E+00  8.00000000E-01  8.00000000E-01
  1.50000000E+00  1.50000000E+00  8.00000000E-01  8.00000000E-01  1.50000000E+00
  1.50000000E+00  8.00000000E-01  8.00000000E-01  1.50000000E+00  1.50000000E+00
  8.00000000E-01  8.00000000E-01  1.50000000E+00  1.50000000E+00  8.00000000E-01
  8.00000000E-01  1.50000000E+00  1.50000000E+00  8.00000000E-01  8.00000000E-01
  1.50000000E+00  1.50000000E+00  8.00000000E-01  8.00000000E-01  1.50000000E+00
  1.50000000E+00  8.00000000E-01  8.00000000E-01  1.50000000E+00  1.50000000E+00
  8.00000000E-01  8.00000000E-01  1.50000000E+00  1.50000000E+00  8.00000000E-01
  8.00000000E-01  1.50000000E+00  1.50000000E+00  8.00000000E-01  8.00000000E-01
  1.50000000E+00  1.50000000E+00  8.00000000E-01  8.00000000E-01  1.50000000E+00
  1.50000000E+00  8.00000000E-01  8.00000000E-01  1.50000000E+00  1.50000000E+00
  8.00000000E-01  8.00000000E-01  1.50000000E+00  1.50000000E+00  8.00000000E-01
  8.00000000E-01  1.50000000E+00  1.50000000E+00  8.00000000E-01  8.00000000E-01
  1.50000000E+00  1.50000000E+00  8.00000000E-01  8.00000000E-01  1.50000000E+00
  1.50000000E+00  8.00000000E-01  8.00000000E-01  1.50000000E+00  1.50000000E+00
  8.00000000E-01  8.00000000E-01  1.50000000E+00  1.50000000E+00  8.00000000E-01
  8.00000000E-01  1.50000000E+00  1.50000000E+00  8.00000000E-01  8.00000000E-01
  1.50000000E+00  1.50000000E+00  8.00000000E-01  8.00000000E-01  1.50000000E+00
  1.50000000E+00  8.00000000E-01  8.00000000E-01  1.50000000E+00  1.50000000E+00
  8.00000000E-01  8.00000000E-01  1.50000000E+00  1.50000000E+00  8.00000000E-01
  8.00000000E-01  1.50000000E+00  1.50000000E+00  8.00000000E-01  8.00000000E-01
  1.50000000E+00  1.50000000E+00  8.00000000E-01  8.00000000E-01  1.50000000E+00
  1.50000000E+00  8.00000000E-01  8.00000000E-01  1.50000000E+00  1.50000000E+00
  8.00000000E-01  8.00000000E-01  1.50000000E+00  1.50000000E+00  8.00000000E-01
  8.00000000E-01  1.50000000E+00  1.50000000E+00  8.00000000E-01  8.00000000E-01
  1.50000000E+00  1.50000000E+00  8.00000000E-01  8.00000000E-01  1.50000000E+00
  1.50000000E+00  8.00000000E-01  8.00000000E-01  1.50000000E+00  1.50000000E+00
  8.00000000E-01  8.00000000E-01  1.50000000E+00  1.50000000E+00  8.00000000E-01
  8.00000000E-01  1.50000000E+00  1.50000000E+00  8.00000000E-01  8.00000000E-01
  1.50000000E+00  1.50000000E+00  8.00000000E-01  8.00000000E-01  1.50000000E+00
  1.50000000E+00  8.00000000E-01  8.00000000E-01  1.50000000E+00  1.50000000E+00
  8.00000000E-01  8.00000000E-01  1.50000000E+00  1.50000000E+00  8.00000000E-01
  8.00000000E-01  1.50000000E+00  1.50000000E+00  8.00000000E-01  8.00000000E-01
  1.50000000E+00  1.50000000E+00  8.00000000E-01  8.00000000E-01  1.50000000E+00
  1.50000000E+00  8.00000000E-01  8.00000000E-01  1.50000000E+00  1.50000000E+00
  8.00000000E-01  8.00000000E-01  1.50000000E+00  1.50000000E+00  8.00000000E-01
  8.00000000E-01  1.50000000E+00  1.50000000E+00  8.00000000E-01  8.00000000E-01
  1.50000000E+00  1.50000000E+00  8.00000000E-01  8.00000000E-01  1.50000000E+00
  1.50000000E+00  8.00000000E-01  8.00000000E-01  1.50000000E+00  1.50000000E+00
  8.00000000E-01  8.00000000E-01  1.50000000E+00  1.50000000E+00  8.00000000E-01
  8.00000000E-01  1.50000000E+00  1.50000000E+00  8.00000000E-01  8.00000000E-01
  1.50000000E+00  1.50000000E+00  8.00000000E-01  8.00000000E-01  1.50000000E+00
  1.50000000E+00  8.00000000E-01  8.00000000E-01  1.50000000E+00  1.50000000E+00
  8.00000000E-01  8.00000000E-01  1.50000000E+00  1.50000000E+00  8.00000000E-01
  8.00000000E-01  1.50000000E+00  1.50000000E+00  8.00000000E-01  8.00000000E-01
  1.50000000E+00  1.50000000E+00  8.00000000E-01  8.00000000E-01  1.50000000E+00
  1.50000000E+00  8.00000000E-01  8.00000000E-01  1.50000000E+00  1.50000000E+00
  8.00000000E-01  8.00000000E-01  1.50000000E+00  1.50000000E+00  8.00000000E-01
  8.00000000E-01  1.50000000E+00  1.50000000E+00  8.00000000E-01  8.00000000E-01
  1.50000000E+00  1.50000000E+00  8.00000000E-01  8.00000000E-01  1.50000000E+00
  1.50000000E+00  8.00000000E-01  8.00000000E-01  1.50000000E+00  1.50000000E+00
  8.00000000E-01  8.00000000E-01  1.50000000E+00  1.50000000E+00  8.00000000E-01
  8.00000000E-01  1.50000000E+00  1.50000000E+00  8.00000000E-01  8.00000000E-01
  1.50000000E+00  1.50000000E+00  8.00000000E-01  8.00000000E-01  1.50000000E+00
  1.50000000E+00  8.00000000E-01  8.00000000E-01  1.50000000E+00  1.50000000E+00
  8.00000000E-01  8.00000000E-01  1.50000000E+00  1.50000000E+00  8.00000000E-01
  8.00000000E-01  1.50000000E+00  1.50000000E+00  8.00000000E-01  8.00000000E-01
  1.50000000E+00  1.50000000E+00  8.00000000E-01  8.00000000E-01  1.50000000E+00
  1.50000000E+00  8.00000000E-01  8.00000000E-01  1.50000000E+00  1.50000000E+00
  8.00000000E-01  8.00000000E-01  1.50000000E+00  1.50000000E+00  8.00000000E-01
  8.00000000E-01  1.50000000E+00  1.50000000E+00  8.00000000E-01  8.00000000E-01
  1.50000000E+00  1.50000000E+00  8.00000000E-01  8.00000000E-01  1.50000000E+00
  1.50000000E+00  8.00000000E-01  8.00000000E-01  1.50000000E+00  1.50000000E+00
  8.00000000E-01  8.00000000E-01  1.50000000E+00  1.50000000E+00  8.00000000E-01
  8.00000000E-01  1.50000000E+00  1.50000000E+00  8.00000000E-01  8.00000000E-01
  1.50000000E+00  1.50000000E+00  8.00000000E-01  8.00000000E-01  1.50000000E+00
  1.50000000E+00  8.00000000E-01  8.00000000E-01  1.50000000E+00  1.50000000E+00
  8.00000000E-01  8.00000000E-01  1.50000000E+00  1.50000000E+00  8.00000000E-01
  8.00000000E-01  1.50000000E+00  1.50000000E+00  8.00000000E-01  8.00000000E-01
  1.50000000E+00  1.50000000E+00  8.00000000E-01  8.00000000E-01  1.50000000E+00
  1.50000000E+00  8.00000000E-01  8.00000000E-01  1.50000000E+00  1.50000000E+00
  8.00000000E-01  8.00000000E-01  1.50000000E+00  1.50000000E+00  8.00000000E-01
  8.00000000E-01  1.50000000E+00  1.50000000E+00  8.00000000E-01  8.00000000E-01
  1.50000000E+00  1.50000000E+00  8.00000000E-01  8.00000000E-01  1.50000000E+00
  1.50000000E+00  8.00000000E-01  8.00000000E-01  1.50000000E+00  1.50000000E+00
  8.00000000E-01  8.00000000E-01  1.50000000E+00  1.50000000E+00  8.00000000E-01
  8.00000000E-01  1.50000000E+00  1.50000000E+00  8.00000000E-01  8.00000000E-01
  1.50000000E+00  1.50000000E+00  8.00000000E-01  8.00000000E-01  1.50000000E+00
  1.50000000E+00  8.00000000E-01  8.00000000E-01  1.50000000E+00  1.50000000E+00
  8.00000000E-01  8.00000000E-01  1.50000000E+00  1.50000000E+00  8.00000000E-01
  8.00000000E-01  1.50000000E+00  1.50000000E+00  8.00000000E-01  8.00000000E-01
  1.50000000E+00  1.50000000E+00  8.00000000E-01  8.00000000E-01  1.50000000E+00
  1.50000000E+00  8.00000000E-01  8.00000000E-01  1.50000000E+00  1.50000000E+00
  8.00000000E-01  8.00000000E-01  1.50000000E+00  1.50000000E+00  8.00000000E-01
  8.00000000E-01  1.50000000E+00  1.50000000E+00  8.00000000E-01  8.00000000E-01
  1.50000000E+00  1.50000000E+00  8.00000000E-01  8.00000000E-01  1.50000000E+00
  1.50000000E+00  8.00000000E-01  8.00000000E-01  1.50000000E+00  1.50000000E+00
  8.00000000E-01  8.00000000E-01  1.50000000E+00  1.50000000E+00  8.00000000E-01
  8.00000000E-01  1.50000000E+00  1.50000000E+00  8.00000000E-01  8.00000000E-01
  1.50000000E+00  1.50000000E+00  8.00000000E-01  8.00000000E-01  1.50000000E+00
  1.50000000E+00  8.00000000E-01  8.00000000E-01  1.50000000E+00  1.50000000E+00
  8.00000000E-01  8.00000000E-01  1.50000000E+00  1.50000000E+00  8.00000000E-01
  8.00000000E-01  1.50000000E+00  1.50000000E+00  8.00000000E-01  8.00000000E-01
  1.50000000E+00  1.50000000E+00  8.00000000E-01  8.00000000E-01  1.50000000E+00
  1.50000000E+00  8.00000000E-01  8.00000000E-01  1.50000000E+00  1.50000000E+00
  8.00000000E-01  8.00000000E-01  1.50000000E+00  1.50000000E+00  8.00000000E-01
  8.00000000E-01  1.50000000E+00  1.50000000E+00  8.00000000E-01  8.00000000E-01
  1.50000000E+00  1.50000000E+00  8.00000000E-01  8.00000000E-01  1.50000000E+00
  1.50000000E+00  8.00000000E-01  8.00000000E-01  1.50000000E+00  1.50000000E+00
  8.00000000E-01  8.00000000E-01  1.50000000E+00  1.50000000E+00  8.00000000E-01
  8.00000000E-01  1.50000000E+00  1.50000000E+00  8.00000000E-01  8.00000000E-01
  1.50000000E+00  1.50000000E+00  8.00000000E-01  8.00000000E-01  1.50000000E+00
  1.50000000E+00  8.00000000E-01  8.00000000E-01  1.50000000E+00  1.50000000E+00
  8.00000000E-01  8.00000000E-01  1.50000000E+00  1.50000000E+00  8.00000000E-01
  8.00000000E-01  1.50000000E+00  1.50000000E+00  8.00000000E-01  8.00000000E-01
  1.50000000E+00  1.50000000E+00  8.00000000E-01  8.00000000E-01  1.50000000E+00
  1.50000000E+00  8.00000000E-01  8.00000000E-01  1.50000000E+00  1.50000000E+00
  8.00000000E-01  8.00000000E-01  1.50000000E+00  1.50000000E+00  8.00000000E-01
  8.00000000E-01  1.50000000E+00  1.50000000E+00  8.00000000E-01  8.00000000E-01
  1.50000000E+00  1.50000000E+00  8.00000000E-01  8.00000000E-01  1.50000000E+00
  1.50000000E+00  8.00000000E-01  8.00000000E-01  1.50000000E+00  1.50000000E+00
  8.00000000E-01  8.00000000E-01  1.50000000E+00  1.50000000E+00  8.00000000E-01
  8.00000000E-01  1.50000000E+00  1.50000000E+00  8.00000000E-01  8.00000000E-01
  1.50000000E+00  1.50000000E+00  8.00000000E-01  8.00000000E-01  1.50000000E+00
  1.50000000E+00  8.00000000E-01  8.00000000E-01  1.50000000E+00  1.50000000E+00
  8.00000000E-01  8.00000000E-01  1.50000000E+00  1.50000000E+00  8.00000000E-01
  8.00000000E-01  1.50000000E+00  1.50000000E+00  8.00000000E-01  8.00000000E-01
  1.50000000E+00  1.50000000E+00  8.00000000E-01  8.00000000E-01  1.50000000E+00
  1.50000000E+00  8.00000000E-01  8.00000000E-01  1.50000000E+00  1.50000000E+00
  8.00000000E-01  8.00000000E-01  1.50000000E+00  1.50000000E+00  8.00000000E-01
  8.00000000E-01  1.50000000E+00  1.50000000E+00  8.00000000E-01  8.00000000E-01
  1.50000000E+00  1.50000000E+00  8.00000000E-01  8.00000000E-01  1.50000000E+00
  1.50000000E+00  8.00000000E-01  8.00000000E-01  1.50000000E+00  1.50000000E+00
  8.00000000E-01  8.00000000E-01  1.50000000E+00  1.50000000E+00  8.00000000E-01
  8.00000000E-01  1.50000000E+00  1.50000000E+00  8.00000000E-01  8.00000000E-01
  1.50000000E+00  1.50000000E+00  8.00000000E-01  8.00000000E-01  1.50000000E+00
  1.50000000E+00  8.00000000E-01  8.00000000E-01  1.50000000E+00  1.50000000E+00
  8.00000000E-01  8.00000000E-01  1.50000000E+00  1.50000000E+00  8.00000000E-01
  8.00000000E-01  1.50000000E+00  1.50000000E+00  8.00000000E-01  8.00000000E-01
  1.50000000E+00  1.50000000E+00  8.00000000E-01  8.00000000E-01  1.50000000E+00
  1.50000000E+00  8.00000000E-01  8.00000000E-01  1.50000000E+00  1.50000000E+00
  8.00000000E-01  8.00000000E-01  1.50000000E+00  1.50000000E+00  8.00000000E-01
  8.00000000E-01  1.50000000E+00  1.50000000E+00  8.00000000E-01  8.00000000E-01
  1.50000000E+00  1.50000000E+00  8.00000000E-01  8.00000000E-01  1.50000000E+00
  1.50000000E+00  8.00000000E-01  8.00000000E-01  1.50000000E+00  1.50000000E+00
  8.00000000E-01  8.00000000E-01  1.50000000E+00  1.50000000E+00  8.00000000E-01
  8.00000000E-01  1.50000000E+00  1.50000000E+00  8.00000000E-01  8.00000000E-01
  1.50000000E+00  1.50000000E+00  8.00000000E-01  8.00000000E-01  1.50000000E+00
  1.50000000E+00  8.00000000E-01  8.00000000E-01  1.50000000E+00  1.50000000E+00
  8.00000000E-01  8.00000000E-01  1.50000000E+00  1.50000000E+00  8.00000000E-01
  8.00000000E-01  1.50000000E+00  1.50000000E+00  8.00000000E-01  8.00000000E-01
  1.50000000E+00  1.50000000E+00  8.00000000E-01  8.00000000E-01  1.50000000E+00
  1.50000000E+00  8.00000000E-01  8.00000000E-01  1.50000000E+00  1.50000000E+00
  8.00000000E-01  8.00000000E-01  1.50000000E+00  1.50000000E+00  8.00000000E-01
  8.00000000E-01  1.50000000E+00  1.50000000E+00  8.00000000E-01  8.00000000E-01
  1.50000000E+00  1.50000000E+00  8.00000000E-01  8.00000000E-01  1.50000000E+00
  1.50000000E+00  8.00000000E-01  8.00000000E-01  1.50000000E+00  1.50000000E+00
  8.00000000E-01  8.00000000E-01  1.50000000E+00  1.50000000E+00  8.00000000E-01
  8.00000000E-01  1.50000000E+00  1.50000000E+00  8.00000000E-01  8.00000000E-01
  1.50000000E+00  1.50000000E+00  8.00000000E-01  8.00000000E-01  1.50000000E+00
  1.50000000E+00  8.00000000E-01  8.00000000E-01  1.50000000E+00  1.50000000E+00
  8.00000000E-01  8.00000000E-01  1.50000000E+00  1.50000000E+00  8.00000000E-01
  8.00000000E-01  1.50000000E+00  1.50000000E+00  8.00000000E-01  8.00000000E-01
  1.50000000E+00  1.50000000E+00  8.00000000E-01  8.00000000E-01  1.50000000E+00
  1.50000000E+00  8.00000000E-01  8.00000000E-01  1.50000000E+00  1.50000000E+00
  8.00000000E-01  8.00000000E-01  1.50000000E+00  1.50000000E+00  8.00000000E-01
  8.00000000E-01  1.50000000E+00  1.50000000E+00  8.00000000E-01  8.00000000E-01
  1.50000000E+00  1.50000000E+00  8.00000000E-01  8.00000000E-01  1.50000000E+00
  1.50000000E+00  8.00000000E-01  8.00000000E-01  1.50000000E+00  1.50000000E+00
  8.00000000E-01  8.00000000E-01  1.50000000E+00  1.50000000E+00  8.00000000E-01
  8.00000000E-01  1.50000000E+00  1.50000000E+00  8.00000000E-01  8.00000000E-01
  1.50000000E+00  1.50000000E+00  8.00000000E-01  8.00000000E-01  1.50000000E+00
  1.50000000E+00  8.00000000E-01  8.00000000E-01  1.50000000E+00  1.50000000E+00
  8.00000000E-01  8.00000000E-01  1.50000000E+00  1.50000000E+00  8.00000000E-01
  8.00000000E-01  1.50000000E+00  1.50000000E+00  8.00000000E-01  8.00000000E-01
  1.50000000E+00  1.50000000E+00  8.00000000E-01  8.00000000E-01  1.50000000E+00
  1.50000000E+00  8.00000000E-01  8.00000000E-01  1.50000000E+00  1.50000000E+00
  8.00000000E-01  8.00000000E-01  1.50000000E+00  1.50000000E+00  8.00000000E-01
  8.00000000E-01  1.50000000E+00  1.50000000E+00  8.00000000E-01  8.00000000E-01
  1.50000000E+00  1.50000000E+00  8.00000000E-01  8.00000000E-01  1.50000000E+00
  1.50000000E+00  8.00000000E-01  8.00000000E-01  1.50000000E+00  1.50000000E+00
  8.00000000E-01  8.00000000E-01  1.50000000E+00  1.50000000E+00  8.00000000E-01
  8.00000000E-01  1.50000000E+00  1.50000000E+00  8.00000000E-01  8.00000000E-01
  1.50000000E+00  1.50000000E+00  8.00000000E-01  8.00000000E-01  1.50000000E+00
  1.50000000E+00  8.00000000E-01  8.00000000E-01  1.50000000E+00  1.50000000E+00
  8.00000000E-01  8.00000000E-01  1.50000000E+00  1.50000000E+00  8.00000000E-01
  8.00000000E-01  1.50000000E+00  1.50000000E+00  8.00000000E-01  8.00000000E-01
  1.50000000E+00  1.50000000E+00  8.00000000E-01  8.00000000E-01  1.50000000E+00
  1.50000000E+00  8.00000000E-01  8.00000000E-01  1.50000000E+00  1.50000000E+00
  8.00000000E-01  8.00000000E-01  1.50000000E+00  1.50000000E+00  8.00000000E-01
  8.00000000E-01  1.50000000E+00  1.50000000E+00  8.00000000E-01  8.00000000E-01
  1.50000000E+00  1.50000000E+00  8.00000000E-01  8.00000000E-01  1.50000000E+00
  1.50000000E+00  8.00000000E-01  8.00000000E-01  1.50000000E+00  1.50000000E+00
  8.00000000E-01  8.00000000E-01  1.50000000E+00  1.50000000E+00  8.00000000E-01
  8.00000000E-01  1.50000000E+00  1.50000000E+00  8.00000000E-01  8.00000000E-01
  1.50000000E+00  1.50000000E+00  8.00000000E-01  8.00000000E-01  1.50000000E+00
  1.50000000E+00  8.00000000E-01  8.00000000E-01  1.50000000E+00  1.50000000E+00
  8.00000000E-01  8.00000000E-01  1.50000000E+00  1.50000000E+00  8.00000000E-01
  8.00000000E-01  1.50000000E+00  1.50000000E+00  8.00000000E-01  8.00000000E-01
  1.50000000E+00  1.50000000E+00  8.00000000E-01  8.00000000E-01  1.50000000E+00
  1.50000000E+00  8.00000000E-01  8.00000000E-01  1.50000000E+00  1.50000000E+00
  8.00000000E-01  8.00000000E-01  1.50000000E+00  1.50000000E+00  8.00000000E-01
  8.00000000E-01  1.50000000E+00  1.50000000E+00  8.00000000E-01  8.00000000E-01
  1.50000000E+00  1.50000000E+00  8.00000000E-01  8.00000000E-01  1.50000000E+00
  1.50000000E+00  8.00000000E-01  8.00000000E-01  1.50000000E+00  1.50000000E+00
  8.00000000E-01  8.00000000E-01  1.50000000E+00  1.50000000E+00  8.00000000E-01
  8.00000000E-01  1.50000000E+00  1.50000000E+00  8.00000000E-01  8.00000000E-01
  1.50000000E+00  1.50000000E+00  8.00000000E-01  8.00000000E-01  1.50000000E+00
  1.50000000E+00  8.00000000E-01  8.00000000E-01  1.50000000E+00  1.50000000E+00
  8.00000000E-01  8.00000000E-01  1.50000000E+00  1.50000000E+00  8.00000000E-01
  8.00000000E-01  1.50000000E+00  1.50000000E+00  8.00000000E-01  8.00000000E-01
  1.50000000E+00  1.50000000E+00  8.00000000E-01  8.00000000E-01  1.50000000E+00
  1.50000000E+00  8.00000000E-01  8.00000000E-01  1.50000000E+00  1.50000000E+00
  8.00000000E-01  8.00000000E-01  1.50000000E+00  1.50000000E+00  8.00000000E-01
  8.00000000E-01  1.50000000E+00  1.50000000E+00  8.00000000E-01  8.00000000E-01
  1.50000000E+00  1.50000000E+00  8.00000000E-01  8.00000000E-01  1.50000000E+00
  1.50000000E+00  8.00000000E-01  8.00000000E-01  1.50000000E+00  1.50000000E+00
  8.00000000E-01  8.00000000E-01  1.50000000E+00  1.50000000E+00  8.00000000E-01
  8.00000000E-01  1.50000000E+00  1.50000000E+00  8.00000000E-01  8.00000000E-01
  1.50000000E+00  1.50000000E+00  8.00000000E-01  8.00000000E-01  1.50000000E+00
  1.50000000E+00  8.00000000E-01  8.00000000E-01  1.50000000E+00  1.50000000E+00
  8.00000000E-01  8.00000000E-01  1.50000000E+00  1.50000000E+00  8.00000000E-01
  8.00000000E-01  1.50000000E+00  1.50000000E+00  8.00000000E-01  8.00000000E-01
  1.50000000E+00  1.50000000E+00  8.00000000E-01  8.00000000E-01  1.50000000E+00
  1.50000000E+00  8.00000000E-01  8.00000000E-01  1.50000000E+00  1.50000000E+00
  8.00000000E-01  8.00000000E-01  1.50000000E+00  1.50000000E+00  8.00000000E-01
  8.00000000E-01  1.50000000E+00  1.50000000E+00  8.00000000E-01  8.00000000E-01
  1.50000000E+00  1.50000000E+00  8.00000000E-01  8.00000000E-01  1.50000000E+00
  1.50000000E+00  8.00000000E-01  8.00000000E-01  1.50000000E+00  1.50000000E+00
  8.00000000E-01  8.00000000E-01  1.50000000E+00  1.50000000E+00  8.00000000E-01
  8.00000000E-01  1.50000000E+00  1.50000000E+00  8.00000000E-01  8.00000000E-01
  1.50000000E+00  1.50000000E+00  8.00000000E-01  8.00000000E-01  1.50000000E+00
  1.50000000E+00  8.00000000E-01  8.00000000E-01  1.50000000E+00  1.50000000E+00
  8.00000000E-01  8.00000000E-01  1.50000000E+00  1.50000000E+00  8.00000000E-01
  8.00000000E-01  1.50000000E+00  1.50000000E+00  8.00000000E-01  8.00000000E-01
  1.50000000E+00  1.50000000E+00  8.00000000E-01  8.00000000E-01  1.50000000E+00
  1.50000000E+00  8.00000000E-01  8.00000000E-01  1.50000000E+00  1.50000000E+00
  8.00000000E-01  8.00000000E-01  1.50000000E+00  1.50000000E+00  8.00000000E-01
  8.00000000E-01  1.50000000E+00  1.50000000E+00  8.00000000E-01  8.00000000E-01
  1.50000000E+00  1.50000000E+00  8.00000000E-01  8.00000000E-01  1.50000000E+00
  1.50000000E+00  8.00000000E-01  8.00000000E-01  1.50000000E+00  1.50000000E+00
  8.00000000E-01  8.00000000E-01  1.50000000E+00  1.50000000E+00  8.00000000E-01
  8.00000000E-01  1.50000000E+00  1.50000000E+00  8.00000000E-01  8.00000000E-01
  1.50000000E+00  1.50000000E+00  8.00000000E-01  8.00000000E-01  1.50000000E+00
  1.50000000E+00  8.00000000E-01  8.00000000E-01  1.50000000E+00  1.50000000E+00
  8.00000000E-01  8.00000000E-01  1.50000000E+00  1.50000000E+00  8.00000000E-01
  8.00000000E-01  1.50000000E+00  1.50000000E+00  8.00000000E-01  8.00000000E-01
  1.50000000E+00  1.50000000E+00  8.00000000E-01  8.00000000E-01  1.50000000E+00
  1.50000000E+00  8.00000000E-01  8.00000000E-01  1.50000000E+00  1.50000000E+00
  8.00000000E-01  8.00000000E-01  1.50000000E+00  1.50000000E+00  8.00000000E-01
  8.00000000E-01  1.50000000E+00  1.50000000E+00  8.00000000E-01  8.00000000E-01
  1.50000000E+00  1.50000000E+00  8.00000000E-01  8.00000000E-01  1.50000000E+00
  1.50000000E+00  8.00000000E-01  8.00000000E-01  1.50000000E+00  1.50000000E+00
  8.00000000E-01  8.00000000E-01  1.50000000E+00  1.50000000E+00  8.00000000E-01
  8.00000000E-01  1.50000000E+00  1.50000000E+00  8.00000000E-01  8.00000000E-01
  1.50000000E+00  1.50000000E+00  8.00000000E-01  8.00000000E-01  1.50000000E+00
  1.50000000E+00  8.00000000E-01  8.00000000E-01  1.50000000E+00  1.50000000E+00
  8.00000000E-01  8.00000000E-01  1.50000000E+00  1.50000000E+00  8.00000000E-01
  8.00000000E-01  1.50000000E+00  1.50000000E+00  8.00000000E-01  8.00000000E-01
  1.50000000E+00  1.50000000E+00  8.00000000E-01  8.00000000E-01  1.50000000E+00
  1.50000000E+00  8.00000000E-01  8.00000000E-01  1.50000000E+00  1.50000000E+00
  8.00000000E-01  8.00000000E-01  1.50000000E+00  1.50000000E+00  8.00000000E-01
  8.00000000E-01  1.50000000E+00  1.50000000E+00  8.00000000E-01  8.00000000E-01
  1.50000000E+00  1.50000000E+00  8.00000000E-01  8.00000000E-01  1.50000000E+00
  1.50000000E+00  8.00000000E-01  8.00000000E-01  1.50000000E+00  1.50000000E+00
  8.00000000E-01  8.00000000E-01  1.50000000E+00  1.50000000E+00  8.00000000E-01
  8.00000000E-01  1.50000000E+00  1.50000000E+00  8.00000000E-01  8.00000000E-01
  1.50000000E+00  1.50000000E+00  8.00000000E-01  8.00000000E-01  1.50000000E+00
  1.50000000E+00  8.00000000E-01  8.00000000E-01  1.50000000E+00  1.50000000E+00
  8.00000000E-01  8.00000000E-01  1.50000000E+00  1.50000000E+00  8.00000000E-01
  8.00000000E-01  1.50000000E+00  1.50000000E+00  8.00000000E-01  8.00000000E-01
  1.50000000E+00  1.50000000E+00  8.00000000E-01  8.00000000E-01  1.50000000E+00
  1.50000000E+00  8.00000000E-01  8.00000000E-01  1.50000000E+00  1.50000000E+00
  8.00000000E-01  8.00000000E-01  1.50000000E+00  1.50000000E+00  8.00000000E-01
  8.00000000E-01  1.50000000E+00  1.50000000E+00  8.00000000E-01  8.00000000E-01
  1.50000000E+00  1.50000000E+00  8.00000000E-01  8.00000000E-01  1.50000000E+00
  1.50000000E+00  8.00000000E-01  8.00000000E-01  1.50000000E+00  1.50000000E+00
  8.00000000E-01  8.00000000E-01  1.50000000E+00  1.50000000E+00  8.00000000E-01
  8.00000000E-01  1.50000000E+00  1.50000000E+00  8.00000000E-01  8.00000000E-01
  1.50000000E+00  1.50000000E+00  8.00000000E-01  8.00000000E-01  1.50000000E+00
  1.50000000E+00  8.00000000E-01  8.00000000E-01  1.50000000E+00  1.50000000E+00
  8.00000000E-01  8.00000000E-01  1.50000000E+00  1.50000000E+00  8.00000000E-01
  8.00000000E-01  1.50000000E+00  1.50000000E+00  8.00000000E-01  8.00000000E-01
  1.50000000E+00  1.50000000E+00  8.00000000E-01  8.00000000E-01  1.50000000E+00
  1.50000000E+00  8.00000000E-01  8.00000000E-01  1.50000000E+00  1.50000000E+00
  8.00000000E-01  8.00000000E-01  1.50000000E+00  1.50000000E+00  8.00000000E-01
  8.00000000E-01  1.50000000E+00  1.50000000E+00  8.00000000E-01  8.00000000E-01
  1.50000000E+00  1.50000000E+00  8.00000000E-01  8.00000000E-01  1.50000000E+00
  1.50000000E+00  8.00000000E-01  8.00000000E-01  1.50000000E+00  1.50000000E+00
  8.00000000E-01  8.00000000E-01  1.50000000E+00  1.50000000E+00  8.00000000E-01
  8.00000000E-01  1.50000000E+00  1.50000000E+00  8.00000000E-01  8.00000000E-01
  1.50000000E+00  1.50000000E+00  8.00000000E-01  8.00000000E-01  1.50000000E+00
  1.50000000E+00  8.00000000E-01  8.00000000E-01  1.50000000E+00  1.50000000E+00
  8.00000000E-01  8.00000000E-01  1.50000000E+00  1.50000000E+00  8.00000000E-01
  8.00000000E-01  1.50000000E+00  1.50000000E+00  8.00000000E-01  8.00000000E-01
  1.50000000E+00  1.50000000E+00  8.00000000E-01  8.00000000E-01  1.50000000E+00
  1.50000000E+00  8.00000000E-01  8.00000000E-01  1.50000000E+00  1.50000000E+00
  8.00000000E-01  8.00000000E-01  1.50000000E+00  1.50000000E+00  8.00000000E-01
  8.00000000E-01  1.50000000E+00  1.50000000E+00  8.00000000E-01  8.00000000E-01
  1.50000000E+00  1.50000000E+00  8.00000000E-01  8.00000000E-01  1.50000000E+00
  1.50000000E+00  8.00000000E-01  8.00000000E-01  1.50000000E+00  1.50000000E+00
  8.00000000E-01  8.00000000E-01  1.50000000E+00  1.50000000E+00  8.00000000E-01
  8.00000000E-01  1.50000000E+00  1.50000000E+00  8.00000000E-01  8.00000000E-01
  1.50000000E+00  1.50000000E+00  8.00000000E-01  8.00000000E-01  1.50000000E+00
  1.50000000E+00  8.00000000E-01  8.00000000E-01  1.50000000E+00  1.50000000E+00
  8.00000000E-01  8.00000000E-01  1.50000000E+00  1.50000000E+00  8.00000000E-01
  8.00000000E-01  1.50000000E+00  1.50000000E+00  8.00000000E-01  8.00000000E-01
  1.50000000E+00  1.50000000E+00  8.00000000E-01  8.00000000E-01  1.50000000E+00
  1.50000000E+00  8.00000000E-01  8.00000000E-01  1.50000000E+00  1.50000000E+00
  8.00000000E-01  8.00000000E-01  1.50000000E+00  1.50000000E+00  8.00000000E-01
  8.00000000E-01  1.50000000E+00  1.50000000E+00  8.00000000E-01  8.00000000E-01
  1.50000000E+00  1.50000000E+00  8.00000000E-01  8.00000000E-01  1.50000000E+00
  1.50000000E+00  8.00000000E-01  8.00000000E-01  1.50000000E+00  1.50000000E+00
  8.00000000E-01  8.00000000E-01  1.50000000E+00  1.50000000E+00  8.00000000E-01
  8.00000000E-01  1.50000000E+00  1.50000000E+00  8.00000000E-01  8.00000000E-01
  1.50000000E+00  1.50000000E+00  8.00000000E-01  8.00000000E-01  1.50000000E+00
  1.50000000E+00  8.00000000E-01  8.00000000E-01  1.50000000E+00  1.50000000E+00
  8.00000000E-01  8.00000000E-01  1.50000000E+00  1.50000000E+00  8.00000000E-01
  8.00000000E-01  1.50000000E+00  1.50000000E+00  8.00000000E-01  8.00000000E-01
  1.50000000E+00  1.50000000E+00  8.00000000E-01  8.00000000E-01  1.50000000E+00
  1.50000000E+00  8.00000000E-01  8.00000000E-01  1.50000000E+00  1.50000000E+00
  8.00000000E-01  8.00000000E-01  1.50000000E+00  1.50000000E+00  8.00000000E-01
  8.00000000E-01  1.50000000E+00  1.50000000E+00  8.00000000E-01  8.00000000E-01
  1.50000000E+00  1.50000000E+00  8.00000000E-01  8.00000000E-01  1.50000000E+00
  1.50000000E+00  8.00000000E-01  8.00000000E-01  1.50000000E+00  1.50000000E+00
  8.00000000E-01  8.00000000E-01  1.50000000E+00  1.50000000E+00  8.00000000E-01
  8.00000000E-01  1.50000000E+00  1.50000000E+00  8.00000000E-01  8.00000000E-01
  1.50000000E+00  1.50000000E+00  8.00000000E-01  8.00000000E-01  1.50000000E+00
  1.50000000E+00  8.00000000E-01  8.00000000E-01  1.50000000E+00  1.50000000E+00
  8.00000000E-01  8.00000000E-01  1.50000000E+00  1.50000000E+00  8.00000000E-01
  8.00000000E-01  1.50000000E+00  1.50000000E+00  8.00000000E-01  8.00000000E-01
  1.50000000E+00  1.50000000E+00  8.00000000E-01  8.00000000E-01  1.50000000E+00
  1.50000000E+00  8.00000000E-01  8.00000000E-01  1.50000000E+00  1.50000000E+00
  8.00000000E-01  8.00000000E-01  1.50000000E+00  1.50000000E+00  8.00000000E-01
  8.00000000E-01  1.50000000E+00  1.50000000E+00  8.00000000E-01  8.00000000E-01
  1.50000000E+00  1.50000000E+00  8.00000000E-01  8.00000000E-01  1.50000000E+00
  1.50000000E+00  8.00000000E-01  8.00000000E-01  1.50000000E+00  1.50000000E+00
  8.00000000E-01  8.00000000E-01  1.50000000E+00  1.50000000E+00  8.00000000E-01
  8.00000000E-01  1.50000000E+00  1.50000000E+00  8.00000000E-01  8.00000000E-01
  1.50000000E+00  1.50000000E+00  8.00000000E-01  8.00000000E-01  1.50000000E+00
  1.50000000E+00  8.00000000E-01  8.00000000E-01  1.50000000E+00  1.50000000E+00
  8.00000000E-01  8.00000000E-01  1.50000000E+00  1.50000000E+00  8.00000000E-01
  8.00000000E-01  1.50000000E+00  1.50000000E+00  8.00000000E-01  8.00000000E-01
  1.50000000E+00  1.50000000E+00  8.00000000E-01  8.00000000E-01  1.50000000E+00
  1.50000000E+00  8.00000000E-01  8.00000000E-01  1.50000000E+00  1.50000000E+00
  8.00000000E-01  8.00000000E-01  1.50000000E+00  1.50000000E+00  8.00000000E-01
  8.00000000E-01  1.50000000E+00  1.50000000E+00  8.00000000E-01  8.00000000E-01
  1.50000000E+00  1.50000000E+00  8.00000000E-01  8.00000000E-01  1.50000000E+00
  1.50000000E+00  8.00000000E-01  8.00000000E-01  1.50000000E+00  1.50000000E+00
  8.00000000E-01  8.00000000E-01  1.50000000E+00  1.50000000E+00  8.00000000E-01
  8.00000000E-01  1.50000000E+00  1.50000000E+00  8.00000000E-01  8.00000000E-01
  1.50000000E+00  1.50000000E+00  8.00000000E-01  8.00000000E-01  1.50000000E+00
  1.50000000E+00  8.00000000E-01  8.00000000E-01  1.50000000E+00  1.50000000E+00
  8.00000000E-01  8.00000000E-01  1.50000000E+00  1.50000000E+00  8.00000000E-01
  8.00000000E-01  1.50000000E+00  1.50000000E+00  8.00000000E-01  8.00000000E-01
  1.50000000E+00  1.50000000E+00  8.00000000E-01  8.00000000E-01  1.50000000E+00
  1.50000000E+00  8.00000000E-01  8.00000000E-01  1.50000000E+00  1.50000000E+00
  8.00000000E-01  8.00000000E-01  1.50000000E+00  1.50000000E+00  8.00000000E-01
  8.00000000E-01  1.50000000E+00  1.50000000E+00  8.00000000E-01  8.00000000E-01
  1.50000000E+00  1.50000000E+00  8.00000000E-01  8.00000000E-01  1.50000000E+00
  1.50000000E+00  8.00000000E-01  8.00000000E-01  1.50000000E+00  1.50000000E+00
  8.00000000E-01  8.00000000E-01  1.50000000E+00  1.50000000E+00  8.00000000E-01
  8.00000000E-01  1.50000000E+00  1.50000000E+00  8.00000000E-01  8.00000000E-01
  1.50000000E+00  1.50000000E+00  8.00000000E-01  8.00000000E-01  1.50000000E+00
  1.50000000E+00  8.00000000E-01  8.00000000E-01  1.50000000E+00  1.50000000E+00
  8.00000000E-01  8.00000000E-01  1.50000000E+00  1.50000000E+00  8.00000000E-01
  8.00000000E-01  1.50000000E+00  1.50000000E+00  8.00000000E-01  8.00000000E-01
  1.50000000E+00  1.50000000E+00  8.00000000E-01  8.00000000E-01  1.50000000E+00
  1.50000000E+00  8.00000000E-01  8.00000000E-01  1.50000000E+00  1.50000000E+00
  8.00000000E-01  8.00000000E-01  1.50000000E+00  1.50000000E+00  8.00000000E-01
  8.00000000E-01  1.50000000E+00  1.50000000E+00  8.00000000E-01  8.00000000E-01
  1.50000000E+00  1.50000000E+00  8.00000000E-01  8.00000000E-01  1.50000000E+00
  1.50000000E+00  8.00000000E-01  8.00000000E-01  1.50000000E+00  1.50000000E+00
  8.00000000E-01  8.00000000E-01  1.50000000E+00  1.50000000E+00  8.00000000E-01
  8.00000000E-01  1.50000000E+00  1.50000000E+00  8.00000000E-01  8.00000000E-01
  1.50000000E+00  1.50000000E+00  8.00000000E-01  8.00000000E-01  1.50000000E+00
  1.50000000E+00  8.00000000E-01  8.00000000E-01  1.50000000E+00  1.50000000E+00
  8.00000000E-01  8.00000000E-01  1.50000000E+00  1.50000000E+00  8.00000000E-01
  8.00000000E-01  1.50000000E+00  1.50000000E+00  8.00000000E-01  8.00000000E-01
  1.50000000E+00  1.50000000E+00  8.00000000E-01  8.00000000E-01  1.50000000E+00
  1.50000000E+00  8.00000000E-01  8.00000000E-01  1.50000000E+00  1.50000000E+00
  8.00000000E-01  8.00000000E-01  1.50000000E+00  1.50000000E+00  8.00000000E-01
  8.00000000E-01  1.50000000E+00  1.50000000E+00  8.00000000E-01  8.00000000E-01
  1.50000000E+00  1.50000000E+00  8.00000000E-01  8.00000000E-01  1.50000000E+00
  1.50000000E+00  8.00000000E-01  8.00000000E-01  1.50000000E+00  1.50000000E+00
  8.00000000E-01  8.00000000E-01  1.50000000E+00  1.50000000E+00  8.00000000E-01
  8.00000000E-01  1.50000000E+00  1.50000000E+00  8.00000000E-01  8.00000000E-01
  1.50000000E+00  1.50000000E+00  8.00000000E-01  8.00000000E-01  1.50000000E+00
  1.50000000E+00  8.00000000E-01  8.00000000E-01  1.50000000E+00  1.50000000E+00
  8.00000000E-01  8.00000000E-01  1.50000000E+00  1.50000000E+00  8.00000000E-01
  8.00000000E-01  1.50000000E+00  1.50000000E+00  8.00000000E-01  8.00000000E-01
  1.50000000E+00  1.50000000E+00  8.00000000E-01  8.00000000E-01  1.50000000E+00
  1.50000000E+00  8.00000000E-01  8.00000000E-01  1.50000000E+00  1.50000000E+00
  8.00000000E-01  8.00000000E-01  1.50000000E+00  1.50000000E+00  8.00000000E-01
  8.00000000E-01  1.50000000E+00  1.50000000E+00  8.00000000E-01  8.00000000E-01
  1.50000000E+00  1.50000000E+00  8.00000000E-01  8.00000000E-01  1.50000000E+00
  1.50000000E+00  8.00000000E-01  8.00000000E-01  1.50000000E+00  1.50000000E+00
  8.00000000E-01  8.00000000E-01  1.50000000E+00  1.50000000E+00  8.00000000E-01
  8.00000000E-01  1.50000000E+00  1.50000000E+00  8.00000000E-01  8.00000000E-01
  1.50000000E+00  1.50000000E+00  8.00000000E-01  8.00000000E-01  1.50000000E+00
  1.50000000E+00  8.00000000E-01  8.00000000E-01  1.50000000E+00  1.50000000E+00
  8.00000000E-01  8.00000000E-01  1.50000000E+00  1.50000000E+00  8.00000000E-01
  8.00000000E-01  1.50000000E+00  1.50000000E+00  8.00000000E-01  8.00000000E-01
  1.50000000E+00  1.50000000E+00  8.00000000E-01  8.00000000E-01  1.50000000E+00
  1.50000000E+00  8.00000000E-01  8.00000000E-01  1.50000000E+00  1.50000000E+00
  8.00000000E-01  8.00000000E-01  1.50000000E+00  1.50000000E+00  8.00000000E-01
  8.00000000E-01  1.50000000E+00  1.50000000E+00  8.00000000E-01  8.00000000E-01
  1.50000000E+00  1.50000000E+00  8.00000000E-01  8.00000000E-01  1.50000000E+00
  1.50000000E+00  8.00000000E-01  8.00000000E-01  1.50000000E+00  1.50000000E+00
  8.00000000E-01  8.00000000E-01  1.50000000E+00  1.50000000E+00  8.00000000E-01
  8.00000000E-01  1.50000000E+00  1.50000000E+00  8.00000000E-01  8.00000000E-01
  1.50000000E+00  1.50000000E+00  8.00000000E-01  8.00000000E-01  1.50000000E+00
  1.50000000E+00  8.00000000E-01  8.00000000E-01  1.50000000E+00  1.50000000E+00
  8.00000000E-01  8.00000000E-01  1.50000000E+00  1.50000000E+00  8.00000000E-01
  8.00000000E-01  1.50000000E+00  1.50000000E+00  8.00000000E-01  8.00000000E-01
  1.50000000E+00  1.50000000E+00  8.00000000E-01  8.00000000E-01  1.50000000E+00
  1.50000000E+00  8.00000000E-01  8.00000000E-01  1.50000000E+00  1.50000000E+00
  8.00000000E-01  8.00000000E-01  1.50000000E+00  1.50000000E+00  8.00000000E-01
  8.00000000E-01  1.50000000E+00  1.50000000E+00  8.00000000E-01  8.00000000E-01
  1.50000000E+00  1.50000000E+00  8.00000000E-01  8.00000000E-01  1.50000000E+00
  1.50000000E+00  8.00000000E-01  8.00000000E-01  1.50000000E+00  1.50000000E+00
  8.00000000E-01  8.00000000E-01  1.50000000E+00  1.50000000E+00  8.00000000E-01
  8.00000000E-01  1.50000000E+00  1.50000000E+00  8.00000000E-01  8.00000000E-01
  1.50000000E+00  1.50000000E+00  8.00000000E-01  8.00000000E-01  1.50000000E+00
  1.50000000E+00  8.00000000E-01  8.00000000E-01  1.50000000E+00  1.50000000E+00
  8.00000000E-01  8.00000000E-01  1.50000000E+00  1.50000000E+00  8.00000000E-01
  8.00000000E-01  1.50000000E+00  1.50000000E+00  8.00000000E-01  8.00000000E-01
  1.50000000E+00  1.50000000E+00  8.00000000E-01  8.00000000E-01  1.50000000E+00
  1.50000000E+00  8.00000000E-01  8.00000000E-01  1.50000000E+00  1.50000000E+00
  8.00000000E-01  8.00000000E-01  1.50000000E+00  1.50000000E+00  8.00000000E-01
  8.00000000E-01  1.50000000E+00  1.50000000E+00  8.00000000E-01  8.00000000E-01
  1.50000000E+00  1.50000000E+00  8.00000000E-01  8.00000000E-01  1.50000000E+00
  1.50000000E+00  8.00000000E-01  8.00000000E-01  1.50000000E+00  1.50000000E+00
  8.00000000E-01  8.00000000E-01  1.50000000E+00  1.50000000E+00  8.00000000E-01
  8.00000000E-01  1.50000000E+00  1.50000000E+00  8.00000000E-01  8.00000000E-01
  1.50000000E+00  1.50000000E+00  8.00000000E-01  8.00000000E-01  1.50000000E+00
  1.50000000E+00  8.00000000E-01  8.00000000E-01  1.50000000E+00  1.50000000E+00
  8.00000000E-01  8.00000000E-01  1.50000000E+00  1.50000000E+00  8.00000000E-01
  8.00000000E-01  1.50000000E+00  1.50000000E+00  8.00000000E-01  8.00000000E-01
  1.50000000E+00  1.50000000E+00  8.00000000E-01  8.00000000E-01  1.50000000E+00
  1.50000000E+00  8.00000000E-01  8.00000000E-01  1.50000000E+00  1.50000000E+00
  8.00000000E-01  8.00000000E-01  1.50000000E+00  1.50000000E+00  8.00000000E-01
  8.00000000E-01  1.50000000E+00  1.50000000E+00  8.00000000E-01  8.00000000E-01
  1.50000000E+00  1.50000000E+00  8.00000000E-01  8.00000000E-01  1.50000000E+00
  1.50000000E+00  8.00000000E-01  8.00000000E-01  1.50000000E+00  1.50000000E+00
  8.00000000E-01  8.00000000E-01  1.50000000E+00  1.50000000E+00  8.00000000E-01
  8.00000000E-01  1.50000000E+00  1.50000000E+00  8.00000000E-01  8.00000000E-01
  1.50000000E+00  1.50000000E+00  8.00000000E-01  8.00000000E-01  1.50000000E+00
  1.50000000E+00  8.00000000E-01  8.00000000E-01  1.50000000E+00  1.50000000E+00
  8.00000000E-01  8.00000000E-01  1.50000000E+00  1.50000000E+00  8.00000000E-01
  8.00000000E-01  1.50000000E+00  1.50000000E+00  8.00000000E-01  8.00000000E-01
  1.50000000E+00  1.50000000E+00  8.00000000E-01  8.00000000E-01  1.50000000E+00
  1.50000000E+00  8.00000000E-01  8.00000000E-01  1.50000000E+00  1.50000000E+00
  8.00000000E-01  8.00000000E-01  1.50000000E+00  1.50000000E+00  8.00000000E-01
  8.00000000E-01  1.50000000E+00  1.50000000E+00  8.00000000E-01  8.00000000E-01
  1.50000000E+00  1.50000000E+00  8.00000000E-01  8.00000000E-01  1.50000000E+00
  1.50000000E+00  8.00000000E-01  8.00000000E-01  1.50000000E+00  1.50000000E+00
  8.00000000E-01  8.00000000E-01  1.50000000E+00  1.50000000E+00  8.00000000E-01
  8.00000000E-01  1.50000000E+00  1.50000000E+00  8.00000000E-01  8.00000000E-01
  1.50000000E+00  1.50000000E+00  8.00000000E-01  8.00000000E-01  1.50000000E+00
  1.50000000E+00  8.00000000E-01  8.00000000E-01  1.50000000E+00  1.50000000E+00
  8.00000000E-01  8.00000000E-01  1.50000000E+00  1.50000000E+00  8.00000000E-01
  8.00000000E-01  1.50000000E+00  1.50000000E+00  8.00000000E-01  8.00000000E-01
  1.50000000E+00  1.50000000E+00  8.00000000E-01  8.00000000E-01  1.50000000E+00
  1.50000000E+00  8.00000000E-01  8.00000000E-01  1.50000000E+00  1.50000000E+00
  8.00000000E-01  8.00000000E-01  1.50000000E+00  1.50000000E+00  8.00000000E-01
  8.00000000E-01  1.50000000E+00  1.50000000E+00  8.00000000E-01  8.00000000E-01
  1.50000000E+00  1.50000000E+00  8.00000000E-01  8.00000000E-01  1.50000000E+00
  1.50000000E+00  8.00000000E-01  8.00000000E-01  1.50000000E+00  1.50000000E+00
  8.00000000E-01  8.00000000E-01  1.50000000E+00  1.50000000E+00  8.00000000E-01
  8.00000000E-01  1.50000000E+00  1.50000000E+00  8.00000000E-01  8.00000000E-01
  1.50000000E+00  1.50000000E+00  8.00000000E-01  8.00000000E-01  1.50000000E+00
  1.50000000E+00  8.00000000E-01  8.00000000E-01  1.50000000E+00  1.50000000E+00
  8.00000000E-01  8.00000000E-01  1.50000000E+00  1.50000000E+00  8.00000000E-01
  8.00000000E-01  1.50000000E+00  1.50000000E+00  8.00000000E-01  8.00000000E-01
  1.50000000E+00  1.50000000E+00  8.00000000E-01  8.00000000E-01  1.50000000E+00
  1.50000000E+00  8.00000000E-01  8.00000000E-01  1.50000000E+00  1.50000000E+00
  8.00000000E-01  8.00000000E-01  1.50000000E+00  1.50000000E+00  8.00000000E-01
  8.00000000E-01  1.50000000E+00  1.50000000E+00  8.00000000E-01  8.00000000E-01
  1.50000000E+00  1.50000000E+00  8.00000000E-01  8.00000000E-01  1.50000000E+00
  1.50000000E+00  8.00000000E-01  8.00000000E-01  1.50000000E+00  1.50000000E+00
  8.00000000E-01  8.00000000E-01  1.50000000E+00  1.50000000E+00  8.00000000E-01
  8.00000000E-01  1.50000000E+00  1.50000000E+00  8.00000000E-01  8.00000000E-01
  1.50000000E+00  1.50000000E+00  8.00000000E-01  8.00000000E-01  1.50000000E+00
  1.50000000E+00  8.00000000E-01  8.00000000E-01  1.50000000E+00  1.50000000E+00
  8.00000000E-01  8.00000000E-01  1.50000000E+00  1.50000000E+00  8.00000000E-01
  8.00000000E-01  1.50000000E+00  1.50000000E+00  8.00000000E-01  8.00000000E-01
  1.50000000E+00  1.50000000E+00  8.00000000E-01  8.00000000E-01  1.50000000E+00
  1.50000000E+00  8.00000000E-01  8.00000000E-01  1.50000000E+00  1.50000000E+00
  8.00000000E-01  8.00000000E-01  1.50000000E+00  1.50000000E+00  8.00000000E-01
  8.00000000E-01  1.50000000E+00  1.50000000E+00  8.00000000E-01  8.00000000E-01
  1.50000000E+00  1.50000000E+00  8.00000000E-01  8.00000000E-01  1.50000000E+00
  1.50000000E+00  8.00000000E-01  8.00000000E-01  1.50000000E+00  1.50000000E+00
  8.00000000E-01  8.00000000E-01  1.50000000E+00  1.50000000E+00  8.00000000E-01
  8.00000000E-01  1.50000000E+00  1.50000000E+00  8.00000000E-01  8.00000000E-01
  1.50000000E+00  1.50000000E+00  8.00000000E-01  8.00000000E-01  1.50000000E+00
  1.50000000E+00  8.00000000E-01  8.00000000E-01  1.50000000E+00  1.50000000E+00
  8.00000000E-01  8.00000000E-01  1.50000000E+00  1.50000000E+00  8.00000000E-01
  8.00000000E-01  1.50000000E+00  1.50000000E+00  8.00000000E-01  8.00000000E-01
  1.50000000E+00  1.50000000E+00  8.00000000E-01  8.00000000E-01  1.50000000E+00
  1.50000000E+00  8.00000000E-01  8.00000000E-01  1.50000000E+00  1.50000000E+00
  8.00000000E-01  8.00000000E-01  1.50000000E+00  1.50000000E+00  8.00000000E-01
  8.00000000E-01  1.50000000E+00  1.50000000E+00  8.00000000E-01  8.00000000E-01
  1.50000000E+00  1.50000000E+00  8.00000000E-01  8.00000000E-01  1.50000000E+00
  1.50000000E+00  8.00000000E-01  8.00000000E-01  1.50000000E+00  1.50000000E+00
  8.00000000E-01  8.00000000E-01  1.50000000E+00  1.50000000E+00  8.00000000E-01
  8.00000000E-01  1.50000000E+00  1.50000000E+00  8.00000000E-01  8.00000000E-01
  1.50000000E+00  1.50000000E+00  8.00000000E-01  8.00000000E-01  1.50000000E+00
  1.50000000E+00  8.00000000E-01  8.00000000E-01  1.50000000E+00  1.50000000E+00
  8.00000000E-01  8.00000000E-01  1.50000000E+00  1.50000000E+00  8.00000000E-01
  8.00000000E-01  1.50000000E+00  1.50000000E+00  8.00000000E-01  8.00000000E-01
  1.50000000E+00  1.50000000E+00  8.00000000E-01  8.00000000E-01  1.50000000E+00
  1.50000000E+00  8.00000000E-01  8.00000000E-01  1.50000000E+00  1.50000000E+00
  8.00000000E-01  8.00000000E-01  1.50000000E+00  1.50000000E+00  8.00000000E-01
  8.00000000E-01  1.50000000E+00  1.50000000E+00  8.00000000E-01  8.00000000E-01
  1.50000000E+00  1.50000000E+00  8.00000000E-01  8.00000000E-01  1.50000000E+00
  1.50000000E+00  8.00000000E-01  8.00000000E-01  1.50000000E+00  1.50000000E+00
  8.00000000E-01  8.00000000E-01  1.50000000E+00  1.50000000E+00  8.00000000E-01
  8.00000000E-01  1.50000000E+00  1.50000000E+00  8.00000000E-01  8.00000000E-01
  1.50000000E+00  1.50000000E+00  8.00000000E-01  8.00000000E-01  1.50000000E+00
  1.50000000E+00  8.00000000E-01  8.00000000E-01  1.50000000E+00  1.50000000E+00
  8.00000000E-01  8.00000000E-01  1.50000000E+00  1.50000000E+00  8.00000000E-01
  8.00000000E-01  1.50000000E+00  1.50000000E+00  8.00000000E-01  8.00000000E-01
  1.50000000E+00  1.50000000E+00  8.00000000E-01  8.00000000E-01  1.50000000E+00
  1.50000000E+00  8.00000000E-01  8.00000000E-01  1.50000000E+00  1.50000000E+00
  8.00000000E-01  8.00000000E-01  1.50000000E+00  1.50000000E+00  8.00000000E-01
  8.00000000E-01  1.50000000E+00  1.50000000E+00  8.00000000E-01  8.00000000E-01
  1.50000000E+00  1.50000000E+00  8.00000000E-01  8.00000000E-01  1.50000000E+00
  1.50000000E+00  8.00000000E-01  8.00000000E-01  1.50000000E+00  1.50000000E+00
  8.00000000E-01  8.00000000E-01  1.50000000E+00  1.50000000E+00  8.00000000E-01
  8.00000000E-01  1.50000000E+00  1.50000000E+00  8.00000000E-01  8.00000000E-01
  1.50000000E+00  1.50000000E+00  8.00000000E-01  8.00000000E-01  1.50000000E+00
  1.50000000E+00  8.00000000E-01  8.00000000E-01  1.50000000E+00  1.50000000E+00
  8.00000000E-01  8.00000000E-01  1.50000000E+00  1.50000000E+00  8.00000000E-01
  8.00000000E-01  1.50000000E+00  1.50000000E+00  8.00000000E-01  8.00000000E-01
  1.50000000E+00  1.50000000E+00  8.00000000E-01  8.00000000E-01  1.50000000E+00
  1.50000000E+00  8.00000000E-01  8.00000000E-01  1.50000000E+00  1.50000000E+00
  8.00000000E-01  8.00000000E-01  1.50000000E+00  1.50000000E+00  8.00000000E-01
  8.00000000E-01  1.50000000E+00  1.50000000E+00  8.00000000E-01  8.00000000E-01
  1.50000000E+00  1.50000000E+00  8.00000000E-01  8.00000000E-01  1.50000000E+00
  1.50000000E+00  8.00000000E-01  8.00000000E-01  1.50000000E+00  1.50000000E+00
  8.00000000E-01  8.00000000E-01  1.50000000E+00  1.50000000E+00  8.00000000E-01
  8.00000000E-01  1.50000000E+00  1.50000000E+00  8.00000000E-01  8.00000000E-01
  1.50000000E+00  1.50000000E+00  8.00000000E-01  8.00000000E-01  1.50000000E+00
  1.50000000E+00  8.00000000E-01  8.00000000E-01  1.50000000E+00  1.50000000E+00
  8.00000000E-01  8.00000000E-01  1.50000000E+00  1.50000000E+00  8.00000000E-01
  8.00000000E-01  1.50000000E+00  1.50000000E+00  8.00000000E-01  8.00000000E-01
  1.50000000E+00  1.50000000E+00  8.00000000E-01  8.00000000E-01  1.50000000E+00
  1.50000000E+00  8.00000000E-01  8.00000000E-01  1.50000000E+00  1.50000000E+00
  8.00000000E-01  8.00000000E-01  1.50000000E+00  1.50000000E+00  8.00000000E-01
  8.00000000E-01  1.50000000E+00  1.50000000E+00  8.00000000E-01  8.00000000E-01
  1.50000000E+00  1.50000000E+00  8.00000000E-01  8.00000000E-01  1.50000000E+00
  1.50000000E+00  8.00000000E-01  8.00000000E-01  1.50000000E+00  1.50000000E+00
  8.00000000E-01  8.00000000E-01  1.50000000E+00  1.50000000E+00  8.00000000E-01
  8.00000000E-01  1.50000000E+00  1.50000000E+00  8.00000000E-01  8.00000000E-01
  1.50000000E+00  1.50000000E+00  8.00000000E-01  8.00000000E-01  1.50000000E+00
  1.50000000E+00  8.00000000E-01  8.00000000E-01  1.50000000E+00  1.50000000E+00
  8.00000000E-01  8.00000000E-01  1.50000000E+00  1.50000000E+00  8.00000000E-01
  8.00000000E-01  1.50000000E+00  1.50000000E+00  8.00000000E-01  8.00000000E-01
  1.50000000E+00  1.50000000E+00  8.00000000E-01  8.00000000E-01  1.50000000E+00
  1.50000000E+00  8.00000000E-01  8.00000000E-01  1.50000000E+00  1.50000000E+00
  8.00000000E-01  8.00000000E-01  1.50000000E+00  1.50000000E+00  8.00000000E-01
  8.00000000E-01  1.50000000E+00  1.50000000E+00  8.00000000E-01  8.00000000E-01
  1.50000000E+00  1.50000000E+00  8.00000000E-01  8.00000000E-01  1.50000000E+00
  1.50000000E+00  8.00000000E-01  8.00000000E-01  1.50000000E+00  1.50000000E+00
  8.00000000E-01  8.00000000E-01  1.50000000E+00  1.50000000E+00  8.00000000E-01
  8.00000000E-01  1.50000000E+00  1.50000000E+00  8.00000000E-01  8.00000000E-01
  1.50000000E+00  1.50000000E+00  8.00000000E-01  8.00000000E-01  1.50000000E+00
  1.50000000E+00  8.00000000E-01  8.00000000E-01  1.50000000E+00  1.50000000E+00
  8.00000000E-01  8.00000000E-01  1.50000000E+00  1.50000000E+00  8.00000000E-01
  8.00000000E-01  1.50000000E+00  1.50000000E+00  8.00000000E-01  8.00000000E-01
  1.50000000E+00  1.50000000E+00  8.00000000E-01  8.00000000E-01  1.50000000E+00
  1.50000000E+00  8.00000000E-01  8.00000000E-01  1.50000000E+00  1.50000000E+00
  8.00000000E-01  8.00000000E-01  1.50000000E+00  1.50000000E+00  8.00000000E-01
  8.00000000E-01  1.50000000E+00  1.50000000E+00  8.00000000E-01  8.00000000E-01
  1.50000000E+00  1.50000000E+00  8.00000000E-01  8.00000000E-01  1.50000000E+00
  1.50000000E+00  8.00000000E-01  8.00000000E-01  1.50000000E+00  1.50000000E+00
  8.00000000E-01  8.00000000E-01  1.50000000E+00  1.50000000E+00  8.00000000E-01
  8.00000000E-01  1.50000000E+00  1.50000000E+00  8.00000000E-01  8.00000000E-01
  1.50000000E+00  1.50000000E+00  8.00000000E-01  8.00000000E-01  1.50000000E+00
  1.50000000E+00  8.00000000E-01  8.00000000E-01  1.50000000E+00  1.50000000E+00
  8.00000000E-01  8.00000000E-01  1.50000000E+00  1.50000000E+00  8.00000000E-01
  8.00000000E-01  1.50000000E+00  1.50000000E+00  8.00000000E-01  8.00000000E-01
  1.50000000E+00  1.50000000E+00  8.00000000E-01  8.00000000E-01  1.50000000E+00
  1.50000000E+00  8.00000000E-01  8.00000000E-01  1.50000000E+00  1.50000000E+00
  8.00000000E-01  8.00000000E-01  1.50000000E+00  1.50000000E+00  8.00000000E-01
  8.00000000E-01  1.50000000E+00  1.50000000E+00  8.00000000E-01  8.00000000E-01
  1.50000000E+00  1.50000000E+00  8.00000000E-01  8.00000000E-01  1.50000000E+00
  1.50000000E+00  8.00000000E-01  8.00000000E-01  1.50000000E+00  1.50000000E+00
  8.00000000E-01  8.00000000E-01  1.50000000E+00  1.50000000E+00  8.00000000E-01
  8.00000000E-01  1.50000000E+00  1.50000000E+00  8.00000000E-01  8.00000000E-01
  1.50000000E+00  1.50000000E+00  8.00000000E-01  8.00000000E-01  1.50000000E+00
  1.50000000E+00  8.00000000E-01  8.00000000E-01  1.50000000E+00
%FLAG SCREEN                                                                    
%FORMAT(5E16.8)                                                                 
  8.50000000E-01  8.50000000E-01  7.20000000E-01  8.50000000E-01  8.50000000E-01
  7.20000000E-01  8.50000000E-01  8.50000000E-01  7.20000000E-01  8.50000000E-01
  7.90000000E-01  7.20000000E-01  8.50000000E-01  7.90000000E-01  7.20000000E-01
  7.20000000E-01  7.90000000E-01  8.50000000E-01  8.50000000E-01  7.90000000E-01
  7.20000000E-01  8.50000000E-01  7.90000000E-01  7.20000000E-01  7.20000000E-01
  8.50000000E-01  7.20000000E-01  8.50000000E-01  8.50000000E-01  8.50000000E-01
  8.50000000E-01  8.60000000E-01  8.50000000E-01  8.50000000E-01  8.50000000E-01
  7.20000000E-01  8.50000000E-01  8.50000000E-01  7.20000000E-01  8.50000000E-01
  8.50000000E-01  7.20000000E-01  8.50000000E-01  7.90000000E-01  7.20000000E-01
  8.50000000E-01  7.90000000E-01  7.20000000E-01  7.20000000E-01  8.50000000E-01
  7.90000000E-01  8.50000000E-01  7.20000000E-01  7.90000000E-01  8.50000000E-01
  8.50000000E-01  7.90000000E-01  7.20000000E-01  7.20000000E-01  8.50000000E-01
  7.20000000E-01  8.50000000E-01  8.50000000E-01  8.50000000E-01  8.50000000E-01
  8.60000000E-01  8.50000000E-01  8.50000000E-01  8.50000000E-01  7.20000000E-01
  8.50000000E-01  8.50000000E-01  7.20000000E-01  8.50000000E-01  8.50000000E-01
  7.20000000E-01  8.50000000E-01  7.90000000E-01  7.20000000E-01  8.50000000E-01
  7.20000000E-01  8.50000000E-01  7.20000000E-01  7.90000000E-01  8.50000000E-01
  8.50000000E-01  7.90000000E-01  7.20000000E-01  8.50000000E-01  7.20000000E-01
  8.50000000E-01  7.20000000E-01  8.50000000E-01  8.50000000E-01  8.50000000E-01
  8.50000000E-01  8.60000000E-01  8.50000000E-01  8.50000000E-01  8.50000000E-01
  7.20000000E-01  8.50000000E-01  8.50000000E-01  7.20000000E-01  8.50000000E-01
  8.50000000E-01  7.20000000E-01  8.50000000E-01  7.90000000E-01  7.20000000E-01
  8.50000000E-01  7.90000000E-01  7.20000000E-01  7.20000000E-01  8.50000000E-01
  7.90000000E-01  8.50000000E-01  7.20000000E-01  7.90000000E-01  8.50000000E-01
  8.50000000E-01  7.90000000E-01  7.20000000E-01  7.20000000E-01  8.50000000E-01
  7.20000000E-01  8.50000000E-01  8.50000000E-01  8.50000000E-01  8.50000000E-01
  8.60000000E-01  8.50000000E-01  8.50000000E-01  8.50000000E-01  7.20000000E-01
  8.50000000E-01  8.50000000E-01  7.20000000E-01  8.50000000E-01  8.50000000E-01
  7.20000000E-01  8.50000000E-01  7.90000000E-01  7.20000000E-01  8.50000000E-01
  7.20000000E-01  8.50000000E-01  7.20000000E-01  7.90000000E-01  8.50000000E-01
  8.50000000E-01  7.90000000E-01  7.20000000E-01  8.50000000E-01  7.20000000E-01
  8.50000000E-01  7.20000000E-01  8.50000000E-01  8.50000000E-01  8.50000000E-01
  8.50000000E-01  8.60000000E-01  8.50000000E-01  8.50000000E-01  8.50000000E-01
  7.20000000E-01  8.50000000E-01  8.50000000E-01  7.20000000E-01  8.50000000E-01
  8.50000000E-01  7.20000000E-01  8.50000000E-01  7.90000000E-01  7.20000000E-01
  8.50000000E-01  7.20000000E-01  8.50000000E-01  7.20000000E-01  8.50000000E-01
  7.90000000E-01  8.50000000E-01  7.20000000E-01  8.50000000E-01  7.20000000E-01
  8.50000000E-01  7.20000000E-01  8.50000000E-01  8.50000000E-01  8.50000000E-01
  8.50000000E-01  8.60000000E-01  8.50000000E-01  8.50000000E-01  8.50000000E-01
  7.20000000E-01  8.50000000E-01  8.50000000E-01  7.20000000E-01  8.50000000E-01
  8.50000000E-01  7.20000000E-01  8.50000000E-01  7.90000000E-01  7.20000000E-01
  8.50000000E-01  7.20000000E-01  8.50000000E-01  7.20000000E-01  8.50000000E-01
  7.90000000E-01  8.50000000E-01  7.20000000E-01  8.50000000E-01  7.20000000E-01
  8.50000000E-01  7.20000000E-01  8.50000000E-01  8.50000000E-01  8.50000000E-01
  8.50000000E-01  8.60000000E-01  8.50000000E-01  8.50000000E-01  8.50000000E-01
  7.20000000E-01  8.50000000E-01  8.50000000E-01  7.20000000E-01  8.50000000E-01
  8.50000000E-01  7.20000000E-01  8.50000000E-01  7.90000000E-01  7.20000000E-01
  8.50000000E-01  7.20000000E-01  8.50000000E-01  7.20000000E-01  8.50000000E-01
  7.90000000E-01  8.50000000E-01  7.20000000E-01  8.50000000E-01  7.20000000E-01
  8.50000000E-01  7.20000000E-01  8.50000000E-01  8.50000000E-01  8.50000000E-01
  8.50000000E-01  8.60000000E-01  8.50000000E-01  8.50000000E-01  8.50000000E-01
  7.20000000E-01  8.50000000E-01  8.50000000E-01  7.20000000E-01  8.50000000E-01
  8.50000000E-01  7.20000000E-01  8.50000000E-01  7.90000000E-01  7.20000000E-01
  8.50000000E-01  7.20000000E-01  8.50000000E-01  7.20000000E-01  7.90000000E-01
  8.50000000E-01  8.50000000E-01  7.90000000E-01  7.20000000E-01  8.50000000E-01
  7.20000000E-01  8.50000000E-01  7.20000000E-01  8.50000000E-01  8.50000000E-01
  8.50000000E-01  8.50000000E-01  8.60000000E-01  8.50000000E-01  8.50000000E-01
  8.50000000E-01  7.20000000E-01  8.50000000E-01  8.50000000E-01  7.20000000E-01
  8.50000000E-01  8.50000000E-01  7.20000000E-01  8.50000000E-01  7.90000000E-01
  7.20000000E-01  8.50000000E-01  7.90000000E-01  7.20000000E-01  7.20000000E-01
  8.50000000E-01  7.90000000E-01  8.50000000E-01  7.20000000E-01  7.90000000E-01
  8.50000000E-01  8.50000000E-01  7.90000000E-01  7.20000000E-01  7.20000000E-01
  8.50000000E-01  7.20000000E-01  8.50000000E-01  8.50000000E-01  8.50000000E-01
  8.50000000E-01  8.60000000E-01  8.50000000E-01  8.50000000E-01  8.50000000E-01
  7.20000000E-01  8.50000000E-01  8.50000000E-01  7.20000000E-01  8.50000000E-01
  8.50000000E-01  7.20000000E-01  8.50000000E-01  7.90000000E-01  7.20000000E-01
  8.50000000E-01  7.90000000E-01  7.20000000E-01  7.20000000E-01  7.90000000E-01
  8.50000000E-01  8.50000000E-01  7.90000000E-01  7.20000000E-01  8.50000000E-01
  7.90000000E-01  7.20000000E-01  7.20000000E-01  8.50000000E-01  7.20000000E-01
  8.50000000E-01  8.50000000E-01  8.50000000E-01  8.50000000E-01  8.60000000E-01
  8.50000000E-01  8.50000000E-01  8.50000000E-01  7.20000000E-01  8.50000000E-01
  8.50000000E-01  7.20000000E-01  8.50000000E-01  8.50000000E-01  7.20000000E-01
  8.50000000E-01  7.90000000E-01  7.20000000E-01  8.50000000E-01  7.90000000E-01
  7.20000000E-01  7.20000000E-01  8.50000000E-01  7.90000000E-01  8.50000000E-01
  7.20000000E-01  7.90000000E-01  8.50000000E-01  8.50000000E-01  7.90000000E-01
  7.20000000E-01  7.20000000E-01  8.50000000E-01  7.20000000E-01  8.50000000E-01
  8.50000000E-01  8.50000000E-01  8.50000000E-01  8.60000000E-01  8.50000000E-01
  8.50000000E-01  8.50000000E-01  7.20000000E-01  8.50000000E-01  8.50000000E-01
  7.20000000E-01  8.50000000E-01  8.50000000E-01  7.20000000E-01  8.50000000E-01
  7.90000000E-01  7.20000000E-01  8.50000000E-01  7.20000000E-01  8.50000000E-01
  7.20000000E-01  7.90000000E-01  8.50000000E-01  8.50000000E-01  7.90000000E-01
  7.20000000E-01  8.50000000E-01  7.20000000E-01  8.50000000E-01  7.20000000E-01
  8.50000000E-01  8.50000000E-01  8.50000000E-01  8.50000000E-01  8.60000000E-01
  8.50000000E-01  8.50000000E-01  8.50000000E-01  7.20000000E-01  8.50000000E-01
  8.50000000E-01  7.20000000E-01  8.50000000E-01  8.50000000E-01  7.20000000E-01
  8.50000000E-01  7.90000000E-01  7.20000000E-01  8.50000000E-01  7.90000000E-01
  7.20000000E-01  7.20000000E-01  8.50000000E-01  7.90000000E-01  8.50000000E-01
  7.20000000E-01  7.90000000E-01  8.50000000E-01  8.50000000E-01  7.90000000E-01
  7.20000000E-01  7.20000000E-01  8.50000000E-01  7.20000000E-01  8.50000000E-01
  8.50000000E-01  8.50000000E-01  8.50000000E-01  8.60000000E-01  8.50000000E-01
  8.50000000E-01  8.50000000E-01  7.20000000E-01  8.50000000E-01  8.50000000E-01
  7.20000000E-01  8.50000000E-01  8.50000000E-01  7.20000000E-01  8.50000000E-01
  7.90000000E-01  7.20000000E-01  8.50000000E-01  7.20000000E-01  8.50000000E-01
  7.20000000E-01  7.90000000E-01  8.50000000E-01  8.50000000E-01  7.90000000E-01
  7.20000000E-01  8.50000000E-01  7.20000000E-01  8.50000000E-01  7.20000000E-01
  8.50000000E-01  8.50000000E-01  8.50000000E-01  8.50000000E-01  8.60000000E-01
  8.50000000E-01  8.50000000E-01  8.50000000E-01  7.20000000E-01  8.50000000E-01
  8.50000000E-01  7.20000000E-01  8.50000000E-01  8.50000000E-01  7.20000000E-01
  8.50000000E-01  7.90000000E-01  7.20000000E-01  8.50000000E-01  7.20000000E-01
  8.50000000E-01  7.20000000E-01  8.50000000E-01  7.90000000E-01  8.50000000E-01
  7.20000000E-01  8.50000000E-01  7.20000000E-01  8.50000000E-01  7.20000000E-01
  8.50000000E-01  8.50000000E-01  8.50000000E-01  8.50000000E-01  8.50000000E-01
  8.00000000E-01  8.00000000E-01  8.00000000E-01  8.00000000E-01  8.00000000E-01
  8.00000000E-01  8.00000000E-01  8.00000000E-01  8.00000000E-01  8.00000000E-01
  8.00000000E-01  8.00000000E-01  8.00000000E-01  8.00000000E-01  8.00000000E-01
  8.00000000E-01  8.00000000E-01  8.00000000E-01  8.00000000E-01  8.00000000E-01
  8.50000000E-01  8.50000000E-01  8.50000000E-01  8.00000000E-01  8.50000000E-01
  8.50000000E-01  8.50000000E-01  8.00000000E-01  8.50000000E-01  8.50000000E-01
  8.50000000E-01  8.00000000E-01  8.50000000E-01  8.50000000E-01  8.50000000E-01
  8.00000000E-01  8.50000000E-01  8.50000000E-01  8.50000000E-01  8.00000000E-01
  8.50000000E-01  8.50000000E-01  8.50000000E-01  8.00000000E-01  8.50000000E-01
  8.50000000E-01  8.50000000E-01  8.00000000E-01  8.50000000E-01  8.50000000E-01
  8.50000000E-01  8.00000000E-01  8.50000000E-01  8.50000000E-01  8.50000000E-01
  8.00000000E-01  8.50000000E-01  8.50000000E-01  8.50000000E-01  8.00000000E-01
  8.50000000E-01  8.50000000E-01  8.50000000E-01  8.00000000E-01  8.50000000E-01
  8.50000000E-01  8.50000000E-01  8.00000000E-01  8.50000000E-01  8.50000000E-01
  8.50000000E-01  8.00000000E-01  8.50000000E-01  8.50000000E-01  8.50000000E-01
  8.00000000E-01  8.50000000E-01  8.50000000E-01  8.50000000E-01  8.00000000E-01
  8.50000000E-01  8.50000000E-01  8.50000000E-01  8.00000000E-01  8.50000000E-01
  8.50000000E-01  8.50000000E-01  8.00000000E-01  8.50000000E-01  8.50000000E-01
  8.50000000E-01  8.00000000E-01  8.50000000E-01  8.50000000E-01  8.50000000E-01
  8.00000000E-01  8.50000000E-01  8.50000000E-01  8.50000000E-01  8.00000000E-01
  8.50000000E-01  8.50000000E-01  8.50000000E-01  8.00000000E-01  8.50000000E-01
  8.50000000E-01  8.50000000E-01  8.00000000E-01  8.50000000E-01  8.50000000E-01
  8.50000000E-01  8.00000000E-01  8.50000000E-01  8.50000000E-01  8.50000000E-01
  8.00000000E-01  8.50000000E-01  8.50000000E-01  8.50000000E-01  8.00000000E-01
  8.50000000E-01  8.50000000E-01  8.50000000E-01  8.00000000E-01  8.50000000E-01
  8.50000000E-01  8.50000000E-01  8.00000000E-01  8.50000000E-01  8.50000000E-01
  8.50000000E-01  8.00000000E-01  8.50000000E-01  8.50000000E-01  8.50000000E-01
  8.00000000E-01  8.50000000E-01  8.50000000E-01  8.50000000E-01  8.00000000E-01
  8.50000000E-01  8.50000000E-01  8.50000000E-01  8.00000000E-01  8.50000000E-01
  8.50000000E-01  8.50000000E-01  8.00000000E-01  8.50000000E-01  8.50000000E-01
  8.50000000E-01  8.00000000E-01  8.50000000E-01  8.50000000E-01  8.50000000E-01
  8.00000000E-01  8.50000000E-01  8.50000000E-01  8.50000000E-01  8.00000000E-01
  8.50000000E-01  8.50000000E-01  8.50000000E-01  8.00000000E-01  8.50000000E-01
  8.50000000E-01  8.50000000E-01  8.00000000E-01  8.50000000E-01  8.50000000E-01
  8.50000000E-01  8.00000000E-01  8.50000000E-01  8.50000000E-01  8.50000000E-01
  8.00000000E-01  8.50000000E-01  8.50000000E-01  8.50000000E-01  8.00000000E-01
  8.50000000E-01  8.50000000E-01  8.50000000E-01  8.00000000E-01  8.50000000E-01
  8.50000000E-01  8.50000000E-01  8.00000000E-01  8.50000000E-01  8.50000000E-01
  8.50000000E-01  8.00000000E-01  8.50000000E-01  8.50000000E-01  8.50000000E-01
  8.00000000E-01  8.50000000E-01  8.50000000E-01  8.50000000E-01  8.00000000E-01
  8.50000000E-01  8.50000000E-01  8.50000000E-01  8.00000000E-01  8.50000000E-01
  8.50000000E-01  8.50000000E-01  8.00000000E-01  8.50000000E-01  8.50000000E-01
  8.50000000E-01  8.00000000E-01  8.50000000E-01  8.50000000E-01  8.50000000E-01
  8.00000000E-01  8.50000000E-01  8.50000000E-01  8.50000000E-01  8.00000000E-01
  8.50000000E-01  8.50000000E-01  8.50000000E-01  8.00000000E-01  8.50000000E-01
  8.50000000E-01  8.50000000E-01  8.00000000E-01  8.50000000E-01  8.50000000E-01
  8.50000000E-01  8.00000000E-01  8.50000000E-01  8.50000000E-01  8.50000000E-01
  8.00000000E-01  8.50000000E-01  8.50000000E-01  8.50000000E-01  8.00000000E-01
  8.50000000E-01  8.50000000E-01  8.50000000E-01  8.00000000E-01  8.50000000E-01
  8.50000000E-01  8.50000000E-01  8.00000000E-01  8.50000000E-01  8.50000000E-01
  8.50000000E-01  8.00000000E-01  8.50000000E-01  8.50000000E-01  8.50000000E-01
  8.00000000E-01  8.50000000E-01  8.50000000E-01  8.50000000E-01  8.00000000E-01
  8.50000000E-01  8.50000000E-01  8.50000000E-01  8.00000000E-01  8.50000000E-01
  8.50000000E-01  8.50000000E-01  8.00000000E-01  8.50000000E-01  8.50000000E-01
  8.50000000E-01  8.00000000E-01  8.50000000E-01  8.50000000E-01  8.50000000E-01
  8.00000000E-01  8.50000000E-01  8.50000000E-01  8.50000000E-01  8.00000000E-01
  8.50000000E-01  8.50000000E-01  8.50000000E-01  8.00000000E-01  8.50000000E-01
  8.50000000E-01  8.50000000E-01  8.00000000E-01  8.50000000E-01  8.50000000E-01
  8.50000000E-01  8.00000000E-01  8.50000000E-01  8.50000000E-01  8.50000000E-01
  8.00000000E-01  8.50000000E-01  8.50000000E-01  8.50000000E-01  8.00000000E-01
  8.50000000E-01  8.50000000E-01  8.50000000E-01  8.00000000E-01  8.50000000E-01
  8.50000000E-01  8.50000000E-01  8.00000000E-01  8.50000000E-01  8.50000000E-01
  8.50000000E-01  8.00000000E-01  8.50000000E-01  8.50000000E-01  8.50000000E-01
  8.00000000E-01  8.50000000E-01  8.50000000E-01  8.50000000E-01  8.00000000E-01
  8.50000000E-01  8.50000000E-01  8.50000000E-01  8.00000000E-01  8.50000000E-01
  8.50000000E-01  8.50000000E-01  8.00000000E-01  8.50000000E-01  8.50000000E-01
  8.50000000E-01  8.00000000E-01  8.50000000E-01  8.50000000E-01  8.50000000E-01
  8.00000000E-01  8.50000000E-01  8.50000000E-01  8.50000000E-01  8.00000000E-01
  8.50000000E-01  8.50000000E-01  8.50000000E-01  8.00000000E-01  8.50000000E-01
  8.50000000E-01  8.50000000E-01  8.00000000E-01  8.50000000E-01  8.50000000E-01
  8.50000000E-01  8.00000000E-01  8.50000000E-01  8.50000000E-01  8.50000000E-01
  8.00000000E-01  8.50000000E-01  8.50000000E-01  8.50000000E-01  8.00000000E-01
  8.50000000E-01  8.50000000E-01  8.50000000E-01  8.00000000E-01  8.50000000E-01
  8.50000000E-01  8.50000000E-01  8.00000000E-01  8.50000000E-01  8.50000000E-01
  8.50000000E-01  8.00000000E-01  8.50000000E-01  8.50000000E-01  8.50000000E-01
  8.00000000E-01  8.50000000E-01  8.50000000E-01  8.50000000E-01  8.00000000E-01
  8.50000000E-01  8.50000000E-01  8.50000000E-01  8.00000000E-01  8.50000000E-01
  8.50000000E-01  8.50000000E-01  8.00000000E-01  8.50000000E-01  8.50000000E-01
  8.50000000E-01  8.00000000E-01  8.50000000E-01  8.50000000E-01  8.50000000E-01
  8.00000000E-01  8.50000000E-01  8.50000000E-01  8.50000000E-01  8.00000000E-01
  8.50000000E-01  8.50000000E-01  8.50000000E-01  8.00000000E-01  8.50000000E-01
  8.50000000E-01  8.50000000E-01  8.00000000E-01  8.50000000E-01  8.50000000E-01
  8.50000000E-01  8.00000000E-01  8.50000000E-01  8.50000000E-01  8.50000000E-01
  8.00000000E-01  8.50000000E-01  8.50000000E-01  8.50000000E-01  8.00000000E-01
  8.50000000E-01  8.50000000E-01  8.50000000E-01  8.00000000E-01  8.50000000E-01
  8.50000000E-01  8.50000000E-01  8.00000000E-01  8.50000000E-01  8.50000000E-01
  8.50000000E-01  8.00000000E-01  8.50000000E-01  8.50000000E-01  8.50000000E-01
  8.00000000E-01  8.50000000E-01  8.50000000E-01  8.50000000E-01  8.00000000E-01
  8.50000000E-01  8.50000000E-01  8.50000000E-01  8.00000000E-01  8.50000000E-01
  8.50000000E-01  8.50000000E-01  8.00000000E-01  8.50000000E-01  8.50000000E-01
  8.50000000E-01  8.00000000E-01  8.50000000E-01  8.50000000E-01  8.50000000E-01
  8.00000000E-01  8.50000000E-01  8.50000000E-01  8.50000000E-01  8.00000000E-01
  8.50000000E-01  8.50000000E-01  8.50000000E-01  8.00000000E-01  8.50000000E-01
  8.50000000E-01  8.50000000E-01  8.00000000E-01  8.50000000E-01  8.50000000E-01
  8.50000000E-01  8.00000000E-01  8.50000000E-01  8.50000000E-01  8.50000000E-01
  8.00000000E-01  8.50000000E-01  8.50000000E-01  8.50000000E-01  8.00000000E-01
  8.50000000E-01  8.50000000E-01  8.50000000E-01  8.00000000E-01  8.50000000E-01
  8.50000000E-01  8.50000000E-01  8.00000000E-01  8.50000000E-01  8.50000000E-01
  8.50000000E-01  8.00000000E-01  8.50000000E-01  8.50000000E-01  8.50000000E-01
  8.00000000E-01  8.50000000E-01  8.50000000E-01  8.50000000E-01  8.00000000E-01
  8.50000000E-01  8.50000000E-01  8.50000000E-01  8.00000000E-01  8.50000000E-01
  8.50000000E-01  8.50000000E-01  8.00000000E-01  8.50000000E-01  8.50000000E-01
  8.50000000E-01  8.00000000E-01  8.50000000E-01  8.50000000E-01  8.50000000E-01
  8.00000000E-01  8.50000000E-01  8.50000000E-01  8.50000000E-01  8.00000000E-01
  8.50000000E-01  8.50000000E-01  8.50000000E-01  8.00000000E-01  8.50000000E-01
  8.50000000E-01  8.50000000E-01  8.00000000E-01  8.50000000E-01  8.50000000E-01
  8.50000000E-01  8.00000000E-01  8.50000000E-01  8.50000000E-01  8.50000000E-01
  8.00000000E-01  8.50000000E-01  8.50000000E-01  8.50000000E-01  8.00000000E-01
  8.50000000E-01  8.50000000E-01  8.50000000E-01  8.00000000E-01  8.50000000E-01
  8.50000000E-01  8.50000000E-01  8.00000000E-01  8.50000000E-01  8.50000000E-01
  8.50000000E-01  8.00000000E-01  8.50000000E-01  8.50000000E-01  8.50000000E-01
  8.00000000E-01  8.50000000E-01  8.50000000E-01  8.50000000E-01  8.00000000E-01
  8.50000000E-01  8.50000000E-01  8.50000000E-01  8.00000000E-01  8.50000000E-01
  8.50000000E-01  8.50000000E-01  8.00000000E-01  8.50000000E-01  8.50000000E-01
  8.50000000E-01  8.00000000E-01  8.50000000E-01  8.50000000E-01  8.50000000E-01
  8.00000000E-01  8.50000000E-01  8.50000000E-01  8.50000000E-01  8.00000000E-01
  8.50000000E-01  8.50000000E-01  8.50000000E-01  8.00000000E-01  8.50000000E-01
  8.50000000E-01  8.50000000E-01  8.00000000E-01  8.50000000E-01  8.50000000E-01
  8.50000000E-01  8.00000000E-01  8.50000000E-01  8.50000000E-01  8.50000000E-01
  8.00000000E-01  8.50000000E-01  8.50000000E-01  8.50000000E-01  8.00000000E-01
  8.50000000E-01  8.50000000E-01  8.50000000E-01  8.00000000E-01  8.50000000E-01
  8.50000000E-01  8.50000000E-01  8.00000000E-01  8.50000000E-01  8.50000000E-01
  8.50000000E-01  8.00000000E-01  8.50000000E-01  8.50000000E-01  8.50000000E-01
  8.00000000E-01  8.50000000E-01  8.50000000E-01  8.50000000E-01  8.00000000E-01
  8.50000000E-01  8.50000000E-01  8.50000000E-01  8.00000000E-01  8.50000000E-01
  8.50000000E-01  8.50000000E-01  8.00000000E-01  8.50000000E-01  8.50000000E-01
  8.50000000E-01  8.00000000E-01  8.50000000E-01  8.50000000E-01  8.50000000E-01
  8.00000000E-01  8.50000000E-01  8.50000000E-01  8.50000000E-01  8.00000000E-01
  8.50000000E-01  8.50000000E-01  8.50000000E-01  8.00000000E-01  8.50000000E-01
  8.50000000E-01  8.50000000E-01  8.00000000E-01  8.50000000E-01  8.50000000E-01
  8.50000000E-01  8.00000000E-01  8.50000000E-01  8.50000000E-01  8.50000000E-01
  8.00000000E-01  8.50000000E-01  8.50000000E-01  8.50000000E-01  8.00000000E-01
  8.50000000E-01  8.50000000E-01  8.50000000E-01  8.00000000E-01  8.50000000E-01
  8.50000000E-01  8.50000000E-01  8.00000000E-01  8.50000000E-01  8.50000000E-01
  8.50000000E-01  8.00000000E-01  8.50000000E-01  8.50000000E-01  8.50000000E-01
  8.00000000E-01  8.50000000E-01  8.50000000E-01  8.50000000E-01  8.00000000E-01
  8.50000000E-01  8.50000000E-01  8.50000000E-01  8.00000000E-01  8.50000000E-01
  8.50000000E-01  8.50000000E-01  8.00000000E-01  8.50000000E-01  8.50000000E-01
  8.50000000E-01  8.00000000E-01  8.50000000E-01  8.50000000E-01  8.50000000E-01
  8.00000000E-01  8.50000000E-01  8.50000000E-01  8.50000000E-01  8.00000000E-01
  8.50000000E-01  8.50000000E-01  8.50000000E-01  8.00000000E-01  8.50000000E-01
  8.50000000E-01  8.50000000E-01  8.00000000E-01  8.50000000E-01  8.50000000E-01
  8.50000000E-01  8.00000000E-01  8.50000000E-01  8.50000000E-01  8.50000000E-01
  8.00000000E-01  8.50000000E-01  8.50000000E-01  8.50000000E-01  8.00000000E-01
  8.50000000E-01  8.50000000E-01  8.50000000E-01  8.00000000E-01  8.50000000E-01
  8.50000000E-01  8.50000000E-01  8.00000000E-01  8.50000000E-01  8.50000000E-01
  8.50000000E-01  8.00000000E-01  8.50000000E-01  8.50000000E-01  8.50000000E-01
  8.00000000E-01  8.50000000E-01  8.50000000E-01  8.50000000E-01  8.00000000E-01
  8.50000000E-01  8.50000000E-01  8.50000000E-01  8.00000000E-01  8.50000000E-01
  8.50000000E-01  8.50000000E-01  8.00000000E-01  8.50000000E-01  8.50000000E-01
  8.50000000E-01  8.00000000E-01  8.50000000E-01  8.50000000E-01  8.50000000E-01
  8.00000000E-01  8.50000000E-01  8.50000000E-01  8.50000000E-01  8.00000000E-01
  8.50000000E-01  8.50000000E-01  8.50000000E-01  8.00000000E-01  8.50000000E-01
  8.50000000E-01  8.50000000E-01  8.00000000E-01  8.50000000E-01  8.50000000E-01
  8.50000000E-01  8.00000000E-01  8.50000000E-01  8.50000000E-01  8.50000000E-01
  8.00000000E-01  8.50000000E-01  8.50000000E-01  8.50000000E-01  8.00000000E-01
  8.50000000E-01  8.50000000E-01  8.50000000E-01  8.00000000E-01  8.50000000E-01
  8.50000000E-01  8.50000000E-01  8.00000000E-01  8.50000000E-01  8.50000000E-01
  8.50000000E-01  8.00000000E-01  8.50000000E-01  8.50000000E-01  8.50000000E-01
  8.00000000E-01  8.50000000E-01  8.50000000E-01  8.50000000E-01  8.00000000E-01
  8.50000000E-01  8.50000000E-01  8.50000000E-01  8.00000000E-01  8.50000000E-01
  8.50000000E-01  8.50000000E-01  8.00000000E-01  8.50000000E-01  8.50000000E-01
  8.50000000E-01  8.00000000E-01  8.50000000E-01  8.50000000E-01  8.50000000E-01
  8.00000000E-01  8.50000000E-01  8.50000000E-01  8.50000000E-01  8.00000000E-01
  8.50000000E-01  8.50000000E-01  8.50000000E-01  8.00000000E-01  8.50000000E-01
  8.50000000E-01  8.50000000E-01  8.00000000E-01  8.50000000E-01  8.50000000E-01
  8.50000000E-01  8.00000000E-01  8.50000000E-01  8.50000000E-01  8.50000000E-01
  8.00000000E-01  8.50000000E-01  8.50000000E-01  8.50000000E-01  8.00000000E-01
  8.50000000E-01  8.50000000E-01  8.50000000E-01  8.00000000E-01  8.50000000E-01
  8.50000000E-01  8.50000000E-01  8.00000000E-01  8.50000000E-01  8.50000000E-01
  8.50000000E-01  8.00000000E-01  8.50000000E-01  8.50000000E-01  8.50000000E-01
  8.00000000E-01  8.50000000E-01  8.50000000E-01  8.50000000E-01  8.00000000E-01
  8.50000000E-01  8.50000000E-01  8.50000000E-01  8.00000000E-01  8.50000000E-01
  8.50000000E-01  8.50000000E-01  8.00000000E-01  8.50000000E-01  8.50000000E-01
  8.50000000E-01  8.00000000E-01  8.50000000E-01  8.50000000E-01  8.50000000E-01
  8.00000000E-01  8.50000000E-01  8.50000000E-01  8.50000000E-01  8.00000000E-01
  8.50000000E-01  8.50000000E-01  8.50000000E-01  8.00000000E-01  8.50000000E-01
  8.50000000E-01  8.50000000E-01  8.00000000E-01  8.50000000E-01  8.50000000E-01
  8.50000000E-01  8.00000000E-01  8.50000000E-01  8.50000000E-01  8.50000000E-01
  8.00000000E-01  8.50000000E-01  8.50000000E-01  8.50000000E-01  8.00000000E-01
  8.50000000E-01  8.50000000E-01  8.50000000E-01  8.00000000E-01  8.50000000E-01
  8.50000000E-01  8.50000000E-01  8.00000000E-01  8.50000000E-01  8.50000000E-01
  8.50000000E-01  8.00000000E-01  8.50000000E-01  8.50000000E-01  8.50000000E-01
  8.00000000E-01  8.50000000E-01  8.50000000E-01  8.50000000E-01  8.00000000E-01
  8.50000000E-01  8.50000000E-01  8.50000000E-01  8.00000000E-01  8.50000000E-01
  8.50000000E-01  8.50000000E-01  8.00000000E-01  8.50000000E-01  8.50000000E-01
  8.50000000E-01  8.00000000E-01  8.50000000E-01  8.50000000E-01  8.50000000E-01
  8.00000000E-01  8.50000000E-01  8.50000000E-01  8.50000000E-01  8.00000000E-01
  8.50000000E-01  8.50000000E-01  8.50000000E-01  8.00000000E-01  8.50000000E-01
  8.50000000E-01  8.50000000E-01  8.00000000E-01  8.50000000E-01  8.50000000E-01
  8.50000000E-01  8.00000000E-01  8.50000000E-01  8.50000000E-01  8.50000000E-01
  8.00000000E-01  8.50000000E-01  8.50000000E-01  8.50000000E-01  8.00000000E-01
  8.50000000E-01  8.50000000E-01  8.50000000E-01  8.00000000E-01  8.50000000E-01
  8.50000000E-01  8.50000000E-01  8.00000000E-01  8.50000000E-01  8.50000000E-01
  8.50000000E-01  8.00000000E-01  8.50000000E-01  8.50000000E-01  8.50000000E-01
  8.00000000E-01  8.50000000E-01  8.50000000E-01  8.50000000E-01  8.00000000E-01
  8.50000000E-01  8.50000000E-01  8.50000000E-01  8.00000000E-01  8.50000000E-01
  8.50000000E-01  8.50000000E-01  8.00000000E-01  8.50000000E-01  8.50000000E-01
  8.50000000E-01  8.00000000E-01  8.50000000E-01  8.50000000E-01  8.50000000E-01
  8.00000000E-01  8.50000000E-01  8.50000000E-01  8.50000000E-01  8.00000000E-01
  8.50000000E-01  8.50000000E-01  8.50000000E-01  8.00000000E-01  8.50000000E-01
  8.50000000E-01  8.50000000E-01  8.00000000E-01  8.50000000E-01  8.50000000E-01
  8.50000000E-01  8.00000000E-01  8.50000000E-01  8.50000000E-01  8.50000000E-01
  8.00000000E-01  8.50000000E-01  8.50000000E-01  8.50000000E-01  8.00000000E-01
  8.50000000E-01  8.50000000E-01  8.50000000E-01  8.00000000E-01  8.50000000E-01
  8.50000000E-01  8.50000000E-01  8.00000000E-01  8.50000000E-01  8.50000000E-01
  8.50000000E-01  8.00000000E-01  8.50000000E-01  8.50000000E-01  8.50000000E-01
  8.00000000E-01  8.50000000E-01  8.50000000E-01  8.50000000E-01  8.00000000E-01
  8.50000000E-01  8.50000000E-01  8.50000000E-01  8.00000000E-01  8.50000000E-01
  8.50000000E-01  8.50000000E-01  8.00000000E-01  8.50000000E-01  8.50000000E-01
  8.50000000E-01  8.00000000E-01  8.50000000E-01  8.50000000E-01  8.50000000E-01
  8.00000000E-01  8.50000000E-01  8.50000000E-01  8.50000000E-01  8.00000000E-01
  8.50000000E-01  8.50000000E-01  8.50000000E-01  8.00000000E-01  8.50000000E-01
  8.50000000E-01  8.50000000E-01  8.00000000E-01  8.50000000E-01  8.50000000E-01
  8.50000000E-01  8.00000000E-01  8.50000000E-01  8.50000000E-01  8.50000000E-01
  8.00000000E-01  8.50000000E-01  8.50000000E-01  8.50000000E-01  8.00000000E-01
  8.50000000E-01  8.50000000E-01  8.50000000E-01  8.00000000E-01  8.50000000E-01
  8.50000000E-01  8.50000000E-01  8.00000000E-01  8.50000000E-01  8.50000000E-01
  8.50000000E-01  8.00000000E-01  8.50000000E-01  8.50000000E-01  8.50000000E-01
  8.00000000E-01  8.50000000E-01  8.50000000E-01  8.50000000E-01  8.00000000E-01
  8.50000000E-01  8.50000000E-01  8.50000000E-01  8.00000000E-01  8.50000000E-01
  8.50000000E-01  8.50000000E-01  8.00000000E-01  8.50000000E-01  8.50000000E-01
  8.50000000E-01  8.00000000E-01  8.50000000E-01  8.50000000E-01  8.50000000E-01
  8.00000000E-01  8.50000000E-01  8.50000000E-01  8.50000000E-01  8.00000000E-01
  8.50000000E-01  8.50000000E-01  8.50000000E-01  8.00000000E-01  8.50000000E-01
  8.50000000E-01  8.50000000E-01  8.00000000E-01  8.50000000E-01  8.50000000E-01
  8.50000000E-01  8.00000000E-01  8.50000000E-01  8.50000000E-01  8.50000000E-01
  8.00000000E-01  8.50000000E-01  8.50000000E-01  8.50000000E-01  8.00000000E-01
  8.50000000E-01  8.50000000E-01  8.50000000E-01  8.00000000E-01  8.50000000E-01
  8.50000000E-01  8.50000000E-01  8.00000000E-01  8.50000000E-01  8.50000000E-01
  8.50000000E-01  8.00000000E-01  8.50000000E-01  8.50000000E-01  8.50000000E-01
  8.00000000E-01  8.50000000E-01  8.50000000E-01  8.50000000E-01  8.00000000E-01
  8.50000000E-01  8.50000000E-01  8.50000000E-01  8.00000000E-01  8.50000000E-01
  8.50000000E-01  8.50000000E-01  8.00000000E-01  8.50000000E-01  8.50000000E-01
  8.50000000E-01  8.00000000E-01  8.50000000E-01  8.50000000E-01  8.50000000E-01
  8.00000000E-01  8.50000000E-01  8.50000000E-01  8.50000000E-01  8.00000000E-01
  8.50000000E-01  8.50000000E-01  8.50000000E-01  8.00000000E-01  8.50000000E-01
  8.50000000E-01  8.50000000E-01  8.00000000E-01  8.50000000E-01  8.50000000E-01
  8.50000000E-01  8.00000000E-01  8.50000000E-01  8.50000000E-01  8.50000000E-01
  8.00000000E-01  8.50000000E-01  8.50000000E-01  8.50000000E-01  8.00000000E-01
  8.50000000E-01  8.50000000E-01  8.50000000E-01  8.00000000E-01  8.50000000E-01
  8.50000000E-01  8.50000000E-01  8.00000000E-01  8.50000000E-01  8.50000000E-01
  8.50000000E-01  8.00000000E-01  8.50000000E-01  8.50000000E-01  8.50000000E-01
  8.00000000E-01  8.50000000E-01  8.50000000E-01  8.50000000E-01  8.00000000E-01
  8.50000000E-01  8.50000000E-01  8.50000000E-01  8.00000000E-01  8.50000000E-01
  8.50000000E-01  8.50000000E-01  8.00000000E-01  8.50000000E-01  8.50000000E-01
  8.50000000E-01  8.00000000E-01  8.50000000E-01  8.50000000E-01  8.50000000E-01
  8.00000000E-01  8.50000000E-01  8.50000000E-01  8.50000000E-01  8.00000000E-01
  8.50000000E-01  8.50000000E-01  8.50000000E-01  8.00000000E-01  8.50000000E-01
  8.50000000E-01  8.50000000E-01  8.00000000E-01  8.50000000E-01  8.50000000E-01
  8.50000000E-01  8.00000000E-01  8.50000000E-01  8.50000000E-01  8.50000000E-01
  8.00000000E-01  8.50000000E-01  8.50000000E-01  8.50000000E-01  8.00000000E-01
  8.50000000E-01  8.50000000E-01  8.50000000E-01  8.00000000E-01  8.50000000E-01
  8.50000000E-01  8.50000000E-01  8.00000000E-01  8.50000000E-01  8.50000000E-01
  8.50000000E-01  8.00000000E-01  8.50000000E-01  8.50000000E-01  8.50000000E-01
  8.00000000E-01  8.50000000E-01  8.50000000E-01  8.50000000E-01  8.00000000E-01
  8.50000000E-01  8.50000000E-01  8.50000000E-01  8.00000000E-01  8.50000000E-01
  8.50000000E-01  8.50000000E-01  8.00000000E-01  8.50000000E-01  8.50000000E-01
  8.50000000E-01  8.00000000E-01  8.50000000E-01  8.50000000E-01  8.50000000E-01
  8.00000000E-01  8.50000000E-01  8.50000000E-01  8.50000000E-01  8.00000000E-01
  8.50000000E-01  8.50000000E-01  8.50000000E-01  8.00000000E-01  8.50000000E-01
  8.50000000E-01  8.50000000E-01  8.00000000E-01  8.50000000E-01  8.50000000E-01
  8.50000000E-01  8.00000000E-01  8.50000000E-01  8.50000000E-01  8.50000000E-01
  8.00000000E-01  8.50000000E-01  8.50000000E-01  8.50000000E-01  8.00000000E-01
  8.50000000E-01  8.50000000E-01  8.50000000E-01  8.00000000E-01  8.50000000E-01
  8.50000000E-01  8.50000000E-01  8.00000000E-01  8.50000000E-01  8.50000000E-01
  8.50000000E-01  8.00000000E-01  8.50000000E-01  8.50000000E-01  8.50000000E-01
  8.00000000E-01  8.50000000E-01  8.50000000E-01  8.50000000E-01  8.00000000E-01
  8.50000000E-01  8.50000000E-01  8.50000000E-01  8.00000000E-01  8.50000000E-01
  8.50000000E-01  8.50000000E-01  8.00000000E-01  8.50000000E-01  8.50000000E-01
  8.50000000E-01  8.00000000E-01  8.50000000E-01  8.50000000E-01  8.50000000E-01
  8.00000000E-01  8.50000000E-01  8.50000000E-01  8.50000000E-01  8.00000000E-01
  8.50000000E-01  8.50000000E-01  8.50000000E-01  8.00000000E-01  8.50000000E-01
  8.50000000E-01  8.50000000E-01  8.00000000E-01  8.50000000E-01  8.50000000E-01
  8.50000000E-01  8.00000000E-01  8.50000000E-01  8.50000000E-01  8.50000000E-01
  8.00000000E-01  8.50000000E-01  8.50000000E-01  8.50000000E-01  8.00000000E-01
  8.50000000E-01  8.50000000E-01  8.50000000E-01  8.00000000E-01  8.50000000E-01
  8.50000000E-01  8.50000000E-01  8.00000000E-01  8.50000000E-01  8.50000000E-01
  8.50000000E-01  8.00000000E-01  8.50000000E-01  8.50000000E-01  8.50000000E-01
  8.00000000E-01  8.50000000E-01  8.50000000E-01  8.50000000E-01  8.00000000E-01
  8.50000000E-01  8.50000000E-01  8.50000000E-01  8.00000000E-01  8.50000000E-01
  8.50000000E-01  8.50000000E-01  8.00000000E-01  8.50000000E-01  8.50000000E-01
  8.50000000E-01  8.00000000E-01  8.50000000E-01  8.50000000E-01  8.50000000E-01
  8.00000000E-01  8.50000000E-01  8.50000000E-01  8.50000000E-01  8.00000000E-01
  8.50000000E-01  8.50000000E-01  8.50000000E-01  8.00000000E-01  8.50000000E-01
  8.50000000E-01  8.50000000E-01  8.00000000E-01  8.50000000E-01  8.50000000E-01
  8.50000000E-01  8.00000000E-01  8.50000000E-01  8.50000000E-01  8.50000000E-01
  8.00000000E-01  8.50000000E-01  8.50000000E-01  8.50000000E-01  8.00000000E-01
  8.50000000E-01  8.50000000E-01  8.50000000E-01  8.00000000E-01  8.50000000E-01
  8.50000000E-01  8.50000000E-01  8.00000000E-01  8.50000000E-01  8.50000000E-01
  8.50000000E-01  8.00000000E-01  8.50000000E-01  8.50000000E-01  8.50000000E-01
  8.00000000E-01  8.50000000E-01  8.50000000E-01  8.50000000E-01  8.00000000E-01
  8.50000000E-01  8.50000000E-01  8.50000000E-01  8.00000000E-01  8.50000000E-01
  8.50000000E-01  8.50000000E-01  8.00000000E-01  8.50000000E-01  8.50000000E-01
  8.50000000E-01  8.00000000E-01  8.50000000E-01  8.50000000E-01  8.50000000E-01
  8.00000000E-01  8.50000000E-01  8.50000000E-01  8.50000000E-01  8.00000000E-01
  8.50000000E-01  8.50000000E-01  8.50000000E-01  8.00000000E-01  8.50000000E-01
  8.50000000E-01  8.50000000E-01  8.00000000E-01  8.50000000E-01  8.50000000E-01
  8.50000000E-01  8.00000000E-01  8.50000000E-01  8.50000000E-01  8.50000000E-01
  8.00000000E-01  8.50000000E-01  8.50000000E-01  8.50000000E-01  8.00000000E-01
  8.50000000E-01  8.50000000E-01  8.50000000E-01  8.00000000E-01  8.50000000E-01
  8.50000000E-01  8.50000000E-01  8.00000000E-01  8.50000000E-01  8.50000000E-01
  8.50000000E-01  8.00000000E-01  8.50000000E-01  8.50000000E-01  8.50000000E-01
  8.00000000E-01  8.50000000E-01  8.50000000E-01  8.50000000E-01  8.00000000E-01
  8.50000000E-01  8.50000000E-01  8.50000000E-01  8.00000000E-01  8.50000000E-01
  8.50000000E-01  8.50000000E-01  8.00000000E-01  8.50000000E-01  8.50000000E-01
  8.50000000E-01  8.00000000E-01  8.50000000E-01  8.50000000E-01  8.50000000E-01
  8.00000000E-01  8.50000000E-01  8.50000000E-01  8.50000000E-01  8.00000000E-01
  8.50000000E-01  8.50000000E-01  8.50000000E-01  8.00000000E-01  8.50000000E-01
  8.50000000E-01  8.50000000E-01  8.00000000E-01  8.50000000E-01  8.50000000E-01
  8.50000000E-01  8.00000000E-01  8.50000000E-01  8.50000000E-01  8.50000000E-01
  8.00000000E-01  8.50000000E-01  8.50000000E-01  8.50000000E-01  8.00000000E-01
  8.50000000E-01  8.50000000E-01  8.50000000E-01  8.00000000E-01  8.50000000E-01
  8.50000000E-01  8.50000000E-01  8.00000000E-01  8.50000000E-01  8.50000000E-01
  8.50000000E-01  8.00000000E-01  8.50000000E-01  8.50000000E-01  8.50000000E-01
  8.00000000E-01  8.50000000E-01  8.50000000E-01  8.50000000E-01  8.00000000E-01
  8.50000000E-01  8.50000000E-01  8.50000000E-01  8.00000000E-01  8.50000000E-01
  8.50000000E-01  8.50000000E-01  8.00000000E-01  8.50000000E-01  8.50000000E-01
  8.50000000E-01  8.00000000E-01  8.50000000E-01  8.50000000E-01  8.50000000E-01
  8.00000000E-01  8.50000000E-01  8.50000000E-01  8.50000000E-01  8.00000000E-01
  8.50000000E-01  8.50000000E-01  8.50000000E-01  8.00000000E-01  8.50000000E-01
  8.50000000E-01  8.50000000E-01  8.00000000E-01  8.50000000E-01  8.50000000E-01
  8.50000000E-01  8.00000000E-01  8.50000000E-01  8.50000000E-01  8.50000000E-01
  8.00000000E-01  8.50000000E-01  8.50000000E-01  8.50000000E-01  8.00000000E-01
  8.50000000E-01  8.50000000E-01  8.50000000E-01  8.00000000E-01  8.50000000E-01
  8.50000000E-01  8.50000000E-01  8.00000000E-01  8.50000000E-01  8.50000000E-01
  8.50000000E-01  8.00000000E-01  8.50000000E-01  8.50000000E-01  8.50000000E-01
  8.00000000E-01  8.50000000E-01  8.50000000E-01  8.50000000E-01  8.00000000E-01
  8.50000000E-01  8.50000000E-01  8.50000000E-01  8.00000000E-01  8.50000000E-01
  8.50000000E-01  8.50000000E-01  8.00000000E-01  8.50000000E-01  8.50000000E-01
  8.50000000E-01  8.00000000E-01  8.50000000E-01  8.50000000E-01  8.50000000E-01
  8.00000000E-01  8.50000000E-01  8.50000000E-01  8.50000000E-01  8.00000000E-01
  8.50000000E-01  8.50000000E-01  8.50000000E-01  8.00000000E-01  8.50000000E-01
  8.50000000E-01  8.50000000E-01  8.00000000E-01  8.50000000E-01  8.50000000E-01
  8.50000000E-01  8.00000000E-01  8.50000000E-01  8.50000000E-01  8.50000000E-01
  8.00000000E-01  8.50000000E-01  8.50000000E-01  8.50000000E-01  8.00000000E-01
  8.50000000E-01  8.50000000E-01  8.50000000E-01  8.00000000E-01  8.50000000E-01
  8.50000000E-01  8.50000000E-01  8.00000000E-01  8.50000000E-01  8.50000000E-01
  8.50000000E-01  8.00000000E-01  8.50000000E-01  8.50000000E-01  8.50000000E-01
  8.00000000E-01  8.50000000E-01  8.50000000E-01  8.50000000E-01  8.00000000E-01
  8.50000000E-01  8.50000000E-01  8.50000000E-01  8.00000000E-01  8.50000000E-01
  8.50000000E-01  8.50000000E-01  8.00000000E-01  8.50000000E-01  8.50000000E-01
  8.50000000E-01  8.00000000E-01  8.50000000E-01  8.50000000E-01  8.50000000E-01
  8.00000000E-01  8.50000000E-01  8.50000000E-01  8.50000000E-01  8.00000000E-01
  8.50000000E-01  8.50000000E-01  8.50000000E-01  8.00000000E-01  8.50000000E-01
  8.50000000E-01  8.50000000E-01  8.00000000E-01  8.50000000E-01  8.50000000E-01
  8.50000000E-01  8.00000000E-01  8.50000000E-01  8.50000000E-01  8.50000000E-01
  8.00000000E-01  8.50000000E-01  8.50000000E-01  8.50000000E-01  8.00000000E-01
  8.50000000E-01  8.50000000E-01  8.50000000E-01  8.00000000E-01  8.50000000E-01
  8.50000000E-01  8.50000000E-01  8.00000000E-01  8.50000000E-01  8.50000000E-01
  8.50000000E-01  8.00000000E-01  8.50000000E-01  8.50000000E-01  8.50000000E-01
  8.00000000E-01  8.50000000E-01  8.50000000E-01  8.50000000E-01  8.00000000E-01
  8.50000000E-01  8.50000000E-01  8.50000000E-01  8.00000000E-01  8.50000000E-01
  8.50000000E-01  8.50000000E-01  8.00000000E-01  8.50000000E-01  8.50000000E-01
  8.50000000E-01  8.00000000E-01  8.50000000E-01  8.50000000E-01  8.50000000E-01
  8.00000000E-01  8.50000000E-01  8.50000000E-01  8.50000000E-01  8.00000000E-01
  8.50000000E-01  8.50000000E-01  8.50000000E-01  8.00000000E-01  8.50000000E-01
  8.50000000E-01  8.50000000E-01  8.00000000E-01  8.50000000E-01  8.50000000E-01
  8.50000000E-01  8.00000000E-01  8.50000000E-01  8.50000000E-01  8.50000000E-01
  8.00000000E-01  8.50000000E-01  8.50000000E-01  8.50000000E-01  8.00000000E-01
  8.50000000E-01  8.50000000E-01  8.50000000E-01  8.00000000E-01  8.50000000E-01
  8.50000000E-01  8.50000000E-01  8.00000000E-01  8.50000000E-01  8.50000000E-01
  8.50000000E-01  8.00000000E-01  8.50000000E-01  8.50000000E-01  8.50000000E-01
  8.00000000E-01  8.50000000E-01  8.50000000E-01  8.50000000E-01  8.00000000E-01
  8.50000000E-01  8.50000000E-01  8.50000000E-01  8.00000000E-01  8.50000000E-01
  8.50000000E-01  8.50000000E-01  8.00000000E-01  8.50000000E-01  8.50000000E-01
  8.50000000E-01  8.00000000E-01  8.50000000E-01  8.50000000E-01  8.50000000E-01
  8.00000000E-01  8.50000000E-01  8.50000000E-01  8.50000000E-01  8.00000000E-01
  8.50000000E-01  8.50000000E-01  8.50000000E-01  8.00000000E-01  8.50000000E-01
  8.50000000E-01  8.50000000E-01  8.00000000E-01  8.50000000E-01  8.50000000E-01
  8.50000000E-01  8.00000000E-01  8.50000000E-01  8.50000000E-01  8.50000000E-01
  8.00000000E-01  8.50000000E-01  8.50000000E-01  8.50000000E-01  8.00000000E-01
  8.50000000E-01  8.50000000E-01  8.50000000E-01  8.00000000E-01  8.50000000E-01
  8.50000000E-01  8.50000000E-01  8.00000000E-01  8.50000000E-01  8.50000000E-01
  8.50000000E-01  8.00000000E-01  8.50000000E-01  8.50000000E-01  8.50000000E-01
  8.00000000E-01  8.50000000E-01  8.50000000E-01  8.50000000E-01  8.00000000E-01
  8.50000000E-01  8.50000000E-01  8.50000000E-01  8.00000000E-01  8.50000000E-01
  8.50000000E-01  8.50000000E-01  8.00000000E-01  8.50000000E-01  8.50000000E-01
  8.50000000E-01  8.00000000E-01  8.50000000E-01  8.50000000E-01  8.50000000E-01
  8.00000000E-01  8.50000000E-01  8.50000000E-01  8.50000000E-01  8.00000000E-01
  8.50000000E-01  8.50000000E-01  8.50000000E-01  8.00000000E-01  8.50000000E-01
  8.50000000E-01  8.50000000E-01  8.00000000E-01  8.50000000E-01  8.50000000E-01
  8.50000000E-01  8.00000000E-01  8.50000000E-01  8.50000000E-01  8.50000000E-01
  8.00000000E-01  8.50000000E-01  8.50000000E-01  8.50000000E-01  8.00000000E-01
  8.50000000E-01  8.50000000E-01  8.50000000E-01  8.00000000E-01  8.50000000E-01
  8.50000000E-01  8.50000000E-01  8.00000000E-01  8.50000000E-01  8.50000000E-01
  8.50000000E-01  8.00000000E-01  8.50000000E-01  8.50000000E-01  8.50000000E-01
  8.00000000E-01  8.50000000E-01  8.50000000E-01  8.50000000E-01  8.00000000E-01
  8.50000000E-01  8.50000000E-01  8.50000000E-01  8.00000000E-01  8.50000000E-01
  8.50000000E-01  8.50000000E-01  8.00000000E-01  8.50000000E-01  8.50000000E-01
  8.50000000E-01  8.00000000E-01  8.50000000E-01  8.50000000E-01  8.50000000E-01
  8.00000000E-01  8.50000000E-01  8.50000000E-01  8.50000000E-01  8.00000000E-01
  8.50000000E-01  8.50000000E-01  8.50000000E-01  8.00000000E-01  8.50000000E-01
  8.50000000E-01  8.50000000E-01  8.00000000E-01  8.50000000E-01  8.50000000E-01
  8.50000000E-01  8.00000000E-01  8.50000000E-01  8.50000000E-01  8.50000000E-01
  8.00000000E-01  8.50000000E-01  8.50000000E-01  8.50000000E-01  8.00000000E-01
  8.50000000E-01  8.50000000E-01  8.50000000E-01  8.00000000E-01  8.50000000E-01
  8.50000000E-01  8.50000000E-01  8.00000000E-01  8.50000000E-01  8.50000000E-01
  8.50000000E-01  8.00000000E-01  8.50000000E-01  8.50000000E-01  8.50000000E-01
  8.00000000E-01  8.50000000E-01  8.50000000E-01  8.50000000E-01  8.00000000E-01
  8.50000000E-01  8.50000000E-01  8.50000000E-01  8.00000000E-01  8.50000000E-01
  8.50000000E-01  8.50000000E-01  8.00000000E-01  8.50000000E-01  8.50000000E-01
  8.50000000E-01  8.00000000E-01  8.50000000E-01  8.50000000E-01  8.50000000E-01
  8.00000000E-01  8.50000000E-01  8.50000000E-01  8.50000000E-01  8.00000000E-01
  8.50000000E-01  8.50000000E-01  8.50000000E-01  8.00000000E-01  8.50000000E-01
  8.50000000E-01  8.50000000E-01  8.00000000E-01  8.50000000E-01  8.50000000E-01
  8.50000000E-01  8.00000000E-01  8.50000000E-01  8.50000000E-01  8.50000000E-01
  8.00000000E-01  8.50000000E-01  8.50000000E-01  8.50000000E-01  8.00000000E-01
  8.50000000E-01  8.50000000E-01  8.50000000E-01  8.00000000E-01  8.50000000E-01
  8.50000000E-01  8.50000000E-01  8.00000000E-01  8.50000000E-01  8.50000000E-01
  8.50000000E-01  8.00000000E-01  8.50000000E-01  8.50000000E-01  8.50000000E-01
  8.00000000E-01  8.50000000E-01  8.50000000E-01  8.50000000E-01  8.00000000E-01
  8.50000000E-01  8.50000000E-01  8.50000000E-01  8.00000000E-01  8.50000000E-01
  8.50000000E-01  8.50000000E-01  8.00000000E-01  8.50000000E-01  8.50000000E-01
  8.50000000E-01  8.00000000E-01  8.50000000E-01  8.50000000E-01  8.50000000E-01
  8.00000000E-01  8.50000000E-01  8.50000000E-01  8.50000000E-01  8.00000000E-01
  8.50000000E-01  8.50000000E-01  8.50000000E-01  8.00000000E-01  8.50000000E-01
  8.50000000E-01  8.50000000E-01  8.00000000E-01  8.50000000E-01  8.50000000E-01
  8.50000000E-01  8.00000000E-01  8.50000000E-01  8.50000000E-01  8.50000000E-01
  8.00000000E-01  8.50000000E-01  8.50000000E-01  8.50000000E-01  8.00000000E-01
  8.50000000E-01  8.50000000E-01  8.50000000E-01  8.00000000E-01  8.50000000E-01
  8.50000000E-01  8.50000000E-01  8.00000000E-01  8.50000000E-01  8.50000000E-01
  8.50000000E-01  8.00000000E-01  8.50000000E-01  8.50000000E-01  8.50000000E-01
  8.00000000E-01  8.50000000E-01  8.50000000E-01  8.50000000E-01  8.00000000E-01
  8.50000000E-01  8.50000000E-01  8.50000000E-01  8.00000000E-01  8.50000000E-01
  8.50000000E-01  8.50000000E-01  8.00000000E-01  8.50000000E-01  8.50000000E-01
  8.50000000E-01  8.00000000E-01  8.50000000E-01  8.50000000E-01  8.50000000E-01
  8.00000000E-01  8.50000000E-01  8.50000000E-01  8.50000000E-01  8.00000000E-01
  8.50000000E-01  8.50000000E-01  8.50000000E-01  8.00000000E-01  8.50000000E-01
  8.50000000E-01  8.50000000E-01  8.00000000E-01  8.50000000E-01  8.50000000E-01
  8.50000000E-01  8.00000000E-01  8.50000000E-01  8.50000000E-01  8.50000000E-01
  8.00000000E-01  8.50000000E-01  8.50000000E-01  8.50000000E-01  8.00000000E-01
  8.50000000E-01  8.50000000E-01  8.50000000E-01  8.00000000E-01  8.50000000E-01
  8.50000000E-01  8.50000000E-01  8.00000000E-01  8.50000000E-01  8.50000000E-01
  8.50000000E-01  8.00000000E-01  8.50000000E-01  8.50000000E-01  8.50000000E-01
  8.00000000E-01  8.50000000E-01  8.50000000E-01  8.50000000E-01  8.00000000E-01
  8.50000000E-01  8.50000000E-01  8.50000000E-01  8.00000000E-01  8.50000000E-01
  8.50000000E-01  8.50000000E-01  8.00000000E-01  8.50000000E-01  8.50000000E-01
  8.50000000E-01  8.00000000E-01  8.50000000E-01  8.50000000E-01  8.50000000E-01
  8.00000000E-01  8.50000000E-01  8.50000000E-01  8.50000000E-01  8.00000000E-01
  8.50000000E-01  8.50000000E-01  8.50000000E-01  8.00000000E-01  8.50000000E-01
  8.50000000E-01  8.50000000E-01  8.00000000E-01  8.50000000E-01  8.50000000E-01
  8.50000000E-01  8.00000000E-01  8.50000000E-01  8.50000000E-01  8.50000000E-01
  8.00000000E-01  8.50000000E-01  8.50000000E-01  8.50000000E-01  8.00000000E-01
  8.50000000E-01  8.50000000E-01  8.50000000E-01  8.00000000E-01  8.50000000E-01
  8.50000000E-01  8.50000000E-01  8.00000000E-01  8.50000000E-01  8.50000000E-01
  8.50000000E-01  8.00000000E-01  8.50000000E-01  8.50000000E-01  8.50000000E-01
  8.00000000E-01  8.50000000E-01  8.50000000E-01  8.50000000E-01  8.00000000E-01
  8.50000000E-01  8.50000000E-01  8.50000000E-01  8.00000000E-01  8.50000000E-01
  8.50000000E-01  8.50000000E-01  8.00000000E-01  8.50000000E-01  8.50000000E-01
  8.50000000E-01  8.00000000E-01  8.50000000E-01  8.50000000E-01  8.50000000E-01
  8.00000000E-01  8.50000000E-01  8.50000000E-01  8.50000000E-01  8.00000000E-01
  8.50000000E-01  8.50000000E-01  8.50000000E-01  8.00000000E-01  8.50000000E-01
  8.50000000E-01  8.50000000E-01  8.00000000E-01  8.50000000E-01  8.50000000E-01
  8.50000000E-01  8.00000000E-01  8.50000000E-01  8.50000000E-01  8.50000000E-01
  8.00000000E-01  8.50000000E-01  8.50000000E-01  8.50000000E-01  8.00000000E-01
  8.50000000E-01  8.50000000E-01  8.50000000E-01  8.00000000E-01  8.50000000E-01
  8.50000000E-01  8.50000000E-01  8.00000000E-01  8.50000000E-01  8.50000000E-01
  8.50000000E-01  8.00000000E-01  8.50000000E-01  8.50000000E-01  8.50000000E-01
  8.00000000E-01  8.50000000E-01  8.50000000E-01  8.50000000E-01  8.00000000E-01
  8.50000000E-01  8.50000000E-01  8.50000000E-01  8.00000000E-01  8.50000000E-01
  8.50000000E-01  8.50000000E-01  8.00000000E-01  8.50000000E-01  8.50000000E-01
  8.50000000E-01  8.00000000E-01  8.50000000E-01  8.50000000E-01  8.50000000E-01
  8.00000000E-01  8.50000000E-01  8.50000000E-01  8.50000000E-01  8.00000000E-01
  8.50000000E-01  8.50000000E-01  8.50000000E-01  8.00000000E-01  8.50000000E-01
  8.50000000E-01  8.50000000E-01  8.00000000E-01  8.50000000E-01  8.50000000E-01
  8.50000000E-01  8.00000000E-01  8.50000000E-01  8.50000000E-01  8.50000000E-01
  8.00000000E-01  8.50000000E-01  8.50000000E-01  8.50000000E-01  8.00000000E-01
  8.50000000E-01  8.50000000E-01  8.50000000E-01  8.00000000E-01  8.50000000E-01
  8.50000000E-01  8.50000000E-01  8.00000000E-01  8.50000000E-01  8.50000000E-01
  8.50000000E-01  8.00000000E-01  8.50000000E-01  8.50000000E-01  8.50000000E-01
  8.00000000E-01  8.50000000E-01  8.50000000E-01  8.50000000E-01  8.00000000E-01
  8.50000000E-01  8.50000000E-01  8.50000000E-01  8.00000000E-01  8.50000000E-01
  8.50000000E-01  8.50000000E-01  8.00000000E-01  8.50000000E-01  8.50000000E-01
  8.50000000E-01  8.00000000E-01  8.50000000E-01  8.50000000E-01  8.50000000E-01
  8.00000000E-01  8.50000000E-01  8.50000000E-01  8.50000000E-01  8.00000000E-01
  8.50000000E-01  8.50000000E-01  8.50000000E-01  8.00000000E-01  8.50000000E-01
  8.50000000E-01  8.50000000E-01  8.00000000E-01  8.50000000E-01  8.50000000E-01
  8.50000000E-01  8.00000000E-01  8.50000000E-01  8.50000000E-01  8.50000000E-01
  8.00000000E-01  8.50000000E-01  8.50000000E-01  8.50000000E-01  8.00000000E-01
  8.50000000E-01  8.50000000E-01  8.50000000E-01  8.00000000E-01  8.50000000E-01
  8.50000000E-01  8.50000000E-01  8.00000000E-01  8.50000000E-01  8.50000000E-01
  8.50000000E-01  8.00000000E-01  8.50000000E-01  8.50000000E-01  8.50000000E-01
  8.00000000E-01  8.50000000E-01  8.50000000E-01  8.50000000E-01  8.00000000E-01
  8.50000000E-01  8.50000000E-01  8.50000000E-01  8.00000000E-01  8.50000000E-01
  8.50000000E-01  8.50000000E-01  8.00000000E-01  8.50000000E-01  8.50000000E-01
  8.50000000E-01  8.00000000E-01  8.50000000E-01  8.50000000E-01  8.50000000E-01
  8.00000000E-01  8.50000000E-01  8.50000000E-01  8.50000000E-01  8.00000000E-01
  8.50000000E-01  8.50000000E-01  8.50000000E-01  8.00000000E-01  8.50000000E-01
  8.50000000E-01  8.50000000E-01  8.00000000E-01  8.50000000E-01  8.50000000E-01
  8.50000000E-01  8.00000000E-01  8.50000000E-01  8.50000000E-01  8.50000000E-01
  8.00000000E-01  8.50000000E-01  8.50000000E-01  8.50000000E-01  8.00000000E-01
  8.50000000E-01  8.50000000E-01  8.50000000E-01  8.00000000E-01  8.50000000E-01
  8.50000000E-01  8.50000000E-01  8.00000000E-01  8.50000000E-01  8.50000000E-01
  8.50000000E-01  8.00000000E-01  8.50000000E-01  8.50000000E-01  8.50000000E-01
  8.00000000E-01  8.50000000E-01  8.50000000E-01  8.50000000E-01  8.00000000E-01
  8.50000000E-01  8.50000000E-01  8.50000000E-01  8.00000000E-01  8.50000000E-01
  8.50000000E-01  8.50000000E-01  8.00000000E-01  8.50000000E-01  8.50000000E-01
  8.50000000E-01  8.00000000E-01  8.50000000E-01  8.50000000E-01  8.50000000E-01
  8.00000000E-01  8.50000000E-01  8.50000000E-01  8.50000000E-01  8.00000000E-01
  8.50000000E-01  8.50000000E-01  8.50000000E-01  8.00000000E-01  8.50000000E-01
  8.50000000E-01  8.50000000E-01  8.00000000E-01  8.50000000E-01  8.50000000E-01
  8.50000000E-01  8.00000000E-01  8.50000000E-01  8.50000000E-01  8.50000000E-01
  8.00000000E-01  8.50000000E-01  8.50000000E-01  8.50000000E-01  8.00000000E-01
  8.50000000E-01  8.50000000E-01  8.50000000E-01  8.00000000E-01  8.50000000E-01
  8.50000000E-01  8.50000000E-01  8.00000000E-01  8.50000000E-01  8.50000000E-01
  8.50000000E-01  8.00000000E-01  8.50000000E-01  8.50000000E-01  8.50000000E-01
  8.00000000E-01  8.50000000E-01  8.50000000E-01  8.50000000E-01  8.00000000E-01
  8.50000000E-01  8.50000000E-01  8.50000000E-01  8.00000000E-01  8.50000000E-01
  8.50000000E-01  8.50000000E-01  8.00000000E-01  8.50000000E-01  8.50000000E-01
  8.50000000E-01  8.00000000E-01  8.50000000E-01  8.50000000E-01  8.50000000E-01
  8.00000000E-01  8.50000000E-01  8.50000000E-01  8.50000000E-01  8.00000000E-01
  8.50000000E-01  8.50000000E-01  8.50000000E-01  8.00000000E-01  8.50000000E-01
  8.50000000E-01  8.50000000E-01  8.00000000E-01  8.50000000E-01  8.50000000E-01
  8.50000000E-01  8.00000000E-01  8.50000000E-01  8.50000000E-01  8.50000000E-01
  8.00000000E-01  8.50000000E-01  8.50000000E-01  8.50000000E-01  8.00000000E-01
  8.50000000E-01  8.50000000E-01  8.50000000E-01  8.00000000E-01  8.50000000E-01
  8.50000000E-01  8.50000000E-01  8.00000000E-01  8.50000000E-01  8.50000000E-01
  8.50000000E-01  8.00000000E-01  8.50000000E-01  8.50000000E-01  8.50000000E-01
  8.00000000E-01  8.50000000E-01  8.50000000E-01  8.50000000E-01  8.00000000E-01
  8.50000000E-01  8.50000000E-01  8.50000000E-01  8.00000000E-01  8.50000000E-01
  8.50000000E-01  8.50000000E-01  8.00000000E-01  8.50000000E-01  8.50000000E-01
  8.50000000E-01  8.00000000E-01  8.50000000E-01  8.50000000E-01  8.50000000E-01
  8.00000000E-01  8.50000000E-01  8.50000000E-01  8.50000000E-01  8.00000000E-01
  8.50000000E-01  8.50000000E-01  8.50000000E-01  8.00000000E-01  8.50000000E-01
  8.50000000E-01  8.50000000E-01  8.00000000E-01  8.50000000E-01  8.50000000E-01
  8.50000000E-01  8.00000000E-01  8.50000000E-01  8.50000000E-01  8.50000000E-01
  8.00000000E-01  8.50000000E-01  8.50000000E-01  8.50000000E-01  8.00000000E-01
  8.50000000E-01  8.50000000E-01  8.50000000E-01  8.00000000E-01  8.50000000E-01
  8.50000000E-01  8.50000000E-01  8.00000000E-01  8.50000000E-01  8.50000000E-01
  8.50000000E-01  8.00000000E-01  8.50000000E-01  8.50000000E-01  8.50000000E-01
  8.00000000E-01  8.50000000E-01  8.50000000E-01  8.50000000E-01  8.00000000E-01
  8.50000000E-01  8.50000000E-01  8.50000000E-01  8.00000000E-01  8.50000000E-01
  8.50000000E-01  8.50000000E-01  8.00000000E-01  8.50000000E-01  8.50000000E-01
  8.50000000E-01  8.00000000E-01  8.50000000E-01  8.50000000E-01  8.50000000E-01
  8.00000000E-01  8.50000000E-01  8.50000000E-01  8.50000000E-01  8.00000000E-01
  8.50000000E-01  8.50000000E-01  8.50000000E-01  8.00000000E-01  8.50000000E-01
  8.50000000E-01  8.50000000E-01  8.00000000E-01  8.50000000E-01  8.50000000E-01
  8.50000000E-01  8.00000000E-01  8.50000000E-01  8.50000000E-01  8.50000000E-01
  8.00000000E-01  8.50000000E-01  8.50000000E-01  8.50000000E-01  8.00000000E-01
  8.50000000E-01  8.50000000E-01  8.50000000E-01  8.00000000E-01  8.50000000E-01
  8.50000000E-01  8.50000000E-01  8.00000000E-01  8.50000000E-01  8.50000000E-01
  8.50000000E-01  8.00000000E-01  8.50000000E-01  8.50000000E-01  8.50000000E-01
  8.00000000E-01  8.50000000E-01  8.50000000E-01  8.50000000E-01  8.00000000E-01
  8.50000000E-01  8.50000000E-01  8.50000000E-01  8.00000000E-01  8.50000000E-01
  8.50000000E-01  8.50000000E-01  8.00000000E-01  8.50000000E-01  8.50000000E-01
  8.50000000E-01  8.00000000E-01  8.50000000E-01  8.50000000E-01  8.50000000E-01
  8.00000000E-01  8.50000000E-01  8.50000000E-01  8.50000000E-01  8.00000000E-01
  8.50000000E-01  8.50000000E-01  8.50000000E-01  8.00000000E-01  8.50000000E-01
  8.50000000E-01  8.50000000E-01  8.00000000E-01  8.50000000E-01  8.50000000E-01
  8.50000000E-01  8.00000000E-01  8.50000000E-01  8.50000000E-01  8.50000000E-01
  8.00000000E-01  8.50000000E-01  8.50000000E-01  8.50000000E-01  8.00000000E-01
  8.50000000E-01  8.50000000E-01  8.50000000E-01  8.00000000E-01  8.50000000E-01
  8.50000000E-01  8.50000000E-01  8.00000000E-01  8.50000000E-01  8.50000000E-01
  8.50000000E-01  8.00000000E-01  8.50000000E-01  8.50000000E-01  8.50000000E-01
  8.00000000E-01  8.50000000E-01  8.50000000E-01  8.50000000E-01  8.00000000E-01
  8.50000000E-01  8.50000000E-01  8.50000000E-01  8.00000000E-01  8.50000000E-01
  8.50000000E-01  8.50000000E-01  8.00000000E-01  8.50000000E-01  8.50000000E-01
  8.50000000E-01  8.00000000E-01  8.50000000E-01  8.50000000E-01  8.50000000E-01
  8.00000000E-01  8.50000000E-01  8.50000000E-01  8.50000000E-01  8.00000000E-01
  8.50000000E-01  8.50000000E-01  8.50000000E-01  8.00000000E-01  8.50000000E-01
  8.50000000E-01  8.50000000E-01  8.00000000E-01  8.50000000E-01  8.50000000E-01
  8.50000000E-01  8.00000000E-01  8.50000000E-01  8.50000000E-01  8.50000000E-01
  8.00000000E-01  8.50000000E-01  8.50000000E-01  8.50000000E-01  8.00000000E-01
  8.50000000E-01  8.50000000E-01  8.50000000E-01  8.00000000E-01  8.50000000E-01
  8.50000000E-01  8.50000000E-01  8.00000000E-01  8.50000000E-01  8.50000000E-01
  8.50000000E-01  8.00000000E-01  8.50000000E-01  8.50000000E-01  8.50000000E-01
  8.00000000E-01  8.50000000E-01  8.50000000E-01  8.50000000E-01  8.00000000E-01
  8.50000000E-01  8.50000000E-01  8.50000000E-01  8.00000000E-01  8.50000000E-01
  8.50000000E-01  8.50000000E-01  8.00000000E-01  8.50000000E-01  8.50000000E-01
  8.50000000E-01  8.00000000E-01  8.50000000E-01  8.50000000E-01  8.50000000E-01
  8.00000000E-01  8.50000000E-01  8.50000000E-01  8.50000000E-01  8.00000000E-01
  8.50000000E-01  8.50000000E-01  8.50000000E-01  8.00000000E-01  8.50000000E-01
  8.50000000E-01  8.50000000E-01  8.00000000E-01  8.50000000E-01  8.50000000E-01
  8.50000000E-01  8.00000000E-01  8.50000000E-01  8.50000000E-01  8.50000000E-01
  8.00000000E-01  8.50000000E-01  8.50000000E-01  8.50000000E-01  8.00000000E-01
  8.50000000E-01  8.50000000E-01  8.50000000E-01  8.00000000E-01  8.50000000E-01
  8.50000000E-01  8.50000000E-01  8.00000000E-01  8.50000000E-01  8.50000000E-01
  8.50000000E-01  8.00000000E-01  8.50000000E-01  8.50000000E-01  8.50000000E-01
  8.00000000E-01  8.50000000E-01  8.50000000E-01  8.50000000E-01  8.00000000E-01
  8.50000000E-01  8.50000000E-01  8.50000000E-01  8.00000000E-01  8.50000000E-01
  8.50000000E-01  8.50000000E-01  8.00000000E-01  8.50000000E-01  8.50000000E-01
  8.50000000E-01  8.00000000E-01  8.50000000E-01  8.50000000E-01  8.50000000E-01
  8.00000000E-01  8.50000000E-01  8.50000000E-01  8.50000000E-01  8.00000000E-01
  8.50000000E-01  8.50000000E-01  8.50000000E-01  8.00000000E-01  8.50000000E-01
  8.50000000E-01  8.50000000E-01  8.00000000E-01  8.50000000E-01  8.50000000E-01
  8.50000000E-01  8.00000000E-01  8.50000000E-01  8.50000000E-01  8.50000000E-01
  8.00000000E-01  8.50000000E-01  8.50000000E-01  8.50000000E-01  8.00000000E-01
  8.50000000E-01  8.50000000E-01  8.50000000E-01  8.00000000E-01  8.50000000E-01
  8.50000000E-01  8.50000000E-01  8.00000000E-01  8.50000000E-01  8.50000000E-01
  8.50000000E-01  8.00000000E-01  8.50000000E-01  8.50000000E-01  8.50000000E-01
  8.00000000E-01  8.50000000E-01  8.50000000E-01  8.50000000E-01  8.00000000E-01
  8.50000000E-01  8.50000000E-01  8.50000000E-01  8.00000000E-01  8.50000000E-01
  8.50000000E-01  8.50000000E-01  8.00000000E-01  8.50000000E-01  8.50000000E-01
  8.50000000E-01  8.00000000E-01  8.50000000E-01  8.50000000E-01  8.50000000E-01
  8.00000000E-01  8.50000000E-01  8.50000000E-01  8.50000000E-01  8.00000000E-01
  8.50000000E-01  8.50000000E-01  8.50000000E-01  8.00000000E-01  8.50000000E-01
  8.50000000E-01  8.50000000E-01  8.00000000E-01  8.50000000E-01  8.50000000E-01
  8.50000000E-01  8.00000000E-01  8.50000000E-01  8.50000000E-01  8.50000000E-01
  8.00000000E-01  8.50000000E-01  8.50000000E-01  8.50000000E-01  8.00000000E-01
  8.50000000E-01  8.50000000E-01  8.50000000E-01  8.00000000E-01  8.50000000E-01
  8.50000000E-01  8.50000000E-01  8.00000000E-01  8.50000000E-01  8.50000000E-01
  8.50000000E-01  8.00000000E-01  8.50000000E-01  8.50000000E-01  8.50000000E-01
  8.00000000E-01  8.50000000E-01  8.50000000E-01  8.50000000E-01  8.00000000E-01
  8.50000000E-01  8.50000000E-01  8.50000000E-01  8.00000000E-01  8.50000000E-01
  8.50000000E-01  8.50000000E-01  8.00000000E-01  8.50000000E-01  8.50000000E-01
  8.50000000E-01  8.00000000E-01  8.50000000E-01  8.50000000E-01  8.50000000E-01
  8.00000000E-01  8.50000000E-01  8.50000000E-01  8.50000000E-01  8.00000000E-01
  8.50000000E-01  8.50000000E-01  8.50000000E-01  8.00000000E-01  8.50000000E-01
  8.50000000E-01  8.50000000E-01  8.00000000E-01  8.50000000E-01  8.50000000E-01
  8.50000000E-01  8.00000000E-01  8.50000000E-01  8.50000000E-01  8.50000000E-01
  8.00000000E-01  8.50000000E-01  8.50000000E-01  8.50000000E-01  8.00000000E-01
  8.50000000E-01  8.50000000E-01  8.50000000E-01  8.00000000E-01  8.50000000E-01
  8.50000000E-01  8.50000000E-01  8.00000000E-01  8.50000000E-01  8.50000000E-01
  8.50000000E-01  8.00000000E-01  8.50000000E-01  8.50000000E-01  8.50000000E-01
  8.00000000E-01  8.50000000E-01  8.50000000E-01  8.50000000E-01  8.00000000E-01
  8.50000000E-01  8.50000000E-01  8.50000000E-01  8.00000000E-01  8.50000000E-01
  8.50000000E-01  8.50000000E-01  8.00000000E-01  8.50000000E-01  8.50000000E-01
  8.50000000E-01  8.00000000E-01  8.50000000E-01  8.50000000E-01  8.50000000E-01
  8.00000000E-01  8.50000000E-01  8.50000000E-01  8.50000000E-01  8.00000000E-01
  8.50000000E-01  8.50000000E-01  8.50000000E-01  8.00000000E-01  8.50000000E-01
  8.50000000E-01  8.50000000E-01  8.00000000E-01  8.50000000E-01  8.50000000E-01
  8.50000000E-01  8.00000000E-01  8.50000000E-01  8.50000000E-01  8.50000000E-01
  8.00000000E-01  8.50000000E-01  8.50000000E-01  8.50000000E-01  8.00000000E-01
  8.50000000E-01  8.50000000E-01  8.50000000E-01  8.00000000E-01  8.50000000E-01
  8.50000000E-01  8.50000000E-01  8.00000000E-01  8.50000000E-01  8.50000000E-01
  8.50000000E-01  8.00000000E-01  8.50000000E-01  8.50000000E-01  8.50000000E-01
  8.00000000E-01  8.50000000E-01  8.50000000E-01  8.50000000E-01  8.00000000E-01
  8.50000000E-01  8.50000000E-01  8.50000000E-01  8.00000000E-01  8.50000000E-01
  8.50000000E-01  8.50000000E-01  8.00000000E-01  8.50000000E-01  8.50000000E-01
  8.50000000E-01  8.00000000E-01  8.50000000E-01  8.50000000E-01  8.50000000E-01
  8.00000000E-01  8.50000000E-01  8.50000000E-01  8.50000000E-01  8.00000000E-01
  8.50000000E-01  8.50000000E-01  8.50000000E-01  8.00000000E-01  8.50000000E-01
  8.50000000E-01  8.50000000E-01  8.00000000E-01  8.50000000E-01  8.50000000E-01
  8.50000000E-01  8.00000000E-01  8.50000000E-01  8.50000000E-01  8.50000000E-01
  8.00000000E-01  8.50000000E-01  8.50000000E-01  8.50000000E-01  8.00000000E-01
  8.50000000E-01  8.50000000E-01  8.50000000E-01  8.00000000E-01  8.50000000E-01
  8.50000000E-01  8.50000000E-01  8.00000000E-01  8.50000000E-01  8.50000000E-01
  8.50000000E-01  8.00000000E-01  8.50000000E-01  8.50000000E-01  8.50000000E-01
  8.00000000E-01  8.50000000E-01  8.50000000E-01  8.50000000E-01  8.00000000E-01
  8.50000000E-01  8.50000000E-01  8.50000000E-01  8.00000000E-01  8.50000000E-01
  8.50000000E-01  8.50000000E-01  8.00000000E-01  8.50000000E-01  8.50000000E-01
  8.50000000E-01  8.00000000E-01  8.50000000E-01  8.50000000E-01  8.50000000E-01
  8.00000000E-01  8.50000000E-01  8.50000000E-01  8.50000000E-01  8.00000000E-01
  8.50000000E-01  8.50000000E-01  8.50000000E-01  8.00000000E-01  8.50000000E-01
  8.50000000E-01  8.50000000E-01  8.00000000E-01  8.50000000E-01  8.50000000E-01
  8.50000000E-01  8.00000000E-01  8.50000000E-01  8.50000000E-01  8.50000000E-01
  8.00000000E-01  8.50000000E-01  8.50000000E-01  8.50000000E-01  8.00000000E-01
  8.50000000E-01  8.50000000E-01  8.50000000E-01  8.00000000E-01  8.50000000E-01
  8.50000000E-01  8.50000000E-01  8.00000000E-01  8.50000000E-01  8.50000000E-01
  8.50000000E-01  8.00000000E-01  8.50000000E-01  8.50000000E-01  8.50000000E-01
  8.00000000E-01  8.50000000E-01  8.50000000E-01  8.50000000E-01  8.00000000E-01
  8.50000000E-01  8.50000000E-01  8.50000000E-01  8.00000000E-01  8.50000000E-01
  8.50000000E-01  8.50000000E-01  8.00000000E-01  8.50000000E-01  8.50000000E-01
  8.50000000E-01  8.00000000E-01  8.50000000E-01  8.50000000E-01  8.50000000E-01
  8.00000000E-01  8.50000000E-01  8.50000000E-01  8.50000000E-01  8.00000000E-01
  8.50000000E-01  8.50000000E-01  8.50000000E-01  8.00000000E-01  8.50000000E-01
  8.50000000E-01  8.50000000E-01  8.00000000E-01  8.50000000E-01  8.50000000E-01
  8.50000000E-01  8.00000000E-01  8.50000000E-01  8.50000000E-01  8.50000000E-01
  8.00000000E-01  8.50000000E-01  8.50000000E-01  8.50000000E-01  8.00000000E-01
  8.50000000E-01  8.50000000E-01  8.50000000E-01  8.00000000E-01  8.50000000E-01
  8.50000000E-01  8.50000000E-01  8.00000000E-01  8.50000000E-01  8.50000000E-01
  8.50000000E-01  8.00000000E-01  8.50000000E-01  8.50000000E-01  8.50000000E-01
  8.00000000E-01  8.50000000E-01  8.50000000E-01  8.50000000E-01  8.00000000E-01
  8.50000000E-01  8.50000000E-01  8.50000000E-01  8.00000000E-01  8.50000000E-01
  8.50000000E-01  8.50000000E-01  8.00000000E-01  8.50000000E-01  8.50000000E-01
  8.50000000E-01  8.00000000E-01  8.50000000E-01  8.50000000E-01  8.50000000E-01
  8.00000000E-01  8.50000000E-01  8.50000000E-01  8.50000000E-01  8.00000000E-01
  8.50000000E-01  8.50000000E-01  8.50000000E-01  8.00000000E-01  8.50000000E-01
  8.50000000E-01  8.50000000E-01  8.00000000E-01  8.50000000E-01  8.50000000E-01
  8.50000000E-01  8.00000000E-01  8.50000000E-01  8.50000000E-01  8.50000000E-01
  8.00000000E-01  8.50000000E-01  8.50000000E-01  8.50000000E-01  8.00000000E-01
  8.50000000E-01  8.50000000E-01  8.50000000E-01  8.00000000E-01  8.50000000E-01
  8.50000000E-01  8.50000000E-01  8.00000000E-01  8.50000000E-01  8.50000000E-01
  8.50000000E-01  8.00000000E-01  8.50000000E-01  8.50000000E-01  8.50000000E-01
  8.00000000E-01  8.50000000E-01  8.50000000E-01  8.50000000E-01  8.00000000E-01
  8.50000000E-01  8.50000000E-01  8.50000000E-01  8.00000000E-01  8.50000000E-01
  8.50000000E-01  8.50000000E-01  8.00000000E-01  8.50000000E-01  8.50000000E-01
  8.50000000E-01  8.00000000E-01  8.50000000E-01  8.50000000E-01  8.50000000E-01
  8.00000000E-01  8.50000000E-01  8.50000000E-01  8.50000000E-01  8.00000000E-01
  8.50000000E-01  8.50000000E-01  8.50000000E-01  8.00000000E-01  8.50000000E-01
  8.50000000E-01  8.50000000E-01  8.00000000E-01  8.50000000E-01  8.50000000E-01
  8.50000000E-01  8.00000000E-01  8.50000000E-01  8.50000000E-01  8.50000000E-01
  8.00000000E-01  8.50000000E-01  8.50000000E-01  8.50000000E-01  8.00000000E-01
  8.50000000E-01  8.50000000E-01  8.50000000E-01  8.00000000E-01  8.50000000E-01
  8.50000000E-01  8.50000000E-01  8.00000000E-01  8.50000000E-01  8.50000000E-01
  8.50000000E-01  8.00000000E-01  8.50000000E-01  8.50000000E-01  8.50000000E-01
  8.00000000E-01  8.50000000E-01  8.50000000E-01  8.50000000E-01  8.00000000E-01
  8.50000000E-01  8.50000000E-01  8.50000000E-01  8.00000000E-01  8.50000000E-01
  8.50000000E-01  8.50000000E-01  8.00000000E-01  8.50000000E-01  8.50000000E-01
  8.50000000E-01  8.00000000E-01  8.50000000E-01  8.50000000E-01  8.50000000E-01
  8.00000000E-01  8.50000000E-01  8.50000000E-01  8.50000000E-01  8.00000000E-01
  8.50000000E-01  8.50000000E-01  8.50000000E-01  8.00000000E-01  8.50000000E-01
  8.50000000E-01  8.50000000E-01  8.00000000E-01  8.50000000E-01  8.50000000E-01
  8.50000000E-01  8.00000000E-01  8.50000000E-01  8.50000000E-01  8.50000000E-01
  8.00000000E-01  8.50000000E-01  8.50000000E-01  8.50000000E-01  8.00000000E-01
  8.50000000E-01  8.50000000E-01  8.50000000E-01  8.00000000E-01  8.50000000E-01
  8.50000000E-01  8.50000000E-01  8.00000000E-01  8.50000000E-01  8.50000000E-01
  8.50000000E-01  8.00000000E-01  8.50000000E-01  8.50000000E-01  8.50000000E-01
  8.00000000E-01  8.50000000E-01  8.50000000E-01  8.50000000E-01  8.00000000E-01
  8.50000000E-01  8.50000000E-01  8.50000000E-01  8.00000000E-01  8.50000000E-01
  8.50000000E-01  8.50000000E-01  8.00000000E-01  8.50000000E-01  8.50000000E-01
  8.50000000E-01  8.00000000E-01  8.50000000E-01  8.50000000E-01  8.50000000E-01
  8.00000000E-01  8.50000000E-01  8.50000000E-01  8.50000000E-01  8.00000000E-01
  8.50000000E-01  8.50000000E-01  8.50000000E-01  8.00000000E-01  8.50000000E-01
  8.50000000E-01  8.50000000E-01  8.00000000E-01  8.50000000E-01  8.50000000E-01
  8.50000000E-01  8.00000000E-01  8.50000000E-01  8.50000000E-01  8.50000000E-01
  8.00000000E-01  8.50000000E-01  8.50000000E-01  8.50000000E-01  8.00000000E-01
  8.50000000E-01  8.50000000E-01  8.50000000E-01  8.00000000E-01  8.50000000E-01
  8.50000000E-01  8.50000000E-01  8.00000000E-01  8.50000000E-01  8.50000000E-01
  8.50000000E-01  8.00000000E-01  8.50000000E-01  8.50000000E-01  8.50000000E-01
  8.00000000E-01  8.50000000E-01  8.50000000E-01  8.50000000E-01  8.00000000E-01
  8.50000000E-01  8.50000000E-01  8.50000000E-01  8.00000000E-01  8.50000000E-01
  8.50000000E-01  8.50000000E-01  8.00000000E-01  8.50000000E-01  8.50000000E-01
  8.50000000E-01  8.00000000E-01  8.50000000E-01  8.50000000E-01  8.50000000E-01
  8.00000000E-01  8.50000000E-01  8.50000000E-01  8.50000000E-01  8.00000000E-01
  8.50000000E-01  8.50000000E-01  8.50000000E-01  8.00000000E-01  8.50000000E-01
  8.50000000E-01  8.50000000E-01  8.00000000E-01  8.50000000E-01  8.50000000E-01
  8.50000000E-01  8.00000000E-01  8.50000000E-01  8.50000000E-01  8.50000000E-01
  8.00000000E-01  8.50000000E-01  8.50000000E-01  8.50000000E-01  8.00000000E-01
  8.50000000E-01  8.50000000E-01  8.50000000E-01  8.00000000E-01  8.50000000E-01
  8.50000000E-01  8.50000000E-01  8.00000000E-01  8.50000000E-01  8.50000000E-01
  8.50000000E-01  8.00000000E-01  8.50000000E-01  8.50000000E-01  8.50000000E-01
  8.00000000E-01  8.50000000E-01  8.50000000E-01  8.50000000E-01  8.00000000E-01
  8.50000000E-01  8.50000000E-01  8.50000000E-01  8.00000000E-01  8.50000000E-01
  8.50000000E-01  8.50000000E-01  8.00000000E-01  8.50000000E-01  8.50000000E-01
  8.50000000E-01  8.00000000E-01  8.50000000E-01  8.50000000E-01  8.50000000E-01
  8.00000000E-01  8.50000000E-01  8.50000000E-01  8.50000000E-01  8.00000000E-01
  8.50000000E-01  8.50000000E-01  8.50000000E-01  8.00000000E-01  8.50000000E-01
  8.50000000E-01  8.50000000E-01  8.00000000E-01  8.50000000E-01  8.50000000E-01
  8.50000000E-01  8.00000000E-01  8.50000000E-01  8.50000000E-01  8.50000000E-01
  8.00000000E-01  8.50000000E-01  8.50000000E-01  8.50000000E-01  8.00000000E-01
  8.50000000E-01  8.50000000E-01  8.50000000E-01  8.00000000E-01  8.50000000E-01
  8.50000000E-01  8.50000000E-01  8.00000000E-01  8.50000000E-01  8.50000000E-01
  8.50000000E-01  8.00000000E-01  8.50000000E-01  8.50000000E-01  8.50000000E-01
  8.00000000E-01  8.50000000E-01  8.50000000E-01  8.50000000E-01  8.00000000E-01
  8.50000000E-01  8.50000000E-01  8.50000000E-01  8.00000000E-01  8.50000000E-01
  8.50000000E-01  8.50000000E-01  8.00000000E-01  8.50000000E-01  8.50000000E-01
  8.50000000E-01  8.00000000E-01  8.50000000E-01  8.50000000E-01  8.50000000E-01
  8.00000000E-01  8.50000000E-01  8.50000000E-01  8.50000000E-01  8.00000000E-01
  8.50000000E-01  8.50000000E-01  8.50000000E-01  8.00000000E-01  8.50000000E-01
  8.50000000E-01  8.50000000E-01  8.00000000E-01  8.50000000E-01  8.50000000E-01
  8.50000000E-01  8.00000000E-01  8.50000000E-01  8.50000000E-01  8.50000000E-01
  8.00000000E-01  8.50000000E-01  8.50000000E-01  8.50000000E-01  8.00000000E-01
  8.50000000E-01  8.50000000E-01  8.50000000E-01  8.00000000E-01  8.50000000E-01
  8.50000000E-01  8.50000000E-01  8.00000000E-01  8.50000000E-01  8.50000000E-01
  8.50000000E-01  8.00000000E-01  8.50000000E-01  8.50000000E-01  8.50000000E-01
  8.00000000E-01  8.50000000E-01  8.50000000E-01  8.50000000E-01  8.00000000E-01
  8.50000000E-01  8.50000000E-01  8.50000000E-01  8.00000000E-01  8.50000000E-01
  8.50000000E-01  8.50000000E-01  8.00000000E-01  8.50000000E-01  8.50000000E-01
  8.50000000E-01  8.00000000E-01  8.50000000E-01  8.50000000E-01  8.50000000E-01
  8.00000000E-01  8.50000000E-01  8.50000000E-01  8.50000000E-01  8.00000000E-01
  8.50000000E-01  8.50000000E-01  8.50000000E-01  8.00000000E-01  8.50000000E-01
  8.50000000E-01  8.50000000E-01  8.00000000E-01  8.50000000E-01  8.50000000E-01
  8.50000000E-01  8.00000000E-01  8.50000000E-01  8.50000000E-01  8.50000000E-01
  8.00000000E-01  8.50000000E-01  8.50000000E-01  8.50000000E-01  8.00000000E-01
  8.50000000E-01  8.50000000E-01  8.50000000E-01  8.00000000E-01  8.50000000E-01
  8.50000000E-01  8.50000000E-01  8.00000000E-01  8.50000000E-01  8.50000000E-01
  8.50000000E-01  8.00000000E-01  8.50000000E-01  8.50000000E-01  8.50000000E-01
  8.00000000E-01  8.50000000E-01  8.50000000E-01  8.50000000E-01  8.00000000E-01
  8.50000000E-01  8.50000000E-01  8.50000000E-01  8.00000000E-01  8.50000000E-01
  8.50000000E-01  8.50000000E-01  8.00000000E-01  8.50000000E-01  8.50000000E-01
  8.50000000E-01  8.00000000E-01  8.50000000E-01  8.50000000E-01  8.50000000E-01
  8.00000000E-01  8.50000000E-01  8.50000000E-01  8.50000000E-01  8.00000000E-01
  8.50000000E-01  8.50000000E-01  8.50000000E-01  8.00000000E-01  8.50000000E-01
  8.50000000E-01  8.50000000E-01  8.00000000E-01  8.50000000E-01  8.50000000E-01
  8.50000000E-01  8.00000000E-01  8.50000000E-01  8.50000000E-01  8.50000000E-01
  8.00000000E-01  8.50000000E-01  8.50000000E-01  8.50000000E-01  8.00000000E-01
  8.50000000E-01  8.50000000E-01  8.50000000E-01  8.00000000E-01  8.50000000E-01
  8.50000000E-01  8.50000000E-01  8.00000000E-01  8.50000000E-01  8.50000000E-01
  8.50000000E-01  8.00000000E-01  8.50000000E-01  8.50000000E-01  8.50000000E-01
  8.00000000E-01  8.50000000E-01  8.50000000E-01  8.50000000E-01  8.00000000E-01
  8.50000000E-01  8.50000000E-01  8.50000000E-01  8.00000000E-01  8.50000000E-01
  8.50000000E-01  8.50000000E-01  8.00000000E-01  8.50000000E-01  8.50000000E-01
  8.50000000E-01  8.00000000E-01  8.50000000E-01  8.50000000E-01  8.50000000E-01
  8.00000000E-01  8.50000000E-01  8.50000000E-01  8.50000000E-01  8.00000000E-01
  8.50000000E-01  8.50000000E-01  8.50000000E-01  8.00000000E-01  8.50000000E-01
  8.50000000E-01  8.50000000E-01  8.00000000E-01  8.50000000E-01  8.50000000E-01
  8.50000000E-01  8.00000000E-01  8.50000000E-01  8.50000000E-01  8.50000000E-01
  8.00000000E-01  8.50000000E-01  8.50000000E-01  8.50000000E-01  8.00000000E-01
  8.50000000E-01  8.50000000E-01  8.50000000E-01  8.00000000E-01  8.50000000E-01
  8.50000000E-01  8.50000000E-01  8.00000000E-01  8.50000000E-01  8.50000000E-01
  8.50000000E-01  8.00000000E-01  8.50000000E-01  8.50000000E-01  8.50000000E-01
  8.00000000E-01  8.50000000E-01  8.50000000E-01  8.50000000E-01  8.00000000E-01
  8.50000000E-01  8.50000000E-01  8.50000000E-01  8.00000000E-01  8.50000000E-01
  8.50000000E-01  8.50000000E-01  8.00000000E-01  8.50000000E-01  8.50000000E-01
  8.50000000E-01  8.00000000E-01  8.50000000E-01  8.50000000E-01  8.50000000E-01
  8.00000000E-01  8.50000000E-01  8.50000000E-01  8.50000000E-01  8.00000000E-01
  8.50000000E-01  8.50000000E-01  8.50000000E-01  8.00000000E-01  8.50000000E-01
  8.50000000E-01  8.50000000E-01  8.00000000E-01  8.50000000E-01  8.50000000E-01
  8.50000000E-01  8.00000000E-01  8.50000000E-01  8.50000000E-01  8.50000000E-01
  8.00000000E-01  8.50000000E-01  8.50000000E-01  8.50000000E-01  8.00000000E-01
  8.50000000E-01  8.50000000E-01  8.50000000E-01  8.00000000E-01  8.50000000E-01
  8.50000000E-01  8.50000000E-01  8.00000000E-01  8.50000000E-01  8.50000000E-01
  8.50000000E-01  8.00000000E-01  8.50000000E-01  8.50000000E-01  8.50000000E-01
  8.00000000E-01  8.50000000E-01  8.50000000E-01  8.50000000E-01  8.00000000E-01
  8.50000000E-01  8.50000000E-01  8.50000000E-01  8.00000000E-01  8.50000000E-01
  8.50000000E-01  8.50000000E-01  8.00000000E-01  8.50000000E-01  8.50000000E-01
  8.50000000E-01  8.00000000E-01  8.50000000E-01  8.50000000E-01  8.50000000E-01
  8.00000000E-01  8.50000000E-01  8.50000000E-01  8.50000000E-01  8.00000000E-01
  8.50000000E-01  8.50000000E-01  8.50000000E-01  8.00000000E-01  8.50000000E-01
  8.50000000E-01  8.50000000E-01  8.00000000E-01  8.50000000E-01  8.50000000E-01
  8.50000000E-01  8.00000000E-01  8.50000000E-01  8.50000000E-01  8.50000000E-01
  8.00000000E-01  8.50000000E-01  8.50000000E-01  8.50000000E-01  8.00000000E-01
  8.50000000E-01  8.50000000E-01  8.50000000E-01  8.00000000E-01  8.50000000E-01
  8.50000000E-01  8.50000000E-01  8.00000000E-01  8.50000000E-01  8.50000000E-01
  8.50000000E-01  8.00000000E-01  8.50000000E-01  8.50000000E-01  8.50000000E-01
  8.00000000E-01  8.50000000E-01  8.50000000E-01  8.50000000E-01  8.00000000E-01
  8.50000000E-01  8.50000000E-01  8.50000000E-01  8.00000000E-01  8.50000000E-01
  8.50000000E-01  8.50000000E-01  8.00000000E-01  8.50000000E-01  8.50000000E-01
  8.50000000E-01  8.00000000E-01  8.50000000E-01  8.50000000E-01  8.50000000E-01
  8.00000000E-01  8.50000000E-01  8.50000000E-01  8.50000000E-01  8.00000000E-01
  8.50000000E-01  8.50000000E-01  8.50000000E-01  8.00000000E-01  8.50000000E-01
  8.50000000E-01  8.50000000E-01  8.00000000E-01  8.50000000E-01  8.50000000E-01
  8.50000000E-01  8.00000000E-01  8.50000000E-01  8.50000000E-01  8.50000000E-01
  8.00000000E-01  8.50000000E-01  8.50000000E-01  8.50000000E-01  8.00000000E-01
  8.50000000E-01  8.50000000E-01  8.50000000E-01  8.00000000E-01  8.50000000E-01
  8.50000000E-01  8.50000000E-01  8.00000000E-01  8.50000000E-01  8.50000000E-01
  8.50000000E-01  8.00000000E-01  8.50000000E-01  8.50000000E-01  8.50000000E-01
  8.00000000E-01  8.50000000E-01  8.50000000E-01  8.50000000E-01  8.00000000E-01
  8.50000000E-01  8.50000000E-01  8.50000000E-01  8.00000000E-01  8.50000000E-01
  8.50000000E-01  8.50000000E-01  8.00000000E-01  8.50000000E-01  8.50000000E-01
  8.50000000E-01  8.00000000E-01  8.50000000E-01  8.50000000E-01  8.50000000E-01
  8.00000000E-01  8.50000000E-01  8.50000000E-01  8.50000000E-01  8.00000000E-01
  8.50000000E-01  8.50000000E-01  8.50000000E-01  8.00000000E-01  8.50000000E-01
  8.50000000E-01  8.50000000E-01  8.00000000E-01  8.50000000E-01  8.50000000E-01
  8.50000000E-01  8.00000000E-01  8.50000000E-01  8.50000000E-01  8.50000000E-01
  8.00000000E-01  8.50000000E-01  8.50000000E-01  8.50000000E-01  8.00000000E-01
  8.50000000E-01  8.50000000E-01  8.50000000E-01  8.00000000E-01  8.50000000E-01
  8.50000000E-01  8.50000000E-01  8.00000000E-01  8.50000000E-01  8.50000000E-01
  8.50000000E-01  8.00000000E-01  8.50000000E-01  8.50000000E-01  8.50000000E-01
  8.00000000E-01  8.50000000E-01  8.50000000E-01  8.50000000E-01  8.00000000E-01
  8.50000000E-01  8.50000000E-01  8.50000000E-01  8.00000000E-01  8.50000000E-01
  8.50000000E-01  8.50000000E-01  8.00000000E-01  8.50000000E-01  8.50000000E-01
  8.50000000E-01  8.00000000E-01  8.50000000E-01  8.50000000E-01  8.50000000E-01
  8.00000000E-01  8.50000000E-01  8.50000000E-01  8.50000000E-01  8.00000000E-01
  8.50000000E-01  8.50000000E-01  8.50000000E-01  8.00000000E-01  8.50000000E-01
  8.50000000E-01  8.50000000E-01  8.00000000E-01  8.50000000E-01  8.50000000E-01
  8.50000000E-01  8.00000000E-01  8.50000000E-01  8.50000000E-01  8.50000000E-01
  8.00000000E-01  8.50000000E-01  8.50000000E-01  8.50000000E-01  8.00000000E-01
  8.50000000E-01  8.50000000E-01  8.50000000E-01  8.00000000E-01  8.50000000E-01
  8.50000000E-01  8.50000000E-01  8.00000000E-01  8.50000000E-01  8.50000000E-01
  8.50000000E-01  8.00000000E-01  8.50000000E-01  8.50000000E-01  8.50000000E-01
  8.00000000E-01  8.50000000E-01  8.50000000E-01  8.50000000E-01  8.00000000E-01
  8.50000000E-01  8.50000000E-01  8.50000000E-01  8.00000000E-01  8.50000000E-01
  8.50000000E-01  8.50000000E-01  8.00000000E-01  8.50000000E-01  8.50000000E-01
  8.50000000E-01  8.00000000E-01  8.50000000E-01  8.50000000E-01  8.50000000E-01
  8.00000000E-01  8.50000000E-01  8.50000000E-01  8.50000000E-01  8.00000000E-01
  8.50000000E-01  8.50000000E-01  8.50000000E-01  8.00000000E-01  8.50000000E-01
  8.50000000E-01  8.50000000E-01  8.00000000E-01  8.50000000E-01  8.50000000E-01
  8.50000000E-01  8.00000000E-01  8.50000000E-01  8.50000000E-01  8.50000000E-01
  8.00000000E-01  8.50000000E-01  8.50000000E-01  8.50000000E-01  8.00000000E-01
  8.50000000E-01  8.50000000E-01  8.50000000E-01  8.00000000E-01  8.50000000E-01
  8.50000000E-01  8.50000000E-01  8.00000000E-01  8.50000000E-01  8.50000000E-01
  8.50000000E-01  8.00000000E-01  8.50000000E-01  8.50000000E-01  8.50000000E-01
  8.00000000E-01  8.50000000E-01  8.50000000E-01  8.50000000E-01  8.00000000E-01
  8.50000000E-01  8.50000000E-01  8.50000000E-01  8.00000000E-01  8.50000000E-01
  8.50000000E-01  8.50000000E-01  8.00000000E-01  8.50000000E-01  8.50000000E-01
  8.50000000E-01  8.00000000E-01  8.50000000E-01  8.50000000E-01  8.50000000E-01
  8.00000000E-01  8.50000000E-01  8.50000000E-01  8.50000000E-01  8.00000000E-01
  8.50000000E-01  8.50000000E-01  8.50000000E-01  8.00000000E-01  8.50000000E-01
  8.50000000E-01  8.50000000E-01  8.00000000E-01  8.50000000E-01  8.50000000E-01
  8.50000000E-01  8.00000000E-01  8.50000000E-01  8.50000000E-01  8.50000000E-01
  8.00000000E-01  8.50000000E-01  8.50000000E-01  8.50000000E-01  8.00000000E-01
  8.50000000E-01  8.50000000E-01  8.50000000E-01  8.00000000E-01  8.50000000E-01
  8.50000000E-01  8.50000000E-01  8.00000000E-01  8.50000000E-01  8.50000000E-01
  8.50000000E-01  8.00000000E-01  8.50000000E-01  8.50000000E-01  8.50000000E-01
  8.00000000E-01  8.50000000E-01  8.50000000E-01  8.50000000E-01  8.00000000E-01
  8.50000000E-01  8.50000000E-01  8.50000000E-01  8.00000000E-01  8.50000000E-01
  8.50000000E-01  8.50000000E-01  8.00000000E-01  8.50000000E-01  8.50000000E-01
  8.50000000E-01  8.00000000E-01  8.50000000E-01  8.50000000E-01  8.50000000E-01
  8.00000000E-01  8.50000000E-01  8.50000000E-01  8.50000000E-01  8.00000000E-01
  8.50000000E-01  8.50000000E-01  8.50000000E-01  8.00000000E-01  8.50000000E-01
  8.50000000E-01  8.50000000E-01  8.00000000E-01  8.50000000E-01  8.50000000E-01
  8.50000000E-01  8.00000000E-01  8.50000000E-01  8.50000000E-01  8.50000000E-01
  8.00000000E-01  8.50000000E-01  8.50000000E-01  8.50000000E-01  8.00000000E-01
  8.50000000E-01  8.50000000E-01  8.50000000E-01  8.00000000E-01  8.50000000E-01
  8.50000000E-01  8.50000000E-01  8.00000000E-01  8.50000000E-01  8.50000000E-01
  8.50000000E-01  8.00000000E-01  8.50000000E-01  8.50000000E-01  8.50000000E-01
  8.00000000E-01  8.50000000E-01  8.50000000E-01  8.50000000E-01  8.00000000E-01
  8.50000000E-01  8.50000000E-01  8.50000000E-01  8.00000000E-01  8.50000000E-01
  8.50000000E-01  8.50000000E-01  8.00000000E-01  8.50000000E-01  8.50000000E-01
  8.50000000E-01  8.00000000E-01  8.50000000E-01  8.50000000E-01  8.50000000E-01
  8.00000000E-01  8.50000000E-01  8.50000000E-01  8.50000000E-01  8.00000000E-01
  8.50000000E-01  8.50000000E-01  8.50000000E-01  8.00000000E-01  8.50000000E-01
  8.50000000E-01  8.50000000E-01  8.00000000E-01  8.50000000E-01  8.50000000E-01
  8.50000000E-01  8.00000000E-01  8.50000000E-01  8.50000000E-01  8.50000000E-01
  8.00000000E-01  8.50000000E-01  8.50000000E-01  8.50000000E-01  8.00000000E-01
  8.50000000E-01  8.50000000E-01  8.50000000E-01  8.00000000E-01  8.50000000E-01
  8.50000000E-01  8.50000000E-01  8.00000000E-01  8.50000000E-01  8.50000000E-01
  8.50000000E-01  8.00000000E-01  8.50000000E-01  8.50000000E-01  8.50000000E-01
  8.00000000E-01  8.50000000E-01  8.50000000E-01  8.50000000E-01  8.00000000E-01
  8.50000000E-01  8.50000000E-01  8.50000000E-01  8.00000000E-01  8.50000000E-01
  8.50000000E-01  8.50000000E-01  8.00000000E-01  8.50000000E-01  8.50000000E-01
  8.50000000E-01  8.00000000E-01  8.50000000E-01  8.50000000E-01  8.50000000E-01
  8.00000000E-01  8.50000000E-01  8.50000000E-01  8.50000000E-01  8.00000000E-01
  8.50000000E-01  8.50000000E-01  8.50000000E-01  8.00000000E-01  8.50000000E-01
  8.50000000E-01  8.50000000E-01  8.00000000E-01  8.50000000E-01  8.50000000E-01
  8.50000000E-01  8.00000000E-01  8.50000000E-01  8.50000000E-01  8.50000000E-01
  8.00000000E-01  8.50000000E-01  8.50000000E-01  8.50000000E-01  8.00000000E-01
  8.50000000E-01  8.50000000E-01  8.50000000E-01  8.00000000E-01  8.50000000E-01
  8.50000000E-01  8.50000000E-01  8.00000000E-01  8.50000000E-01  8.50000000E-01
  8.50000000E-01  8.00000000E-01  8.50000000E-01  8.50000000E-01  8.50000000E-01
  8.00000000E-01  8.50000000E-01  8.50000000E-01  8.50000000E-01  8.00000000E-01
  8.50000000E-01  8.50000000E-01  8.50000000E-01  8.00000000E-01  8.50000000E-01
  8.50000000E-01  8.50000000E-01  8.00000000E-01  8.50000000E-01  8.50000000E-01
  8.50000000E-01  8.00000000E-01  8.50000000E-01  8.50000000E-01  8.50000000E-01
  8.00000000E-01  8.50000000E-01  8.50000000E-01  8.50000000E-01  8.00000000E-01
  8.50000000E-01  8.50000000E-01  8.50000000E-01  8.00000000E-01  8.50000000E-01
  8.50000000E-01  8.50000000E-01  8.00000000E-01  8.50000000E-01  8.50000000E-01
  8.50000000E-01  8.00000000E-01  8.50000000E-01  8.50000000E-01  8.50000000E-01
  8.00000000E-01  8.50000000E-01  8.50000000E-01  8.50000000E-01  8.00000000E-01
  8.50000000E-01  8.50000000E-01  8.50000000E-01  8.00000000E-01  8.50000000E-01
  8.50000000E-01  8.50000000E-01  8.00000000E-01  8.50000000E-01  8.50000000E-01
  8.50000000E-01  8.00000000E-01  8.50000000E-01  8.50000000E-01  8.50000000E-01
  8.00000000E-01  8.50000000E-01  8.50000000E-01  8.50000000E-01  8.00000000E-01
  8.50000000E-01  8.50000000E-01  8.50000000E-01  8.00000000E-01  8.50000000E-01
  8.50000000E-01  8.50000000E-01  8.00000000E-01  8.50000000E-01  8.50000000E-01
  8.50000000E-01  8.00000000E-01  8.50000000E-01  8.50000000E-01  8.50000000E-01
  8.00000000E-01  8.50000000E-01  8.50000000E-01  8.50000000E-01  8.00000000E-01
  8.50000000E-01  8.50000000E-01  8.50000000E-01  8.00000000E-01  8.50000000E-01
  8.50000000E-01  8.50000000E-01  8.00000000E-01  8.50000000E-01  8.50000000E-01
  8.50000000E-01  8.00000000E-01  8.50000000E-01  8.50000000E-01  8.50000000E-01
  8.00000000E-01  8.50000000E-01  8.50000000E-01  8.50000000E-01  8.00000000E-01
  8.50000000E-01  8.50000000E-01  8.50000000E-01  8.00000000E-01  8.50000000E-01
  8.50000000E-01  8.50000000E-01  8.00000000E-01  8.50000000E-01  8.50000000E-01
  8.50000000E-01  8.00000000E-01  8.50000000E-01  8.50000000E-01  8.50000000E-01
  8.00000000E-01  8.50000000E-01  8.50000000E-01  8.50000000E-01  8.00000000E-01
  8.50000000E-01  8.50000000E-01  8.50000000E-01  8.00000000E-01  8.50000000E-01
  8.50000000E-01  8.50000000E-01  8.00000000E-01  8.50000000E-01  8.50000000E-01
  8.50000000E-01  8.00000000E-01  8.50000000E-01  8.50000000E-01  8.50000000E-01
  8.00000000E-01  8.50000000E-01  8.50000000E-01  8.50000000E-01  8.00000000E-01
  8.50000000E-01  8.50000000E-01  8.50000000E-01  8.00000000E-01  8.50000000E-01
  8.50000000E-01  8.50000000E-01  8.00000000E-01  8.50000000E-01  8.50000000E-01
  8.50000000E-01  8.00000000E-01  8.50000000E-01  8.50000000E-01  8.50000000E-01
  8.00000000E-01  8.50000000E-01  8.50000000E-01  8.50000000E-01  8.00000000E-01
  8.50000000E-01  8.50000000E-01  8.50000000E-01  8.00000000E-01  8.50000000E-01
  8.50000000E-01  8.50000000E-01  8.00000000E-01  8.50000000E-01  8.50000000E-01
  8.50000000E-01  8.00000000E-01  8.50000000E-01  8.50000000E-01  8.50000000E-01
  8.00000000E-01  8.50000000E-01  8.50000000E-01  8.50000000E-01  8.00000000E-01
  8.50000000E-01  8.50000000E-01  8.50000000E-01  8.00000000E-01  8.50000000E-01
  8.50000000E-01  8.50000000E-01  8.00000000E-01  8.50000000E-01  8.50000000E-01
  8.50000000E-01  8.00000000E-01  8.50000000E-01  8.50000000E-01  8.50000000E-01
  8.00000000E-01  8.50000000E-01  8.50000000E-01  8.50000000E-01  8.00000000E-01
  8.50000000E-01  8.50000000E-01  8.50000000E-01  8.00000000E-01  8.50000000E-01
  8.50000000E-01  8.50000000E-01  8.00000000E-01  8.50000000E-01  8.50000000E-01
  8.50000000E-01  8.00000000E-01  8.50000000E-01  8.50000000E-01  8.50000000E-01
  8.00000000E-01  8.50000000E-01  8.50000000E-01  8.50000000E-01  8.00000000E-01
  8.50000000E-01  8.50000000E-01  8.50000000E-01  8.00000000E-01  8.50000000E-01
  8.50000000E-01  8.50000000E-01  8.00000000E-01  8.50000000E-01  8.50000000E-01
  8.50000000E-01  8.00000000E-01  8.50000000E-01  8.50000000E-01  8.50000000E-01
  8.00000000E-01  8.50000000E-01  8.50000000E-01  8.50000000E-01  8.00000000E-01
  8.50000000E-01  8.50000000E-01  8.50000000E-01  8.00000000E-01  8.50000000E-01
  8.50000000E-01  8.50000000E-01  8.00000000E-01  8.50000000E-01  8.50000000E-01
  8.50000000E-01  8.00000000E-01  8.50000000E-01  8.50000000E-01  8.50000000E-01
  8.00000000E-01  8.50000000E-01  8.50000000E-01  8.50000000E-01  8.00000000E-01
  8.50000000E-01  8.50000000E-01  8.50000000E-01  8.00000000E-01  8.50000000E-01
  8.50000000E-01  8.50000000E-01  8.00000000E-01  8.50000000E-01  8.50000000E-01
  8.50000000E-01  8.00000000E-01  8.50000000E-01  8.50000000E-01  8.50000000E-01
  8.00000000E-01  8.50000000E-01  8.50000000E-01  8.50000000E-01  8.00000000E-01
  8.50000000E-01  8.50000000E-01  8.50000000E-01  8.00000000E-01  8.50000000E-01
  8.50000000E-01  8.50000000E-01  8.00000000E-01  8.50000000E-01  8.50000000E-01
  8.50000000E-01  8.00000000E-01  8.50000000E-01  8.50000000E-01  8.50000000E-01
  8.00000000E-01  8.50000000E-01  8.50000000E-01  8.50000000E-01  8.00000000E-01
  8.50000000E-01  8.50000000E-01  8.50000000E-01  8.00000000E-01  8.50000000E-01
  8.50000000E-01  8.50000000E-01  8.00000000E-01  8.50000000E-01  8.50000000E-01
  8.50000000E-01  8.00000000E-01  8.50000000E-01  8.50000000E-01  8.50000000E-01
  8.00000000E-01  8.50000000E-01  8.50000000E-01  8.50000000E-01  8.00000000E-01
  8.50000000E-01  8.50000000E-01  8.50000000E-01  8.00000000E-01  8.50000000E-01
  8.50000000E-01  8.50000000E-01  8.00000000E-01  8.50000000E-01  8.50000000E-01
  8.50000000E-01  8.00000000E-01  8.50000000E-01  8.50000000E-01  8.50000000E-01
  8.00000000E-01  8.50000000E-01  8.50000000E-01  8.50000000E-01  8.00000000E-01
  8.50000000E-01  8.50000000E-01  8.50000000E-01  8.00000000E-01  8.50000000E-01
  8.50000000E-01  8.50000000E-01  8.00000000E-01  8.50000000E-01  8.50000000E-01
  8.50000000E-01  8.00000000E-01  8.50000000E-01  8.50000000E-01  8.50000000E-01
  8.00000000E-01  8.50000000E-01  8.50000000E-01  8.50000000E-01  8.00000000E-01
  8.50000000E-01  8.50000000E-01  8.50000000E-01  8.00000000E-01  8.50000000E-01
  8.50000000E-01  8.50000000E-01  8.00000000E-01  8.50000000E-01  8.50000000E-01
  8.50000000E-01  8.00000000E-01  8.50000000E-01  8.50000000E-01  8.50000000E-01
  8.00000000E-01  8.50000000E-01  8.50000000E-01  8.50000000E-01  8.00000000E-01
  8.50000000E-01  8.50000000E-01  8.50000000E-01  8.00000000E-01  8.50000000E-01
  8.50000000E-01  8.50000000E-01  8.00000000E-01  8.50000000E-01  8.50000000E-01
  8.50000000E-01  8.00000000E-01  8.50000000E-01  8.50000000E-01  8.50000000E-01
  8.00000000E-01  8.50000000E-01  8.50000000E-01  8.50000000E-01  8.00000000E-01
  8.50000000E-01  8.50000000E-01  8.50000000E-01  8.00000000E-01  8.50000000E-01
  8.50000000E-01  8.50000000E-01  8.00000000E-01  8.50000000E-01  8.50000000E-01
  8.50000000E-01  8.00000000E-01  8.50000000E-01  8.50000000E-01  8.50000000E-01
  8.00000000E-01  8.50000000E-01  8.50000000E-01  8.50000000E-01  8.00000000E-01
  8.50000000E-01  8.50000000E-01  8.50000000E-01  8.00000000E-01  8.50000000E-01
  8.50000000E-01  8.50000000E-01  8.00000000E-01  8.50000000E-01  8.50000000E-01
  8.50000000E-01  8.00000000E-01  8.50000000E-01  8.50000000E-01  8.50000000E-01
  8.00000000E-01  8.50000000E-01  8.50000000E-01  8.50000000E-01  8.00000000E-01
  8.50000000E-01  8.50000000E-01  8.50000000E-01  8.00000000E-01  8.50000000E-01
  8.50000000E-01  8.50000000E-01  8.00000000E-01  8.50000000E-01  8.50000000E-01
  8.50000000E-01  8.00000000E-01  8.50000000E-01  8.50000000E-01  8.50000000E-01
  8.00000000E-01  8.50000000E-01  8.50000000E-01  8.50000000E-01  8.00000000E-01
  8.50000000E-01  8.50000000E-01  8.50000000E-01  8.00000000E-01  8.50000000E-01
  8.50000000E-01  8.50000000E-01  8.00000000E-01  8.50000000E-01  8.50000000E-01
  8.50000000E-01  8.00000000E-01  8.50000000E-01  8.50000000E-01  8.50000000E-01
  8.00000000E-01  8.50000000E-01  8.50000000E-01  8.50000000E-01  8.00000000E-01
  8.50000000E-01  8.50000000E-01  8.50000000E-01  8.00000000E-01  8.50000000E-01
  8.50000000E-01  8.50000000E-01  8.00000000E-01  8.50000000E-01  8.50000000E-01
  8.50000000E-01  8.00000000E-01  8.50000000E-01  8.50000000E-01  8.50000000E-01
  8.00000000E-01  8.50000000E-01  8.50000000E-01  8.50000000E-01  8.00000000E-01
  8.50000000E-01  8.50000000E-01  8.50000000E-01  8.00000000E-01  8.50000000E-01
  8.50000000E-01  8.50000000E-01  8.00000000E-01  8.50000000E-01  8.50000000E-01
  8.50000000E-01  8.00000000E-01  8.50000000E-01  8.50000000E-01  8.50000000E-01
  8.00000000E-01  8.50000000E-01  8.50000000E-01  8.50000000E-01  8.00000000E-01
  8.50000000E-01  8.50000000E-01  8.50000000E-01  8.00000000E-01  8.50000000E-01
  8.50000000E-01  8.50000000E-01  8.00000000E-01  8.50000000E-01  8.50000000E-01
  8.50000000E-01  8.00000000E-01  8.50000000E-01  8.50000000E-01  8.50000000E-01
  8.00000000E-01  8.50000000E-01  8.50000000E-01  8.50000000E-01  8.00000000E-01
  8.50000000E-01  8.50000000E-01  8.50000000E-01  8.00000000E-01  8.50000000E-01
  8.50000000E-01  8.50000000E-01  8.00000000E-01  8.50000000E-01  8.50000000E-01
  8.50000000E-01  8.00000000E-01  8.50000000E-01  8.50000000E-01  8.50000000E-01
  8.00000000E-01  8.50000000E-01  8.50000000E-01  8.50000000E-01  8.00000000E-01
  8.50000000E-01  8.50000000E-01  8.50000000E-01  8.00000000E-01  8.50000000E-01
  8.50000000E-01  8.50000000E-01  8.00000000E-01  8.50000000E-01  8.50000000E-01
  8.50000000E-01  8.00000000E-01  8.50000000E-01  8.50000000E-01  8.50000000E-01
  8.00000000E-01  8.50000000E-01  8.50000000E-01  8.50000000E-01  8.00000000E-01
  8.50000000E-01  8.50000000E-01  8.50000000E-01  8.00000000E-01  8.50000000E-01
  8.50000000E-01  8.50000000E-01  8.00000000E-01  8.50000000E-01  8.50000000E-01
  8.50000000E-01  8.00000000E-01  8.50000000E-01  8.50000000E-01  8.50000000E-01
  8.00000000E-01  8.50000000E-01  8.50000000E-01  8.50000000E-01  8.00000000E-01
  8.50000000E-01  8.50000000E-01  8.50000000E-01  8.00000000E-01  8.50000000E-01
  8.50000000E-01  8.50000000E-01  8.00000000E-01  8.50000000E-01  8.50000000E-01
  8.50000000E-01  8.00000000E-01  8.50000000E-01  8.50000000E-01  8.50000000E-01
  8.00000000E-01  8.50000000E-01  8.50000000E-01  8.50000000E-01  8.00000000E-01
  8.50000000E-01  8.50000000E-01  8.50000000E-01  8.00000000E-01  8.50000000E-01
  8.50000000E-01  8.50000000E-01  8.00000000E-01  8.50000000E-01  8.50000000E-01
  8.50000000E-01  8.00000000E-01  8.50000000E-01  8.50000000E-01  8.50000000E-01
  8.00000000E-01  8.50000000E-01  8.50000000E-01  8.50000000E-01  8.00000000E-01
  8.50000000E-01  8.50000000E-01  8.50000000E-01  8.00000000E-01  8.50000000E-01
  8.50000000E-01  8.50000000E-01  8.00000000E-01  8.50000000E-01  8.50000000E-01
  8.50000000E-01  8.00000000E-01  8.50000000E-01  8.50000000E-01  8.50000000E-01
  8.00000000E-01  8.50000000E-01  8.50000000E-01  8.50000000E-01  8.00000000E-01
  8.50000000E-01  8.50000000E-01  8.50000000E-01  8.00000000E-01  8.50000000E-01
  8.50000000E-01  8.50000000E-01  8.00000000E-01  8.50000000E-01  8.50000000E-01
  8.50000000E-01  8.00000000E-01  8.50000000E-01  8.50000000E-01  8.50000000E-01
  8.00000000E-01  8.50000000E-01  8.50000000E-01  8.50000000E-01  8.00000000E-01
  8.50000000E-01  8.50000000E-01  8.50000000E-01  8.00000000E-01  8.50000000E-01
  8.50000000E-01  8.50000000E-01  8.00000000E-01  8.50000000E-01  8.50000000E-01
  8.50000000E-01  8.00000000E-01  8.50000000E-01  8.50000000E-01  8.50000000E-01
  8.00000000E-01  8.50000000E-01  8.50000000E-01  8.50000000E-01  8.00000000E-01
  8.50000000E-01  8.50000000E-01  8.50000000E-01  8.00000000E-01  8.50000000E-01
  8.50000000E-01  8.50000000E-01  8.00000000E-01  8.50000000E-01  8.50000000E-01
  8.50000000E-01  8.00000000E-01  8.50000000E-01  8.50000000E-01  8.50000000E-01
  8.00000000E-01  8.50000000E-01  8.50000000E-01  8.50000000E-01  8.00000000E-01
  8.50000000E-01  8.50000000E-01  8.50000000E-01  8.00000000E-01  8.50000000E-01
  8.50000000E-01  8.50000000E-01  8.00000000E-01  8.50000000E-01  8.50000000E-01
  8.50000000E-01  8.00000000E-01  8.50000000E-01  8.50000000E-01  8.50000000E-01
  8.00000000E-01  8.50000000E-01  8.50000000E-01  8.50000000E-01  8.00000000E-01
  8.50000000E-01  8.50000000E-01  8.50000000E-01  8.00000000E-01  8.50000000E-01
  8.50000000E-01  8.50000000E-01  8.00000000E-01  8.50000000E-01  8.50000000E-01
  8.50000000E-01  8.00000000E-01  8.50000000E-01  8.50000000E-01  8.50000000E-01
  8.00000000E-01  8.50000000E-01  8.50000000E-01  8.50000000E-01  8.00000000E-01
  8.50000000E-01  8.50000000E-01  8.50000000E-01  8.00000000E-01  8.50000000E-01
  8.50000000E-01  8.50000000E-01  8.00000000E-01  8.50000000E-01  8.50000000E-01
  8.50000000E-01  8.00000000E-01  8.50000000E-01  8.50000000E-01  8.50000000E-01
  8.00000000E-01  8.50000000E-01  8.50000000E-01  8.50000000E-01  8.00000000E-01
  8.50000000E-01  8.50000000E-01  8.50000000E-01  8.00000000E-01  8.50000000E-01
  8.50000000E-01  8.50000000E-01  8.00000000E-01  8.50000000E-01  8.50000000E-01
  8.50000000E-01  8.00000000E-01  8.50000000E-01  8.50000000E-01  8.50000000E-01
  8.00000000E-01  8.50000000E-01  8.50000000E-01  8.50000000E-01  8.00000000E-01
  8.50000000E-01  8.50000000E-01  8.50000000E-01  8.00000000E-01  8.50000000E-01
  8.50000000E-01  8.50000000E-01  8.00000000E-01  8.50000000E-01  8.50000000E-01
  8.50000000E-01  8.00000000E-01  8.50000000E-01  8.50000000E-01  8.50000000E-01
  8.00000000E-01  8.50000000E-01  8.50000000E-01  8.50000000E-01  8.00000000E-01
  8.50000000E-01  8.50000000E-01  8.50000000E-01  8.00000000E-01  8.50000000E-01
  8.50000000E-01  8.50000000E-01  8.00000000E-01  8.50000000E-01  8.50000000E-01
  8.50000000E-01  8.00000000E-01  8.50000000E-01  8.50000000E-01  8.50000000E-01
  8.00000000E-01  8.50000000E-01  8.50000000E-01  8.50000000E-01  8.00000000E-01
  8.50000000E-01  8.50000000E-01  8.50000000E-01  8.00000000E-01  8.50000000E-01
  8.50000000E-01  8.50000000E-01  8.00000000E-01  8.50000000E-01  8.50000000E-01
  8.50000000E-01  8.00000000E-01  8.50000000E-01  8.50000000E-01  8.50000000E-01
  8.00000000E-01  8.50000000E-01  8.50000000E-01  8.50000000E-01  8.00000000E-01
  8.50000000E-01  8.50000000E-01  8.50000000E-01  8.00000000E-01  8.50000000E-01
  8.50000000E-01  8.50000000E-01  8.00000000E-01  8.50000000E-01  8.50000000E-01
  8.50000000E-01  8.00000000E-01  8.50000000E-01  8.50000000E-01  8.50000000E-01
  8.00000000E-01  8.50000000E-01  8.50000000E-01  8.50000000E-01  8.00000000E-01
  8.50000000E-01  8.50000000E-01  8.50000000E-01  8.00000000E-01  8.50000000E-01
  8.50000000E-01  8.50000000E-01  8.00000000E-01  8.50000000E-01  8.50000000E-01
  8.50000000E-01  8.00000000E-01  8.50000000E-01  8.50000000E-01  8.50000000E-01
  8.00000000E-01  8.50000000E-01  8.50000000E-01  8.50000000E-01  8.00000000E-01
  8.50000000E-01  8.50000000E-01  8.50000000E-01  8.00000000E-01  8.50000000E-01
  8.50000000E-01  8.50000000E-01  8.00000000E-01  8.50000000E-01  8.50000000E-01
  8.50000000E-01  8.00000000E-01  8.50000000E-01  8.50000000E-01  8.50000000E-01
  8.00000000E-01  8.50000000E-01  8.50000000E-01  8.50000000E-01  8.00000000E-01
  8.50000000E-01  8.50000000E-01  8.50000000E-01  8.00000000E-01  8.50000000E-01
  8.50000000E-01  8.50000000E-01  8.00000000E-01  8.50000000E-01  8.50000000E-01
  8.50000000E-01  8.00000000E-01  8.50000000E-01  8.50000000E-01  8.50000000E-01
  8.00000000E-01  8.50000000E-01  8.50000000E-01  8.50000000E-01  8.00000000E-01
  8.50000000E-01  8.50000000E-01  8.50000000E-01  8.00000000E-01  8.50000000E-01
  8.50000000E-01  8.50000000E-01  8.00000000E-01  8.50000000E-01  8.50000000E-01
  8.50000000E-01  8.00000000E-01  8.50000000E-01  8.50000000E-01  8.50000000E-01
  8.00000000E-01  8.50000000E-01  8.50000000E-01  8.50000000E-01  8.00000000E-01
  8.50000000E-01  8.50000000E-01  8.50000000E-01  8.00000000E-01  8.50000000E-01
  8.50000000E-01  8.50000000E-01  8.00000000E-01  8.50000000E-01  8.50000000E-01
  8.50000000E-01  8.00000000E-01  8.50000000E-01  8.50000000E-01  8.50000000E-01
  8.00000000E-01  8.50000000E-01  8.50000000E-01  8.50000000E-01  8.00000000E-01
  8.50000000E-01  8.50000000E-01  8.50000000E-01  8.00000000E-01  8.50000000E-01
  8.50000000E-01  8.50000000E-01  8.00000000E-01  8.50000000E-01  8.50000000E-01
  8.50000000E-01  8.00000000E-01  8.50000000E-01  8.50000000E-01  8.50000000E-01
  8.00000000E-01  8.50000000E-01  8.50000000E-01  8.50000000E-01  8.00000000E-01
  8.50000000E-01  8.50000000E-01  8.50000000E-01  8.00000000E-01  8.50000000E-01
  8.50000000E-01  8.50000000E-01  8.00000000E-01  8.50000000E-01  8.50000000E-01
  8.50000000E-01  8.00000000E-01  8.50000000E-01  8.50000000E-01  8.50000000E-01
  8.00000000E-01  8.50000000E-01  8.50000000E-01  8.50000000E-01  8.00000000E-01
  8.50000000E-01  8.50000000E-01  8.50000000E-01  8.00000000E-01  8.50000000E-01
  8.50000000E-01  8.50000000E-01  8.00000000E-01  8.50000000E-01  8.50000000E-01
  8.50000000E-01  8.00000000E-01  8.50000000E-01  8.50000000E-01  8.50000000E-01
  8.00000000E-01  8.50000000E-01  8.50000000E-01  8.50000000E-01  8.00000000E-01
  8.50000000E-01  8.50000000E-01  8.50000000E-01  8.00000000E-01  8.50000000E-01
  8.50000000E-01  8.50000000E-01  8.00000000E-01  8.50000000E-01  8.50000000E-01
  8.50000000E-01  8.00000000E-01  8.50000000E-01  8.50000000E-01  8.50000000E-01
  8.00000000E-01  8.50000000E-01  8.50000000E-01  8.50000000E-01  8.00000000E-01
  8.50000000E-01  8.50000000E-01  8.50000000E-01  8.00000000E-01  8.50000000E-01
  8.50000000E-01  8.50000000E-01  8.00000000E-01  8.50000000E-01  8.50000000E-01
  8.50000000E-01  8.00000000E-01  8.50000000E-01  8.50000000E-01  8.50000000E-01
  8.00000000E-01  8.50000000E-01  8.50000000E-01  8.50000000E-01  8.00000000E-01
  8.50000000E-01  8.50000000E-01  8.50000000E-01  8.00000000E-01  8.50000000E-01
  8.50000000E-01  8.50000000E-01  8.00000000E-01  8.50000000E-01  8.50000000E-01
  8.50000000E-01  8.00000000E-01  8.50000000E-01  8.50000000E-01  8.50000000E-01
  8.00000000E-01  8.50000000E-01  8.50000000E-01  8.50000000E-01  8.00000000E-01
  8.50000000E-01  8.50000000E-01  8.50000000E-01  8.00000000E-01  8.50000000E-01
  8.50000000E-01  8.50000000E-01  8.00000000E-01  8.50000000E-01  8.50000000E-01
  8.50000000E-01  8.00000000E-01  8.50000000E-01  8.50000000E-01  8.50000000E-01
  8.00000000E-01  8.50000000E-01  8.50000000E-01  8.50000000E-01  8.00000000E-01
  8.50000000E-01  8.50000000E-01  8.50000000E-01  8.00000000E-01  8.50000000E-01
  8.50000000E-01  8.50000000E-01  8.00000000E-01  8.50000000E-01  8.50000000E-01
  8.50000000E-01  8.00000000E-01  8.50000000E-01  8.50000000E-01  8.50000000E-01
  8.00000000E-01  8.50000000E-01  8.50000000E-01  8.50000000E-01  8.00000000E-01
  8.50000000E-01  8.50000000E-01  8.50000000E-01  8.00000000E-01  8.50000000E-01
  8.50000000E-01  8.50000000E-01  8.00000000E-01  8.50000000E-01  8.50000000E-01
  8.50000000E-01  8.00000000E-01  8.50000000E-01  8.50000000E-01  8.50000000E-01
  8.00000000E-01  8.50000000E-01  8.50000000E-01  8.50000000E-01  8.00000000E-01
  8.50000000E-01  8.50000000E-01  8.50000000E-01  8.00000000E-01  8.50000000E-01
  8.50000000E-01  8.50000000E-01  8.00000000E-01  8.50000000E-01  8.50000000E-01
  8.50000000E-01  8.00000000E-01  8.50000000E-01  8.50000000E-01  8.50000000E-01
  8.00000000E-01  8.50000000E-01  8.50000000E-01  8.50000000E-01  8.00000000E-01
  8.50000000E-01  8.50000000E-01  8.50000000E-01  8.00000000E-01  8.50000000E-01
  8.50000000E-01  8.50000000E-01  8.00000000E-01  8.50000000E-01  8.50000000E-01
  8.50000000E-01  8.00000000E-01  8.50000000E-01  8.50000000E-01  8.50000000E-01
  8.00000000E-01  8.50000000E-01  8.50000000E-01  8.50000000E-01  8.00000000E-01
  8.50000000E-01  8.50000000E-01  8.50000000E-01  8.00000000E-01  8.50000000E-01
  8.50000000E-01  8.50000000E-01  8.00000000E-01  8.50000000E-01  8.50000000E-01
  8.50000000E-01  8.00000000E-01  8.50000000E-01  8.50000000E-01  8.50000000E-01
  8.00000000E-01  8.50000000E-01  8.50000000E-01  8.50000000E-01  8.00000000E-01
  8.50000000E-01  8.50000000E-01  8.50000000E-01  8.00000000E-01  8.50000000E-01
  8.50000000E-01  8.50000000E-01  8.00000000E-01  8.50000000E-01  8.50000000E-01
  8.50000000E-01  8.00000000E-01  8.50000000E-01  8.50000000E-01  8.50000000E-01
  8.00000000E-01  8.50000000E-01  8.50000000E-01  8.50000000E-01  8.00000000E-01
  8.50000000E-01  8.50000000E-01  8.50000000E-01  8.00000000E-01  8.50000000E-01
  8.50000000E-01  8.50000000E-01  8.00000000E-01  8.50000000E-01  8.50000000E-01
  8.50000000E-01  8.00000000E-01  8.50000000E-01  8.50000000E-01  8.50000000E-01
  8.00000000E-01  8.50000000E-01  8.50000000E-01  8.50000000E-01  8.00000000E-01
  8.50000000E-01  8.50000000E-01  8.50000000E-01  8.00000000E-01  8.50000000E-01
  8.50000000E-01  8.50000000E-01  8.00000000E-01  8.50000000E-01  8.50000000E-01
  8.50000000E-01  8.00000000E-01  8.50000000E-01  8.50000000E-01  8.50000000E-01
  8.00000000E-01  8.50000000E-01  8.50000000E-01  8.50000000E-01  8.00000000E-01
  8.50000000E-01  8.50000000E-01  8.50000000E-01  8.00000000E-01  8.50000000E-01
  8.50000000E-01  8.50000000E-01  8.00000000E-01  8.50000000E-01  8.50000000E-01
  8.50000000E-01  8.00000000E-01  8.50000000E-01  8.50000000E-01  8.50000000E-01
  8.00000000E-01  8.50000000E-01  8.50000000E-01  8.50000000E-01  8.00000000E-01
  8.50000000E-01  8.50000000E-01  8.50000000E-01  8.00000000E-01  8.50000000E-01
  8.50000000E-01  8.50000000E-01  8.00000000E-01  8.50000000E-01  8.50000000E-01
  8.50000000E-01  8.00000000E-01  8.50000000E-01  8.50000000E-01  8.50000000E-01
  8.00000000E-01  8.50000000E-01  8.50000000E-01  8.50000000E-01  8.00000000E-01
  8.50000000E-01  8.50000000E-01  8.50000000E-01  8.00000000E-01  8.50000000E-01
  8.50000000E-01  8.50000000E-01  8.00000000E-01  8.50000000E-01  8.50000000E-01
  8.50000000E-01  8.00000000E-01  8.50000000E-01  8.50000000E-01  8.50000000E-01
  8.00000000E-01  8.50000000E-01  8.50000000E-01  8.50000000E-01  8.00000000E-01
  8.50000000E-01  8.50000000E-01  8.50000000E-01  8.00000000E-01  8.50000000E-01
  8.50000000E-01  8.50000000E-01  8.00000000E-01  8.50000000E-01  8.50000000E-01
  8.50000000E-01  8.00000000E-01  8.50000000E-01  8.50000000E-01  8.50000000E-01
  8.00000000E-01  8.50000000E-01  8.50000000E-01  8.50000000E-01  8.00000000E-01
  8.50000000E-01  8.50000000E-01  8.50000000E-01  8.00000000E-01  8.50000000E-01
  8.50000000E-01  8.50000000E-01  8.00000000E-01  8.50000000E-01  8.50000000E-01
  8.50000000E-01  8.00000000E-01  8.50000000E-01  8.50000000E-01  8.50000000E-01
  8.00000000E-01  8.50000000E-01  8.50000000E-01  8.50000000E-01  8.00000000E-01
  8.50000000E-01  8.50000000E-01  8.50000000E-01  8.00000000E-01  8.50000000E-01
  8.50000000E-01  8.50000000E-01  8.00000000E-01  8.50000000E-01  8.50000000E-01
  8.50000000E-01  8.00000000E-01  8.50000000E-01  8.50000000E-01  8.50000000E-01
  8.00000000E-01  8.50000000E-01  8.50000000E-01  8.50000000E-01  8.00000000E-01
  8.50000000E-01  8.50000000E-01  8.50000000E-01  8.00000000E-01  8.50000000E-01
  8.50000000E-01  8.50000000E-01  8.00000000E-01  8.50000000E-01  8.50000000E-01
  8.50000000E-01  8.00000000E-01  8.50000000E-01  8.50000000E-01  8.50000000E-01
  8.00000000E-01  8.50000000E-01  8.50000000E-01  8.50000000E-01  8.00000000E-01
  8.50000000E-01  8.50000000E-01  8.50000000E-01  8.00000000E-01  8.50000000E-01
  8.50000000E-01  8.50000000E-01  8.00000000E-01  8.50000000E-01  8.50000000E-01
  8.50000000E-01  8.00000000E-01  8.50000000E-01  8.50000000E-01  8.50000000E-01
  8.00000000E-01  8.50000000E-01  8.50000000E-01  8.50000000E-01  8.00000000E-01
  8.50000000E-01  8.50000000E-01  8.50000000E-01  8.00000000E-01  8.50000000E-01
  8.50000000E-01  8.50000000E-01  8.00000000E-01  8.50000000E-01  8.50000000E-01
  8.50000000E-01  8.00000000E-01  8.50000000E-01  8.50000000E-01  8.50000000E-01
  8.00000000E-01  8.50000000E-01  8.50000000E-01  8.50000000E-01  8.00000000E-01
  8.50000000E-01  8.50000000E-01  8.50000000E-01  8.00000000E-01  8.50000000E-01
  8.50000000E-01  8.50000000E-01  8.00000000E-01  8.50000000E-01  8.50000000E-01
  8.50000000E-01  8.00000000E-01  8.50000000E-01  8.50000000E-01  8.50000000E-01
  8.00000000E-01  8.50000000E-01  8.50000000E-01  8.50000000E-01  8.00000000E-01
  8.50000000E-01  8.50000000E-01  8.50000000E-01  8.00000000E-01  8.50000000E-01
  8.50000000E-01  8.50000000E-01  8.00000000E-01  8.50000000E-01  8.50000000E-01
  8.50000000E-01  8.00000000E-01  8.50000000E-01  8.50000000E-01  8.50000000E-01
  8.00000000E-01  8.50000000E-01  8.50000000E-01  8.50000000E-01  8.00000000E-01
  8.50000000E-01  8.50000000E-01  8.50000000E-01  8.00000000E-01  8.50000000E-01
  8.50000000E-01  8.50000000E-01  8.00000000E-01  8.50000000E-01  8.50000000E-01
  8.50000000E-01  8.00000000E-01  8.50000000E-01  8.50000000E-01  8.50000000E-01
  8.00000000E-01  8.50000000E-01  8.50000000E-01  8.50000000E-01  8.00000000E-01
  8.50000000E-01  8.50000000E-01  8.50000000E-01  8.00000000E-01  8.50000000E-01
  8.50000000E-01  8.50000000E-01  8.00000000E-01  8.50000000E-01  8.50000000E-01
  8.50000000E-01  8.00000000E-01  8.50000000E-01  8.50000000E-01  8.50000000E-01
  8.00000000E-01  8.50000000E-01  8.50000000E-01  8.50000000E-01  8.00000000E-01
  8.50000000E-01  8.50000000E-01  8.50000000E-01  8.00000000E-01  8.50000000E-01
  8.50000000E-01  8.50000000E-01  8.00000000E-01  8.50000000E-01  8.50000000E-01
  8.50000000E-01  8.00000000E-01  8.50000000E-01  8.50000000E-01  8.50000000E-01
  8.00000000E-01  8.50000000E-01  8.50000000E-01  8.50000000E-01  8.00000000E-01
  8.50000000E-01  8.50000000E-01  8.50000000E-01  8.00000000E-01  8.50000000E-01
  8.50000000E-01  8.50000000E-01  8.00000000E-01  8.50000000E-01  8.50000000E-01
  8.50000000E-01  8.00000000E-01  8.50000000E-01  8.50000000E-01  8.50000000E-01
  8.00000000E-01  8.50000000E-01  8.50000000E-01  8.50000000E-01  8.00000000E-01
  8.50000000E-01  8.50000000E-01  8.50000000E-01  8.00000000E-01  8.50000000E-01
  8.50000000E-01  8.50000000E-01  8.00000000E-01  8.50000000E-01  8.50000000E-01
  8.50000000E-01  8.00000000E-01  8.50000000E-01  8.50000000E-01  8.50000000E-01
  8.00000000E-01  8.50000000E-01  8.50000000E-01  8.50000000E-01  8.00000000E-01
  8.50000000E-01  8.50000000E-01  8.50000000E-01  8.00000000E-01  8.50000000E-01
  8.50000000E-01  8.50000000E-01  8.00000000E-01  8.50000000E-01  8.50000000E-01
  8.50000000E-01  8.00000000E-01  8.50000000E-01  8.50000000E-01  8.50000000E-01
  8.00000000E-01  8.50000000E-01  8.50000000E-01  8.50000000E-01  8.00000000E-01
  8.50000000E-01  8.50000000E-01  8.50000000E-01  8.00000000E-01  8.50000000E-01
  8.50000000E-01  8.50000000E-01  8.00000000E-01  8.50000000E-01  8.50000000E-01
  8.50000000E-01  8.00000000E-01  8.50000000E-01  8.50000000E-01  8.50000000E-01
  8.00000000E-01  8.50000000E-01  8.50000000E-01  8.50000000E-01  8.00000000E-01
  8.50000000E-01  8.50000000E-01  8.50000000E-01  8.00000000E-01  8.50000000E-01
  8.50000000E-01  8.50000000E-01  8.00000000E-01  8.50000000E-01  8.50000000E-01
  8.50000000E-01  8.00000000E-01  8.50000000E-01  8.50000000E-01  8.50000000E-01
  8.00000000E-01  8.50000000E-01  8.50000000E-01  8.50000000E-01  8.00000000E-01
  8.50000000E-01  8.50000000E-01  8.50000000E-01  8.00000000E-01  8.50000000E-01
  8.50000000E-01  8.50000000E-01  8.00000000E-01  8.50000000E-01  8.50000000E-01
  8.50000000E-01  8.00000000E-01  8.50000000E-01  8.50000000E-01  8.50000000E-01
  8.00000000E-01  8.50000000E-01  8.50000000E-01  8.50000000E-01  8.00000000E-01
  8.50000000E-01  8.50000000E-01  8.50000000E-01  8.00000000E-01  8.50000000E-01
  8.50000000E-01  8.50000000E-01  8.00000000E-01  8.50000000E-01  8.50000000E-01
  8.50000000E-01  8.00000000E-01  8.50000000E-01  8.50000000E-01  8.50000000E-01
  8.00000000E-01  8.50000000E-01  8.50000000E-01  8.50000000E-01  8.00000000E-01
  8.50000000E-01  8.50000000E-01  8.50000000E-01  8.00000000E-01  8.50000000E-01
  8.50000000E-01  8.50000000E-01  8.00000000E-01  8.50000000E-01  8.50000000E-01
  8.50000000E-01  8.00000000E-01  8.50000000E-01  8.50000000E-01  8.50000000E-01
  8.00000000E-01  8.50000000E-01  8.50000000E-01  8.50000000E-01  8.00000000E-01
  8.50000000E-01  8.50000000E-01  8.50000000E-01  8.00000000E-01  8.50000000E-01
  8.50000000E-01  8.50000000E-01  8.00000000E-01  8.50000000E-01  8.50000000E-01
  8.50000000E-01  8.00000000E-01  8.50000000E-01  8.50000000E-01  8.50000000E-01
  8.00000000E-01  8.50000000E-01  8.50000000E-01  8.50000000E-01  8.00000000E-01
  8.50000000E-01  8.50000000E-01  8.50000000E-01  8.00000000E-01  8.50000000E-01
  8.50000000E-01  8.50000000E-01  8.00000000E-01  8.50000000E-01  8.50000000E-01
  8.50000000E-01  8.00000000E-01  8.50000000E-01  8.50000000E-01  8.50000000E-01
  8.00000000E-01  8.50000000E-01  8.50000000E-01  8.50000000E-01  8.00000000E-01
  8.50000000E-01  8.50000000E-01  8.50000000E-01  8.00000000E-01  8.50000000E-01
  8.50000000E-01  8.50000000E-01  8.00000000E-01  8.50000000E-01  8.50000000E-01
  8.50000000E-01  8.00000000E-01  8.50000000E-01  8.50000000E-01  8.50000000E-01
  8.00000000E-01  8.50000000E-01  8.50000000E-01  8.50000000E-01  8.00000000E-01
  8.50000000E-01  8.50000000E-01  8.50000000E-01  8.00000000E-01  8.50000000E-01
  8.50000000E-01  8.50000000E-01  8.00000000E-01  8.50000000E-01  8.50000000E-01
  8.50000000E-01  8.00000000E-01  8.50000000E-01  8.50000000E-01  8.50000000E-01
  8.00000000E-01  8.50000000E-01  8.50000000E-01  8.50000000E-01  8.00000000E-01
  8.50000000E-01  8.50000000E-01  8.50000000E-01  8.00000000E-01  8.50000000E-01
  8.50000000E-01  8.50000000E-01  8.00000000E-01  8.50000000E-01  8.50000000E-01
  8.50000000E-01  8.00000000E-01  8.50000000E-01  8.50000000E-01  8.50000000E-01
  8.00000000E-01  8.50000000E-01  8.50000000E-01  8.50000000E-01  8.00000000E-01
  8.50000000E-01  8.50000000E-01  8.50000000E-01  8.00000000E-01  8.50000000E-01
  8.50000000E-01  8.50000000E-01  8.00000000E-01  8.50000000E-01  8.50000000E-01
  8.50000000E-01  8.00000000E-01  8.50000000E-01  8.50000000E-01  8.50000000E-01
  8.00000000E-01  8.50000000E-01  8.50000000E-01  8.50000000E-01  8.00000000E-01
  8.50000000E-01  8.50000000E-01  8.50000000E-01  8.00000000E-01  8.50000000E-01
  8.50000000E-01  8.50000000E-01  8.00000000E-01  8.50000000E-01  8.50000000E-01
  8.50000000E-01  8.00000000E-01  8.50000000E-01  8.50000000E-01  8.50000000E-01
  8.00000000E-01  8.50000000E-01  8.50000000E-01  8.50000000E-01  8.00000000E-01
  8.50000000E-01  8.50000000E-01  8.50000000E-01  8.00000000E-01  8.50000000E-01
  8.50000000E-01  8.50000000E-01  8.00000000E-01  8.50000000E-01  8.50000000E-01
  8.50000000E-01  8.00000000E-01  8.50000000E-01  8.50000000E-01  8.50000000E-01
  8.00000000E-01  8.50000000E-01  8.50000000E-01  8.50000000E-01  8.00000000E-01
  8.50000000E-01  8.50000000E-01  8.50000000E-01  8.00000000E-01  8.50000000E-01
  8.50000000E-01  8.50000000E-01  8.00000000E-01  8.50000000E-01  8.50000000E-01
  8.50000000E-01  8.00000000E-01  8.50000000E-01  8.50000000E-01  8.50000000E-01
  8.00000000E-01  8.50000000E-01  8.50000000E-01  8.50000000E-01  8.00000000E-01
  8.50000000E-01  8.50000000E-01  8.50000000E-01  8.00000000E-01  8.50000000E-01
  8.50000000E-01  8.50000000E-01  8.00000000E-01  8.50000000E-01  8.50000000E-01
  8.50000000E-01  8.00000000E-01  8.50000000E-01  8.50000000E-01  8.50000000E-01
  8.00000000E-01  8.50000000E-01  8.50000000E-01  8.50000000E-01  8.00000000E-01
  8.50000000E-01  8.50000000E-01  8.50000000E-01  8.00000000E-01  8.50000000E-01
  8.50000000E-01  8.50000000E-01  8.00000000E-01  8.50000000E-01  8.50000000E-01
  8.50000000E-01  8.00000000E-01  8.50000000E-01  8.50000000E-01  8.50000000E-01
  8.00000000E-01  8.50000000E-01  8.50000000E-01  8.50000000E-01  8.00000000E-01
  8.50000000E-01  8.50000000E-01  8.50000000E-01  8.00000000E-01  8.50000000E-01
  8.50000000E-01  8.50000000E-01  8.00000000E-01  8.50000000E-01  8.50000000E-01
  8.50000000E-01  8.00000000E-01  8.50000000E-01  8.50000000E-01  8.50000000E-01
  8.00000000E-01  8.50000000E-01  8.50000000E-01  8.50000000E-01  8.00000000E-01
  8.50000000E-01  8.50000000E-01  8.50000000E-01  8.00000000E-01  8.50000000E-01
  8.50000000E-01  8.50000000E-01  8.00000000E-01  8.50000000E-01  8.50000000E-01
  8.50000000E-01  8.00000000E-01  8.50000000E-01  8.50000000E-01  8.50000000E-01
  8.00000000E-01  8.50000000E-01  8.50000000E-01  8.50000000E-01  8.00000000E-01
  8.50000000E-01  8.50000000E-01  8.50000000E-01  8.00000000E-01  8.50000000E-01
  8.50000000E-01  8.50000000E-01  8.00000000E-01  8.50000000E-01  8.50000000E-01
  8.50000000E-01  8.00000000E-01  8.50000000E-01  8.50000000E-01  8.50000000E-01
  8.00000000E-01  8.50000000E-01  8.50000000E-01  8.50000000E-01  8.00000000E-01
  8.50000000E-01  8.50000000E-01  8.50000000E-01  8.00000000E-01  8.50000000E-01
  8.50000000E-01  8.50000000E-01  8.00000000E-01  8.50000000E-01  8.50000000E-01
  8.50000000E-01  8.00000000E-01  8.50000000E-01  8.50000000E-01  8.50000000E-01
  8.00000000E-01  8.50000000E-01  8.50000000E-01  8.50000000E-01  8.00000000E-01
  8.50000000E-01  8.50000000E-01  8.50000000E-01  8.00000000E-01  8.50000000E-01
  8.50000000E-01  8.50000000E-01  8.00000000E-01  8.50000000E-01  8.50000000E-01
  8.50000000E-01  8.00000000E-01  8.50000000E-01  8.50000000E-01  8.50000000E-01
  8.00000000E-01  8.50000000E-01  8.50000000E-01  8.50000000E-01  8.00000000E-01
  8.50000000E-01  8.50000000E-01  8.50000000E-01  8.00000000E-01  8.50000000E-01
  8.50000000E-01  8.50000000E-01  8.00000000E-01  8.50000000E-01  8.50000000E-01
  8.50000000E-01  8.00000000E-01  8.50000000E-01  8.50000000E-01  8.50000000E-01
  8.00000000E-01  8.50000000E-01  8.50000000E-01  8.50000000E-01  8.00000000E-01
  8.50000000E-01  8.50000000E-01  8.50000000E-01  8.00000000E-01  8.50000000E-01
  8.50000000E-01  8.50000000E-01  8.00000000E-01  8.50000000E-01  8.50000000E-01
  8.50000000E-01  8.00000000E-01  8.50000000E-01  8.50000000E-01  8.50000000E-01
  8.00000000E-01  8.50000000E-01  8.50000000E-01  8.50000000E-01  8.00000000E-01
  8.50000000E-01  8.50000000E-01  8.50000000E-01  8.00000000E-01  8.50000000E-01
  8.50000000E-01  8.50000000E-01  8.00000000E-01  8.50000000E-01  8.50000000E-01
  8.50000000E-01  8.00000000E-01  8.50000000E-01  8.50000000E-01  8.50000000E-01
  8.00000000E-01  8.50000000E-01  8.50000000E-01  8.50000000E-01  8.00000000E-01
  8.50000000E-01  8.50000000E-01  8.50000000E-01  8.00000000E-01  8.50000000E-01
  8.50000000E-01  8.50000000E-01  8.00000000E-01  8.50000000E-01  8.50000000E-01
  8.50000000E-01  8.00000000E-01  8.50000000E-01  8.50000000E-01  8.50000000E-01
  8.00000000E-01  8.50000000E-01  8.50000000E-01  8.50000000E-01  8.00000000E-01
  8.50000000E-01  8.50000000E-01  8.50000000E-01  8.00000000E-01  8.50000000E-01
  8.50000000E-01  8.50000000E-01  8.00000000E-01  8.50000000E-01  8.50000000E-01
  8.50000000E-01  8.00000000E-01  8.50000000E-01  8.50000000E-01  8.50000000E-01
  8.00000000E-01  8.50000000E-01  8.50000000E-01  8.50000000E-01  8.00000000E-01
  8.50000000E-01  8.50000000E-01  8.50000000E-01  8.00000000E-01  8.50000000E-01
  8.50000000E-01  8.50000000E-01  8.00000000E-01  8.50000000E-01  8.50000000E-01
  8.50000000E-01  8.00000000E-01  8.50000000E-01  8.50000000E-01  8.50000000E-01
  8.00000000E-01  8.50000000E-01  8.50000000E-01  8.50000000E-01  8.00000000E-01
  8.50000000E-01  8.50000000E-01  8.50000000E-01  8.00000000E-01  8.50000000E-01
  8.50000000E-01  8.50000000E-01  8.00000000E-01  8.50000000E-01  8.50000000E-01
  8.50000000E-01  8.00000000E-01  8.50000000E-01  8.50000000E-01  8.50000000E-01
  8.00000000E-01  8.50000000E-01  8.50000000E-01  8.50000000E-01  8.00000000E-01
  8.50000000E-01  8.50000000E-01  8.50000000E-01  8.00000000E-01  8.50000000E-01
  8.50000000E-01  8.50000000E-01  8.00000000E-01  8.50000000E-01  8.50000000E-01
  8.50000000E-01  8.00000000E-01  8.50000000E-01  8.50000000E-01  8.50000000E-01
  8.00000000E-01  8.50000000E-01  8.50000000E-01  8.50000000E-01  8.00000000E-01
  8.50000000E-01  8.50000000E-01  8.50000000E-01  8.00000000E-01  8.50000000E-01
  8.50000000E-01  8.50000000E-01  8.00000000E-01  8.50000000E-01  8.50000000E-01
  8.50000000E-01  8.00000000E-01  8.50000000E-01  8.50000000E-01  8.50000000E-01
  8.00000000E-01  8.50000000E-01  8.50000000E-01  8.50000000E-01  8.00000000E-01
  8.50000000E-01  8.50000000E-01  8.50000000E-01  8.00000000E-01  8.50000000E-01
  8.50000000E-01  8.50000000E-01  8.00000000E-01  8.50000000E-01  8.50000000E-01
  8.50000000E-01  8.00000000E-01  8.50000000E-01  8.50000000E-01  8.50000000E-01
  8.00000000E-01  8.50000000E-01  8.50000000E-01  8.50000000E-01  8.00000000E-01
  8.50000000E-01  8.50000000E-01  8.50000000E-01  8.00000000E-01  8.50000000E-01
  8.50000000E-01  8.50000000E-01  8.00000000E-01  8.50000000E-01  8.50000000E-01
  8.50000000E-01  8.00000000E-01  8.50000000E-01  8.50000000E-01  8.50000000E-01
  8.00000000E-01  8.50000000E-01  8.50000000E-01  8.50000000E-01  8.00000000E-01
  8.50000000E-01  8.50000000E-01  8.50000000E-01  8.00000000E-01  8.50000000E-01
  8.50000000E-01  8.50000000E-01  8.00000000E-01  8.50000000E-01  8.50000000E-01
  8.50000000E-01  8.00000000E-01  8.50000000E-01  8.50000000E-01  8.50000000E-01
  8.00000000E-01  8.50000000E-01  8.50000000E-01  8.50000000E-01  8.00000000E-01
  8.50000000E-01  8.50000000E-01  8.50000000E-01  8.00000000E-01  8.50000000E-01
  8.50000000E-01  8.50000000E-01  8.00000000E-01  8.50000000E-01  8.50000000E-01
  8.50000000E-01  8.00000000E-01  8.50000000E-01  8.50000000E-01  8.50000000E-01
  8.00000000E-01  8.50000000E-01  8.50000000E-01  8.50000000E-01  8.00000000E-01
  8.50000000E-01  8.50000000E-01  8.50000000E-01  8.00000000E-01  8.50000000E-01
  8.50000000E-01  8.50000000E-01  8.00000000E-01  8.50000000E-01  8.50000000E-01
  8.50000000E-01  8.00000000E-01  8.50000000E-01  8.50000000E-01  8.50000000E-01
  8.00000000E-01  8.50000000E-01  8.50000000E-01  8.50000000E-01  8.00000000E-01
  8.50000000E-01  8.50000000E-01  8.50000000E-01  8.00000000E-01  8.50000000E-01
  8.50000000E-01  8.50000000E-01  8.00000000E-01  8.50000000E-01  8.50000000E-01
  8.50000000E-01  8.00000000E-01  8.50000000E-01  8.50000000E-01  8.50000000E-01
  8.00000000E-01  8.50000000E-01  8.50000000E-01  8.50000000E-01  8.00000000E-01
  8.50000000E-01  8.50000000E-01  8.50000000E-01  8.00000000E-01  8.50000000E-01
  8.50000000E-01  8.50000000E-01  8.00000000E-01  8.50000000E-01  8.50000000E-01
  8.50000000E-01  8.00000000E-01  8.50000000E-01  8.50000000E-01  8.50000000E-01
  8.00000000E-01  8.50000000E-01  8.50000000E-01  8.50000000E-01  8.00000000E-01
  8.50000000E-01  8.50000000E-01  8.50000000E-01  8.00000000E-01  8.50000000E-01
  8.50000000E-01  8.50000000E-01  8.00000000E-01  8.50000000E-01  8.50000000E-01
  8.50000000E-01  8.00000000E-01  8.50000000E-01  8.50000000E-01  8.50000000E-01
  8.00000000E-01  8.50000000E-01  8.50000000E-01  8.50000000E-01  8.00000000E-01
  8.50000000E-01  8.50000000E-01  8.50000000E-01  8.00000000E-01  8.50000000E-01
  8.50000000E-01  8.50000000E-01  8.00000000E-01  8.50000000E-01  8.50000000E-01
  8.50000000E-01  8.00000000E-01  8.50000000E-01  8.50000000E-01  8.50000000E-01
  8.00000000E-01  8.50000000E-01  8.50000000E-01  8.50000000E-01  8.00000000E-01
  8.50000000E-01  8.50000000E-01  8.50000000E-01  8.00000000E-01  8.50000000E-01
  8.50000000E-01  8.50000000E-01  8.00000000E-01  8.50000000E-01  8.50000000E-01
  8.50000000E-01  8.00000000E-01  8.50000000E-01  8.50000000E-01  8.50000000E-01
  8.00000000E-01  8.50000000E-01  8.50000000E-01  8.50000000E-01  8.00000000E-01
  8.50000000E-01  8.50000000E-01  8.50000000E-01  8.00000000E-01  8.50000000E-01
  8.50000000E-01  8.50000000E-01  8.00000000E-01  8.50000000E-01  8.50000000E-01
  8.50000000E-01  8.00000000E-01  8.50000000E-01  8.50000000E-01  8.50000000E-01
  8.00000000E-01  8.50000000E-01  8.50000000E-01  8.50000000E-01  8.00000000E-01
  8.50000000E-01  8.50000000E-01  8.50000000E-01  8.00000000E-01  8.50000000E-01
  8.50000000E-01  8.50000000E-01  8.00000000E-01  8.50000000E-01  8.50000000E-01
  8.50000000E-01  8.00000000E-01  8.50000000E-01  8.50000000E-01  8.50000000E-01
  8.00000000E-01  8.50000000E-01  8.50000000E-01  8.50000000E-01  8.00000000E-01
  8.50000000E-01  8.50000000E-01  8.50000000E-01  8.00000000E-01  8.50000000E-01
  8.50000000E-01  8.50000000E-01  8.00000000E-01  8.50000000E-01  8.50000000E-01
  8.50000000E-01  8.00000000E-01  8.50000000E-01  8.50000000E-01  8.50000000E-01
  8.00000000E-01  8.50000000E-01  8.50000000E-01  8.50000000E-01  8.00000000E-01
  8.50000000E-01  8.50000000E-01  8.50000000E-01  8.00000000E-01  8.50000000E-01
  8.50000000E-01  8.50000000E-01  8.00000000E-01  8.50000000E-01  8.50000000E-01
  8.50000000E-01  8.00000000E-01  8.50000000E-01  8.50000000E-01  8.50000000E-01
  8.00000000E-01  8.50000000E-01  8.50000000E-01  8.50000000E-01  8.00000000E-01
  8.50000000E-01  8.50000000E-01  8.50000000E-01  8.00000000E-01  8.50000000E-01
  8.50000000E-01  8.50000000E-01  8.00000000E-01  8.50000000E-01  8.50000000E-01
  8.50000000E-01  8.00000000E-01  8.50000000E-01  8.50000000E-01  8.50000000E-01
  8.00000000E-01  8.50000000E-01  8.50000000E-01  8.50000000E-01  8.00000000E-01
  8.50000000E-01  8.50000000E-01  8.50000000E-01  8.00000000E-01  8.50000000E-01
  8.50000000E-01  8.50000000E-01  8.00000000E-01  8.50000000E-01  8.50000000E-01
  8.50000000E-01  8.00000000E-01  8.50000000E-01  8.50000000E-01  8.50000000E-01
  8.00000000E-01  8.50000000E-01  8.50000000E-01  8.50000000E-01  8.00000000E-01
  8.50000000E-01  8.50000000E-01  8.50000000E-01  8.00000000E-01  8.50000000E-01
  8.50000000E-01  8.50000000E-01  8.00000000E-01  8.50000000E-01  8.50000000E-01
  8.50000000E-01  8.00000000E-01  8.50000000E-01  8.50000000E-01  8.50000000E-01
  8.00000000E-01  8.50000000E-01  8.50000000E-01  8.50000000E-01  8.00000000E-01
  8.50000000E-01  8.50000000E-01  8.50000000E-01  8.00000000E-01  8.50000000E-01
  8.50000000E-01  8.50000000E-01  8.00000000E-01  8.50000000E-01  8.50000000E-01
  8.50000000E-01  8.00000000E-01  8.50000000E-01  8.50000000E-01  8.50000000E-01
  8.00000000E-01  8.50000000E-01  8.50000000E-01  8.50000000E-01  8.00000000E-01
  8.50000000E-01  8.50000000E-01  8.50000000E-01  8.00000000E-01  8.50000000E-01
  8.50000000E-01  8.50000000E-01  8.00000000E-01  8.50000000E-01  8.50000000E-01
  8.50000000E-01  8.00000000E-01  8.50000000E-01  8.50000000E-01  8.50000000E-01
  8.00000000E-01  8.50000000E-01  8.50000000E-01  8.50000000E-01  8.00000000E-01
  8.50000000E-01  8.50000000E-01  8.50000000E-01  8.00000000E-01  8.50000000E-01
  8.50000000E-01  8.50000000E-01  8.00000000E-01  8.50000000E-01  8.50000000E-01
  8.50000000E-01  8.00000000E-01  8.50000000E-01  8.50000000E-01  8.50000000E-01
  8.00000000E-01  8.50000000E-01  8.50000000E-01  8.50000000E-01  8.00000000E-01
  8.50000000E-01  8.50000000E-01  8.50000000E-01  8.00000000E-01  8.50000000E-01
  8.50000000E-01  8.50000000E-01  8.00000000E-01  8.50000000E-01  8.50000000E-01
  8.50000000E-01  8.00000000E-01  8.50000000E-01  8.50000000E-01  8.50000000E-01
  8.00000000E-01  8.50000000E-01  8.50000000E-01  8.50000000E-01  8.00000000E-01
  8.50000000E-01  8.50000000E-01  8.50000000E-01  8.00000000E-01  8.50000000E-01
  8.50000000E-01  8.50000000E-01  8.00000000E-01  8.50000000E-01  8.50000000E-01
  8.50000000E-01  8.00000000E-01  8.50000000E-01  8.50000000E-01  8.50000000E-01
  8.00000000E-01  8.50000000E-01  8.50000000E-01  8.50000000E-01  8.00000000E-01
  8.50000000E-01  8.50000000E-01  8.50000000E-01  8.00000000E-01  8.50000000E-01
  8.50000000E-01  8.50000000E-01  8.00000000E-01  8.50000000E-01  8.50000000E-01
  8.50000000E-01  8.00000000E-01  8.50000000E-01  8.50000000E-01  8.50000000E-01
  8.00000000E-01  8.50000000E-01  8.50000000E-01  8.50000000E-01  8.00000000E-01
  8.50000000E-01  8.50000000E-01  8.50000000E-01  8.00000000E-01  8.50000000E-01
  8.50000000E-01  8.50000000E-01  8.00000000E-01  8.50000000E-01  8.50000000E-01
  8.50000000E-01  8.00000000E-01  8.50000000E-01  8.50000000E-01  8.50000000E-01
  8.00000000E-01  8.50000000E-01  8.50000000E-01  8.50000000E-01  8.00000000E-01
  8.50000000E-01  8.50000000E-01  8.50000000E-01  8.00000000E-01  8.50000000E-01
  8.50000000E-01  8.50000000E-01  8.00000000E-01  8.50000000E-01  8.50000000E-01
  8.50000000E-01  8.00000000E-01  8.50000000E-01  8.50000000E-01  8.50000000E-01
  8.00000000E-01  8.50000000E-01  8.50000000E-01  8.50000000E-01  8.00000000E-01
  8.50000000E-01  8.50000000E-01  8.50000000E-01  8.00000000E-01  8.50000000E-01
  8.50000000E-01  8.50000000E-01  8.00000000E-01  8.50000000E-01  8.50000000E-01
  8.50000000E-01  8.00000000E-01  8.50000000E-01  8.50000000E-01  8.50000000E-01
  8.00000000E-01  8.50000000E-01  8.50000000E-01  8.50000000E-01  8.00000000E-01
  8.50000000E-01  8.50000000E-01  8.50000000E-01  8.00000000E-01  8.50000000E-01
  8.50000000E-01  8.50000000E-01  8.00000000E-01  8.50000000E-01  8.50000000E-01
  8.50000000E-01  8.00000000E-01  8.50000000E-01  8.50000000E-01  8.50000000E-01
  8.00000000E-01  8.50000000E-01  8.50000000E-01  8.50000000E-01  8.00000000E-01
  8.50000000E-01  8.50000000E-01  8.50000000E-01  8.00000000E-01  8.50000000E-01
  8.50000000E-01  8.50000000E-01  8.00000000E-01  8.50000000E-01  8.50000000E-01
  8.50000000E-01  8.00000000E-01  8.50000000E-01  8.50000000E-01  8.50000000E-01
  8.00000000E-01  8.50000000E-01  8.50000000E-01  8.50000000E-01  8.00000000E-01
  8.50000000E-01  8.50000000E-01  8.50000000E-01  8.00000000E-01  8.50000000E-01
  8.50000000E-01  8.50000000E-01  8.00000000E-01  8.50000000E-01  8.50000000E-01
  8.50000000E-01  8.00000000E-01  8.50000000E-01  8.50000000E-01  8.50000000E-01
  8.00000000E-01  8.50000000E-01  8.50000000E-01  8.50000000E-01  8.00000000E-01
  8.50000000E-01  8.50000000E-01  8.50000000E-01  8.00000000E-01  8.50000000E-01
  8.50000000E-01  8.50000000E-01  8.00000000E-01  8.50000000E-01  8.50000000E-01
  8.50000000E-01  8.00000000E-01  8.50000000E-01  8.50000000E-01  8.50000000E-01
  8.00000000E-01  8.50000000E-01  8.50000000E-01  8.50000000E-01  8.00000000E-01
  8.50000000E-01  8.50000000E-01  8.50000000E-01  8.00000000E-01  8.50000000E-01
  8.50000000E-01  8.50000000E-01  8.00000000E-01  8.50000000E-01  8.50000000E-01
  8.50000000E-01  8.00000000E-01  8.50000000E-01  8.50000000E-01  8.50000000E-01
  8.00000000E-01  8.50000000E-01  8.50000000E-01  8.50000000E-01  8.00000000E-01
  8.50000000E-01  8.50000000E-01  8.50000000E-01  8.00000000E-01  8.50000000E-01
  8.50000000E-01  8.50000000E-01  8.00000000E-01  8.50000000E-01  8.50000000E-01
  8.50000000E-01  8.00000000E-01  8.50000000E-01  8.50000000E-01  8.50000000E-01
  8.00000000E-01  8.50000000E-01  8.50000000E-01  8.50000000E-01  8.00000000E-01
  8.50000000E-01  8.50000000E-01  8.50000000E-01  8.00000000E-01  8.50000000E-01
  8.50000000E-01  8.50000000E-01  8.00000000E-01  8.50000000E-01  8.50000000E-01
  8.50000000E-01  8.00000000E-01  8.50000000E-01  8.50000000E-01  8.50000000E-01
  8.00000000E-01  8.50000000E-01  8.50000000E-01  8.50000000E-01  8.00000000E-01
  8.50000000E-01  8.50000000E-01  8.50000000E-01  8.00000000E-01  8.50000000E-01
  8.50000000E-01  8.50000000E-01  8.00000000E-01  8.50000000E-01  8.50000000E-01
  8.50000000E-01  8.00000000E-01  8.50000000E-01  8.50000000E-01  8.50000000E-01
  8.00000000E-01  8.50000000E-01  8.50000000E-01  8.50000000E-01  8.00000000E-01
  8.50000000E-01  8.50000000E-01  8.50000000E-01  8.00000000E-01  8.50000000E-01
  8.50000000E-01  8.50000000E-01  8.00000000E-01  8.50000000E-01  8.50000000E-01
  8.50000000E-01  8.00000000E-01  8.50000000E-01  8.50000000E-01  8.50000000E-01
  8.00000000E-01  8.50000000E-01  8.50000000E-01  8.50000000E-01  8.00000000E-01
  8.50000000E-01  8.50000000E-01  8.50000000E-01  8.00000000E-01  8.50000000E-01
  8.50000000E-01  8.50000000E-01  8.00000000E-01  8.50000000E-01  8.50000000E-01
  8.50000000E-01  8.00000000E-01  8.50000000E-01  8.50000000E-01  8.50000000E-01
  8.00000000E-01  8.50000000E-01  8.50000000E-01  8.50000000E-01  8.00000000E-01
  8.50000000E-01  8.50000000E-01  8.50000000E-01  8.00000000E-01  8.50000000E-01
  8.50000000E-01  8.50000000E-01  8.00000000E-01  8.50000000E-01  8.50000000E-01
  8.50000000E-01  8.00000000E-01  8.50000000E-01  8.50000000E-01  8.50000000E-01
  8.00000000E-01  8.50000000E-01  8.50000000E-01  8.50000000E-01  8.00000000E-01
  8.50000000E-01  8.50000000E-01  8.50000000E-01  8.00000000E-01  8.50000000E-01
  8.50000000E-01  8.50000000E-01  8.00000000E-01  8.50000000E-01  8.50000000E-01
  8.50000000E-01  8.00000000E-01  8.50000000E-01  8.50000000E-01  8.50000000E-01
  8.00000000E-01  8.50000000E-01  8.50000000E-01  8.50000000E-01  8.00000000E-01
  8.50000000E-01  8.50000000E-01  8.50000000E-01  8.00000000E-01  8.50000000E-01
  8.50000000E-01  8.50000000E-01  8.00000000E-01  8.50000000E-01  8.50000000E-01
  8.50000000E-01  8.00000000E-01  8.50000000E-01  8.50000000E-01  8.50000000E-01
  8.00000000E-01  8.50000000E-01  8.50000000E-01  8.50000000E-01  8.00000000E-01
  8.50000000E-01  8.50000000E-01  8.50000000E-01  8.00000000E-01  8.50000000E-01
  8.50000000E-01  8.50000000E-01  8.00000000E-01  8.50000000E-01  8.50000000E-01
  8.50000000E-01  8.00000000E-01  8.50000000E-01  8.50000000E-01  8.50000000E-01
  8.00000000E-01  8.50000000E-01  8.50000000E-01  8.50000000E-01  8.00000000E-01
  8.50000000E-01  8.50000000E-01  8.50000000E-01  8.00000000E-01  8.50000000E-01
  8.50000000E-01  8.50000000E-01  8.00000000E-01  8.50000000E-01  8.50000000E-01
  8.50000000E-01  8.00000000E-01  8.50000000E-01  8.50000000E-01  8.50000000E-01
  8.00000000E-01  8.50000000E-01  8.50000000E-01  8.50000000E-01  8.00000000E-01
  8.50000000E-01  8.50000000E-01  8.50000000E-01  8.00000000E-01  8.50000000E-01
  8.50000000E-01  8.50000000E-01  8.00000000E-01  8.50000000E-01  8.50000000E-01
  8.50000000E-01  8.00000000E-01  8.50000000E-01  8.50000000E-01  8.50000000E-01
  8.00000000E-01  8.50000000E-01  8.50000000E-01  8.50000000E-01  8.00000000E-01
  8.50000000E-01  8.50000000E-01  8.50000000E-01  8.00000000E-01  8.50000000E-01
  8.50000000E-01  8.50000000E-01  8.00000000E-01  8.50000000E-01  8.50000000E-01
  8.50000000E-01  8.00000000E-01  8.50000000E-01  8.50000000E-01  8.50000000E-01
  8.00000000E-01  8.50000000E-01  8.50000000E-01  8.50000000E-01  8.00000000E-01
  8.50000000E-01  8.50000000E-01  8.50000000E-01  8.00000000E-01  8.50000000E-01
  8.50000000E-01  8.50000000E-01  8.00000000E-01  8.50000000E-01  8.50000000E-01
  8.50000000E-01  8.00000000E-01  8.50000000E-01  8.50000000E-01  8.50000000E-01
  8.00000000E-01  8.50000000E-01  8.50000000E-01  8.50000000E-01  8.00000000E-01
  8.50000000E-01  8.50000000E-01  8.50000000E-01  8.00000000E-01  8.50000000E-01
  8.50000000E-01  8.50000000E-01  8.00000000E-01  8.50000000E-01  8.50000000E-01
  8.50000000E-01  8.00000000E-01  8.50000000E-01  8.50000000E-01  8.50000000E-01
  8.00000000E-01  8.50000000E-01  8.50000000E-01  8.50000000E-01  8.00000000E-01
  8.50000000E-01  8.50000000E-01  8.50000000E-01  8.00000000E-01  8.50000000E-01
  8.50000000E-01  8.50000000E-01  8.00000000E-01  8.50000000E-01  8.50000000E-01
  8.50000000E-01  8.00000000E-01  8.50000000E-01  8.50000000E-01  8.50000000E-01
  8.00000000E-01  8.50000000E-01  8.50000000E-01  8.50000000E-01  8.00000000E-01
  8.50000000E-01  8.50000000E-01  8.50000000E-01  8.00000000E-01  8.50000000E-01
  8.50000000E-01  8.50000000E-01  8.00000000E-01  8.50000000E-01  8.50000000E-01
  8.50000000E-01  8.00000000E-01  8.50000000E-01  8.50000000E-01  8.50000000E-01
  8.00000000E-01  8.50000000E-01  8.50000000E-01  8.50000000E-01  8.00000000E-01
  8.50000000E-01  8.50000000E-01  8.50000000E-01  8.00000000E-01  8.50000000E-01
  8.50000000E-01  8.50000000E-01  8.00000000E-01  8.50000000E-01  8.50000000E-01
  8.50000000E-01  8.00000000E-01  8.50000000E-01  8.50000000E-01  8.50000000E-01
  8.00000000E-01  8.50000000E-01  8.50000000E-01  8.50000000E-01  8.00000000E-01
  8.50000000E-01  8.50000000E-01  8.50000000E-01  8.00000000E-01  8.50000000E-01
  8.50000000E-01  8.50000000E-01  8.00000000E-01  8.50000000E-01  8.50000000E-01
  8.50000000E-01  8.00000000E-01  8.50000000E-01  8.50000000E-01  8.50000000E-01
  8.00000000E-01  8.50000000E-01  8.50000000E-01  8.50000000E-01  8.00000000E-01
  8.50000000E-01  8.50000000E-01  8.50000000E-01  8.00000000E-01  8.50000000E-01
  8.50000000E-01  8.50000000E-01  8.00000000E-01  8.50000000E-01  8.50000000E-01
  8.50000000E-01  8.00000000E-01  8.50000000E-01  8.50000000E-01  8.50000000E-01
  8.00000000E-01  8.50000000E-01  8.50000000E-01  8.50000000E-01  8.00000000E-01
  8.50000000E-01  8.50000000E-01  8.50000000E-01  8.00000000E-01  8.50000000E-01
  8.50000000E-01  8.50000000E-01  8.00000000E-01  8.50000000E-01  8.50000000E-01
  8.50000000E-01  8.00000000E-01  8.50000000E-01  8.50000000E-01  8.50000000E-01
  8.00000000E-01  8.50000000E-01  8.50000000E-01  8.50000000E-01  8.00000000E-01
  8.50000000E-01  8.50000000E-01  8.50000000E-01  8.00000000E-01  8.50000000E-01
  8.50000000E-01  8.50000000E-01  8.00000000E-01  8.50000000E-01  8.50000000E-01
  8.50000000E-01  8.00000000E-01  8.50000000E-01  8.50000000E-01  8.50000000E-01
  8.00000000E-01  8.50000000E-01  8.50000000E-01  8.50000000E-01  8.00000000E-01
  8.50000000E-01  8.50000000E-01  8.50000000E-01  8.00000000E-01  8.50000000E-01
  8.50000000E-01  8.50000000E-01  8.00000000E-01  8.50000000E-01  8.50000000E-01
  8.50000000E-01  8.00000000E-01  8.50000000E-01  8.50000000E-01  8.50000000E-01
  8.00000000E-01  8.50000000E-01  8.50000000E-01  8.50000000E-01  8.00000000E-01
  8.50000000E-01  8.50000000E-01  8.50000000E-01  8.00000000E-01  8.50000000E-01
  8.50000000E-01  8.50000000E-01  8.00000000E-01  8.50000000E-01  8.50000000E-01
  8.50000000E-01  8.00000000E-01  8.50000000E-01  8.50000000E-01  8.50000000E-01
  8.00000000E-01  8.50000000E-01  8.50000000E-01  8.50000000E-01  8.00000000E-01
  8.50000000E-01  8.50000000E-01  8.50000000E-01  8.00000000E-01  8.50000000E-01
  8.50000000E-01  8.50000000E-01  8.00000000E-01  8.50000000E-01  8.50000000E-01
  8.50000000E-01  8.00000000E-01  8.50000000E-01  8.50000000E-01  8.50000000E-01
  8.00000000E-01  8.50000000E-01  8.50000000E-01  8.50000000E-01  8.00000000E-01
  8.50000000E-01  8.50000000E-01  8.50000000E-01  8.00000000E-01  8.50000000E-01
  8.50000000E-01  8.50000000E-01  8.00000000E-01  8.50000000E-01  8.50000000E-01
  8.50000000E-01  8.00000000E-01  8.50000000E-01  8.50000000E-01  8.50000000E-01
  8.00000000E-01  8.50000000E-01  8.50000000E-01  8.50000000E-01  8.00000000E-01
  8.50000000E-01  8.50000000E-01  8.50000000E-01  8.00000000E-01  8.50000000E-01
  8.50000000E-01  8.50000000E-01  8.00000000E-01  8.50000000E-01  8.50000000E-01
  8.50000000E-01  8.00000000E-01  8.50000000E-01  8.50000000E-01  8.50000000E-01
  8.00000000E-01  8.50000000E-01  8.50000000E-01  8.50000000E-01  8.00000000E-01
  8.50000000E-01  8.50000000E-01  8.50000000E-01  8.00000000E-01  8.50000000E-01
  8.50000000E-01  8.50000000E-01  8.00000000E-01  8.50000000E-01  8.50000000E-01
  8.50000000E-01  8.00000000E-01  8.50000000E-01  8.50000000E-01  8.50000000E-01
  8.00000000E-01  8.50000000E-01  8.50000000E-01  8.50000000E-01  8.00000000E-01
  8.50000000E-01  8.50000000E-01  8.50000000E-01  8.00000000E-01  8.50000000E-01
  8.50000000E-01  8.50000000E-01  8.00000000E-01  8.50000000E-01  8.50000000E-01
  8.50000000E-01  8.00000000E-01  8.50000000E-01  8.50000000E-01  8.50000000E-01
  8.00000000E-01  8.50000000E-01  8.50000000E-01  8.50000000E-01  8.00000000E-01
  8.50000000E-01  8.50000000E-01  8.50000000E-01  8.00000000E-01  8.50000000E-01
  8.50000000E-01  8.50000000E-01  8.00000000E-01  8.50000000E-01  8.50000000E-01
  8.50000000E-01  8.00000000E-01  8.50000000E-01  8.50000000E-01  8.50000000E-01
  8.00000000E-01  8.50000000E-01  8.50000000E-01  8.50000000E-01  8.00000000E-01
  8.50000000E-01  8.50000000E-01  8.50000000E-01  8.00000000E-01  8.50000000E-01
  8.50000000E-01  8.50000000E-01  8.00000000E-01  8.50000000E-01  8.50000000E-01
  8.50000000E-01  8.00000000E-01  8.50000000E-01  8.50000000E-01  8.50000000E-01
  8.00000000E-01  8.50000000E-01  8.50000000E-01  8.50000000E-01  8.00000000E-01
  8.50000000E-01  8.50000000E-01  8.50000000E-01  8.00000000E-01  8.50000000E-01
  8.50000000E-01  8.50000000E-01  8.00000000E-01  8.50000000E-01  8.50000000E-01
  8.50000000E-01  8.00000000E-01  8.50000000E-01  8.50000000E-01  8.50000000E-01
  8.00000000E-01  8.50000000E-01  8.50000000E-01  8.50000000E-01  8.00000000E-01
  8.50000000E-01  8.50000000E-01  8.50000000E-01  8.00000000E-01  8.50000000E-01
  8.50000000E-01  8.50000000E-01  8.00000000E-01  8.50000000E-01  8.50000000E-01
  8.50000000E-01  8.00000000E-01  8.50000000E-01  8.50000000E-01  8.50000000E-01
  8.00000000E-01  8.50000000E-01  8.50000000E-01  8.50000000E-01  8.00000000E-01
  8.50000000E-01  8.50000000E-01  8.50000000E-01  8.00000000E-01  8.50000000E-01
  8.50000000E-01  8.50000000E-01  8.00000000E-01  8.50000000E-01  8.50000000E-01
  8.50000000E-01  8.00000000E-01  8.50000000E-01  8.50000000E-01  8.50000000E-01
  8.00000000E-01  8.50000000E-01  8.50000000E-01  8.50000000E-01  8.00000000E-01
  8.50000000E-01  8.50000000E-01  8.50000000E-01  8.00000000E-01  8.50000000E-01
  8.50000000E-01  8.50000000E-01  8.00000000E-01  8.50000000E-01  8.50000000E-01
  8.50000000E-01  8.00000000E-01  8.50000000E-01  8.50000000E-01  8.50000000E-01
  8.00000000E-01  8.50000000E-01  8.50000000E-01  8.50000000E-01  8.00000000E-01
  8.50000000E-01  8.50000000E-01  8.50000000E-01  8.00000000E-01  8.50000000E-01
  8.50000000E-01  8.50000000E-01  8.00000000E-01  8.50000000E-01  8.50000000E-01
  8.50000000E-01  8.00000000E-01  8.50000000E-01  8.50000000E-01  8.50000000E-01
  8.00000000E-01  8.50000000E-01  8.50000000E-01  8.50000000E-01  8.00000000E-01
  8.50000000E-01  8.50000000E-01  8.50000000E-01  8.00000000E-01  8.50000000E-01
  8.50000000E-01  8.50000000E-01  8.00000000E-01  8.50000000E-01  8.50000000E-01
  8.50000000E-01  8.00000000E-01  8.50000000E-01  8.50000000E-01  8.50000000E-01
  8.00000000E-01  8.50000000E-01  8.50000000E-01  8.50000000E-01  8.00000000E-01
  8.50000000E-01  8.50000000E-01  8.50000000E-01  8.00000000E-01  8.50000000E-01
  8.50000000E-01  8.50000000E-01  8.00000000E-01  8.50000000E-01  8.50000000E-01
  8.50000000E-01  8.00000000E-01  8.50000000E-01  8.50000000E-01  8.50000000E-01
  8.00000000E-01  8.50000000E-01  8.50000000E-01  8.50000000E-01  8.00000000E-01
  8.50000000E-01  8.50000000E-01  8.50000000E-01  8.00000000E-01  8.50000000E-01
  8.50000000E-01  8.50000000E-01  8.00000000E-01  8.50000000E-01  8.50000000E-01
  8.50000000E-01  8.00000000E-01  8.50000000E-01  8.50000000E-01  8.50000000E-01
  8.00000000E-01  8.50000000E-01  8.50000000E-01  8.50000000E-01  8.00000000E-01
  8.50000000E-01  8.50000000E-01  8.50000000E-01  8.00000000E-01  8.50000000E-01
  8.50000000E-01  8.50000000E-01  8.00000000E-01  8.50000000E-01  8.50000000E-01
  8.50000000E-01  8.00000000E-01  8.50000000E-01  8.50000000E-01  8.50000000E-01
  8.00000000E-01  8.50000000E-01  8.50000000E-01  8.50000000E-01  8.00000000E-01
  8.50000000E-01  8.50000000E-01  8.50000000E-01  8.00000000E-01  8.50000000E-01
  8.50000000E-01  8.50000000E-01  8.00000000E-01  8.50000000E-01  8.50000000E-01
  8.50000000E-01  8.00000000E-01  8.50000000E-01  8.50000000E-01  8.50000000E-01
  8.00000000E-01  8.50000000E-01  8.50000000E-01  8.50000000E-01  8.00000000E-01
  8.50000000E-01  8.50000000E-01  8.50000000E-01  8.00000000E-01  8.50000000E-01
  8.50000000E-01  8.50000000E-01  8.00000000E-01  8.50000000E-01  8.50000000E-01
  8.50000000E-01  8.00000000E-01  8.50000000E-01  8.50000000E-01  8.50000000E-01
  8.00000000E-01  8.50000000E-01  8.50000000E-01  8.50000000E-01  8.00000000E-01
  8.50000000E-01  8.50000000E-01  8.50000000E-01  8.00000000E-01  8.50000000E-01
  8.50000000E-01  8.50000000E-01  8.00000000E-01  8.50000000E-01  8.50000000E-01
  8.50000000E-01  8.00000000E-01  8.50000000E-01  8.50000000E-01  8.50000000E-01
  8.00000000E-01  8.50000000E-01  8.50000000E-01  8.50000000E-01  8.00000000E-01
  8.50000000E-01  8.50000000E-01  8.50000000E-01  8.00000000E-01  8.50000000E-01
  8.50000000E-01  8.50000000E-01  8.00000000E-01  8.50000000E-01  8.50000000E-01
  8.50000000E-01  8.00000000E-01  8.50000000E-01  8.50000000E-01  8.50000000E-01
  8.00000000E-01  8.50000000E-01  8.50000000E-01  8.50000000E-01  8.00000000E-01
  8.50000000E-01  8.50000000E-01  8.50000000E-01  8.00000000E-01  8.50000000E-01
  8.50000000E-01  8.50000000E-01  8.00000000E-01  8.50000000E-01  8.50000000E-01
  8.50000000E-01  8.00000000E-01  8.50000000E-01  8.50000000E-01  8.50000000E-01
  8.00000000E-01  8.50000000E-01  8.50000000E-01  8.50000000E-01  8.00000000E-01
  8.50000000E-01  8.50000000E-01  8.50000000E-01  8.00000000E-01  8.50000000E-01
  8.50000000E-01  8.50000000E-01  8.00000000E-01  8.50000000E-01  8.50000000E-01
  8.50000000E-01  8.00000000E-01  8.50000000E-01  8.50000000E-01  8.50000000E-01
  8.00000000E-01  8.50000000E-01  8.50000000E-01  8.50000000E-01  8.00000000E-01
  8.50000000E-01  8.50000000E-01  8.50000000E-01  8.00000000E-01  8.50000000E-01
  8.50000000E-01  8.50000000E-01  8.00000000E-01  8.50000000E-01  8.50000000E-01
  8.50000000E-01  8.00000000E-01  8.50000000E-01  8.50000000E-01  8.50000000E-01
  8.00000000E-01  8.50000000E-01  8.50000000E-01  8.50000000E-01  8.00000000E-01
  8.50000000E-01  8.50000000E-01  8.50000000E-01  8.00000000E-01  8.50000000E-01
  8.50000000E-01  8.50000000E-01  8.00000000E-01  8.50000000E-01  8.50000000E-01
  8.50000000E-01  8.00000000E-01  8.50000000E-01  8.50000000E-01  8.50000000E-01
  8.00000000E-01  8.50000000E-01  8.50000000E-01  8.50000000E-01  8.00000000E-01
  8.50000000E-01  8.50000000E-01  8.50000000E-01  8.00000000E-01  8.50000000E-01
  8.50000000E-01  8.50000000E-01  8.00000000E-01  8.50000000E-01  8.50000000E-01
  8.50000000E-01  8.00000000E-01  8.50000000E-01  8.50000000E-01  8.50000000E-01
  8.00000000E-01  8.50000000E-01  8.50000000E-01  8.50000000E-01  8.00000000E-01
  8.50000000E-01  8.50000000E-01  8.50000000E-01  8.00000000E-01  8.50000000E-01
  8.50000000E-01  8.50000000E-01  8.00000000E-01  8.50000000E-01  8.50000000E-01
  8.50000000E-01  8.00000000E-01  8.50000000E-01  8.50000000E-01  8.50000000E-01
  8.00000000E-01  8.50000000E-01  8.50000000E-01  8.50000000E-01  8.00000000E-01
  8.50000000E-01  8.50000000E-01  8.50000000E-01  8.00000000E-01  8.50000000E-01
  8.50000000E-01  8.50000000E-01  8.00000000E-01  8.50000000E-01  8.50000000E-01
  8.50000000E-01  8.00000000E-01  8.50000000E-01  8.50000000E-01  8.50000000E-01
  8.00000000E-01  8.50000000E-01  8.50000000E-01  8.50000000E-01  8.00000000E-01
  8.50000000E-01  8.50000000E-01  8.50000000E-01  8.00000000E-01  8.50000000E-01
  8.50000000E-01  8.50000000E-01  8.00000000E-01  8.50000000E-01  8.50000000E-01
  8.50000000E-01  8.00000000E-01  8.50000000E-01  8.50000000E-01  8.50000000E-01
  8.00000000E-01  8.50000000E-01  8.50000000E-01  8.50000000E-01  8.00000000E-01
  8.50000000E-01  8.50000000E-01  8.50000000E-01  8.00000000E-01  8.50000000E-01
  8.50000000E-01  8.50000000E-01  8.00000000E-01  8.50000000E-01  8.50000000E-01
  8.50000000E-01  8.00000000E-01  8.50000000E-01  8.50000000E-01  8.50000000E-01
  8.00000000E-01  8.50000000E-01  8.50000000E-01  8.50000000E-01  8.00000000E-01
  8.50000000E-01  8.50000000E-01  8.50000000E-01  8.00000000E-01  8.50000000E-01
  8.50000000E-01  8.50000000E-01  8.00000000E-01  8.50000000E-01  8.50000000E-01
  8.50000000E-01  8.00000000E-01  8.50000000E-01  8.50000000E-01  8.50000000E-01
  8.00000000E-01  8.50000000E-01  8.50000000E-01  8.50000000E-01  8.00000000E-01
  8.50000000E-01  8.50000000E-01  8.50000000E-01  8.00000000E-01  8.50000000E-01
  8.50000000E-01  8.50000000E-01  8.00000000E-01  8.50000000E-01  8.50000000E-01
  8.50000000E-01  8.00000000E-01  8.50000000E-01  8.50000000E-01  8.50000000E-01
  8.00000000E-01  8.50000000E-01  8.50000000E-01  8.50000000E-01  8.00000000E-01
  8.50000000E-01  8.50000000E-01  8.50000000E-01  8.00000000E-01  8.50000000E-01
  8.50000000E-01  8.50000000E-01  8.00000000E-01  8.50000000E-01  8.50000000E-01
  8.50000000E-01  8.00000000E-01  8.50000000E-01  8.50000000E-01  8.50000000E-01
  8.00000000E-01  8.50000000E-01  8.50000000E-01  8.50000000E-01  8.00000000E-01
  8.50000000E-01  8.50000000E-01  8.50000000E-01  8.00000000E-01  8.50000000E-01
  8.50000000E-01  8.50000000E-01  8.00000000E-01  8.50000000E-01  8.50000000E-01
  8.50000000E-01  8.00000000E-01  8.50000000E-01  8.50000000E-01  8.50000000E-01
  8.00000000E-01  8.50000000E-01  8.50000000E-01  8.50000000E-01  8.00000000E-01
  8.50000000E-01  8.50000000E-01  8.50000000E-01  8.00000000E-01  8.50000000E-01
  8.50000000E-01  8.50000000E-01  8.00000000E-01  8.50000000E-01  8.50000000E-01
  8.50000000E-01  8.00000000E-01  8.50000000E-01  8.50000000E-01  8.50000000E-01
  8.00000000E-01  8.50000000E-01  8.50000000E-01  8.50000000E-01  8.00000000E-01
  8.50000000E-01  8.50000000E-01  8.50000000E-01  8.00000000E-01  8.50000000E-01
  8.50000000E-01  8.50000000E-01  8.00000000E-01  8.50000000E-01  8.50000000E-01
  8.50000000E-01  8.00000000E-01  8.50000000E-01  8.50000000E-01  8.50000000E-01
  8.00000000E-01  8.50000000E-01  8.50000000E-01  8.50000000E-01  8.00000000E-01
  8.50000000E-01  8.50000000E-01  8.50000000E-01  8.00000000E-01  8.50000000E-01
  8.50000000E-01  8.50000000E-01  8.00000000E-01  8.50000000E-01  8.50000000E-01
  8.50000000E-01  8.00000000E-01  8.50000000E-01  8.50000000E-01  8.50000000E-01
  8.00000000E-01  8.50000000E-01  8.50000000E-01  8.50000000E-01  8.00000000E-01
  8.50000000E-01  8.50000000E-01  8.50000000E-01  8.00000000E-01  8.50000000E-01
  8.50000000E-01  8.50000000E-01  8.00000000E-01  8.50000000E-01  8.50000000E-01
  8.50000000E-01  8.00000000E-01  8.50000000E-01  8.50000000E-01  8.50000000E-01
  8.00000000E-01  8.50000000E-01  8.50000000E-01  8.50000000E-01  8.00000000E-01
  8.50000000E-01  8.50000000E-01  8.50000000E-01  8.00000000E-01  8.50000000E-01
  8.50000000E-01  8.50000000E-01  8.00000000E-01  8.50000000E-01  8.50000000E-01
  8.50000000E-01  8.00000000E-01  8.50000000E-01  8.50000000E-01  8.50000000E-01
  8.00000000E-01  8.50000000E-01  8.50000000E-01  8.50000000E-01  8.00000000E-01
  8.50000000E-01  8.50000000E-01  8.50000000E-01  8.00000000E-01  8.50000000E-01
  8.50000000E-01  8.50000000E-01  8.00000000E-01  8.50000000E-01  8.50000000E-01
  8.50000000E-01  8.00000000E-01  8.50000000E-01  8.50000000E-01  8.50000000E-01
  8.00000000E-01  8.50000000E-01  8.50000000E-01  8.50000000E-01  8.00000000E-01
  8.50000000E-01  8.50000000E-01  8.50000000E-01  8.00000000E-01  8.50000000E-01
  8.50000000E-01  8.50000000E-01  8.00000000E-01  8.50000000E-01  8.50000000E-01
  8.50000000E-01  8.00000000E-01  8.50000000E-01  8.50000000E-01  8.50000000E-01
  8.00000000E-01  8.50000000E-01  8.50000000E-01  8.50000000E-01  8.00000000E-01
  8.50000000E-01  8.50000000E-01  8.50000000E-01  8.00000000E-01  8.50000000E-01
  8.50000000E-01  8.50000000E-01  8.00000000E-01  8.50000000E-01  8.50000000E-01
  8.50000000E-01  8.00000000E-01  8.50000000E-01  8.50000000E-01  8.50000000E-01
  8.00000000E-01  8.50000000E-01  8.50000000E-01  8.50000000E-01  8.00000000E-01
  8.50000000E-01  8.50000000E-01  8.50000000E-01  8.00000000E-01  8.50000000E-01
  8.50000000E-01  8.50000000E-01  8.00000000E-01  8.50000000E-01  8.50000000E-01
  8.50000000E-01  8.00000000E-01  8.50000000E-01  8.50000000E-01  8.50000000E-01
  8.00000000E-01  8.50000000E-01  8.50000000E-01  8.50000000E-01  8.00000000E-01
  8.50000000E-01  8.50000000E-01  8.50000000E-01  8.00000000E-01  8.50000000E-01
  8.50000000E-01  8.50000000E-01  8.00000000E-01  8.50000000E-01  8.50000000E-01
  8.50000000E-01  8.00000000E-01  8.50000000E-01  8.50000000E-01  8.50000000E-01
  8.00000000E-01  8.50000000E-01  8.50000000E-01  8.50000000E-01  8.00000000E-01
  8.50000000E-01  8.50000000E-01  8.50000000E-01  8.00000000E-01  8.50000000E-01
  8.50000000E-01  8.50000000E-01  8.00000000E-01  8.50000000E-01  8.50000000E-01
  8.50000000E-01  8.00000000E-01  8.50000000E-01  8.50000000E-01  8.50000000E-01
  8.00000000E-01  8.50000000E-01  8.50000000E-01  8.50000000E-01  8.00000000E-01
  8.50000000E-01  8.50000000E-01  8.50000000E-01  8.00000000E-01  8.50000000E-01
  8.50000000E-01  8.50000000E-01  8.00000000E-01  8.50000000E-01  8.50000000E-01
  8.50000000E-01  8.00000000E-01  8.50000000E-01  8.50000000E-01  8.50000000E-01
  8.00000000E-01  8.50000000E-01  8.50000000E-01  8.50000000E-01  8.00000000E-01
  8.50000000E-01  8.50000000E-01  8.50000000E-01  8.00000000E-01  8.50000000E-01
  8.50000000E-01  8.50000000E-01  8.00000000E-01  8.50000000E-01  8.50000000E-01
  8.50000000E-01  8.00000000E-01  8.50000000E-01  8.50000000E-01  8.50000000E-01
  8.00000000E-01  8.50000000E-01  8.50000000E-01  8.50000000E-01  8.00000000E-01
  8.50000000E-01  8.50000000E-01  8.50000000E-01  8.00000000E-01  8.50000000E-01
  8.50000000E-01  8.50000000E-01  8.00000000E-01  8.50000000E-01  8.50000000E-01
  8.50000000E-01  8.00000000E-01  8.50000000E-01  8.50000000E-01  8.50000000E-01
  8.00000000E-01  8.50000000E-01  8.50000000E-01  8.50000000E-01  8.00000000E-01
  8.50000000E-01  8.50000000E-01  8.50000000E-01  8.00000000E-01  8.50000000E-01
  8.50000000E-01  8.50000000E-01  8.00000000E-01  8.50000000E-01  8.50000000E-01
  8.50000000E-01  8.00000000E-01  8.50000000E-01  8.50000000E-01  8.50000000E-01
  8.00000000E-01  8.50000000E-01  8.50000000E-01  8.50000000E-01  8.00000000E-01
  8.50000000E-01  8.50000000E-01  8.50000000E-01  8.00000000E-01  8.50000000E-01
  8.50000000E-01  8.50000000E-01  8.00000000E-01  8.50000000E-01  8.50000000E-01
  8.50000000E-01  8.00000000E-01  8.50000000E-01  8.50000000E-01  8.50000000E-01
  8.00000000E-01  8.50000000E-01  8.50000000E-01  8.50000000E-01  8.00000000E-01
  8.50000000E-01  8.50000000E-01  8.50000000E-01  8.00000000E-01  8.50000000E-01
  8.50000000E-01  8.50000000E-01  8.00000000E-01  8.50000000E-01  8.50000000E-01
  8.50000000E-01  8.00000000E-01  8.50000000E-01  8.50000000E-01  8.50000000E-01
  8.00000000E-01  8.50000000E-01  8.50000000E-01  8.50000000E-01  8.00000000E-01
  8.50000000E-01  8.50000000E-01  8.50000000E-01  8.00000000E-01  8.50000000E-01
  8.50000000E-01  8.50000000E-01  8.00000000E-01  8.50000000E-01  8.50000000E-01
  8.50000000E-01  8.00000000E-01  8.50000000E-01  8.50000000E-01  8.50000000E-01
  8.00000000E-01  8.50000000E-01  8.50000000E-01  8.50000000E-01  8.00000000E-01
  8.50000000E-01  8.50000000E-01  8.50000000E-01  8.00000000E-01  8.50000000E-01
  8.50000000E-01  8.50000000E-01  8.00000000E-01  8.50000000E-01  8.50000000E-01
  8.50000000E-01  8.00000000E-01  8.50000000E-01  8.50000000E-01  8.50000000E-01
  8.00000000E-01  8.50000000E-01  8.50000000E-01  8.50000000E-01  8.00000000E-01
  8.50000000E-01  8.50000000E-01  8.50000000E-01  8.00000000E-01  8.50000000E-01
  8.50000000E-01  8.50000000E-01  8.00000000E-01  8.50000000E-01  8.50000000E-01
  8.50000000E-01  8.00000000E-01  8.50000000E-01  8.50000000E-01  8.50000000E-01
  8.00000000E-01  8.50000000E-01  8.50000000E-01  8.50000000E-01  8.00000000E-01
  8.50000000E-01  8.50000000E-01  8.50000000E-01  8.00000000E-01  8.50000000E-01
  8.50000000E-01  8.50000000E-01  8.00000000E-01  8.50000000E-01  8.50000000E-01
  8.50000000E-01  8.00000000E-01  8.50000000E-01  8.50000000E-01  8.50000000E-01
  8.00000000E-01  8.50000000E-01  8.50000000E-01  8.50000000E-01  8.00000000E-01
  8.50000000E-01  8.50000000E-01  8.50000000E-01  8.00000000E-01  8.50000000E-01
  8.50000000E-01  8.50000000E-01  8.00000000E-01  8.50000000E-01  8.50000000E-01
  8.50000000E-01  8.00000000E-01  8.50000000E-01  8.50000000E-01  8.50000000E-01
  8.00000000E-01  8.50000000E-01  8.50000000E-01  8.50000000E-01  8.00000000E-01
  8.50000000E-01  8.50000000E-01  8.50000000E-01  8.00000000E-01  8.50000000E-01
  8.50000000E-01  8.50000000E-01  8.00000000E-01  8.50000000E-01  8.50000000E-01
  8.50000000E-01  8.00000000E-01  8.50000000E-01  8.50000000E-01  8.50000000E-01
  8.00000000E-01  8.50000000E-01  8.50000000E-01  8.50000000E-01  8.00000000E-01
  8.50000000E-01  8.50000000E-01  8.50000000E-01  8.00000000E-01  8.50000000E-01
  8.50000000E-01  8.50000000E-01  8.00000000E-01  8.50000000E-01  8.50000000E-01
  8.50000000E-01  8.00000000E-01  8.50000000E-01  8.50000000E-01  8.50000000E-01
  8.00000000E-01  8.50000000E-01  8.50000000E-01  8.50000000E-01  8.00000000E-01
  8.50000000E-01  8.50000000E-01  8.50000000E-01  8.00000000E-01  8.50000000E-01
  8.50000000E-01  8.50000000E-01  8.00000000E-01  8.50000000E-01  8.50000000E-01
  8.50000000E-01  8.00000000E-01  8.50000000E-01  8.50000000E-01  8.50000000E-01
  8.00000000E-01  8.50000000E-01  8.50000000E-01  8.50000000E-01  8.00000000E-01
  8.50000000E-01  8.50000000E-01  8.50000000E-01  8.00000000E-01  8.50000000E-01
  8.50000000E-01  8.50000000E-01  8.00000000E-01  8.50000000E-01  8.50000000E-01
  8.50000000E-01  8.00000000E-01  8.50000000E-01  8.50000000E-01  8.50000000E-01
  8.00000000E-01  8.50000000E-01  8.50000000E-01  8.50000000E-01  8.00000000E-01
  8.50000000E-01  8.50000000E-01  8.50000000E-01  8.00000000E-01  8.50000000E-01
  8.50000000E-01  8.50000000E-01  8.00000000E-01  8.50000000E-01  8.50000000E-01
  8.50000000E-01  8.00000000E-01  8.50000000E-01  8.50000000E-01  8.50000000E-01
  8.00000000E-01  8.50000000E-01  8.50000000E-01  8.50000000E-01  8.00000000E-01
  8.50000000E-01  8.50000000E-01  8.50000000E-01  8.00000000E-01  8.50000000E-01
  8.50000000E-01  8.50000000E-01  8.00000000E-01  8.50000000E-01  8.50000000E-01
  8.50000000E-01  8.00000000E-01  8.50000000E-01  8.50000000E-01  8.50000000E-01
  8.00000000E-01  8.50000000E-01  8.50000000E-01  8.50000000E-01  8.00000000E-01
  8.50000000E-01  8.50000000E-01  8.50000000E-01  8.00000000E-01  8.50000000E-01
  8.50000000E-01  8.50000000E-01  8.00000000E-01  8.50000000E-01  8.50000000E-01
  8.50000000E-01  8.00000000E-01  8.50000000E-01  8.50000000E-01  8.50000000E-01
  8.00000000E-01  8.50000000E-01  8.50000000E-01  8.50000000E-01  8.00000000E-01
  8.50000000E-01  8.50000000E-01  8.50000000E-01  8.00000000E-01  8.50000000E-01
  8.50000000E-01  8.50000000E-01  8.00000000E-01  8.50000000E-01  8.50000000E-01
  8.50000000E-01  8.00000000E-01  8.50000000E-01  8.50000000E-01  8.50000000E-01
  8.00000000E-01  8.50000000E-01  8.50000000E-01  8.50000000E-01  8.00000000E-01
  8.50000000E-01  8.50000000E-01  8.50000000E-01  8.00000000E-01  8.50000000E-01
  8.50000000E-01  8.50000000E-01  8.00000000E-01  8.50000000E-01  8.50000000E-01
  8.50000000E-01  8.00000000E-01  8.50000000E-01  8.50000000E-01  8.50000000E-01
  8.00000000E-01  8.50000000E-01  8.50000000E-01  8.50000000E-01  8.00000000E-01
  8.50000000E-01  8.50000000E-01  8.50000000E-01  8.00000000E-01  8.50000000E-01
  8.50000000E-01  8.50000000E-01  8.00000000E-01  8.50000000E-01  8.50000000E-01
  8.50000000E-01  8.00000000E-01  8.50000000E-01  8.50000000E-01  8.50000000E-01
  8.00000000E-01  8.50000000E-01  8.50000000E-01  8.50000000E-01  8.00000000E-01
  8.50000000E-01  8.50000000E-01  8.50000000E-01  8.00000000E-01  8.50000000E-01
  8.50000000E-01  8.50000000E-01  8.00000000E-01  8.50000000E-01  8.50000000E-01
  8.50000000E-01  8.00000000E-01  8.50000000E-01  8.50000000E-01  8.50000000E-01
  8.00000000E-01  8.50000000E-01  8.50000000E-01  8.50000000E-01  8.00000000E-01
  8.50000000E-01  8.50000000E-01  8.50000000E-01  8.00000000E-01  8.50000000E-01
  8.50000000E-01  8.50000000E-01  8.00000000E-01  8.50000000E-01  8.50000000E-01
  8.50000000E-01  8.00000000E-01  8.50000000E-01  8.50000000E-01  8.50000000E-01
  8.00000000E-01  8.50000000E-01  8.50000000E-01  8.50000000E-01  8.00000000E-01
  8.50000000E-01  8.50000000E-01  8.50000000E-01  8.00000000E-01  8.50000000E-01
  8.50000000E-01  8.50000000E-01  8.00000000E-01  8.50000000E-01  8.50000000E-01
  8.50000000E-01  8.00000000E-01  8.50000000E-01  8.50000000E-01  8.50000000E-01
  8.00000000E-01  8.50000000E-01  8.50000000E-01  8.50000000E-01  8.00000000E-01
  8.50000000E-01  8.50000000E-01  8.50000000E-01  8.00000000E-01  8.50000000E-01
  8.50000000E-01  8.50000000E-01  8.00000000E-01  8.50000000E-01  8.50000000E-01
  8.50000000E-01  8.00000000E-01  8.50000000E-01  8.50000000E-01  8.50000000E-01
  8.00000000E-01  8.50000000E-01  8.50000000E-01  8.50000000E-01  8.00000000E-01
  8.50000000E-01  8.50000000E-01  8.50000000E-01  8.00000000E-01  8.50000000E-01
  8.50000000E-01  8.50000000E-01  8.00000000E-01  8.50000000E-01  8.50000000E-01
  8.50000000E-01  8.00000000E-01  8.50000000E-01  8.50000000E-01  8.50000000E-01
  8.00000000E-01  8.50000000E-01  8.50000000E-01  8.50000000E-01  8.00000000E-01
  8.50000000E-01  8.50000000E-01  8.50000000E-01  8.00000000E-01  8.50000000E-01
  8.50000000E-01  8.50000000E-01  8.00000000E-01  8.50000000E-01  8.50000000E-01
  8.50000000E-01  8.00000000E-01  8.50000000E-01  8.50000000E-01  8.50000000E-01
  8.00000000E-01  8.50000000E-01  8.50000000E-01  8.50000000E-01  8.00000000E-01
  8.50000000E-01  8.50000000E-01  8.50000000E-01  8.00000000E-01  8.50000000E-01
  8.50000000E-01  8.50000000E-01  8.00000000E-01  8.50000000E-01  8.50000000E-01
  8.50000000E-01  8.00000000E-01  8.50000000E-01  8.50000000E-01  8.50000000E-01
  8.00000000E-01  8.50000000E-01  8.50000000E-01  8.50000000E-01  8.00000000E-01
  8.50000000E-01  8.50000000E-01  8.50000000E-01  8.00000000E-01  8.50000000E-01
  8.50000000E-01  8.50000000E-01  8.00000000E-01  8.50000000E-01  8.50000000E-01
  8.50000000E-01  8.00000000E-01  8.50000000E-01  8.50000000E-01  8.50000000E-01
  8.00000000E-01  8.50000000E-01  8.50000000E-01  8.50000000E-01  8.00000000E-01
  8.50000000E-01  8.50000000E-01  8.50000000E-01  8.00000000E-01  8.50000000E-01
  8.50000000E-01  8.50000000E-01  8.00000000E-01  8.50000000E-01  8.50000000E-01
  8.50000000E-01  8.00000000E-01  8.50000000E-01  8.50000000E-01  8.50000000E-01
  8.00000000E-01  8.50000000E-01  8.50000000E-01  8.50000000E-01  8.00000000E-01
  8.50000000E-01  8.50000000E-01  8.50000000E-01  8.00000000E-01  8.50000000E-01
  8.50000000E-01  8.50000000E-01  8.00000000E-01  8.50000000E-01  8.50000000E-01
  8.50000000E-01  8.00000000E-01  8.50000000E-01  8.50000000E-01  8.50000000E-01
  8.00000000E-01  8.50000000E-01  8.50000000E-01  8.50000000E-01  8.00000000E-01
  8.50000000E-01  8.50000000E-01  8.50000000E-01  8.00000000E-01  8.50000000E-01
  8.50000000E-01  8.50000000E-01  8.00000000E-01  8.50000000E-01  8.50000000E-01
  8.50000000E-01  8.00000000E-01  8.50000000E-01  8.50000000E-01  8.50000000E-01
  8.00000000E-01  8.50000000E-01  8.50000000E-01  8.50000000E-01  8.00000000E-01
  8.50000000E-01  8.50000000E-01  8.50000000E-01  8.00000000E-01  8.50000000E-01
  8.50000000E-01  8.50000000E-01  8.00000000E-01  8.50000000E-01  8.50000000E-01
  8.50000000E-01  8.00000000E-01  8.50000000E-01  8.50000000E-01  8.50000000E-01
  8.00000000E-01  8.50000000E-01  8.50000000E-01  8.50000000E-01  8.00000000E-01
  8.50000000E-01  8.50000000E-01  8.50000000E-01  8.00000000E-01  8.50000000E-01
  8.50000000E-01  8.50000000E-01  8.00000000E-01  8.50000000E-01  8.50000000E-01
  8.50000000E-01  8.00000000E-01  8.50000000E-01  8.50000000E-01  8.50000000E-01
  8.00000000E-01  8.50000000E-01  8.50000000E-01  8.50000000E-01  8.00000000E-01
  8.50000000E-01  8.50000000E-01  8.50000000E-01  8.00000000E-01  8.50000000E-01
  8.50000000E-01  8.50000000E-01  8.00000000E-01  8.50000000E-01  8.50000000E-01
  8.50000000E-01  8.00000000E-01  8.50000000E-01  8.50000000E-01  8.50000000E-01
  8.00000000E-01  8.50000000E-01  8.50000000E-01  8.50000000E-01  8.00000000E-01
  8.50000000E-01  8.50000000E-01  8.50000000E-01  8.00000000E-01  8.50000000E-01
  8.50000000E-01  8.50000000E-01  8.00000000E-01  8.50000000E-01  8.50000000E-01
  8.50000000E-01  8.00000000E-01  8.50000000E-01  8.50000000E-01  8.50000000E-01
  8.00000000E-01  8.50000000E-01  8.50000000E-01  8.50000000E-01  8.00000000E-01
  8.50000000E-01  8.50000000E-01  8.50000000E-01  8.00000000E-01  8.50000000E-01
  8.50000000E-01  8.50000000E-01  8.00000000E-01  8.50000000E-01  8.50000000E-01
  8.50000000E-01  8.00000000E-01  8.50000000E-01  8.50000000E-01  8.50000000E-01
  8.00000000E-01  8.50000000E-01  8.50000000E-01  8.50000000E-01  8.00000000E-01
  8.50000000E-01  8.50000000E-01  8.50000000E-01  8.00000000E-01  8.50000000E-01
  8.50000000E-01  8.50000000E-01  8.00000000E-01  8.50000000E-01  8.50000000E-01
  8.50000000E-01  8.00000000E-01  8.50000000E-01  8.50000000E-01  8.50000000E-01
  8.00000000E-01  8.50000000E-01  8.50000000E-01  8.50000000E-01  8.00000000E-01
  8.50000000E-01  8.50000000E-01  8.50000000E-01  8.00000000E-01  8.50000000E-01
  8.50000000E-01  8.50000000E-01  8.00000000E-01  8.50000000E-01  8.50000000E-01
  8.50000000E-01  8.00000000E-01  8.50000000E-01  8.50000000E-01  8.50000000E-01
  8.00000000E-01  8.50000000E-01  8.50000000E-01  8.50000000E-01  8.00000000E-01
  8.50000000E-01  8.50000000E-01  8.50000000E-01  8.00000000E-01  8.50000000E-01
  8.50000000E-01  8.50000000E-01  8.00000000E-01  8.50000000E-01  8.50000000E-01
  8.50000000E-01  8.00000000E-01  8.50000000E-01  8.50000000E-01  8.50000000E-01
  8.00000000E-01  8.50000000E-01  8.50000000E-01  8.50000000E-01  8.00000000E-01
  8.50000000E-01  8.50000000E-01  8.50000000E-01  8.00000000E-01  8.50000000E-01
  8.50000000E-01  8.50000000E-01  8.00000000E-01  8.50000000E-01  8.50000000E-01
  8.50000000E-01  8.00000000E-01  8.50000000E-01  8.50000000E-01  8.50000000E-01
  8.00000000E-01  8.50000000E-01  8.50000000E-01  8.50000000E-01  8.00000000E-01
  8.50000000E-01  8.50000000E-01  8.50000000E-01  8.00000000E-01  8.50000000E-01
  8.50000000E-01  8.50000000E-01  8.00000000E-01  8.50000000E-01  8.50000000E-01
  8.50000000E-01  8.00000000E-01  8.50000000E-01  8.50000000E-01  8.50000000E-01
  8.00000000E-01  8.50000000E-01  8.50000000E-01  8.50000000E-01  8.00000000E-01
  8.50000000E-01  8.50000000E-01  8.50000000E-01  8.00000000E-01  8.50000000E-01
  8.50000000E-01  8.50000000E-01  8.00000000E-01  8.50000000E-01  8.50000000E-01
  8.50000000E-01  8.00000000E-01  8.50000000E-01  8.50000000E-01  8.50000000E-01
  8.00000000E-01  8.50000000E-01  8.50000000E-01  8.50000000E-01  8.00000000E-01
  8.50000000E-01  8.50000000E-01  8.50000000E-01  8.00000000E-01  8.50000000E-01
  8.50000000E-01  8.50000000E-01  8.00000000E-01  8.50000000E-01  8.50000000E-01
  8.50000000E-01  8.00000000E-01  8.50000000E-01  8.50000000E-01  8.50000000E-01
  8.00000000E-01  8.50000000E-01  8.50000000E-01  8.50000000E-01  8.00000000E-01
  8.50000000E-01  8.50000000E-01  8.50000000E-01  8.00000000E-01  8.50000000E-01
  8.50000000E-01  8.50000000E-01  8.00000000E-01  8.50000000E-01  8.50000000E-01
  8.50000000E-01  8.00000000E-01  8.50000000E-01  8.50000000E-01  8.50000000E-01
  8.00000000E-01  8.50000000E-01  8.50000000E-01  8.50000000E-01  8.00000000E-01
  8.50000000E-01  8.50000000E-01  8.50000000E-01  8.00000000E-01  8.50000000E-01
  8.50000000E-01  8.50000000E-01  8.00000000E-01  8.50000000E-01  8.50000000E-01
  8.50000000E-01  8.00000000E-01  8.50000000E-01  8.50000000E-01  8.50000000E-01
  8.00000000E-01  8.50000000E-01  8.50000000E-01  8.50000000E-01  8.00000000E-01
  8.50000000E-01  8.50000000E-01  8.50000000E-01  8.00000000E-01  8.50000000E-01
  8.50000000E-01  8.50000000E-01  8.00000000E-01  8.50000000E-01  8.50000000E-01
  8.50000000E-01  8.00000000E-01  8.50000000E-01  8.50000000E-01  8.50000000E-01
  8.00000000E-01  8.50000000E-01  8.50000000E-01  8.50000000E-01  8.00000000E-01
  8.50000000E-01  8.50000000E-01  8.50000000E-01  8.00000000E-01  8.50000000E-01
  8.50000000E-01  8.50000000E-01  8.00000000E-01  8.50000000E-01  8.50000000E-01
  8.50000000E-01  8.00000000E-01  8.50000000E-01  8.50000000E-01  8.50000000E-01
  8.00000000E-01  8.50000000E-01  8.50000000E-01  8.50000000E-01  8.00000000E-01
  8.50000000E-01  8.50000000E-01  8.50000000E-01  8.00000000E-01  8.50000000E-01
  8.50000000E-01  8.50000000E-01  8.00000000E-01  8.50000000E-01  8.50000000E-01
  8.50000000E-01  8.00000000E-01  8.50000000E-01  8.50000000E-01  8.50000000E-01
  8.00000000E-01  8.50000000E-01  8.50000000E-01  8.50000000E-01  8.00000000E-01
  8.50000000E-01  8.50000000E-01  8.50000000E-01  8.00000000E-01  8.50000000E-01
  8.50000000E-01  8.50000000E-01  8.00000000E-01  8.50000000E-01  8.50000000E-01
  8.50000000E-01  8.00000000E-01  8.50000000E-01  8.50000000E-01  8.50000000E-01
  8.00000000E-01  8.50000000E-01  8.50000000E-01  8.50000000E-01  8.00000000E-01
  8.50000000E-01  8.50000000E-01  8.50000000E-01  8.00000000E-01  8.50000000E-01
  8.50000000E-01  8.50000000E-01  8.00000000E-01  8.50000000E-01  8.50000000E-01
  8.50000000E-01  8.00000000E-01  8.50000000E-01  8.50000000E-01  8.50000000E-01
  8.00000000E-01  8.50000000E-01  8.50000000E-01  8.50000000E-01  8.00000000E-01
  8.50000000E-01  8.50000000E-01  8.50000000E-01  8.00000000E-01  8.50000000E-01
  8.50000000E-01  8.50000000E-01  8.00000000E-01  8.50000000E-01  8.50000000E-01
  8.50000000E-01  8.00000000E-01  8.50000000E-01  8.50000000E-01  8.50000000E-01
  8.00000000E-01  8.50000000E-01  8.50000000E-01  8.50000000E-01  8.00000000E-01
  8.50000000E-01  8.50000000E-01  8.50000000E-01  8.00000000E-01  8.50000000E-01
  8.50000000E-01  8.50000000E-01  8.00000000E-01  8.50000000E-01  8.50000000E-01
  8.50000000E-01  8.00000000E-01  8.50000000E-01  8.50000000E-01  8.50000000E-01
  8.00000000E-01  8.50000000E-01  8.50000000E-01  8.50000000E-01  8.00000000E-01
  8.50000000E-01  8.50000000E-01  8.50000000E-01  8.00000000E-01  8.50000000E-01
  8.50000000E-01  8.50000000E-01  8.00000000E-01  8.50000000E-01  8.50000000E-01
  8.50000000E-01  8.00000000E-01  8.50000000E-01  8.50000000E-01  8.50000000E-01
  8.00000000E-01  8.50000000E-01  8.50000000E-01  8.50000000E-01  8.00000000E-01
  8.50000000E-01  8.50000000E-01  8.50000000E-01  8.00000000E-01  8.50000000E-01
  8.50000000E-01  8.50000000E-01  8.00000000E-01  8.50000000E-01  8.50000000E-01
  8.50000000E-01  8.00000000E-01  8.50000000E-01  8.50000000E-01  8.50000000E-01
  8.00000000E-01  8.50000000E-01  8.50000000E-01  8.50000000E-01  8.00000000E-01
  8.50000000E-01  8.50000000E-01  8.50000000E-01  8.00000000E-01  8.50000000E-01
  8.50000000E-01  8.50000000E-01  8.00000000E-01  8.50000000E-01  8.50000000E-01
  8.50000000E-01  8.00000000E-01  8.50000000E-01  8.50000000E-01  8.50000000E-01
  8.00000000E-01  8.50000000E-01  8.50000000E-01  8.50000000E-01  8.00000000E-01
  8.50000000E-01  8.50000000E-01  8.50000000E-01  8.00000000E-01  8.50000000E-01
  8.50000000E-01  8.50000000E-01  8.00000000E-01  8.50000000E-01  8.50000000E-01
  8.50000000E-01  8.00000000E-01  8.50000000E-01  8.50000000E-01  8.50000000E-01
  8.00000000E-01  8.50000000E-01  8.50000000E-01  8.50000000E-01  8.00000000E-01
  8.50000000E-01  8.50000000E-01  8.50000000E-01  8.00000000E-01  8.50000000E-01
  8.50000000E-01  8.50000000E-01  8.00000000E-01  8.50000000E-01  8.50000000E-01
  8.50000000E-01  8.00000000E-01  8.50000000E-01  8.50000000E-01  8.50000000E-01
  8.00000000E-01  8.50000000E-01  8.50000000E-01  8.50000000E-01  8.00000000E-01
  8.50000000E-01  8.50000000E-01  8.50000000E-01  8.00000000E-01  8.50000000E-01
  8.50000000E-01  8.50000000E-01  8.00000000E-01  8.50000000E-01  8.50000000E-01
  8.50000000E-01  8.00000000E-01  8.50000000E-01  8.50000000E-01  8.50000000E-01
  8.00000000E-01  8.50000000E-01  8.50000000E-01  8.50000000E-01  8.00000000E-01
  8.50000000E-01  8.50000000E-01  8.50000000E-01  8.00000000E-01  8.50000000E-01
  8.50000000E-01  8.50000000E-01  8.00000000E-01  8.50000000E-01  8.50000000E-01
  8.50000000E-01  8.00000000E-01  8.50000000E-01  8.50000000E-01  8.50000000E-01
  8.00000000E-01  8.50000000E-01  8.50000000E-01  8.50000000E-01  8.00000000E-01
  8.50000000E-01  8.50000000E-01  8.50000000E-01  8.00000000E-01  8.50000000E-01
  8.50000000E-01  8.50000000E-01  8.00000000E-01  8.50000000E-01  8.50000000E-01
  8.50000000E-01  8.00000000E-01  8.50000000E-01  8.50000000E-01  8.50000000E-01
  8.00000000E-01  8.50000000E-01  8.50000000E-01  8.50000000E-01  8.00000000E-01
  8.50000000E-01  8.50000000E-01  8.50000000E-01  8.00000000E-01  8.50000000E-01
  8.50000000E-01  8.50000000E-01  8.00000000E-01  8.50000000E-01  8.50000000E-01
  8.50000000E-01  8.00000000E-01  8.50000000E-01  8.50000000E-01  8.50000000E-01
  8.00000000E-01  8.50000000E-01  8.50000000E-01  8.50000000E-01  8.00000000E-01
  8.50000000E-01  8.50000000E-01  8.50000000E-01  8.00000000E-01  8.50000000E-01
  8.50000000E-01  8.50000000E-01  8.00000000E-01  8.50000000E-01  8.50000000E-01
  8.50000000E-01  8.00000000E-01  8.50000000E-01  8.50000000E-01  8.50000000E-01
  8.00000000E-01  8.50000000E-01  8.50000000E-01  8.50000000E-01  8.00000000E-01
  8.50000000E-01  8.50000000E-01  8.50000000E-01  8.00000000E-01  8.50000000E-01
  8.50000000E-01  8.50000000E-01  8.00000000E-01  8.50000000E-01  8.50000000E-01
  8.50000000E-01  8.00000000E-01  8.50000000E-01  8.50000000E-01  8.50000000E-01
  8.00000000E-01  8.50000000E-01  8.50000000E-01  8.50000000E-01  8.00000000E-01
  8.50000000E-01  8.50000000E-01  8.50000000E-01  8.00000000E-01  8.50000000E-01
  8.50000000E-01  8.50000000E-01  8.00000000E-01  8.50000000E-01  8.50000000E-01
  8.50000000E-01  8.00000000E-01  8.50000000E-01  8.50000000E-01  8.50000000E-01
  8.00000000E-01  8.50000000E-01  8.50000000E-01  8.50000000E-01  8.00000000E-01
  8.50000000E-01  8.50000000E-01  8.50000000E-01  8.00000000E-01  8.50000000E-01
  8.50000000E-01  8.50000000E-01  8.00000000E-01  8.50000000E-01  8.50000000E-01
  8.50000000E-01  8.00000000E-01  8.50000000E-01  8.50000000E-01  8.50000000E-01
  8.00000000E-01  8.50000000E-01  8.50000000E-01  8.50000000E-01  8.00000000E-01
  8.50000000E-01  8.50000000E-01  8.50000000E-01  8.00000000E-01  8.50000000E-01
  8.50000000E-01  8.50000000E-01  8.00000000E-01  8.50000000E-01  8.50000000E-01
  8.50000000E-01  8.00000000E-01  8.50000000E-01  8.50000000E-01  8.50000000E-01
  8.00000000E-01  8.50000000E-01  8.50000000E-01  8.50000000E-01  8.00000000E-01
  8.50000000E-01  8.50000000E-01  8.50000000E-01  8.00000000E-01  8.50000000E-01
  8.50000000E-01  8.50000000E-01  8.00000000E-01  8.50000000E-01  8.50000000E-01
  8.50000000E-01  8.00000000E-01  8.50000000E-01  8.50000000E-01  8.50000000E-01
  8.00000000E-01  8.50000000E-01  8.50000000E-01  8.50000000E-01  8.00000000E-01
  8.50000000E-01  8.50000000E-01  8.50000000E-01  8.00000000E-01  8.50000000E-01
  8.50000000E-01  8.50000000E-01  8.00000000E-01  8.50000000E-01  8.50000000E-01
  8.50000000E-01  8.00000000E-01  8.50000000E-01  8.50000000E-01  8.50000000E-01
  8.00000000E-01  8.50000000E-01  8.50000000E-01  8.50000000E-01  8.00000000E-01
  8.50000000E-01  8.50000000E-01  8.50000000E-01  8.00000000E-01  8.50000000E-01
  8.50000000E-01  8.50000000E-01  8.00000000E-01  8.50000000E-01  8.50000000E-01
  8.50000000E-01  8.00000000E-01  8.50000000E-01  8.50000000E-01  8.50000000E-01
  8.00000000E-01  8.50000000E-01  8.50000000E-01  8.50000000E-01  8.00000000E-01
  8.50000000E-01  8.50000000E-01  8.50000000E-01  8.00000000E-01  8.50000000E-01
  8.50000000E-01  8.50000000E-01  8.00000000E-01  8.50000000E-01  8.50000000E-01
  8.50000000E-01  8.00000000E-01  8.50000000E-01  8.50000000E-01  8.50000000E-01
  8.00000000E-01  8.50000000E-01  8.50000000E-01  8.50000000E-01  8.00000000E-01
  8.50000000E-01  8.50000000E-01  8.50000000E-01  8.00000000E-01  8.50000000E-01
  8.50000000E-01  8.50000000E-01  8.00000000E-01  8.50000000E-01  8.50000000E-01
  8.50000000E-01  8.00000000E-01  8.50000000E-01  8.50000000E-01  8.50000000E-01
  8.00000000E-01  8.50000000E-01  8.50000000E-01  8.50000000E-01  8.00000000E-01
  8.50000000E-01  8.50000000E-01  8.50000000E-01  8.00000000E-01  8.50000000E-01
  8.50000000E-01  8.50000000E-01  8.00000000E-01  8.50000000E-01  8.50000000E-01
  8.50000000E-01  8.00000000E-01  8.50000000E-01  8.50000000E-01  8.50000000E-01
  8.00000000E-01  8.50000000E-01  8.50000000E-01  8.50000000E-01  8.00000000E-01
  8.50000000E-01  8.50000000E-01  8.50000000E-01  8.00000000E-01  8.50000000E-01
  8.50000000E-01  8.50000000E-01  8.00000000E-01  8.50000000E-01  8.50000000E-01
  8.50000000E-01  8.00000000E-01  8.50000000E-01  8.50000000E-01  8.50000000E-01
  8.00000000E-01  8.50000000E-01  8.50000000E-01  8.50000000E-01  8.00000000E-01
  8.50000000E-01  8.50000000E-01  8.50000000E-01  8.00000000E-01  8.50000000E-01
  8.50000000E-01  8.50000000E-01  8.00000000E-01  8.50000000E-01  8.50000000E-01
  8.50000000E-01  8.00000000E-01  8.50000000E-01  8.50000000E-01  8.50000000E-01
  8.00000000E-01  8.50000000E-01  8.50000000E-01  8.50000000E-01  8.00000000E-01
  8.50000000E-01  8.50000000E-01  8.50000000E-01  8.00000000E-01  8.50000000E-01
  8.50000000E-01  8.50000000E-01  8.00000000E-01  8.50000000E-01  8.50000000E-01
  8.50000000E-01  8.00000000E-01  8.50000000E-01  8.50000000E-01  8.50000000E-01
  8.00000000E-01  8.50000000E-01  8.50000000E-01  8.50000000E-01  8.00000000E-01
  8.50000000E-01  8.50000000E-01  8.50000000E-01  8.00000000E-01  8.50000000E-01
  8.50000000E-01  8.50000000E-01  8.00000000E-01  8.50000000E-01  8.50000000E-01
  8.50000000E-01  8.00000000E-01  8.50000000E-01  8.50000000E-01  8.50000000E-01
  8.00000000E-01  8.50000000E-01  8.50000000E-01  8.50000000E-01  8.00000000E-01
  8.50000000E-01  8.50000000E-01  8.50000000E-01  8.00000000E-01  8.50000000E-01
  8.50000000E-01  8.50000000E-01  8.00000000E-01  8.50000000E-01  8.50000000E-01
  8.50000000E-01  8.00000000E-01  8.50000000E-01  8.50000000E-01  8.50000000E-01
  8.00000000E-01  8.50000000E-01  8.50000000E-01  8.50000000E-01  8.00000000E-01
  8.50000000E-01  8.50000000E-01  8.50000000E-01  8.00000000E-01  8.50000000E-01
  8.50000000E-01  8.50000000E-01  8.00000000E-01  8.50000000E-01  8.50000000E-01
  8.50000000E-01  8.00000000E-01  8.50000000E-01  8.50000000E-01  8.50000000E-01
  8.00000000E-01  8.50000000E-01  8.50000000E-01  8.50000000E-01  8.00000000E-01
  8.50000000E-01  8.50000000E-01  8.50000000E-01  8.00000000E-01  8.50000000E-01
  8.50000000E-01  8.50000000E-01  8.00000000E-01  8.50000000E-01  8.50000000E-01
  8.50000000E-01  8.00000000E-01  8.50000000E-01  8.50000000E-01  8.50000000E-01
  8.00000000E-01  8.50000000E-01  8.50000000E-01  8.50000000E-01  8.00000000E-01
  8.50000000E-01  8.50000000E-01  8.50000000E-01  8.00000000E-01  8.50000000E-01
  8.50000000E-01  8.50000000E-01  8.00000000E-01  8.50000000E-01  8.50000000E-01
  8.50000000E-01  8.00000000E-01  8.50000000E-01  8.50000000E-01  8.50000000E-01
  8.00000000E-01  8.50000000E-01  8.50000000E-01  8.50000000E-01  8.00000000E-01
  8.50000000E-01  8.50000000E-01  8.50000000E-01  8.00000000E-01  8.50000000E-01
  8.50000000E-01  8.50000000E-01  8.00000000E-01  8.50000000E-01  8.50000000E-01
  8.50000000E-01  8.00000000E-01  8.50000000E-01  8.50000000E-01  8.50000000E-01
  8.00000000E-01  8.50000000E-01  8.50000000E-01  8.50000000E-01  8.00000000E-01
  8.50000000E-01  8.50000000E-01  8.50000000E-01  8.00000000E-01  8.50000000E-01
  8.50000000E-01  8.50000000E-01  8.00000000E-01  8.50000000E-01  8.50000000E-01
  8.50000000E-01  8.00000000E-01  8.50000000E-01  8.50000000E-01  8.50000000E-01
  8.00000000E-01  8.50000000E-01  8.50000000E-01  8.50000000E-01  8.00000000E-01
  8.50000000E-01  8.50000000E-01  8.50000000E-01  8.00000000E-01  8.50000000E-01
  8.50000000E-01  8.50000000E-01  8.00000000E-01  8.50000000E-01  8.50000000E-01
  8.50000000E-01  8.00000000E-01  8.50000000E-01  8.50000000E-01  8.50000000E-01
  8.00000000E-01  8.50000000E-01  8.50000000E-01  8.50000000E-01  8.00000000E-01
  8.50000000E-01  8.50000000E-01  8.50000000E-01  8.00000000E-01  8.50000000E-01
  8.50000000E-01  8.50000000E-01  8.00000000E-01  8.50000000E-01  8.50000000E-01
  8.50000000E-01  8.00000000E-01  8.50000000E-01  8.50000000E-01  8.50000000E-01
  8.00000000E-01  8.50000000E-01  8.50000000E-01  8.50000000E-01  8.00000000E-01
  8.50000000E-01  8.50000000E-01  8.50000000E-01  8.00000000E-01  8.50000000E-01
  8.50000000E-01  8.50000000E-01  8.00000000E-01  8.50000000E-01  8.50000000E-01
  8.50000000E-01  8.00000000E-01  8.50000000E-01  8.50000000E-01  8.50000000E-01
  8.00000000E-01  8.50000000E-01  8.50000000E-01  8.50000000E-01  8.00000000E-01
  8.50000000E-01  8.50000000E-01  8.50000000E-01  8.00000000E-01  8.50000000E-01
  8.50000000E-01  8.50000000E-01  8.00000000E-01  8.50000000E-01  8.50000000E-01
  8.50000000E-01  8.00000000E-01  8.50000000E-01  8.50000000E-01  8.50000000E-01
  8.00000000E-01  8.50000000E-01  8.50000000E-01  8.50000000E-01  8.00000000E-01
  8.50000000E-01  8.50000000E-01  8.50000000E-01  8.00000000E-01  8.50000000E-01
  8.50000000E-01  8.50000000E-01  8.00000000E-01  8.50000000E-01  8.50000000E-01
  8.50000000E-01  8.00000000E-01  8.50000000E-01  8.50000000E-01  8.50000000E-01
  8.00000000E-01  8.50000000E-01  8.50000000E-01  8.50000000E-01  8.00000000E-01
  8.50000000E-01  8.50000000E-01  8.50000000E-01  8.00000000E-01  8.50000000E-01
  8.50000000E-01  8.50000000E-01  8.00000000E-01  8.50000000E-01  8.50000000E-01
  8.50000000E-01  8.00000000E-01  8.50000000E-01  8.50000000E-01  8.50000000E-01
  8.00000000E-01  8.50000000E-01  8.50000000E-01  8.50000000E-01  8.00000000E-01
  8.50000000E-01  8.50000000E-01  8.50000000E-01  8.00000000E-01  8.50000000E-01
  8.50000000E-01  8.50000000E-01  8.00000000E-01  8.50000000E-01  8.50000000E-01
  8.50000000E-01  8.00000000E-01  8.50000000E-01  8.50000000E-01  8.50000000E-01
  8.00000000E-01  8.50000000E-01  8.50000000E-01  8.50000000E-01  8.00000000E-01
  8.50000000E-01  8.50000000E-01  8.50000000E-01  8.00000000E-01  8.50000000E-01
  8.50000000E-01  8.50000000E-01  8.00000000E-01  8.50000000E-01  8.50000000E-01
  8.50000000E-01  8.00000000E-01  8.50000000E-01  8.50000000E-01  8.50000000E-01
  8.00000000E-01  8.50000000E-01  8.50000000E-01  8.50000000E-01  8.00000000E-01
  8.50000000E-01  8.50000000E-01  8.50000000E-01  8.00000000E-01  8.50000000E-01
  8.50000000E-01  8.50000000E-01  8.00000000E-01  8.50000000E-01  8.50000000E-01
  8.50000000E-01  8.00000000E-01  8.50000000E-01  8.50000000E-01  8.50000000E-01
  8.00000000E-01  8.50000000E-01  8.50000000E-01  8.50000000E-01  8.00000000E-01
  8.50000000E-01  8.50000000E-01  8.50000000E-01  8.00000000E-01  8.50000000E-01
  8.50000000E-01  8.50000000E-01  8.00000000E-01  8.50000000E-01  8.50000000E-01
  8.50000000E-01  8.00000000E-01  8.50000000E-01  8.50000000E-01  8.50000000E-01
  8.00000000E-01  8.50000000E-01  8.50000000E-01  8.50000000E-01  8.00000000E-01
  8.50000000E-01  8.50000000E-01  8.50000000E-01  8.00000000E-01  8.50000000E-01
  8.50000000E-01  8.50000000E-01  8.00000000E-01  8.50000000E-01  8.50000000E-01
  8.50000000E-01  8.00000000E-01  8.50000000E-01  8.50000000E-01  8.50000000E-01
  8.00000000E-01  8.50000000E-01  8.50000000E-01  8.50000000E-01  8.00000000E-01
  8.50000000E-01  8.50000000E-01  8.50000000E-01  8.00000000E-01  8.50000000E-01
  8.50000000E-01  8.50000000E-01  8.00000000E-01  8.50000000E-01  8.50000000E-01
  8.50000000E-01  8.00000000E-01  8.50000000E-01  8.50000000E-01  8.50000000E-01
  8.00000000E-01  8.50000000E-01  8.50000000E-01  8.50000000E-01  8.00000000E-01
  8.50000000E-01  8.50000000E-01  8.50000000E-01  8.00000000E-01  8.50000000E-01
  8.50000000E-01  8.50000000E-01  8.00000000E-01  8.50000000E-01  8.50000000E-01
  8.50000000E-01  8.00000000E-01  8.50000000E-01  8.50000000E-01  8.50000000E-01
  8.00000000E-01  8.50000000E-01  8.50000000E-01  8.50000000E-01  8.00000000E-01
  8.50000000E-01  8.50000000E-01  8.50000000E-01  8.00000000E-01  8.50000000E-01
  8.50000000E-01  8.50000000E-01  8.00000000E-01  8.50000000E-01  8.50000000E-01
  8.50000000E-01  8.00000000E-01  8.50000000E-01  8.50000000E-01  8.50000000E-01
  8.00000000E-01  8.50000000E-01  8.50000000E-01  8.50000000E-01  8.00000000E-01
  8.50000000E-01  8.50000000E-01  8.50000000E-01  8.00000000E-01  8.50000000E-01
  8.50000000E-01  8.50000000E-01  8.00000000E-01  8.50000000E-01  8.50000000E-01
  8.50000000E-01  8.00000000E-01  8.50000000E-01  8.50000000E-01  8.50000000E-01
  8.00000000E-01  8.50000000E-01  8.50000000E-01  8.50000000E-01  8.00000000E-01
  8.50000000E-01  8.50000000E-01  8.50000000E-01  8.00000000E-01  8.50000000E-01
  8.50000000E-01  8.50000000E-01  8.00000000E-01  8.50000000E-01  8.50000000E-01
  8.50000000E-01  8.00000000E-01  8.50000000E-01  8.50000000E-01  8.50000000E-01
  8.00000000E-01  8.50000000E-01  8.50000000E-01  8.50000000E-01  8.00000000E-01
  8.50000000E-01  8.50000000E-01  8.50000000E-01  8.00000000E-01  8.50000000E-01
  8.50000000E-01  8.50000000E-01  8.00000000E-01  8.50000000E-01  8.50000000E-01
  8.50000000E-01  8.00000000E-01  8.50000000E-01  8.50000000E-01  8.50000000E-01
  8.00000000E-01  8.50000000E-01  8.50000000E-01  8.50000000E-01  8.00000000E-01
  8.50000000E-01  8.50000000E-01  8.50000000E-01  8.00000000E-01  8.50000000E-01
  8.50000000E-01  8.50000000E-01  8.00000000E-01  8.50000000E-01  8.50000000E-01
  8.50000000E-01  8.00000000E-01  8.50000000E-01  8.50000000E-01  8.50000000E-01
  8.00000000E-01  8.50000000E-01  8.50000000E-01  8.50000000E-01  8.00000000E-01
  8.50000000E-01  8.50000000E-01  8.50000000E-01  8.00000000E-01  8.50000000E-01
  8.50000000E-01  8.50000000E-01  8.00000000E-01  8.50000000E-01  8.50000000E-01
  8.50000000E-01  8.00000000E-01  8.50000000E-01  8.50000000E-01  8.50000000E-01
  8.00000000E-01  8.50000000E-01  8.50000000E-01  8.50000000E-01  8.00000000E-01
  8.50000000E-01  8.50000000E-01  8.50000000E-01  8.00000000E-01  8.50000000E-01
  8.50000000E-01  8.50000000E-01  8.00000000E-01  8.50000000E-01  8.50000000E-01
  8.50000000E-01  8.00000000E-01  8.50000000E-01  8.50000000E-01  8.50000000E-01
  8.00000000E-01  8.50000000E-01  8.50000000E-01  8.50000000E-01  8.00000000E-01
  8.50000000E-01  8.50000000E-01  8.50000000E-01  8.00000000E-01  8.50000000E-01
  8.50000000E-01  8.50000000E-01  8.00000000E-01  8.50000000E-01  8.50000000E-01
  8.50000000E-01  8.00000000E-01  8.50000000E-01  8.50000000E-01  8.50000000E-01
  8.00000000E-01  8.50000000E-01  8.50000000E-01  8.50000000E-01  8.00000000E-01
  8.50000000E-01  8.50000000E-01  8.50000000E-01  8.00000000E-01  8.50000000E-01
  8.50000000E-01  8.50000000E-01  8.00000000E-01  8.50000000E-01  8.50000000E-01
  8.50000000E-01  8.00000000E-01  8.50000000E-01  8.50000000E-01  8.50000000E-01
  8.00000000E-01  8.50000000E-01  8.50000000E-01  8.50000000E-01  8.00000000E-01
  8.50000000E-01  8.50000000E-01  8.50000000E-01  8.00000000E-01  8.50000000E-01
  8.50000000E-01  8.50000000E-01  8.00000000E-01  8.50000000E-01  8.50000000E-01
  8.50000000E-01  8.00000000E-01  8.50000000E-01  8.50000000E-01  8.50000000E-01
  8.00000000E-01  8.50000000E-01  8.50000000E-01  8.50000000E-01  8.00000000E-01
  8.50000000E-01  8.50000000E-01  8.50000000E-01  8.00000000E-01  8.50000000E-01
  8.50000000E-01  8.50000000E-01  8.00000000E-01  8.50000000E-01  8.50000000E-01
  8.50000000E-01  8.00000000E-01  8.50000000E-01  8.50000000E-01  8.50000000E-01
  8.00000000E-01  8.50000000E-01  8.50000000E-01  8.50000000E-01  8.00000000E-01
  8.50000000E-01  8.50000000E-01  8.50000000E-01  8.00000000E-01  8.50000000E-01
  8.50000000E-01  8.50000000E-01  8.00000000E-01  8.50000000E-01  8.50000000E-01
  8.50000000E-01  8.00000000E-01  8.50000000E-01  8.50000000E-01  8.50000000E-01
  8.00000000E-01  8.50000000E-01  8.50000000E-01  8.50000000E-01  8.00000000E-01
  8.50000000E-01  8.50000000E-01  8.50000000E-01  8.00000000E-01  8.50000000E-01
  8.50000000E-01  8.50000000E-01  8.00000000E-01  8.50000000E-01  8.50000000E-01
  8.50000000E-01  8.00000000E-01  8.50000000E-01  8.50000000E-01  8.50000000E-01
  8.00000000E-01  8.50000000E-01  8.50000000E-01  8.50000000E-01  8.00000000E-01
  8.50000000E-01  8.50000000E-01  8.50000000E-01  8.00000000E-01  8.50000000E-01
  8.50000000E-01  8.50000000E-01  8.00000000E-01  8.50000000E-01  8.50000000E-01
  8.50000000E-01  8.00000000E-01  8.50000000E-01  8.50000000E-01  8.50000000E-01
  8.00000000E-01  8.50000000E-01  8.50000000E-01  8.50000000E-01  8.00000000E-01
  8.50000000E-01  8.50000000E-01  8.50000000E-01  8.00000000E-01  8.50000000E-01
  8.50000000E-01  8.50000000E-01  8.00000000E-01  8.50000000E-01  8.50000000E-01
  8.50000000E-01  8.00000000E-01  8.50000000E-01  8.50000000E-01  8.50000000E-01
  8.00000000E-01  8.50000000E-01  8.50000000E-01  8.50000000E-01  8.00000000E-01
  8.50000000E-01  8.50000000E-01  8.50000000E-01  8.00000000E-01  8.50000000E-01
  8.50000000E-01  8.50000000E-01  8.00000000E-01  8.50000000E-01  8.50000000E-01
  8.50000000E-01  8.00000000E-01  8.50000000E-01  8.50000000E-01  8.50000000E-01
  8.00000000E-01  8.50000000E-01  8.50000000E-01  8.50000000E-01  8.00000000E-01
  8.50000000E-01  8.50000000E-01  8.50000000E-01  8.00000000E-01  8.50000000E-01
  8.50000000E-01  8.50000000E-01  8.00000000E-01  8.50000000E-01  8.50000000E-01
  8.50000000E-01  8.00000000E-01  8.50000000E-01  8.50000000E-01  8.50000000E-01
  8.00000000E-01  8.50000000E-01  8.50000000E-01  8.50000000E-01  8.00000000E-01
  8.50000000E-01  8.50000000E-01  8.50000000E-01  8.00000000E-01  8.50000000E-01
  8.50000000E-01  8.50000000E-01  8.00000000E-01  8.50000000E-01  8.50000000E-01
  8.50000000E-01  8.00000000E-01  8.50000000E-01  8.50000000E-01  8.50000000E-01
  8.00000000E-01  8.50000000E-01  8.50000000E-01  8.50000000E-01  8.00000000E-01
  8.50000000E-01  8.50000000E-01  8.50000000E-01  8.00000000E-01  8.50000000E-01
  8.50000000E-01  8.50000000E-01  8.00000000E-01  8.50000000E-01  8.50000000E-01
  8.50000000E-01  8.00000000E-01  8.50000000E-01  8.50000000E-01  8.50000000E-01
  8.00000000E-01  8.50000000E-01  8.50000000E-01  8.50000000E-01  8.00000000E-01
  8.50000000E-01  8.50000000E-01  8.50000000E-01  8.00000000E-01  8.50000000E-01
  8.50000000E-01  8.50000000E-01  8.00000000E-01  8.50000000E-01  8.50000000E-01
  8.50000000E-01  8.00000000E-01  8.50000000E-01  8.50000000E-01  8.50000000E-01
  8.00000000E-01  8.50000000E-01  8.50000000E-01  8.50000000E-01  8.00000000E-01
  8.50000000E-01  8.50000000E-01  8.50000000E-01  8.00000000E-01  8.50000000E-01
  8.50000000E-01  8.50000000E-01  8.00000000E-01  8.50000000E-01  8.50000000E-01
  8.50000000E-01  8.00000000E-01  8.50000000E-01  8.50000000E-01  8.50000000E-01
  8.00000000E-01  8.50000000E-01  8.50000000E-01  8.50000000E-01  8.00000000E-01
  8.50000000E-01  8.50000000E-01  8.50000000E-01  8.00000000E-01  8.50000000E-01
  8.50000000E-01  8.50000000E-01  8.00000000E-01  8.50000000E-01  8.50000000E-01
  8.50000000E-01  8.00000000E-01  8.50000000E-01  8.50000000E-01  8.50000000E-01
  8.00000000E-01  8.50000000E-01  8.50000000E-01  8.50000000E-01  8.00000000E-01
  8.50000000E-01  8.50000000E-01  8.50000000E-01  8.00000000E-01  8.50000000E-01
  8.50000000E-01  8.50000000E-01  8.00000000E-01  8.50000000E-01  8.50000000E-01
  8.50000000E-01  8.00000000E-01  8.50000000E-01  8.50000000E-01  8.50000000E-01
  8.00000000E-01  8.50000000E-01  8.50000000E-01  8.50000000E-01  8.00000000E-01
  8.50000000E-01  8.50000000E-01  8.50000000E-01  8.00000000E-01  8.50000000E-01
  8.50000000E-01  8.50000000E-01  8.00000000E-01  8.50000000E-01  8.50000000E-01
  8.50000000E-01  8.00000000E-01  8.50000000E-01  8.50000000E-01  8.50000000E-01
  8.00000000E-01  8.50000000E-01  8.50000000E-01  8.50000000E-01  8.00000000E-01
  8.50000000E-01  8.50000000E-01  8.50000000E-01  8.00000000E-01  8.50000000E-01
  8.50000000E-01  8.50000000E-01  8.00000000E-01  8.50000000E-01  8.50000000E-01
  8.50000000E-01  8.00000000E-01  8.50000000E-01  8.50000000E-01  8.50000000E-01
  8.00000000E-01  8.50000000E-01  8.50000000E-01  8.50000000E-01  8.00000000E-01
  8.50000000E-01  8.50000000E-01  8.50000000E-01  8.00000000E-01  8.50000000E-01
  8.50000000E-01  8.50000000E-01  8.00000000E-01  8.50000000E-01  8.50000000E-01
  8.50000000E-01  8.00000000E-01  8.50000000E-01  8.50000000E-01  8.50000000E-01
  8.00000000E-01  8.50000000E-01  8.50000000E-01  8.50000000E-01  8.00000000E-01
  8.50000000E-01  8.50000000E-01  8.50000000E-01  8.00000000E-01  8.50000000E-01
  8.50000000E-01  8.50000000E-01  8.00000000E-01  8.50000000E-01  8.50000000E-01
  8.50000000E-01  8.00000000E-01  8.50000000E-01  8.50000000E-01  8.50000000E-01
  8.00000000E-01  8.50000000E-01  8.50000000E-01  8.50000000E-01  8.00000000E-01
  8.50000000E-01  8.50000000E-01  8.50000000E-01  8.00000000E-01  8.50000000E-01
  8.50000000E-01  8.50000000E-01  8.00000000E-01  8.50000000E-01  8.50000000E-01
  8.50000000E-01  8.00000000E-01  8.50000000E-01  8.50000000E-01  8.50000000E-01
  8.00000000E-01  8.50000000E-01  8.50000000E-01  8.50000000E-01  8.00000000E-01
  8.50000000E-01  8.50000000E-01  8.50000000E-01  8.00000000E-01  8.50000000E-01
  8.50000000E-01  8.50000000E-01  8.00000000E-01  8.50000000E-01  8.50000000E-01
  8.50000000E-01  8.00000000E-01  8.50000000E-01  8.50000000E-01  8.50000000E-01
  8.00000000E-01  8.50000000E-01  8.50000000E-01  8.50000000E-01  8.00000000E-01
  8.50000000E-01  8.50000000E-01  8.50000000E-01  8.00000000E-01  8.50000000E-01
  8.50000000E-01  8.50000000E-01  8.00000000E-01  8.50000000E-01  8.50000000E-01
  8.50000000E-01  8.00000000E-01  8.50000000E-01  8.50000000E-01  8.50000000E-01
  8.00000000E-01  8.50000000E-01  8.50000000E-01  8.50000000E-01  8.00000000E-01
  8.50000000E-01  8.50000000E-01  8.50000000E-01  8.00000000E-01  8.50000000E-01
  8.50000000E-01  8.50000000E-01  8.00000000E-01  8.50000000E-01  8.50000000E-01
  8.50000000E-01  8.00000000E-01  8.50000000E-01  8.50000000E-01  8.50000000E-01
  8.00000000E-01  8.50000000E-01  8.50000000E-01  8.50000000E-01  8.00000000E-01
  8.50000000E-01  8.50000000E-01  8.50000000E-01  8.00000000E-01  8.50000000E-01
  8.50000000E-01  8.50000000E-01  8.00000000E-01  8.50000000E-01  8.50000000E-01
  8.50000000E-01  8.00000000E-01  8.50000000E-01  8.50000000E-01  8.50000000E-01
  8.00000000E-01  8.50000000E-01  8.50000000E-01  8.50000000E-01  8.00000000E-01
  8.50000000E-01  8.50000000E-01  8.50000000E-01  8.00000000E-01  8.50000000E-01
  8.50000000E-01  8.50000000E-01  8.00000000E-01  8.50000000E-01  8.50000000E-01
  8.50000000E-01  8.00000000E-01  8.50000000E-01  8.50000000E-01  8.50000000E-01
  8.00000000E-01  8.50000000E-01  8.50000000E-01  8.50000000E-01  8.00000000E-01
  8.50000000E-01  8.50000000E-01  8.50000000E-01  8.00000000E-01  8.50000000E-01
  8.50000000E-01  8.50000000E-01  8.00000000E-01  8.50000000E-01  8.50000000E-01
  8.50000000E-01  8.00000000E-01  8.50000000E-01  8.50000000E-01  8.50000000E-01
  8.00000000E-01  8.50000000E-01  8.50000000E-01  8.50000000E-01  8.00000000E-01
  8.50000000E-01  8.50000000E-01  8.50000000E-01  8.00000000E-01  8.50000000E-01
  8.50000000E-01  8.50000000E-01  8.00000000E-01  8.50000000E-01  8.50000000E-01
  8.50000000E-01  8.00000000E-01  8.50000000E-01  8.50000000E-01  8.50000000E-01
  8.00000000E-01  8.50000000E-01  8.50000000E-01  8.50000000E-01  8.00000000E-01
  8.50000000E-01  8.50000000E-01  8.50000000E-01  8.00000000E-01  8.50000000E-01
  8.50000000E-01  8.50000000E-01  8.00000000E-01  8.50000000E-01  8.50000000E-01
  8.50000000E-01  8.00000000E-01  8.50000000E-01  8.50000000E-01  8.50000000E-01
  8.00000000E-01  8.50000000E-01  8.50000000E-01  8.50000000E-01  8.00000000E-01
  8.50000000E-01  8.50000000E-01  8.50000000E-01  8.00000000E-01  8.50000000E-01
  8.50000000E-01  8.50000000E-01  8.00000000E-01  8.50000000E-01  8.50000000E-01
  8.50000000E-01  8.00000000E-01  8.50000000E-01  8.50000000E-01  8.50000000E-01
  8.00000000E-01  8.50000000E-01  8.50000000E-01  8.50000000E-01  8.00000000E-01
  8.50000000E-01  8.50000000E-01  8.50000000E-01  8.00000000E-01  8.50000000E-01
  8.50000000E-01  8.50000000E-01  8.00000000E-01  8.50000000E-01  8.50000000E-01
  8.50000000E-01  8.00000000E-01  8.50000000E-01  8.50000000E-01  8.50000000E-01
  8.00000000E-01  8.50000000E-01  8.50000000E-01  8.50000000E-01  8.00000000E-01
  8.50000000E-01  8.50000000E-01  8.50000000E-01  8.00000000E-01  8.50000000E-01
  8.50000000E-01  8.50000000E-01  8.00000000E-01  8.50000000E-01  8.50000000E-01
  8.50000000E-01  8.00000000E-01  8.50000000E-01  8.50000000E-01  8.50000000E-01
  8.00000000E-01  8.50000000E-01  8.50000000E-01  8.50000000E-01  8.00000000E-01
  8.50000000E-01  8.50000000E-01  8.50000000E-01  8.00000000E-01  8.50000000E-01
  8.50000000E-01  8.50000000E-01  8.00000000E-01  8.50000000E-01  8.50000000E-01
  8.50000000E-01  8.00000000E-01  8.50000000E-01  8.50000000E-01  8.50000000E-01
  8.00000000E-01  8.50000000E-01  8.50000000E-01  8.50000000E-01  8.00000000E-01
  8.50000000E-01  8.50000000E-01  8.50000000E-01  8.00000000E-01  8.50000000E-01
  8.50000000E-01  8.50000000E-01  8.00000000E-01  8.50000000E-01  8.50000000E-01
  8.50000000E-01  8.00000000E-01  8.50000000E-01  8.50000000E-01  8.50000000E-01
  8.00000000E-01  8.50000000E-01  8.50000000E-01  8.50000000E-01  8.00000000E-01
  8.50000000E-01  8.50000000E-01  8.50000000E-01  8.00000000E-01  8.50000000E-01
  8.50000000E-01  8.50000000E-01  8.00000000E-01  8.50000000E-01  8.50000000E-01
  8.50000000E-01  8.00000000E-01  8.50000000E-01  8.50000000E-01  8.50000000E-01
  8.00000000E-01  8.50000000E-01  8.50000000E-01  8.50000000E-01  8.00000000E-01
  8.50000000E-01  8.50000000E-01  8.50000000E-01  8.00000000E-01  8.50000000E-01
  8.50000000E-01  8.50000000E-01  8.00000000E-01  8.50000000E-01  8.50000000E-01
  8.50000000E-01  8.00000000E-01  8.50000000E-01  8.50000000E-01  8.50000000E-01
  8.00000000E-01  8.50000000E-01  8.50000000E-01  8.50000000E-01  8.00000000E-01
  8.50000000E-01  8.50000000E-01  8.50000000E-01  8.00000000E-01  8.50000000E-01
  8.50000000E-01  8.50000000E-01  8.00000000E-01  8.50000000E-01  8.50000000E-01
  8.50000000E-01  8.00000000E-01  8.50000000E-01  8.50000000E-01  8.50000000E-01
  8.00000000E-01  8.50000000E-01  8.50000000E-01  8.50000000E-01  8.00000000E-01
  8.50000000E-01  8.50000000E-01  8.50000000E-01  8.00000000E-01  8.50000000E-01
  8.50000000E-01  8.50000000E-01  8.00000000E-01  8.50000000E-01  8.50000000E-01
  8.50000000E-01  8.00000000E-01  8.50000000E-01  8.50000000E-01  8.50000000E-01
  8.00000000E-01  8.50000000E-01  8.50000000E-01  8.50000000E-01  8.00000000E-01
  8.50000000E-01  8.50000000E-01  8.50000000E-01  8.00000000E-01  8.50000000E-01
  8.50000000E-01  8.50000000E-01  8.00000000E-01  8.50000000E-01  8.50000000E-01
  8.50000000E-01  8.00000000E-01  8.50000000E-01  8.50000000E-01  8.50000000E-01
  8.00000000E-01  8.50000000E-01  8.50000000E-01  8.50000000E-01  8.00000000E-01
  8.50000000E-01  8.50000000E-01  8.50000000E-01  8.00000000E-01  8.50000000E-01
  8.50000000E-01  8.50000000E-01  8.00000000E-01  8.50000000E-01  8.50000000E-01
  8.50000000E-01  8.00000000E-01  8.50000000E-01  8.50000000E-01  8.50000000E-01
  8.00000000E-01  8.50000000E-01  8.50000000E-01  8.50000000E-01  8.00000000E-01
  8.50000000E-01  8.50000000E-01  8.50000000E-01  8.00000000E-01  8.50000000E-01
  8.50000000E-01  8.50000000E-01  8.00000000E-01  8.50000000E-01  8.50000000E-01
  8.50000000E-01  8.00000000E-01  8.50000000E-01  8.50000000E-01  8.50000000E-01
  8.00000000E-01  8.50000000E-01  8.50000000E-01  8.50000000E-01  8.00000000E-01
  8.50000000E-01  8.50000000E-01  8.50000000E-01  8.00000000E-01  8.50000000E-01
  8.50000000E-01  8.50000000E-01  8.00000000E-01  8.50000000E-01  8.50000000E-01
  8.50000000E-01  8.00000000E-01  8.50000000E-01  8.50000000E-01  8.50000000E-01
  8.00000000E-01  8.50000000E-01  8.50000000E-01  8.50000000E-01  8.00000000E-01
  8.50000000E-01  8.50000000E-01  8.50000000E-01  8.00000000E-01  8.50000000E-01
  8.50000000E-01  8.50000000E-01  8.00000000E-01  8.50000000E-01  8.50000000E-01
  8.50000000E-01  8.00000000E-01  8.50000000E-01  8.50000000E-01  8.50000000E-01
  8.00000000E-01  8.50000000E-01  8.50000000E-01  8.50000000E-01  8.00000000E-01
  8.50000000E-01  8.50000000E-01  8.50000000E-01  8.00000000E-01  8.50000000E-01
  8.50000000E-01  8.50000000E-01  8.00000000E-01  8.50000000E-01  8.50000000E-01
  8.50000000E-01  8.00000000E-01  8.50000000E-01  8.50000000E-01  8.50000000E-01
  8.00000000E-01  8.50000000E-01  8.50000000E-01  8.50000000E-01  8.00000000E-01
  8.50000000E-01  8.50000000E-01  8.50000000E-01  8.00000000E-01  8.50000000E-01
  8.50000000E-01  8.50000000E-01  8.00000000E-01  8.50000000E-01  8.50000000E-01
  8.50000000E-01  8.00000000E-01  8.50000000E-01  8.50000000E-01  8.50000000E-01
  8.00000000E-01  8.50000000E-01  8.50000000E-01  8.50000000E-01  8.00000000E-01
  8.50000000E-01  8.50000000E-01  8.50000000E-01  8.00000000E-01  8.50000000E-01
  8.50000000E-01  8.50000000E-01  8.00000000E-01  8.50000000E-01  8.50000000E-01
  8.50000000E-01  8.00000000E-01  8.50000000E-01  8.50000000E-01  8.50000000E-01
  8.00000000E-01  8.50000000E-01  8.50000000E-01  8.50000000E-01  8.00000000E-01
  8.50000000E-01  8.50000000E-01  8.50000000E-01  8.00000000E-01  8.50000000E-01
  8.50000000E-01  8.50000000E-01  8.00000000E-01  8.50000000E-01  8.50000000E-01
  8.50000000E-01  8.00000000E-01  8.50000000E-01  8.50000000E-01  8.50000000E-01
  8.00000000E-01  8.50000000E-01  8.50000000E-01  8.50000000E-01  8.00000000E-01
  8.50000000E-01  8.50000000E-01  8.50000000E-01  8.00000000E-01  8.50000000E-01
  8.50000000E-01  8.50000000E-01  8.00000000E-01  8.50000000E-01  8.50000000E-01
  8.50000000E-01  8.00000000E-01  8.50000000E-01  8.50000000E-01  8.50000000E-01
  8.00000000E-01  8.50000000E-01  8.50000000E-01  8.50000000E-01  8.00000000E-01
  8.50000000E-01  8.50000000E-01  8.50000000E-01  8.00000000E-01  8.50000000E-01
  8.50000000E-01  8.50000000E-01  8.00000000E-01  8.50000000E-01  8.50000000E-01
  8.50000000E-01  8.00000000E-01  8.50000000E-01  8.50000000E-01  8.50000000E-01
  8.00000000E-01  8.50000000E-01  8.50000000E-01  8.50000000E-01  8.00000000E-01
  8.50000000E-01  8.50000000E-01  8.50000000E-01  8.00000000E-01  8.50000000E-01
  8.50000000E-01  8.50000000E-01  8.00000000E-01  8.50000000E-01  8.50000000E-01
  8.50000000E-01  8.00000000E-01  8.50000000E-01  8.50000000E-01  8.50000000E-01
  8.00000000E-01  8.50000000E-01  8.50000000E-01  8.50000000E-01  8.00000000E-01
  8.50000000E-01  8.50000000E-01  8.50000000E-01  8.00000000E-01  8.50000000E-01
  8.50000000E-01  8.50000000E-01  8.00000000E-01  8.50000000E-01  8.50000000E-01
  8.50000000E-01  8.00000000E-01  8.50000000E-01  8.50000000E-01  8.50000000E-01
  8.00000000E-01  8.50000000E-01  8.50000000E-01  8.50000000E-01  8.00000000E-01
  8.50000000E-01  8.50000000E-01  8.50000000E-01  8.00000000E-01  8.50000000E-01
  8.50000000E-01  8.50000000E-01  8.00000000E-01  8.50000000E-01  8.50000000E-01
  8.50000000E-01  8.00000000E-01  8.50000000E-01  8.50000000E-01  8.50000000E-01
  8.00000000E-01  8.50000000E-01  8.50000000E-01  8.50000000E-01  8.00000000E-01
  8.50000000E-01  8.50000000E-01  8.50000000E-01  8.00000000E-01  8.50000000E-01
  8.50000000E-01  8.50000000E-01  8.00000000E-01  8.50000000E-01  8.50000000E-01
  8.50000000E-01  8.00000000E-01  8.50000000E-01  8.50000000E-01  8.50000000E-01
  8.00000000E-01  8.50000000E-01  8.50000000E-01  8.50000000E-01  8.00000000E-01
  8.50000000E-01  8.50000000E-01  8.50000000E-01  8.00000000E-01  8.50000000E-01
  8.50000000E-01  8.50000000E-01  8.00000000E-01  8.50000000E-01  8.50000000E-01
  8.50000000E-01  8.00000000E-01  8.50000000E-01  8.50000000E-01  8.50000000E-01
  8.00000000E-01  8.50000000E-01  8.50000000E-01  8.50000000E-01  8.00000000E-01
  8.50000000E-01  8.50000000E-01  8.50000000E-01  8.00000000E-01  8.50000000E-01
  8.50000000E-01  8.50000000E-01  8.00000000E-01  8.50000000E-01  8.50000000E-01
  8.50000000E-01  8.00000000E-01  8.50000000E-01  8.50000000E-01  8.50000000E-01
  8.00000000E-01  8.50000000E-01  8.50000000E-01  8.50000000E-01  8.00000000E-01
  8.50000000E-01  8.50000000E-01  8.50000000E-01  8.00000000E-01  8.50000000E-01
  8.50000000E-01  8.50000000E-01  8.00000000E-01  8.50000000E-01  8.50000000E-01
  8.50000000E-01  8.00000000E-01  8.50000000E-01  8.50000000E-01  8.50000000E-01
  8.00000000E-01  8.50000000E-01  8.50000000E-01  8.50000000E-01  8.00000000E-01
  8.50000000E-01  8.50000000E-01  8.50000000E-01  8.00000000E-01  8.50000000E-01
  8.50000000E-01  8.50000000E-01  8.00000000E-01  8.50000000E-01  8.50000000E-01
  8.50000000E-01  8.00000000E-01  8.50000000E-01  8.50000000E-01  8.50000000E-01
  8.00000000E-01  8.50000000E-01  8.50000000E-01  8.50000000E-01  8.00000000E-01
  8.50000000E-01  8.50000000E-01  8.50000000E-01  8.00000000E-01  8.50000000E-01
  8.50000000E-01  8.50000000E-01  8.00000000E-01  8.50000000E-01  8.50000000E-01
  8.50000000E-01  8.00000000E-01  8.50000000E-01  8.50000000E-01  8.50000000E-01
  8.00000000E-01  8.50000000E-01  8.50000000E-01  8.50000000E-01  8.00000000E-01
  8.50000000E-01  8.50000000E-01  8.50000000E-01  8.00000000E-01  8.50000000E-01
  8.50000000E-01  8.50000000E-01  8.00000000E-01  8.50000000E-01  8.50000000E-01
  8.50000000E-01  8.00000000E-01  8.50000000E-01  8.50000000E-01  8.50000000E-01
  8.00000000E-01  8.50000000E-01  8.50000000E-01  8.50000000E-01  8.00000000E-01
  8.50000000E-01  8.50000000E-01  8.50000000E-01  8.00000000E-01  8.50000000E-01
  8.50000000E-01  8.50000000E-01  8.00000000E-01  8.50000000E-01  8.50000000E-01
  8.50000000E-01  8.00000000E-01  8.50000000E-01  8.50000000E-01  8.50000000E-01
  8.00000000E-01  8.50000000E-01  8.50000000E-01  8.50000000E-01  8.00000000E-01
  8.50000000E-01  8.50000000E-01  8.50000000E-01  8.00000000E-01  8.50000000E-01
  8.50000000E-01  8.50000000E-01  8.00000000E-01  8.50000000E-01  8.50000000E-01
  8.50000000E-01  8.00000000E-01  8.50000000E-01  8.50000000E-01  8.50000000E-01
  8.00000000E-01  8.50000000E-01  8.50000000E-01  8.50000000E-01  8.00000000E-01
  8.50000000E-01  8.50000000E-01  8.50000000E-01  8.00000000E-01  8.50000000E-01
  8.50000000E-01  8.50000000E-01  8.00000000E-01  8.50000000E-01  8.50000000E-01
  8.50000000E-01  8.00000000E-01  8.50000000E-01  8.50000000E-01  8.50000000E-01
  8.00000000E-01  8.50000000E-01  8.50000000E-01  8.50000000E-01  8.00000000E-01
  8.50000000E-01  8.50000000E-01  8.50000000E-01  8.00000000E-01  8.50000000E-01
  8.50000000E-01  8.50000000E-01  8.00000000E-01  8.50000000E-01  8.50000000E-01
  8.50000000E-01  8.00000000E-01  8.50000000E-01  8.50000000E-01  8.50000000E-01
  8.00000000E-01  8.50000000E-01  8.50000000E-01  8.50000000E-01  8.00000000E-01
  8.50000000E-01  8.50000000E-01  8.50000000E-01  8.00000000E-01  8.50000000E-01
  8.50000000E-01  8.50000000E-01  8.00000000E-01  8.50000000E-01  8.50000000E-01
  8.50000000E-01  8.00000000E-01  8.50000000E-01  8.50000000E-01  8.50000000E-01
  8.00000000E-01  8.50000000E-01  8.50000000E-01  8.50000000E-01  8.00000000E-01
  8.50000000E-01  8.50000000E-01  8.50000000E-01  8.00000000E-01  8.50000000E-01
  8.50000000E-01  8.50000000E-01  8.00000000E-01  8.50000000E-01  8.50000000E-01
  8.50000000E-01  8.00000000E-01  8.50000000E-01  8.50000000E-01  8.50000000E-01
  8.00000000E-01  8.50000000E-01  8.50000000E-01  8.50000000E-01  8.00000000E-01
  8.50000000E-01  8.50000000E-01  8.50000000E-01  8.00000000E-01  8.50000000E-01
  8.50000000E-01  8.50000000E-01  8.00000000E-01  8.50000000E-01  8.50000000E-01
  8.50000000E-01  8.00000000E-01  8.50000000E-01  8.50000000E-01  8.50000000E-01
  8.00000000E-01  8.50000000E-01  8.50000000E-01  8.50000000E-01  8.00000000E-01
  8.50000000E-01  8.50000000E-01  8.50000000E-01  8.00000000E-01  8.50000000E-01
  8.50000000E-01  8.50000000E-01  8.00000000E-01  8.50000000E-01  8.50000000E-01
  8.50000000E-01  8.00000000E-01  8.50000000E-01  8.50000000E-01  8.50000000E-01
  8.00000000E-01  8.50000000E-01  8.50000000E-01  8.50000000E-01  8.00000000E-01
  8.50000000E-01  8.50000000E-01  8.50000000E-01  8.00000000E-01  8.50000000E-01
  8.50000000E-01  8.50000000E-01  8.00000000E-01  8.50000000E-01  8.50000000E-01
  8.50000000E-01  8.00000000E-01  8.50000000E-01  8.50000000E-01  8.50000000E-01
  8.00000000E-01  8.50000000E-01  8.50000000E-01  8.50000000E-01  8.00000000E-01
  8.50000000E-01  8.50000000E-01  8.50000000E-01  8.00000000E-01  8.50000000E-01
  8.50000000E-01  8.50000000E-01  8.00000000E-01  8.50000000E-01  8.50000000E-01
  8.50000000E-01  8.00000000E-01  8.50000000E-01  8.50000000E-01  8.50000000E-01
  8.00000000E-01  8.50000000E-01  8.50000000E-01  8.50000000E-01  8.00000000E-01
  8.50000000E-01  8.50000000E-01  8.50000000E-01  8.00000000E-01  8.50000000E-01
  8.50000000E-01  8.50000000E-01  8.00000000E-01  8.50000000E-01  8.50000000E-01
  8.50000000E-01  8.00000000E-01  8.50000000E-01  8.50000000E-01  8.50000000E-01
  8.00000000E-01  8.50000000E-01  8.50000000E-01  8.50000000E-01  8.00000000E-01
  8.50000000E-01  8.50000000E-01  8.50000000E-01  8.00000000E-01  8.50000000E-01
  8.50000000E-01  8.50000000E-01  8.00000000E-01  8.50000000E-01  8.50000000E-01
  8.50000000E-01  8.00000000E-01  8.50000000E-01  8.50000000E-01  8.50000000E-01
  8.00000000E-01  8.50000000E-01  8.50000000E-01  8.50000000E-01  8.00000000E-01
  8.50000000E-01  8.50000000E-01  8.50000000E-01  8.00000000E-01  8.50000000E-01
  8.50000000E-01  8.50000000E-01  8.00000000E-01  8.50000000E-01  8.50000000E-01
  8.50000000E-01  8.00000000E-01  8.50000000E-01  8.50000000E-01  8.50000000E-01
  8.00000000E-01  8.50000000E-01  8.50000000E-01  8.50000000E-01  8.00000000E-01
  8.50000000E-01  8.50000000E-01  8.50000000E-01  8.00000000E-01  8.50000000E-01
  8.50000000E-01  8.50000000E-01  8.00000000E-01  8.50000000E-01  8.50000000E-01
  8.50000000E-01  8.00000000E-01  8.50000000E-01  8.50000000E-01  8.50000000E-01
  8.00000000E-01  8.50000000E-01  8.50000000E-01  8.50000000E-01  8.00000000E-01
  8.50000000E-01  8.50000000E-01  8.50000000E-01  8.00000000E-01  8.50000000E-01
  8.50000000E-01  8.50000000E-01  8.00000000E-01  8.50000000E-01  8.50000000E-01
  8.50000000E-01  8.00000000E-01  8.50000000E-01  8.50000000E-01  8.50000000E-01
  8.00000000E-01  8.50000000E-01  8.50000000E-01  8.50000000E-01  8.00000000E-01
  8.50000000E-01  8.50000000E-01  8.50000000E-01  8.00000000E-01  8.50000000E-01
  8.50000000E-01  8.50000000E-01  8.00000000E-01  8.50000000E-01  8.50000000E-01
  8.50000000E-01  8.00000000E-01  8.50000000E-01  8.50000000E-01  8.50000000E-01
  8.00000000E-01  8.50000000E-01  8.50000000E-01  8.50000000E-01  8.00000000E-01
  8.50000000E-01  8.50000000E-01  8.50000000E-01  8.00000000E-01  8.50000000E-01
  8.50000000E-01  8.50000000E-01  8.00000000E-01  8.50000000E-01  8.50000000E-01
  8.50000000E-01  8.00000000E-01  8.50000000E-01  8.50000000E-01  8.50000000E-01
  8.00000000E-01  8.50000000E-01  8.50000000E-01  8.50000000E-01  8.00000000E-01
  8.50000000E-01  8.50000000E-01  8.50000000E-01  8.00000000E-01  8.50000000E-01
  8.50000000E-01  8.50000000E-01  8.00000000E-01  8.50000000E-01  8.50000000E-01
  8.50000000E-01  8.00000000E-01  8.50000000E-01  8.50000000E-01  8.50000000E-01
  8.00000000E-01  8.50000000E-01  8.50000000E-01  8.50000000E-01  8.00000000E-01
  8.50000000E-01  8.50000000E-01  8.50000000E-01  8.00000000E-01  8.50000000E-01
  8.50000000E-01  8.50000000E-01  8.00000000E-01  8.50000000E-01  8.50000000E-01
  8.50000000E-01  8.00000000E-01  8.50000000E-01  8.50000000E-01  8.50000000E-01
  8.00000000E-01  8.50000000E-01  8.50000000E-01  8.50000000E-01  8.00000000E-01
  8.50000000E-01  8.50000000E-01  8.50000000E-01  8.00000000E-01  8.50000000E-01
  8.50000000E-01  8.50000000E-01  8.00000000E-01  8.50000000E-01  8.50000000E-01
  8.50000000E-01  8.00000000E-01  8.50000000E-01  8.50000000E-01  8.50000000E-01
  8.00000000E-01  8.50000000E-01  8.50000000E-01  8.50000000E-01  8.00000000E-01
  8.50000000E-01  8.50000000E-01  8.50000000E-01  8.00000000E-01  8.50000000E-01
  8.50000000E-01  8.50000000E-01  8.00000000E-01  8.50000000E-01  8.50000000E-01
  8.50000000E-01  8.00000000E-01  8.50000000E-01  8.50000000E-01  8.50000000E-01
  8.00000000E-01  8.50000000E-01  8.50000000E-01  8.50000000E-01  8.00000000E-01
  8.50000000E-01  8.50000000E-01  8.50000000E-01  8.00000000E-01  8.50000000E-01
  8.50000000E-01  8.50000000E-01  8.00000000E-01  8.50000000E-01  8.50000000E-01
  8.50000000E-01  8.00000000E-01  8.50000000E-01  8.50000000E-01  8.50000000E-01
  8.00000000E-01  8.50000000E-01  8.50000000E-01  8.50000000E-01  8.00000000E-01
  8.50000000E-01  8.50000000E-01  8.50000000E-01  8.00000000E-01  8.50000000E-01
  8.50000000E-01  8.50000000E-01  8.00000000E-01  8.50000000E-01  8.50000000E-01
  8.50000000E-01  8.00000000E-01  8.50000000E-01  8.50000000E-01  8.50000000E-01
  8.00000000E-01  8.50000000E-01  8.50000000E-01  8.50000000E-01  8.00000000E-01
  8.50000000E-01  8.50000000E-01  8.50000000E-01  8.00000000E-01  8.50000000E-01
  8.50000000E-01  8.50000000E-01  8.00000000E-01  8.50000000E-01  8.50000000E-01
  8.50000000E-01  8.00000000E-01  8.50000000E-01  8.50000000E-01  8.50000000E-01
  8.00000000E-01  8.50000000E-01  8.50000000E-01  8.50000000E-01  8.00000000E-01
  8.50000000E-01  8.50000000E-01  8.50000000E-01  8.00000000E-01  8.50000000E-01
  8.50000000E-01  8.50000000E-01  8.00000000E-01  8.50000000E-01  8.50000000E-01
  8.50000000E-01  8.00000000E-01  8.50000000E-01  8.50000000E-01  8.50000000E-01
  8.00000000E-01  8.50000000E-01  8.50000000E-01  8.50000000E-01  8.00000000E-01
  8.50000000E-01  8.50000000E-01  8.50000000E-01  8.00000000E-01  8.50000000E-01
  8.50000000E-01  8.50000000E-01  8.00000000E-01  8.50000000E-01  8.50000000E-01
  8.50000000E-01  8.00000000E-01  8.50000000E-01  8.50000000E-01  8.50000000E-01
  8.00000000E-01  8.50000000E-01  8.50000000E-01  8.50000000E-01  8.00000000E-01
  8.50000000E-01  8.50000000E-01  8.50000000E-01  8.00000000E-01  8.50000000E-01
  8.50000000E-01  8.50000000E-01  8.00000000E-01  8.50000000E-01  8.50000000E-01
  8.50000000E-01  8.00000000E-01  8.50000000E-01  8.50000000E-01  8.50000000E-01
  8.00000000E-01  8.50000000E-01  8.50000000E-01  8.50000000E-01  8.00000000E-01
  8.50000000E-01  8.50000000E-01  8.50000000E-01  8.00000000E-01  8.50000000E-01
  8.50000000E-01  8.50000000E-01  8.00000000E-01  8.50000000E-01  8.50000000E-01
  8.50000000E-01  8.00000000E-01  8.50000000E-01  8.50000000E-01  8.50000000E-01
  8.00000000E-01  8.50000000E-01  8.50000000E-01  8.50000000E-01  8.00000000E-01
  8.50000000E-01  8.50000000E-01  8.50000000E-01  8.00000000E-01  8.50000000E-01
  8.50000000E-01  8.50000000E-01  8.00000000E-01  8.50000000E-01  8.50000000E-01
  8.50000000E-01  8.00000000E-01  8.50000000E-01  8.50000000E-01  8.50000000E-01
  8.00000000E-01  8.50000000E-01  8.50000000E-01  8.50000000E-01  8.00000000E-01
  8.50000000E-01  8.50000000E-01  8.50000000E-01  8.00000000E-01  8.50000000E-01
  8.50000000E-01  8.50000000E-01  8.00000000E-01  8.50000000E-01  8.50000000E-01
  8.50000000E-01  8.00000000E-01  8.50000000E-01  8.50000000E-01  8.50000000E-01
  8.00000000E-01  8.50000000E-01  8.50000000E-01  8.50000000E-01  8.00000000E-01
  8.50000000E-01  8.50000000E-01  8.50000000E-01  8.00000000E-01  8.50000000E-01
  8.50000000E-01  8.50000000E-01  8.00000000E-01  8.50000000E-01  8.50000000E-01
  8.50000000E-01  8.00000000E-01  8.50000000E-01  8.50000000E-01  8.50000000E-01
  8.00000000E-01  8.50000000E-01  8.50000000E-01  8.50000000E-01  8.00000000E-01
  8.50000000E-01  8.50000000E-01  8.50000000E-01  8.00000000E-01  8.50000000E-01
  8.50000000E-01  8.50000000E-01  8.00000000E-01  8.50000000E-01  8.50000000E-01
  8.50000000E-01  8.00000000E-01  8.50000000E-01  8.50000000E-01  8.50000000E-01
  8.00000000E-01  8.50000000E-01  8.50000000E-01  8.50000000E-01  8.00000000E-01
  8.50000000E-01  8.50000000E-01  8.50000000E-01  8.00000000E-01  8.50000000E-01
  8.50000000E-01  8.50000000E-01  8.00000000E-01  8.50000000E-01  8.50000000E-01
  8.50000000E-01  8.00000000E-01  8.50000000E-01  8.50000000E-01  8.50000000E-01
  8.00000000E-01  8.50000000E-01  8.50000000E-01  8.50000000E-01  8.00000000E-01
  8.50000000E-01  8.50000000E-01  8.50000000E-01  8.00000000E-01  8.50000000E-01
  8.50000000E-01  8.50000000E-01  8.00000000E-01  8.50000000E-01  8.50000000E-01
  8.50000000E-01  8.00000000E-01  8.50000000E-01  8.50000000E-01  8.50000000E-01
  8.00000000E-01  8.50000000E-01  8.50000000E-01  8.50000000E-01  8.00000000E-01
  8.50000000E-01  8.50000000E-01  8.50000000E-01  8.00000000E-01  8.50000000E-01
  8.50000000E-01  8.50000000E-01  8.00000000E-01  8.50000000E-01  8.50000000E-01
  8.50000000E-01  8.00000000E-01  8.50000000E-01  8.50000000E-01  8.50000000E-01
  8.00000000E-01  8.50000000E-01  8.50000000E-01  8.50000000E-01  8.00000000E-01
  8.50000000E-01  8.50000000E-01  8.50000000E-01  8.00000000E-01  8.50000000E-01
  8.50000000E-01  8.50000000E-01  8.00000000E-01  8.50000000E-01  8.50000000E-01
  8.50000000E-01  8.00000000E-01  8.50000000E-01  8.50000000E-01  8.50000000E-01
  8.00000000E-01  8.50000000E-01  8.50000000E-01  8.50000000E-01  8.00000000E-01
  8.50000000E-01  8.50000000E-01  8.50000000E-01  8.00000000E-01
%FLAG IPOL                                                                      
%FORMAT(1I8)                                                                    
       0
%FLAG CMAP_COUNT                                                                
%FORMAT(2I8)                                                                    
       0       0                                                                
%FLAG CMAP_RESOLUTION                                                           
%FORMAT(20I4)                                                                   

%FLAG CMAP_INDEX                                                                
%FORMAT(6I8)                                                                    

