default_name
 13174
  17.6235717  18.7310532  17.2356041  17.6195717  19.6220532  16.8776041
  17.6675717  19.5640532  15.4636041  16.8935717  19.0750532  15.1526041
  18.4655717  19.0850532  15.2036041  17.6635717  20.9390532  14.8466041
  17.5945717  20.8470532  13.8836041  16.5205717  21.6840532  15.3296041
  16.8345717  23.0580532  15.3996041  16.2585717  23.5380532  14.7826041
  16.5775717  23.5470532  16.7716041  16.3795717  22.7950532  17.9036041
  16.4105717  21.8660532  17.9136041  16.1425717  23.5080532  18.9766041
  16.1775717  24.8180532  18.5226041  16.0015717  26.0480532  19.1806041
  15.7445717  26.1520532  20.4826041  15.6205717  26.9290532  20.8336041
  15.7125717  25.4480532  20.9746041  16.0955717  27.1770532  18.4466041
  16.3535717  27.0690532  17.1316041  16.4085717  27.8750532  16.6656041
  16.5395717  25.9650532  16.3996041  16.4385717  24.8610532  17.1646041
  18.8505717  21.8290532  15.1776041  19.0885717  21.7160532  16.1106041
  18.2895717  23.2310532  14.9626041  18.7495717  23.8810532  15.5056041
  18.3095717  23.5860532  13.5886041  19.0915717  23.5180532  13.2916041
  19.9885717  21.5530532  14.3846041  21.4515717  21.9300532  14.9266041
  22.4535717  21.4810532  13.9236041  21.5555717  21.4780532  16.3406041
  21.4655717  23.5210532  14.9096041  21.6575717  24.2250532  13.6936041
  20.9975717  23.9220532  13.0576041  22.5385717  24.0140532  13.3556041
  21.5195717  25.7120532  13.8876041  21.5165717  26.1410532  13.0156041
  20.2655717  25.9960532  14.5506041  20.3985717  27.1420532  15.3616041
  19.8025717  27.8340532  15.0326041  20.0175717  26.8020532  16.7426041
  19.8405717  25.5590532  17.2926041  19.9695717  24.7670532  16.8246041
  19.4755717  25.6050532  18.5436041  19.4015717  26.9630532  18.8266041
  19.0565717  27.6370532  20.0226041  18.7375717  27.1370532  21.1076041
  19.1115717  29.0220532  19.8646041  18.9145717  29.5030532  20.5486041
  19.4495717  29.6750532  18.7066041  19.4525717  31.0120532  18.7586041
  19.2355717  31.3970532  19.4936041  19.6645717  31.4730532  18.0696041
  19.7785717  29.0540532  17.5866041  19.7305717  27.7130532  17.7236041
  22.5615717  26.3780532  14.7696041  22.7545717  25.8040532  15.5276041
  21.8425717  27.6310532  15.2556041  22.1795717  27.9200532  16.1136041
  21.9005717  28.6670532  14.2876041  22.7005717  28.8270532  14.0946041
  23.7695717  26.6530532  14.0876041  25.1355717  26.8110532  14.9166041
  26.2375717  27.0370532  13.9466041  25.2135717  25.6950532  15.8986041
  24.9345717  28.1660532  15.7296041  25.1025717  29.4190532  15.0906041
  24.5185717  29.4590532  14.3216041  26.0175717  29.4820532  14.7816041
  24.7905717  30.5660532  16.0196041  24.7665717  31.3820532  15.4976041
  23.4935717  30.3650532  16.6416041  23.4735717  30.9760532  17.9176041
  22.8285717  31.7030532  17.8996041  23.0585717  29.9840532  18.9446041
  23.0705717  28.6510532  18.6346041  23.3475717  28.3830532  17.7876041
  22.6945717  27.7190532  19.5226041  22.7065717  26.8140532  19.3106041
  22.2725717  28.1550532  20.8056041  21.8945717  27.2340532  21.6966041
  21.9275717  26.4030532  21.4826041  21.6175717  27.4670532  22.4766041
  22.2495717  29.4460532  21.1206041  22.6285717  30.3970532  20.2246041
  22.6045717  31.6000532  20.5256041  25.7265717  30.7590532  17.1986041
  25.9405717  29.8920532  17.5796041  24.8685717  31.5560532  18.1766041
  25.1515717  31.4120532  19.0856041  24.8595717  32.9350532  17.8436041
  25.6495717  33.2170532  17.7916041  26.9365717  31.4080532  16.8526041
  28.2475717  31.1790532  17.7546041  29.3645717  31.9640532  17.1726041
  28.4005717  29.7180532  17.9846041  27.8785717  31.8630532  19.1426041
  27.9715717  33.2690532  19.2996041  27.4265717  33.6870532  18.6196041
  28.8925717  33.5290532  19.1706041  27.4925717  33.7100532  20.6596041
  27.4425717  34.6790532  20.6726041  26.1725717  33.1710532  20.9016041
  26.0005717  32.9210532  22.2796041  25.2825717  33.4840532  22.6126041
  25.6245717  31.5110532  22.4726041  25.6655717  30.4880532  21.5586041
  25.9695717  30.5880532  20.6886041  25.2325717  29.3590532  22.0446041
  24.8805717  29.6640532  23.3516041  24.3485717  28.8460532  24.3756041
  24.0775717  27.6400532  24.3166041  24.1385717  29.5660532  25.5526041
  23.8155717  29.1370532  26.2216041  24.4035717  30.9020532  25.7206041
  24.1395717  31.4110532  26.9276041  23.8125717  30.8960532  27.5316041
  24.2865717  32.2370532  27.0926041  24.9035717  31.6720532  24.7716041
  25.1125717  30.9900532  23.6276041  28.3085717  33.2350532  21.8516041
  28.5815717  32.3160532  21.7086041  27.2985717  33.2890532  22.9926041
  27.5135717  32.6490532  23.6846041  27.1725717  34.6050532  23.5086041
  27.9245717  34.8870532  23.7506041  29.4615717  34.0210532  22.0846041
  30.7025717  33.3920532  22.8866041  31.7725717  34.4200532  22.9606041
  30.9875717  32.0480532  22.3156041  30.1395717  33.1880532  24.3626041
  30.0605717  34.2820532  25.2616041  29.4905717  34.9600532  24.8766041
  30.9485717  34.6520532  25.3656041  29.5115717  33.8640532  26.6056041
  29.3565717  34.6650532  27.1296041  28.2555717  33.1620532  26.4366041
  28.0795717  32.2330532  27.4916041  27.3185717  32.5200532  28.0236041
  27.7945717  30.8850532  26.9346041  27.9835717  30.6510532  25.5986041
  28.3075717  31.3340532  25.0566041  27.7185717  29.4550532  25.0526041
  27.8535717  29.2950532  24.1466041  27.2225717  28.4310532  25.9026041
  26.9595717  27.2380532  25.3646041  27.1595717  27.0950532  24.5436041
  26.6005717  26.6140532  25.8366041  27.0245717  28.6470532  27.2006041
  27.2905717  29.8570532  27.7586041  27.1045717  30.0550532  28.9706041
  30.3575717  32.8940532  27.4126041  30.7095717  32.2110532  26.8196041
  29.3375717  32.2740532  28.3626041  29.6095717  31.3890532  28.6406041
  29.0895717  33.1230532  29.4746041  29.8115717  33.2990532  29.8636041
  31.4405717  33.5130532  28.0766041  32.7535717  32.6500532  28.4116041
  33.7235717  33.5280532  29.1156041  33.1545717  31.9330532  27.1706041
  32.2425717  31.5690532  29.4616041  32.0745717  31.9170532  30.8256041
  31.4615717  32.6610532  30.8796041  32.9335717  32.1950532  31.1716041
  31.5385717  30.7680532  31.6436041  31.3275717  31.0940532  32.5326041
  30.3245717  30.2560532  31.0476041  30.1775717  28.8890532  31.3666041
  29.4105717  28.7860532  31.9486041  29.9335717  28.1150532  30.1306041
  30.1815717  28.6130532  28.8696041  30.5315717  29.4730532  28.7866041
  29.9395717  27.8980532  27.7626041  30.1175717  28.2590532  26.9216041
  29.3955717  26.5730532  27.8886041  29.1295717  25.8210532  26.9526041
  29.1685717  26.1360532  29.1806041  28.8415717  25.3430532  29.2826041
  29.4115717  26.8520532  30.3236041  29.1865717  26.4070532  31.4376041
  32.4275717  29.5400532  31.7636041  32.8275717  29.3440532  30.9026041
  31.4335717  28.4410532  32.1216041  31.7515717  27.5740532  31.8256041
  31.1575717  28.4370532  33.5126041  30.5355717  27.8960532  33.6656041
  33.4575717  29.6910532  32.7146041  34.8205717  28.8620532  32.5406041
  35.6115717  29.0050532  33.7886041  35.4065717  29.2330532  31.2276041
  34.3355717  27.3470532  32.4576041  34.0995717  26.6020532  33.6386041
  33.4275717  27.0640532  34.1586041  34.9215717  26.5700532  34.1476041
  33.6095717  25.2030532  33.3466041  33.3525717  24.7850532  34.1836041
  32.4465717  25.2610532  32.4866041  32.3965717  24.1100532  31.6706041
  31.5855717  23.6170532  31.8656041  32.3855717  24.5280532  30.2516041
  32.9425717  25.7200532  29.8396041  33.3285717  26.2780532  30.4806041
  32.9465717  26.1060532  28.5576041  33.3285717  26.9190532  28.3106041
  32.3555717  25.2480532  27.5696041  32.2895717  25.4800532  26.3656041
  31.8185717  24.0660532  28.0486041  31.4565717  23.5320532  27.4726041
  31.8025717  23.6510532  29.3576041  31.3065717  22.5930532  29.7066041
  34.5635717  24.2760532  32.6086041  35.0025717  24.7630532  31.8976041
  33.6175717  23.2470532  32.0036041  33.9975717  22.8390532  31.2116041
  33.2445717  22.2690532  32.9616041  32.5045717  21.9380532  32.7486041
  35.5515717  23.7030532  33.4426041  36.9685717  23.2750532  32.8196041
  38.0375717  24.0270532  33.5246041  36.8435717  23.3770532  31.3476041
  37.1015717  21.7240532  33.1596041  36.3835717  20.7500532  32.4116041
  36.7485717  20.6900532  31.5166041  35.4585717  21.0290532  32.3576041
  36.4405717  19.3890532  33.0606041  37.3225717  19.0060532  32.9206041
  36.2245717  19.5440532  34.4886041  35.0535717  18.8420532  34.8696041
  35.3025717  17.9780532  35.2316041  34.3695717  19.6320532  35.9016041
  34.3765717  21.0080532  35.8366041  34.8075717  21.4210532  35.1166041
  33.7805717  21.7770532  36.7586041  33.7965717  22.7050532  36.6806041
  33.1175717  21.1500532  37.8656041  32.5355717  21.7330532  38.7756041
  33.1595717  19.7670532  37.8786041  32.7675717  19.3640532  38.5356041
  33.7655717  18.9590532  36.9466041  33.7555717  17.7420532  37.0286041
  35.3715717  18.4120532  32.5816041  35.0885717  18.6060532  31.6706041
  34.2535717  18.6430532  33.5846041  33.7785717  19.4600532  33.3606041
  33.3285717  17.5800532  33.6916041  32.8965717  17.5120532  32.9716041
  35.8545717  17.0740532  32.7026041  36.6405717  16.3800532  31.4876041
  36.7055717  14.9200532  31.7686041  37.8965717  17.1370532  31.2436041
  35.6805717  16.6080532  30.2386041  34.3955717  16.0080532  30.1946041
  33.9315717  16.1880532  31.0256041  34.5095717  15.0520532  30.0996041
  33.5725717  16.5310532  29.0446041  32.6765717  16.1640532  29.1156041
  33.4875717  17.9830532  29.1316041  33.8595717  18.5410532  27.8866041
  33.0715717  18.6060532  27.3246041  34.4355717  19.8820532  28.0876041
  35.6535717  20.0990532  28.6856041  36.1465717  19.3730532  28.9976041
  36.1405717  21.3440532  28.8266041  36.9635717  21.5000532  29.2336041
  35.3495717  22.4220532  28.3306041  35.7835717  23.6780532  28.4436041
  35.3095717  24.3290532  28.1406041  36.5415717  23.8330532  28.8176041
  34.1705717  22.2160532  27.7456041  33.6875717  20.9640532  27.6036041
  32.5875717  20.7620532  27.0576041  34.1175717  16.2230532  27.6476041
  34.7435717  15.4870532  27.6546041  34.8015717  17.5270532  27.2566041
  35.6725717  17.5800532  27.6816041  34.9445717  17.7280532  25.8646041
  34.1905717  17.6830532  25.4936041  33.0295717  15.9750532  26.7606041
  32.5275717  14.4700532  26.5176041  33.7275717  13.5880532  26.5426041
  31.6145717  14.4640532  25.3446041  31.6425717  14.1460532  27.8006041
  30.3515717  14.7130532  27.9606041  29.7895717  14.4200532  27.2236041
  30.4315717  15.6790532  27.9316041  29.7455717  14.2940532  29.2756041
  29.7125717  13.3230532  29.3046041  30.5725717  14.7720532  30.3656041
  29.7755717  15.0090532  31.5036041  30.0385717  14.3890532  32.1996041
  30.0065717  16.3780532  31.9986041  30.0175717  16.7570532  33.3186041
  29.8765717  16.1640532  34.0216041  30.2485717  18.0290532  33.4916041
  30.3965717  18.5220532  32.2036041  30.6615717  19.8450532  31.7616041
  30.8225717  20.8680532  32.4456041  30.7355717  19.9060532  30.3756041
  30.8945717  20.6750532  30.0276041  30.5725717  18.8390532  29.5286041
  30.6875717  19.1160532  28.2296041  30.5075717  18.5160532  27.6466041
  30.9455717  19.8970532  27.9896041  30.3285717  17.6030532  29.9266041
  30.2465717  17.5170532  31.2696041  28.3645717  14.8450532  29.5966041
  28.3245717  15.7770532  29.3226041  28.3165717  14.7560532  31.1186041
  27.7385717  15.4290532  31.4976041  27.9565717  13.4520532  31.5486041
  27.2595717  13.2060532  31.1536041  27.3205717  14.1250532  28.9626041
  26.1515717  14.8990532  28.1746041  24.9755717  13.9930532  28.1126041
  26.7185717  15.4650532  26.9206041  25.7575717  16.1060532  29.1386041
  25.0935717  15.8640532  30.3686041  25.4695717  15.0650532  30.7626041
  24.1565717  15.7140532  30.1946041  25.2735717  17.0170532  31.3276041
  25.2105717  16.6810532  32.2346041  26.5925717  17.5870532  31.1486041
  26.5515717  18.9780532  31.4066041  27.1545717  19.1880532  32.1376041
  26.9875717  19.7060532  30.2036041  27.0475717  19.2470532  28.9106041
  26.8055717  18.3820532  28.6566041  27.4825717  20.1480532  28.0646041
  27.7185717  21.2670532  28.8556041  28.1905717  22.5550532  28.5616041
  28.5235717  22.9490532  27.3346041  28.8125717  23.7480532  27.2056041
  28.4475717  22.4040532  26.6736041  28.3125717  23.4380532  29.5796041
  27.9765717  23.0450532  30.8206041  28.0775717  23.6870532  31.4896041
  27.5195717  21.8560532  31.2216041  27.4145717  21.0100532  30.1766041
  24.3375717  18.2010532  31.1556041  24.2255717  18.3820532  30.2106041
  25.1225717  19.3360532  31.8016041  24.8535717  20.1950532  31.4446041
  25.0225717  19.2900532  33.2176041  24.2225717  19.3930532  33.4496041
  23.0605717  18.0040532  31.7266041  21.8235717  18.9000532  31.2286041
  20.6065717  18.4620532  31.9556041  21.8435717  18.9210532  29.7416041
  22.1725717  20.3670532  31.7446041  21.9525717  20.7280532  33.0986041
  22.4065717  20.0880532  33.6616041  21.0025717  20.6830532  33.2766041
  22.4725717  22.1110532  33.3996041  22.5465717  22.2150532  34.3606041
  23.7885717  22.2650532  32.8206041  23.9965717  23.6080532  32.4426041
  24.7255717  23.9780532  32.9656041  24.3585717  23.6600532  31.0176041
  24.2755717  22.6660532  30.0776041  23.9515717  21.8120532  30.2566041
  24.6985717  23.0490532  28.9036041  25.0855717  24.3720532  29.0936041
  25.6275717  25.3170532  28.1906041  25.8785717  25.1560532  26.9896041
  25.8745717  26.5440532  28.8116041  26.2055717  27.1700532  28.3256041
  25.6355717  26.8250532  30.1326041  25.9295717  28.0640532  30.5436041
  26.2475717  28.6230532  29.9756041  25.7995717  28.2950532  31.3566041
  25.1265717  25.9490532  30.9816041  24.8825717  24.7590532  30.3956041
  21.6775717  23.2730532  32.8266041  21.3755717  23.0470532  31.9336041
  22.7165717  24.3880532  32.7466041  22.5035717  25.0100532  32.0366041
  22.8695717  25.0420532  33.9956041  22.1355717  25.3680532  34.2356041
  20.5505717  23.6120532  33.6116041  19.3025717  24.3680532  32.9416041
  18.2535717  24.5390532  33.9786041  18.9865717  23.6880532  31.6566041
  19.8675717  25.8180532  32.6046041  19.9865717  26.8000532  33.6196041
  20.5265717  26.4390532  34.3366041  19.1035717  26.9880532  33.9666041
  20.6195717  28.0680532  33.0996041  20.8535717  28.6230532  33.8576041
  21.8265717  27.7520532  32.3586041  22.0475717  28.7330532  31.3636041
  22.8545717  29.2230532  31.5946041  22.2445717  28.0780532  30.0426041
  21.8665717  26.7740532  29.8666041  21.4775717  26.3120532  30.5756041
  22.0395717  26.1470532  28.6936041  21.7775717  25.2630532  28.5726041
  22.6375717  26.8720532  27.6296041  22.8145717  26.2540532  26.4596041
  22.5755717  25.4340532  26.3766041  23.1705717  26.6700532  25.7946041
  23.0175717  28.1360532  27.7896041  22.8445717  28.7790532  28.9756041
  23.2035717  29.9580532  29.1196041  19.7955717  28.8810532  32.1186041
  19.3565717  28.2810532  31.4966041  20.8575717  29.6980532  31.3846041
  20.5685717  29.9230532  30.4936041  21.2195717  30.8530532  32.1266041
  20.5325717  31.3060532  32.2916041  18.8095717  29.6790532  32.7496041
  17.4985717  30.1230532  31.9336041  16.6455717  30.9480532  32.8246041
  16.9345717  28.9200532  31.2666041  18.0615717  31.0980532  30.8096041
  18.3505717  32.4530532  31.1116041  18.9635717  32.4740532  31.8596041
  17.5275717  32.8890532  31.3676041  18.9725717  33.1630532  29.9376041
  19.3085717  34.0220532  30.2356041  20.0765717  32.3780532  29.4346041
  20.2195717  32.5820532  28.0476041  21.0725717  33.0200532  27.8856041
  20.2175717  31.2820532  27.3606041  19.8615717  30.0530532  27.8536041
  19.5505717  29.9160532  28.7186041  20.0035717  29.0970532  26.9786041
  20.4915717  29.7380532  25.8466041  20.8425717  29.2290532  24.5736041
  20.7825717  28.0580532  24.1846041  21.2955717  30.2360532  23.7216041
  21.5295717  30.0050532  22.9286041  21.4025717  31.5620532  24.0516041
  21.8515717  32.3800532  23.0946041  22.0805717  32.0430532  22.3386041
  21.9095717  33.2230532  23.2346041  21.0735717  32.0490532  25.2366041
  20.6325717  31.0860532  26.0716041  18.0835717  33.3650532  28.7226041
  17.5435717  32.5730532  28.5806041  19.0885717  33.4980532  27.5826041
  18.7185717  33.1890532  26.7456041  19.5905717  34.8200532  27.4846041
  18.9555717  35.3510532  27.3776041  17.2285717  34.4870532  28.8476041
  15.8815717  34.5730532  27.9746041  15.1925717  35.8430532  28.3166041
  15.1645717  33.2750532  28.0976041  16.4045717  34.7140532  26.4786041
  16.8445717  35.9670532  25.9826041  17.5345717  36.3100532  26.5636041
  16.0955717  36.5800532  26.0046041  17.3765717  35.8530532  24.5766041
  17.8375717  36.6780532  24.3576041  18.3105717  34.7490532  24.4836041
  18.3145717  34.2360532  23.1656041  19.1725717  34.4560532  22.7656041
  18.1685717  32.7580532  23.1926041  17.7565717  32.1330532  24.3376041
  17.5495717  32.6450532  25.0876041  17.6365717  30.8000532  24.4026041
  17.3485717  30.3750532  25.1796041  17.9605717  30.0440532  23.2466041
  17.8455717  28.7130532  23.3026041  17.5605717  28.3470532  24.0246041
  18.0495717  28.2270532  22.6246041  18.3735717  30.6360532  22.1306041
  18.4985717  31.9860532  22.0606041  18.8865717  32.5370532  21.0176041
  16.3545717  35.5530532  23.4936041  15.7295717  34.8880532  23.8216041
  17.2105717  34.9500532  22.3786041  16.6985717  34.3300532  21.8446041
  17.8065717  35.9600532  21.5826041  17.2205717  36.5000532  21.3256041
  15.6285717  36.6980532  23.0906041  14.1855717  36.5280532  22.4076041
  13.7005717  37.8700532  21.9996041  13.3485717  35.6710532  23.2836041
  14.5005717  35.7280532  21.0686041  14.9665717  36.4170532  19.9216041
  15.7855717  36.8790532  20.1426041  14.3025717  37.0720532  19.6726041
  15.2225717  35.4780532  18.7706041  15.6465717  35.9790532  18.0556041
  16.1115717  34.4120532  19.1816041  15.8635717  33.2620532  18.4026041
  16.6345717  33.0990532  17.8386041  15.6555717  32.0940532  19.2836041
  15.2895717  32.2410532  20.5986041  15.1675717  33.1030532  20.9356041
  15.1055717  31.1910532  21.4056041  14.8565717  31.3210532  22.2936041
  15.2955717  29.8650532  20.8896041  15.1515717  28.8310532  21.5366041
  15.6635717  29.7860532  19.5596041  15.7855717  28.9970532  19.2246041
  15.8575717  30.8490532  18.7136041  16.1855717  30.7070532  17.5476041
  14.0155717  34.7460532  18.2156041  13.4645717  34.4340532  18.9516041
  14.6485717  33.5480532  17.5146041  14.0455717  32.7950532  17.4946041
  15.1005717  33.8930532  16.2156041  14.4535717  34.1700532  15.7566041
  13.2255717  35.5500532  17.3606041  12.4785717  35.0390532  17.0396041
  37.8469310  39.1739310   7.4029310  49.6259310  19.3069310  11.9749310
  13.6959310  27.3679310   8.5119310  25.5939310  35.8869310  35.6829310
  41.9899310  23.5409310  45.9259310   9.1859310  32.3929310  20.3819310
   2.9339310   6.9719310  44.6959310  27.1669310  47.2719310  22.9189310
  27.7829310  44.4779310  27.4089310  44.6169310  36.8839310   2.5039310
  43.5839310  44.9449310  42.1359310  22.1349310  17.8589310  17.1009310
  41.7539310  22.9459310  39.7479310   3.4089310  13.7639310  26.7379310
  36.1639310  17.7749310  45.8649310  10.2999310   8.5519310  34.6289310
  34.0379310   4.4609310   5.1529310   3.9889310  36.6059310  38.7119310
  48.5379310  14.3069310   3.5639310  42.8109310  46.8609310  40.0369310
  41.7859310  37.7139310  48.9059310  42.0139310  37.6859310  49.8349310
  41.1569310  37.0019310  48.7929310  41.7349310  37.6189310  49.0109310
  43.9499310  49.3439310  42.3289310  43.7759310  49.5049310  43.2569310
  43.1849310  48.8579310  42.0229310  43.8299310  49.3019310  42.4089310
  39.7019310  35.9999310  48.4119310  39.1419310  36.4479310  49.0459310
  39.5559310  35.0689310  48.5789310  39.6119310  35.9379310  48.5139310
  40.5209310  44.2409310  37.6599310  40.3669310  44.6979310  38.4869310
  41.2329310  43.6309310  37.8519310  40.5919310  44.2209310  37.7899310
  43.9159310  39.4499310  48.2649310  43.3129310  38.8089310  48.6399310
  44.7049310  39.3809310  48.8029310  43.9399310  39.3599310  48.3819310
  46.3389310  39.2759310  49.5329310  46.5169310  38.3939310  49.8589310
  46.6579310  39.8559310  50.2249310  46.4029310  39.2369310  49.6639310
  46.0269310  47.2719310  41.7789310  45.6009310  46.6649310  41.1749310
  45.3639310  47.9389310  41.9569310  45.8879310  47.2799310  41.7249310
  43.9939310  38.3229310  37.0209310  43.7279310  37.8599310  37.8159310
  44.0099310  37.6459310  36.3449310  43.9619310  38.1769310  37.0369310
  47.1049310  46.4629310  37.3239310  47.8749310  46.4839310  37.8909310
  47.4239310  46.0959310  36.4999310  47.2439310  46.4189310  37.2909310
  35.3529310  39.8409310  48.8619310  35.6299310  40.4099310  49.5799310
  34.7509310  39.2179310  49.2689310  35.3119310  39.8339310  49.0059310
  39.9279310  40.4469310  42.4319310  39.5209310  40.4459310  41.5649310
  39.4419310  41.1099310  42.9229310  39.8139310  40.5319310  42.3839310
  39.3549310  37.6339310  41.1499310  38.5969310  37.6209310  41.7349310
  39.8869310  36.8899310  41.4309310  39.3259310  37.5369310  41.2609310
  44.0149310  41.8329310  40.9809310  43.1899310  41.8149310  40.4959310
  43.7639310  41.6469310  41.8859310  43.8769310  41.8069310  41.0349310
  38.8399310  43.4549310  35.6509310  38.2369310  44.1919310  35.5549310
  39.4689310  43.7449310  36.3119310  38.8429310  43.5859310  35.7229310
  41.9899310  42.4079310  45.9259310  42.8709310  42.6999310  46.1579310
  42.0759310  42.0739310  45.0329310  42.1139310  42.4029310  45.8409310
  46.2869310  38.2269310  44.1099310  45.3349310  38.1639310  44.1809310
  46.6149310  37.4989310  44.6379310  46.2069310  38.1259310  44.1869310
  48.7659310  39.5519310  37.9739310  48.8699310  39.8959310  38.8609310
  48.6359310  40.3279310  37.4289310  48.7629310  39.6949310  38.0179310
  49.2529310  44.7369310  47.1519310  48.3779310  44.4799310  46.8619310
  49.6049310  43.9539310  47.5759310  49.1859310  44.6039310  47.1689310
  40.9949310  36.7259310  35.9609310  41.3369310  36.7349310  36.8549310
  40.5099310  37.5479310  35.8829310  40.9769310  36.8329310  36.0649310
  36.1639310  36.6419310  45.8649310  36.9979310  37.0959310  45.7409310
  35.5759310  37.0409310  45.2249310  36.1959310  36.7509310  45.7679310
  43.5979310  41.2369310  43.6149310  43.6839310  40.4529310  44.1579310
  44.0379310  41.9239310  44.1149310  43.6649310  41.2249310  43.7479310
  45.8309310  40.5779310  37.0909310  45.2049310  39.8539310  37.1149310
  46.0489310  40.7369310  38.0089310  45.7789310  40.5059310  37.2109310
  42.5689310  42.2259310  49.2109310  41.7239310  41.9059310  49.5279310
  43.0419310  41.4349310  48.9519310  42.5209310  42.0839310  49.2189310
  46.0289310  40.6959310  39.7549310  45.2059310  40.9789310  40.1509310
  46.7069310  41.0819310  40.3099310  46.0109310  40.7809310  39.8769310
  39.0409310  44.2869310  47.8479310  38.6639310  44.1599310  48.7179310
  38.4779310  43.7759310  47.2659310  38.9209310  44.2059310  47.8849310
  48.0479310  45.7969310  43.3029310  48.5929310  46.2979310  43.9099310
  47.3539310  46.4039310  43.0459310  48.0289310  45.9379310  43.3479310
  36.0309310  47.3629310  44.1239310  36.4249310  47.2929310  43.2539310
  36.6429310  46.9079310  44.7009310  36.1599310  47.2959310  44.0859310
  45.5019310  43.9069310  39.9749310  44.8299310  43.2259310  40.0049310
  45.5809310  44.1239310  39.0459310  45.4259310  43.8479310  39.8599310
  40.1669310  41.2079310  47.8899310  39.5769310  40.4689310  47.7379310
  40.7789310  41.1799310  47.1549310  40.1699310  41.1099310  47.7759310
  41.5519310  47.3999310  45.9219310  41.5119310  46.4449310  45.8849310
  41.0969310  47.6279310  46.7319310  41.4889310  47.3069310  46.0209310
  35.1349310  43.1549310  39.7409310  35.7999310  43.7549310  40.0789310
  34.3029310  43.5889310  39.9299310  35.1139310  43.2869310  39.8089310
  37.4679310  47.5999310  41.9429310  38.1469310  47.3199310  42.5569310
  37.5659310  48.5499310  41.8939310  37.5669310  47.6859310  42.0159310
  42.8819310  46.3359310  37.0299310  42.4989310  46.0269310  36.2089310
  43.1209310  47.2469310  36.8549310  42.8639310  46.4129310  36.9029310
  37.1379310  37.7909310  42.7079310  36.8999310  36.9719310  42.2739310
  36.3769310  38.3589310  42.5809310  37.0099310  37.7589310  42.6359310
  41.7089310  36.6059310  38.7119310  41.9539310  35.7309310  39.0129310
  41.4939310  37.0829310  39.5129310  41.7129310  36.5549310  38.8529310
  46.9409310  38.3549310  41.2499310  46.6469310  39.0699310  40.6859310
  46.6699310  38.6159310  42.1299310  46.8689310  38.4799310  41.2899310
  38.5469310  40.8709310  36.7459310  37.6219310  40.6279310  36.7839310
  38.5429310  41.7909310  36.4809310  38.4289310  40.9579310  36.7169310
  40.5159310  45.2239310  40.0349310  41.3389310  45.7099310  39.9969310
  40.5669310  44.7289310  40.8519310  40.6279310  45.2229310  40.1339310
  42.6559310  48.9039310  49.6059310  41.8729310  49.3099310  49.2369310
  42.3679310  48.0329310  49.8789310  42.5189310  48.8439310  49.5939310
  41.6819310  44.8609310  48.0849310  42.0069310  44.0579310  48.4919310
  40.8129310  44.6289310  47.7589310  41.6119310  44.7289310  48.0949310
  47.7939310  42.9429310  43.3139310  48.2919310  42.7359310  42.5229310
  47.9779310  43.8679310  43.4779310  47.8809310  43.0349310  43.2339310
  42.4189310  41.6889310  37.0549310  41.9379310  40.8719310  36.9239310
  42.8529310  41.8479310  36.2169310  42.4129310  41.6049310  36.9309310
  36.3829310  46.7259310  37.5129310  37.1499310  46.4029310  37.9879310
  35.6409310  46.4869310  38.0679310  36.3859310  46.6539310  37.6449310
  35.7209310  40.4819310  46.2089310  36.5189310  40.1319310  45.8139310
  35.7009310  40.1019310  47.0869310  35.8199310  40.3879310  46.2709310
  45.1149310  43.5389310  43.9369310  44.7079310  44.2989310  43.5209310
  45.9769310  43.4739310  43.5269310  45.1729310  43.6279310  43.8309310
  37.8059310  45.2689310  44.9219310  38.7629310  45.2529310  44.9029310
  37.5609310  44.4549310  45.3619310  37.8969310  45.1629310  44.9759310
  48.1089310  39.2789310  47.4609310  47.6549310  39.7209310  46.7429310
  47.5669310  39.4539310  48.2299310  47.9819310  39.3579310  47.4669310
  46.6479310  40.7549310  45.2709310  47.2739310  41.2049310  44.7039310
  46.5059310  39.9079310  44.8469310  46.7099310  40.7039310  45.1439310
  45.1829310  48.6319310  48.7699310  45.5759310  49.4529310  49.0659310
  44.2699310  48.6869310  49.0519310  45.1169310  48.7439310  48.8439310
  46.6719310  37.4999310  38.0269310  45.9129310  37.7479310  37.4989310
  47.2269310  38.2799310  38.0279310  46.6459310  37.6319310  37.9599310
  39.2069310  40.7929310  39.7439310  39.1169310  40.5219310  38.8309310
  38.3089310  40.9499310  40.0369310  39.0799310  40.7789310  39.6649310
  48.7939310  36.6839310  42.5399310  48.1319310  37.0899310  41.9799310
  49.4889310  36.4209310  41.9369310  48.7979310  36.7029310  42.3909310
  41.1529310  43.7089310  42.1439310  41.3409310  42.9569310  41.5819310
  42.0089310  44.0999310  42.3139310  41.2859310  43.6629310  42.0939310
  39.7999310  35.5789310  44.3029310  39.9709310  36.4999310  44.5019310
  40.3659310  35.0949310  44.9039310  39.8939310  35.6349310  44.4049310
  43.6029310  48.9159310  36.4269310  44.4469310  48.8779310  36.8779310
  43.8259310  49.1209310  35.5189310  43.7399310  48.9369310  36.3689310
  40.6539310  44.7059310  44.6959310  40.9109310  44.2879310  43.8739310
  40.7379310  44.0139310  45.3519310  40.6979310  44.5639310  44.6749310
  47.9659310  49.1609310  45.1549310  48.0639310  49.4079310  44.2349310
  47.1119310  49.5109310  45.4069310  47.8689310  49.2369310  45.0699310
  45.0249310  44.6829310  37.3549310  45.7549310  45.3029310  37.3439310
  44.2429310  45.2339310  37.3239310  45.0179310  44.8329310  37.3489310
  44.6569310  42.0639310  46.4709310  44.2079310  41.3099310  46.8529310
  45.3789310  41.6839310  45.9709310  44.6919310  41.9189310  46.4559310
  46.1919310  46.1879310  48.1829310  45.9159310  47.0119310  48.5849310
  47.1429310  46.1749310  48.2919310  46.2789310  46.2919310  48.2479310
  41.6799310  38.8009310  40.4539310  41.5319310  39.7439310  40.3759310
  40.8879310  38.4689310  40.8779310  41.5599310  38.8789310  40.4979310
  40.9359310  39.2899310  37.0489310  40.0189310  39.0749310  37.2149310
  41.4109310  38.9019310  37.7839310  40.8789310  39.2129310  37.1639310
  35.7259310  36.9449310  48.9019310  36.5879310  36.9059310  49.3159310
  35.9119310  37.0949310  47.9749310  35.8599310  36.9589310  48.8359310
  46.6429310  44.4779310  46.2689310  46.3749310  45.1209310  46.9259310
  45.8439310  44.2959310  45.7729310  46.5059310  44.5369310  46.2889310
  36.5409310  41.0169310  40.9319310  36.9409310  41.6019310  41.5759310
  36.0769310  41.6019310  40.3329310  36.5329310  41.1669310  40.9379310
  46.6199310  42.8119310  48.8309310  46.4569310  43.1209310  47.9399310
  45.7589310  42.5479310  49.1539310  46.4889310  42.8179310  48.7589310
  38.5009310  35.6959310  36.9769310  38.5019310  36.4379310  37.5809310
  39.0049310  35.9999310  36.2229310  38.5659310  35.8299310  36.9579310
  39.4169310  47.7319310  37.2609310  39.5029310  47.6809310  36.3089310
  38.8639310  48.4999310  37.4099310  39.3569310  47.8239310  37.1579310
  36.9309310  42.9529310  46.1199310  36.1519310  43.4589310  46.3509310
  36.6689310  42.0399310  46.2429310  36.7979310  42.9009310  46.1649310
  40.0269310  47.1099310  43.2259310  39.9399310  47.8899310  43.7749310
  40.0989310  46.3859310  43.8489310  40.0249310  47.1169310  43.3759310
  35.6579310  38.1939310  38.4309310  35.6009310  37.9399310  37.5099310
  35.1099310  38.9759310  38.4989310  35.5809310  38.2619310  38.3219310
  41.2109310  35.7669310  41.8619310  40.8059310  35.4359310  42.6639310
  41.3179310  34.9929310  41.3099310  41.1729310  35.6259310  41.8939310
  41.7539310  41.8129310  39.7479310  42.1269310  41.7479310  38.8689310
  40.8489310  41.5169310  39.6469310  41.6859310  41.7659310  39.6229310
  41.4529310  48.9699310  38.1819310  40.7209310  48.4809310  37.8059310
  42.1129310  48.9829310  37.4899310  41.4429310  48.9089310  38.0459310
  43.8989310  38.7099310  42.1329310  43.0469310  38.5719310  41.7209310
  43.9489310  39.6569310  42.2689310  43.7969310  38.8139310  42.0979310
  44.9439310  42.3809310  35.3719310  44.9249310  43.0309310  36.0739310
  45.2989310  41.5929310  35.7839310  44.9869310  42.3639310  35.5139310
  44.6169310  36.8839310  40.2239310  44.3919310  37.6689310  40.7229310
  45.5159310  37.0359310  39.9319310  44.7039310  37.0039310  40.2509310
  46.9519310  36.8709310  50.2279310  46.6919310  36.0949310  49.7309310
  47.9079310  36.8759310  50.1799310  47.0409310  36.7719310  50.1579310
  43.8719310  39.0189310  45.5089310  43.0209310  38.5879310  45.4219310
  43.9709310  39.1659310  46.4499310  43.7749310  38.9829310  45.6179310
  41.2939310  48.5529310  41.3449310  40.6579310  48.0979310  41.8959310
  40.8059310  49.2869310  40.9719310  41.1509310  48.5889310  41.3679310
  37.8469310  39.1739310  45.1229310  37.7529310  38.7069310  44.2929310
  38.6699310  38.8509310  45.4879310  37.9399310  39.0729310  45.0639310
  40.0099310  38.4319310  46.3789310  40.4619310  37.8529310  46.9929310
  40.5729310  38.4469310  45.6059310  40.1399310  38.3599310  46.3589310
  39.0089310  47.2899310  48.2229310  38.5479310  47.6339310  47.4579310
  39.0899310  46.3519310  48.0509310  38.9599310  47.2139310  48.1029310
  37.2049310  44.9309310  40.4079310  38.1609310  44.9629310  40.4349310
  36.9339310  45.8479310  40.4459310  37.2929310  45.0519310  40.4159310
  38.5639310  38.2209310  38.3789310  38.8719310  38.2859310  39.2829310
  37.6459310  37.9629310  38.4579310  38.4859310  38.1959310  38.5049310
  47.8729310  42.4819310  40.7629310  48.4929310  42.9259310  40.1839310
  47.0629310  42.9859310  40.6779310  47.8489310  42.6039310  40.6779310
  34.4929310  48.5339310  36.7239310  35.1209310  48.0109310  37.2229310
  34.9869310  48.8399310  35.9629310  34.6369310  48.5059310  36.6909310
  48.7659310  48.5609310  47.8169310  48.5929310  48.4839310  46.8789310
  49.5489310  49.1079310  47.8719310  48.8439310  48.6209310  47.7039310
  49.6259310  38.1739310  49.6949310  49.3389310  38.9999310  50.0859310
  49.4029310  38.2579310  48.7679310  49.5599310  38.2909310  49.6269310
  41.3599310  38.3289310  44.0469310  41.1819310  38.9189310  43.3149310
  41.8449310  37.6019310  43.6569310  41.3989310  38.3119310  43.9039310
  34.9649310  44.9189310  42.6239310  35.5619310  45.1749310  41.9199310
  35.2679310  45.4139310  43.3859310  35.0799310  45.0149310  42.6309310
  37.6459310  48.4259310  46.4289310  37.9049310  49.1189310  45.8209310
  36.7739310  48.6849310  46.7279310  37.5679310  48.5479310  46.3889310
  41.7859310  37.7139310  30.0459310  42.0139310  37.6859310  30.9749310
  41.1569310  37.0019310  29.9329310  41.7349310  37.6189310  30.1509310
  43.9499310  49.3439310  23.4689310  43.7759310  49.5049310  24.3969310
  43.1849310  48.8579310  23.1629310  43.8299310  49.3019310  23.5489310
  39.7019310  35.9999310  29.5519310  39.1419310  36.4479310  30.1859310
  39.5559310  35.0689310  29.7189310  39.6119310  35.9379310  29.6539310
  40.5209310  44.2409310  18.7999310  40.3669310  44.6979310  19.6269310
  41.2329310  43.6309310  18.9919310  40.5919310  44.2209310  18.9299310
  43.9159310  39.4499310  29.4049310  43.3129310  38.8089310  29.7799310
  44.7049310  39.3809310  29.9429310  43.9399310  39.3599310  29.5219310
  44.4539310  35.8869310  35.6829310  45.3459310  35.6579310  35.4189310
  43.9319310  35.7659310  34.8899310  44.5019310  35.8429310  35.5479310
  46.3389310  39.2759310  30.6729310  46.5169310  38.3939310  30.9989310
  46.6579310  39.8559310  31.3649310  46.4029310  39.2369310  30.8039310
  46.0269310  47.2719310  22.9189310  45.6009310  46.6649310  22.3149310
  45.3639310  47.9389310  23.0969310  45.8879310  47.2799310  22.8649310
  43.9939310  38.3229310  18.1609310  43.7279310  37.8599310  18.9559310
  44.0099310  37.6459310  17.4849310  43.9619310  38.1769310  18.1769310
  44.2289310  45.5109310  31.4449310  44.1009310  44.6459310  31.8339310
  44.6719310  45.3359310  30.6139310  44.2689310  45.3779310  31.3879310
  47.1049310  46.4629310  18.4639310  47.8749310  46.4839310  19.0309310
  47.4239310  46.0959310  17.6399310  47.2439310  46.4189310  18.4309310
  35.3529310  39.8409310  30.0019310  35.6299310  40.4099310  30.7199310
  34.7509310  39.2179310  30.4089310  35.3119310  39.8339310  30.1459310
  36.2259310  46.1779310  32.5949310  35.3049310  45.9579310  32.4549310
  36.3059310  46.2849310  33.5419310  36.1179310  46.1629310  32.6979310
  39.9279310  40.4469310  23.5719310  39.5209310  40.4459310  22.7049310
  39.4419310  41.1099310  24.0629310  39.8139310  40.5319310  23.5239310
  38.0469310  36.8429310  31.5899310  38.2539310  37.7409310  31.8469310
  37.6909310  36.4419310  32.3829310  38.0279310  36.9059310  31.7239310
  39.3549310  37.6339310  22.2899310  38.5969310  37.6209310  22.8749310
  39.8869310  36.8899310  22.5709310  39.3259310  37.5369310  22.4009310
  46.3949310  41.3319310  32.5889310  46.9809310  41.6449310  33.2779310
  45.6689310  41.9569310  32.5889310  46.3769310  41.4519310  32.6769310
  44.0149310  41.8329310  22.1209310  43.1899310  41.8149310  21.6359310
  43.7639310  41.6469310  23.0259310  43.8769310  41.8069310  22.1749310
  35.9159310  39.8449310  35.6429310  35.7179310  39.9259310  34.7109310
  35.1219310  40.1479310  36.0839310  35.7889310  39.8939310  35.5799310
  38.8399310  43.4549310  16.7909310  38.2369310  44.1919310  16.6949310
  39.4689310  43.7449310  17.4519310  38.8429310  43.5859310  16.8629310
  41.9899310  42.4079310  27.0659310  42.8709310  42.6999310  27.2979310
  42.0759310  42.0739310  26.1729310  42.1139310  42.4029310  26.9809310
  35.8839310  48.8709310  34.3999310  35.1219310  49.4389310  34.2829310
  36.0889310  48.5609310  33.5179310  35.8119310  48.9039310  34.2719310
  46.2869310  38.2269310  25.2499310  45.3349310  38.1639310  25.3209310
  46.6149310  37.4989310  25.7779310  46.2069310  38.1259310  25.3269310
  41.9359310  45.7559310  34.4359310  41.7789310  44.8119310  34.3999310
  41.8469310  46.0479310  33.5289310  41.9039310  45.6719310  34.3149310
  48.7659310  39.5519310  19.1139310  48.8699310  39.8959310  20.0009310
  48.6359310  40.3279310  18.5689310  48.7629310  39.6949310  19.1579310
  49.2529310  44.7369310  28.2919310  48.3779310  44.4799310  28.0019310
  49.6049310  43.9539310  28.7159310  49.1859310  44.6039310  28.3089310
  40.9949310  36.7259310  17.1009310  41.3369310  36.7349310  17.9949310
  40.5099310  37.5479310  17.0229310  40.9769310  36.8329310  17.2049310
  36.1639310  36.6419310  27.0049310  36.9979310  37.0959310  26.8809310
  35.5759310  37.0409310  26.3649310  36.1959310  36.7509310  26.9079310
  37.2629310  35.7749310  34.0169310  36.4299310  35.3479310  34.2179310
  37.2299310  36.6019310  34.4969310  37.1519310  35.8259310  34.1039310
  43.5979310  41.2369310  24.7549310  43.6839310  40.4529310  25.2979310
  44.0379310  41.9239310  25.2549310  43.6649310  41.2249310  24.8879310
  45.8309310  40.5779310  18.2309310  45.2049310  39.8539310  18.2549310
  46.0489310  40.7369310  19.1489310  45.7789310  40.5059310  18.3509310
  42.5689310  42.2259310  30.3509310  41.7239310  41.9059310  30.6679310
  43.0419310  41.4349310  30.0919310  42.5209310  42.0839310  30.3589310
  39.4959310  47.4119310  34.6849310  40.3069310  46.9239310  34.5429310
  39.2269310  47.6889310  33.8089310  39.5649310  47.3849310  34.5539310
  41.7579310  46.4519310  31.7129310  42.6379310  46.0789310  31.6609310
  41.2199310  45.8709310  31.1759310  41.8019310  46.3299310  31.6379310
  48.2019310  44.7089310  31.3619310  47.6449310  44.3149310  30.6899310
  47.6259310  45.3189310  31.8219310  48.0569310  44.7369310  31.3349310
  46.0289310  40.6959310  20.8949310  45.2059310  40.9789310  21.2909310
  46.7069310  41.0819310  21.4499310  46.0109310  40.7809310  21.0169310
  39.0409310  44.2869310  28.9879310  38.6639310  44.1599310  29.8579310
  38.4779310  43.7759310  28.4059310  38.9209310  44.2059310  29.0249310
  48.0479310  45.7969310  24.4429310  48.5929310  46.2979310  25.0499310
  47.3539310  46.4039310  24.1859310  48.0289310  45.9379310  24.4879310
  36.0309310  47.3629310  25.2639310  36.4249310  47.2929310  24.3939310
  36.6429310  46.9079310  25.8409310  36.1599310  47.2959310  25.2259310
  45.5019310  43.9069310  21.1149310  44.8299310  43.2259310  21.1449310
  45.5809310  44.1239310  20.1859310  45.4259310  43.8479310  20.9999310
  39.1889310  38.7599310  35.0779310  39.0359310  39.0399310  34.1759310
  38.9519310  39.5199310  35.6089310  39.1389310  38.8929310  35.0309310
  41.1219310  42.8809310  34.1839310  41.0069310  42.5969310  33.2769310
  40.2309310  42.9839310  34.5169310  40.9929310  42.8579310  34.1099310
  40.1669310  41.2079310  29.0299310  39.5769310  40.4689310  28.8779310
  40.7789310  41.1799310  28.2949310  40.1699310  41.1099310  28.9159310
  41.5519310  47.3999310  27.0619310  41.5119310  46.4449310  27.0249310
  41.0969310  47.6279310  27.8719310  41.4889310  47.3069310  27.1609310
  49.5169310  44.0529310  33.7439310  48.8259310  43.4129310  33.9119310
  49.3089310  44.4089310  32.8809310  49.4019310  44.0159310  33.6549310
  35.1349310  43.1549310  20.8809310  35.7999310  43.7549310  21.2189310
  34.3029310  43.5889310  21.0699310  35.1139310  43.2869310  20.9489310
  37.4679310  47.5999310  23.0829310  38.1469310  47.3199310  23.6969310
  37.5659310  48.5499310  23.0339310  37.5669310  47.6859310  23.1559310
  42.8819310  46.3359310  18.1699310  42.4989310  46.0269310  17.3489310
  43.1209310  47.2469310  17.9949310  42.8639310  46.4129310  18.0429310
  37.1379310  37.7909310  23.8479310  36.8999310  36.9719310  23.4139310
  36.3769310  38.3589310  23.7209310  37.0099310  37.7589310  23.7759310
  41.7089310  36.6059310  19.8519310  41.9539310  35.7309310  20.1529310
  41.4939310  37.0829310  20.6529310  41.7129310  36.5549310  19.9929310
  46.9409310  38.3549310  22.3899310  46.6469310  39.0699310  21.8259310
  46.6699310  38.6159310  23.2699310  46.8689310  38.4799310  22.4299310
  38.5469310  40.8709310  17.8859310  37.6219310  40.6279310  17.9239310
  38.5429310  41.7909310  17.6209310  38.4289310  40.9579310  17.8569310
  40.5159310  45.2239310  21.1749310  41.3389310  45.7099310  21.1369310
  40.5669310  44.7289310  21.9919310  40.6279310  45.2229310  21.2739310
  42.8109310  46.8609310  21.1769310  42.2879310  47.5639310  21.5629310
  42.8229310  47.0569310  20.2409310  42.7459310  46.9759310  21.1069310
  38.7479310  47.1639310  32.1709310  38.7099310  47.4809310  31.2689310
  37.8759310  46.8049310  32.3359310  38.6309310  47.1579310  32.0769310
  42.6559310  48.9039310  30.7459310  41.8729310  49.3099310  30.3769310
  42.3679310  48.0329310  31.0189310  42.5189310  48.8439310  30.7339310
  41.6819310  44.8609310  29.2249310  42.0069310  44.0579310  29.6319310
  40.8129310  44.6289310  28.8989310  41.6119310  44.7289310  29.2349310
  37.2979310  45.7949310  35.1939310  38.1009310  46.3049310  35.0839310
  36.8479310  46.2129310  35.9279310  37.3429310  45.9139310  35.2739310
  47.7939310  42.9429310  24.4539310  48.2919310  42.7359310  23.6629310
  47.9779310  43.8679310  24.6179310  47.8809310  43.0349310  24.3739310
  42.4189310  41.6889310  18.1949310  41.9379310  40.8719310  18.0639310
  42.8529310  41.8479310  17.3569310  42.4129310  41.6049310  18.0709310
  36.3829310  46.7259310  18.6529310  37.1499310  46.4029310  19.1279310
  35.6409310  46.4869310  19.2079310  36.3859310  46.6539310  18.7849310
  35.7209310  40.4819310  27.3489310  36.5189310  40.1319310  26.9539310
  35.7009310  40.1019310  28.2269310  35.8199310  40.3879310  27.4109310
  45.1149310  43.5389310  25.0769310  44.7079310  44.2989310  24.6609310
  45.9769310  43.4739310  24.6669310  45.1729310  43.6279310  24.9709310
  37.8059310  45.2689310  26.0619310  38.7629310  45.2529310  26.0429310
  37.5609310  44.4549310  26.5019310  37.8969310  45.1629310  26.1159310
  48.1089310  39.2789310  28.6009310  47.6549310  39.7209310  27.8829310
  47.5669310  39.4539310  29.3699310  47.9819310  39.3579310  28.6069310
  46.6479310  40.7549310  26.4109310  47.2739310  41.2049310  25.8439310
  46.5059310  39.9079310  25.9869310  46.7099310  40.7039310  26.2839310
  45.1829310  48.6319310  29.9099310  45.5759310  49.4529310  30.2059310
  44.2699310  48.6869310  30.1919310  45.1169310  48.7439310  29.9839310
  46.6719310  37.4999310  19.1669310  45.9129310  37.7479310  18.6389310
  47.2269310  38.2799310  19.1679310  46.6459310  37.6319310  19.0999310
  39.2069310  40.7929310  20.8839310  39.1169310  40.5219310  19.9709310
  38.3089310  40.9499310  21.1769310  39.0799310  40.7789310  20.8049310
  48.7939310  36.6839310  23.6799310  48.1319310  37.0899310  23.1199310
  49.4889310  36.4209310  23.0769310  48.7979310  36.7029310  23.5309310
  41.1529310  43.7089310  23.2839310  41.3409310  42.9569310  22.7219310
  42.0089310  44.0999310  23.4539310  41.2859310  43.6629310  23.2339310
  42.8089310  38.5689310  32.5239310  43.7309310  38.6449310  32.7679310
  42.3569310  39.1859310  33.0989310  42.8689310  38.6569310  32.6279310
  39.7999310  35.5789310  25.4429310  39.9709310  36.4999310  25.6419310
  40.3659310  35.0949310  26.0439310  39.8939310  35.6349310  25.5449310
  43.6029310  48.9159310  17.5669310  44.4469310  48.8779310  18.0179310
  43.8259310  49.1209310  16.6589310  43.7399310  48.9369310  17.5089310
  40.6539310  44.7059310  25.8359310  40.9109310  44.2879310  25.0139310
  40.7379310  44.0139310  26.4919310  40.6979310  44.5639310  25.8149310
  47.9659310  49.1609310  26.2949310  48.0639310  49.4079310  25.3749310
  47.1119310  49.5109310  26.5469310  47.8689310  49.2369310  26.2099310
  45.0249310  44.6829310  18.4949310  45.7549310  45.3029310  18.4839310
  44.2429310  45.2339310  18.4639310  45.0179310  44.8329310  18.4889310
  44.6569310  42.0639310  27.6109310  44.2079310  41.3099310  27.9929310
  45.3789310  41.6839310  27.1109310  44.6919310  41.9189310  27.5959310
  46.1919310  46.1879310  29.3229310  45.9159310  47.0119310  29.7249310
  47.1429310  46.1749310  29.4319310  46.2789310  46.2919310  29.3879310
  41.6799310  38.8009310  21.5939310  41.5319310  39.7439310  21.5159310
  40.8879310  38.4689310  22.0179310  41.5599310  38.8789310  21.6379310
  45.3309310  39.1449310  34.0129310  44.8649310  39.7429310  34.5969310
  45.9259310  39.7089310  33.5179310  45.3469310  39.2929310  34.0239310
  40.9359310  39.2899310  18.1889310  40.0189310  39.0749310  18.3549310
  41.4109310  38.9019310  18.9239310  40.8789310  39.2129310  18.3039310
  37.5779310  44.0359310  31.4599310  36.8989310  44.6749310  31.6799310
  37.1689310  43.1869310  31.6229310  37.4379310  44.0089310  31.5089310
  35.7259310  36.9449310  30.0419310  36.5879310  36.9059310  30.4559310
  35.9119310  37.0949310  29.1149310  35.8599310  36.9589310  29.9759310
  46.6429310  44.4779310  27.4089310  46.3749310  45.1209310  28.0659310
  45.8439310  44.2959310  26.9129310  46.5059310  44.5369310  27.4289310
  35.1849310  42.1159310  34.0289310  34.5849310  42.8489310  34.1699310
  35.7319310  42.0989310  34.8149310  35.1779310  42.2079310  34.1479310
  36.5409310  41.0169310  22.0719310  36.9409310  41.6019310  22.7159310
  36.0769310  41.6019310  21.4729310  36.5329310  41.1669310  22.0779310
  46.6199310  42.8119310  29.9709310  46.4569310  43.1209310  29.0799310
  45.7589310  42.5479310  30.2939310  46.4889310  42.8179310  29.8989310
  46.8419310  37.0329310  34.1089310  46.8389310  36.7429310  33.1969310
  46.1699310  37.7139310  34.1459310  46.7549310  37.0829310  33.9969310
  38.5009310  35.6959310  18.1169310  38.5019310  36.4379310  18.7209310
  39.0049310  35.9999310  17.3629310  38.5659310  35.8299310  18.0979310
  39.4169310  47.7319310  18.4009310  39.5029310  47.6809310  17.4489310
  38.8639310  48.4999310  18.5499310  39.3569310  47.8239310  18.2979310
  46.5519310  46.4749310  32.5069310  45.7339310  46.3189310  32.0359310
  46.5999310  47.4269310  32.5959310  46.4539310  46.5769310  32.4579310
  36.9309310  42.9529310  27.2599310  36.1519310  43.4589310  27.4909310
  36.6689310  42.0399310  27.3829310  36.7979310  42.9009310  27.3049310
  40.0269310  47.1099310  24.3659310  39.9399310  47.8899310  24.9149310
  40.0989310  46.3859310  24.9889310  40.0249310  47.1169310  24.5159310
  35.6579310  38.1939310  19.5709310  35.6009310  37.9399310  18.6499310
  35.1099310  38.9759310  19.6389310  35.5809310  38.2619310  19.4619310
  40.1289310  42.2509310  31.5499310  40.0379310  42.1309310  30.6049310
  39.4049310  42.8289310  31.7879310  40.0249310  42.3099310  31.4589310
  41.2109310  35.7669310  23.0019310  40.8059310  35.4359310  23.8039310
  41.3179310  34.9929310  22.4499310  41.1729310  35.6259310  23.0339310
  41.7539310  41.8129310  20.8879310  42.1269310  41.7479310  20.0089310
  40.8489310  41.5169310  20.7869310  41.6859310  41.7659310  20.7629310
  41.4529310  48.9699310  19.3219310  40.7209310  48.4809310  18.9459310
  42.1129310  48.9829310  18.6299310  41.4429310  48.9089310  19.1859310
  43.8989310  38.7099310  23.2729310  43.0469310  38.5719310  22.8609310
  43.9489310  39.6569310  23.4089310  43.7969310  38.8139310  23.2379310
  38.7709310  39.3779310  32.4639310  39.5619310  39.4109310  31.9269310
  38.4109310  40.2639310  32.4159310  38.8259310  39.4949310  32.3889310
  44.9439310  42.3809310  16.5119310  44.9249310  43.0309310  17.2139310
  45.2989310  41.5929310  16.9239310  44.9869310  42.3639310  16.6539310
  44.6169310  36.8839310  21.3639310  44.3919310  37.6689310  21.8629310
  45.5159310  37.0359310  21.0719310  44.7039310  37.0039310  21.3909310
  46.9519310  36.8709310  31.3679310  46.6919310  36.0949310  30.8709310
  47.9079310  36.8759310  31.3199310  47.0409310  36.7719310  31.2979310
  43.8719310  39.0189310  26.6489310  43.0209310  38.5879310  26.5619310
  43.9709310  39.1659310  27.5899310  43.7749310  38.9829310  26.7579310
  42.5029310  36.0399310  33.7999310  41.9499310  36.3509310  34.5159310
  42.5639310  36.7859310  33.2029310  42.4399310  36.1749310  33.8149310
  41.2939310  48.5529310  22.4849310  40.6579310  48.0979310  23.0359310
  40.8059310  49.2869310  22.1119310  41.1509310  48.5889310  22.5079310
  37.8469310  39.1739310  26.2629310  37.7529310  38.7069310  25.4329310
  38.6699310  38.8509310  26.6279310  37.9399310  39.0729310  26.2039310
  40.0099310  38.4319310  27.5189310  40.4619310  37.8529310  28.1329310
  40.5729310  38.4469310  26.7459310  40.1399310  38.3599310  27.4989310
  36.5919310  41.5319310  31.7879310  36.0259310  41.8929310  31.1059310
  36.0959310  41.6479310  32.5979310  36.4559310  41.5929310  31.8039310
  39.0089310  47.2899310  29.3629310  38.5479310  47.6339310  28.5979310
  39.0899310  46.3519310  29.1909310  38.9599310  47.2139310  29.2429310
  37.2049310  44.9309310  21.5479310  38.1609310  44.9629310  21.5749310
  36.9339310  45.8479310  21.5859310  37.2929310  45.0519310  21.5559310
  42.0449310  40.3899310  34.4909310  41.2799310  39.9929310  34.9089310
  41.7909310  41.3009310  34.3429310  41.9139310  40.4559310  34.5259310
  38.5639310  38.2209310  19.5189310  38.8719310  38.2859310  20.4229310
  37.6459310  37.9629310  19.5979310  38.4859310  38.1959310  19.6449310
  47.8729310  42.4819310  21.9029310  48.4929310  42.9259310  21.3239310
  47.0629310  42.9859310  21.8179310  47.8489310  42.6039310  21.8179310
  34.4929310  48.5339310  17.8639310  35.1209310  48.0109310  18.3629310
  34.9869310  48.8399310  17.1029310  34.6369310  48.5059310  17.8309310
  48.7659310  48.5609310  28.9569310  48.5929310  48.4839310  28.0189310
  49.5489310  49.1079310  29.0119310  48.8439310  48.6209310  28.8439310
  43.5839310  44.9449310  23.2759310  44.0979310  44.3449310  22.7359310
  43.3099310  45.6349310  22.6719310  43.6139310  44.9559310  23.1299310
  49.6259310  38.1739310  30.8349310  49.3389310  38.9999310  31.2259310
  49.4029310  38.2579310  29.9079310  49.5599310  38.2909310  30.7669310
  48.0199310  46.2859310  34.6289310  47.2089310  46.3239310  34.1219310
  48.3839310  45.4229310  34.4339310  47.9629310  46.1809310  34.5389310
  41.3599310  38.3289310  25.1869310  41.1819310  38.9189310  24.4549310
  41.8449310  37.6019310  24.7969310  41.3989310  38.3119310  25.0439310
  34.9649310  44.9189310  23.7639310  35.5619310  45.1749310  23.0599310
  35.2679310  45.4139310  24.5259310  35.0799310  45.0149310  23.7709310
  37.6459310  48.4259310  27.5689310  37.9049310  49.1189310  26.9609310
  36.7739310  48.6849310  27.8679310  37.5679310  48.5479310  27.5289310
  44.2639310  42.9269310  32.4549310  43.5099310  42.5969310  31.9659310
  44.0629310  42.7289310  33.3689310  44.1419310  42.8589310  32.5089310
  47.8139310  42.2499310  34.5239310  47.0299310  42.2109310  35.0719310
  48.4509310  41.6989310  34.9779310  47.7949310  42.1749310  34.6519310
  41.7859310  37.7139310  11.1859310  42.0139310  37.6859310  12.1149310
  41.1569310  37.0019310  11.0729310  41.7349310  37.6189310  11.2909310
  43.9499310  49.3439310   4.6089310  43.7759310  49.5049310   5.5369310
  43.1849310  48.8579310   4.3029310  43.8299310  49.3019310   4.6889310
  39.7019310  35.9999310  10.6919310  39.1419310  36.4479310  11.3259310
  39.5559310  35.0689310  10.8589310  39.6119310  35.9379310  10.7939310
  43.9159310  39.4499310  10.5449310  43.3129310  38.8089310  10.9199310
  44.7049310  39.3809310  11.0829310  43.9399310  39.3599310  10.6619310
  44.4539310  35.8869310  16.8229310  45.3459310  35.6579310  16.5589310
  43.9319310  35.7659310  16.0299310  44.5019310  35.8429310  16.6879310
  46.3389310  39.2759310  11.8129310  46.5169310  38.3939310  12.1389310
  46.6579310  39.8559310  12.5049310  46.4029310  39.2369310  11.9439310
  46.0269310  47.2719310   4.0589310  45.6009310  46.6649310   3.4549310
  45.3639310  47.9389310   4.2369310  45.8879310  47.2799310   4.0049310
  44.2289310  45.5109310  12.5849310  44.1009310  44.6459310  12.9739310
  44.6719310  45.3359310  11.7539310  44.2689310  45.3779310  12.5279310
  35.3529310  39.8409310  11.1419310  35.6299310  40.4099310  11.8599310
  34.7509310  39.2179310  11.5489310  35.3119310  39.8339310  11.2859310
  36.2259310  46.1779310  13.7349310  35.3049310  45.9579310  13.5949310
  36.3059310  46.2849310  14.6819310  36.1179310  46.1629310  13.8379310
  39.9279310  40.4469310   4.7119310  39.5209310  40.4459310   3.8449310
  39.4419310  41.1099310   5.2029310  39.8139310  40.5319310   4.6639310
  38.0469310  36.8429310  12.7299310  38.2539310  37.7409310  12.9869310
  37.6909310  36.4419310  13.5229310  38.0279310  36.9059310  12.8639310
  39.3549310  37.6339310   3.4299310  38.5969310  37.6209310   4.0149310
  39.8869310  36.8899310   3.7109310  39.3259310  37.5369310   3.5409310
  46.3949310  41.3319310  13.7289310  46.9809310  41.6449310  14.4179310
  45.6689310  41.9569310  13.7289310  46.3769310  41.4519310  13.8169310
  44.0149310  41.8329310   3.2609310  43.1899310  41.8149310   2.7759310
  43.7639310  41.6469310   4.1659310  43.8769310  41.8069310   3.3149310
  35.9159310  39.8449310  16.7829310  35.7179310  39.9259310  15.8509310
  35.1219310  40.1479310  17.2239310  35.7889310  39.8939310  16.7199310
  41.9899310  42.4079310   8.2059310  42.8709310  42.6999310   8.4379310
  42.0759310  42.0739310   7.3129310  42.1139310  42.4029310   8.1209310
  35.8839310  48.8709310  15.5399310  35.1219310  49.4389310  15.4229310
  36.0889310  48.5609310  14.6579310  35.8119310  48.9039310  15.4119310
  46.2869310  38.2269310   6.3899310  45.3349310  38.1639310   6.4609310
  46.6149310  37.4989310   6.9179310  46.2069310  38.1259310   6.4669310
  41.9359310  45.7559310  15.5759310  41.7789310  44.8119310  15.5399310
  41.8469310  46.0479310  14.6689310  41.9039310  45.6719310  15.4549310
  49.2529310  44.7369310   9.4319310  48.3779310  44.4799310   9.1419310
  49.6049310  43.9539310   9.8559310  49.1859310  44.6039310   9.4489310
  36.1639310  36.6419310   8.1449310  36.9979310  37.0959310   8.0209310
  35.5759310  37.0409310   7.5049310  36.1959310  36.7509310   8.0479310
  37.2629310  35.7749310  15.1569310  36.4299310  35.3479310  15.3579310
  37.2299310  36.6019310  15.6369310  37.1519310  35.8259310  15.2439310
  43.5979310  41.2369310   5.8949310  43.6839310  40.4529310   6.4379310
  44.0379310  41.9239310   6.3949310  43.6649310  41.2249310   6.0279310
  42.5689310  42.2259310  11.4909310  41.7239310  41.9059310  11.8079310
  43.0419310  41.4349310  11.2319310  42.5209310  42.0839310  11.4989310
  39.4959310  47.4119310  15.8249310  40.3069310  46.9239310  15.6829310
  39.2269310  47.6889310  14.9489310  39.5649310  47.3849310  15.6939310
  41.7579310  46.4519310  12.8529310  42.6379310  46.0789310  12.8009310
  41.2199310  45.8709310  12.3159310  41.8019310  46.3299310  12.7779310
  48.2019310  44.7089310  12.5019310  47.6449310  44.3149310  11.8299310
  47.6259310  45.3189310  12.9619310  48.0569310  44.7369310  12.4749310
  46.0289310  40.6959310   2.0349310  45.2059310  40.9789310   2.4309310
  46.7069310  41.0819310   2.5899310  46.0109310  40.7809310   2.1569310
  39.0409310  44.2869310  10.1279310  38.6639310  44.1599310  10.9979310
  38.4779310  43.7759310   9.5459310  38.9209310  44.2059310  10.1649310
  48.0479310  45.7969310   5.5829310  48.5929310  46.2979310   6.1899310
  47.3539310  46.4039310   5.3259310  48.0289310  45.9379310   5.6279310
  36.0309310  47.3629310   6.4039310  36.4249310  47.2929310   5.5339310
  36.6429310  46.9079310   6.9809310  36.1599310  47.2959310   6.3659310
  39.1889310  38.7599310  16.2179310  39.0359310  39.0399310  15.3159310
  38.9519310  39.5199310  16.7489310  39.1389310  38.8929310  16.1709310
  41.1219310  42.8809310  15.3239310  41.0069310  42.5969310  14.4169310
  40.2309310  42.9839310  15.6569310  40.9929310  42.8579310  15.2499310
  40.1669310  41.2079310  10.1699310  39.5769310  40.4689310  10.0179310
  40.7789310  41.1799310   9.4349310  40.1699310  41.1099310  10.0559310
  41.5519310  47.3999310   8.2019310  41.5119310  46.4449310   8.1649310
  41.0969310  47.6279310   9.0119310  41.4889310  47.3069310   8.3009310
  49.5169310  44.0529310  14.8839310  48.8259310  43.4129310  15.0519310
  49.3089310  44.4089310  14.0209310  49.4019310  44.0159310  14.7949310
  35.1349310  43.1549310   2.0209310  35.7999310  43.7549310   2.3589310
  34.3029310  43.5889310   2.2099310  35.1139310  43.2869310   2.0889310
  37.4679310  47.5999310   4.2229310  38.1469310  47.3199310   4.8369310
  37.5659310  48.5499310   4.1739310  37.5669310  47.6859310   4.2959310
  37.1379310  37.7909310   4.9879310  36.8999310  36.9719310   4.5539310
  36.3769310  38.3589310   4.8609310  37.0099310  37.7589310   4.9159310
  46.9409310  38.3549310   3.5299310  46.6469310  39.0699310   2.9659310
  46.6699310  38.6159310   4.4099310  46.8689310  38.4799310   3.5699310
  40.5159310  45.2239310   2.3149310  41.3389310  45.7099310   2.2769310
  40.5669310  44.7289310   3.1319310  40.6279310  45.2229310   2.4139310
  38.7479310  47.1639310  13.3109310  38.7099310  47.4809310  12.4089310
  37.8759310  46.8049310  13.4759310  38.6309310  47.1579310  13.2169310
  42.6559310  48.9039310  11.8859310  41.8729310  49.3099310  11.5169310
  42.3679310  48.0329310  12.1589310  42.5189310  48.8439310  11.8739310
  41.6819310  44.8609310  10.3649310  42.0069310  44.0579310  10.7719310
  40.8129310  44.6289310  10.0389310  41.6119310  44.7289310  10.3749310
  37.2979310  45.7949310  16.3339310  38.1009310  46.3049310  16.2239310
  36.8479310  46.2129310  17.0679310  37.3429310  45.9139310  16.4139310
  47.7939310  42.9429310   5.5939310  48.2919310  42.7359310   4.8029310
  47.9779310  43.8679310   5.7579310  47.8809310  43.0349310   5.5139310
  35.7209310  40.4819310   8.4889310  36.5189310  40.1319310   8.0939310
  35.7009310  40.1019310   9.3669310  35.8199310  40.3879310   8.5509310
  45.1149310  43.5389310   6.2169310  44.7079310  44.2989310   5.8009310
  45.9769310  43.4739310   5.8069310  45.1729310  43.6279310   6.1109310
  37.8059310  45.2689310   7.2019310  38.7629310  45.2529310   7.1829310
  37.5609310  44.4549310   7.6419310  37.8969310  45.1629310   7.2559310
  48.1089310  39.2789310   9.7409310  47.6549310  39.7209310   9.0229310
  47.5669310  39.4539310  10.5099310  47.9819310  39.3579310   9.7469310
  46.6479310  40.7549310   7.5509310  47.2739310  41.2049310   6.9839310
  46.5059310  39.9079310   7.1269310  46.7099310  40.7039310   7.4239310
  45.1829310  48.6319310  11.0499310  45.5759310  49.4529310  11.3459310
  44.2699310  48.6869310  11.3319310  45.1169310  48.7439310  11.1239310
  48.7939310  36.6839310   4.8199310  48.1319310  37.0899310   4.2599310
  49.4889310  36.4209310   4.2169310  48.7979310  36.7029310   4.6709310
  41.1529310  43.7089310   4.4239310  41.3409310  42.9569310   3.8619310
  42.0089310  44.0999310   4.5939310  41.2859310  43.6629310   4.3739310
  42.8089310  38.5689310  13.6639310  43.7309310  38.6449310  13.9079310
  42.3569310  39.1859310  14.2389310  42.8689310  38.6569310  13.7679310
  39.7999310  35.5789310   6.5829310  39.9709310  36.4999310   6.7819310
  40.3659310  35.0949310   7.1839310  39.8939310  35.6349310   6.6849310
  40.6539310  44.7059310   6.9759310  40.9109310  44.2879310   6.1539310
  40.7379310  44.0139310   7.6319310  40.6979310  44.5639310   6.9549310
  47.9659310  49.1609310   7.4349310  48.0639310  49.4079310   6.5149310
  47.1119310  49.5109310   7.6869310  47.8689310  49.2369310   7.3499310
  44.6569310  42.0639310   8.7509310  44.2079310  41.3099310   9.1329310
  45.3789310  41.6839310   8.2509310  44.6919310  41.9189310   8.7359310
  46.1919310  46.1879310  10.4629310  45.9159310  47.0119310  10.8649310
  47.1429310  46.1749310  10.5719310  46.2789310  46.2919310  10.5279310
  41.6799310  38.8009310   2.7339310  41.5319310  39.7439310   2.6559310
  40.8879310  38.4689310   3.1579310  41.5599310  38.8789310   2.7779310
  45.3309310  39.1449310  15.1529310  44.8649310  39.7429310  15.7369310
  45.9259310  39.7089310  14.6579310  45.3469310  39.2929310  15.1639310
  37.5779310  44.0359310  12.5999310  36.8989310  44.6749310  12.8199310
  37.1689310  43.1869310  12.7629310  37.4379310  44.0089310  12.6489310
  35.7259310  36.9449310  11.1819310  36.5879310  36.9059310  11.5959310
  35.9119310  37.0949310  10.2549310  35.8599310  36.9589310  11.1159310
  46.6429310  44.4779310   8.5489310  46.3749310  45.1209310   9.2059310
  45.8439310  44.2959310   8.0529310  46.5059310  44.5369310   8.5689310
  35.1849310  42.1159310  15.1689310  34.5849310  42.8489310  15.3099310
  35.7319310  42.0989310  15.9549310  35.1779310  42.2079310  15.2879310
  36.5409310  41.0169310   3.2119310  36.9409310  41.6019310   3.8559310
  36.0769310  41.6019310   2.6129310  36.5329310  41.1669310   3.2179310
  46.6199310  42.8119310  11.1109310  46.4569310  43.1209310  10.2199310
  45.7589310  42.5479310  11.4339310  46.4889310  42.8179310  11.0389310
  46.8419310  37.0329310  15.2489310  46.8389310  36.7429310  14.3369310
  46.1699310  37.7139310  15.2859310  46.7549310  37.0829310  15.1369310
  46.5519310  46.4749310  13.6469310  45.7339310  46.3189310  13.1759310
  46.5999310  47.4269310  13.7359310  46.4539310  46.5769310  13.5979310
  36.9309310  42.9529310   8.3999310  36.1519310  43.4589310   8.6309310
  36.6689310  42.0399310   8.5229310  36.7979310  42.9009310   8.4449310
  40.0269310  47.1099310   5.5059310  39.9399310  47.8899310   6.0549310
  40.0989310  46.3859310   6.1289310  40.0249310  47.1169310   5.6559310
  40.1289310  42.2509310  12.6899310  40.0379310  42.1309310  11.7449310
  39.4049310  42.8289310  12.9279310  40.0249310  42.3099310  12.5989310
  41.2109310  35.7669310   4.1419310  40.8059310  35.4359310   4.9439310
  41.3179310  34.9929310   3.5899310  41.1729310  35.6259310   4.1739310
  43.8989310  38.7099310   4.4129310  43.0469310  38.5719310   4.0009310
  43.9489310  39.6569310   4.5489310  43.7969310  38.8139310   4.3779310
  38.7709310  39.3779310  13.6039310  39.5619310  39.4109310  13.0669310
  38.4109310  40.2639310  13.5559310  38.8259310  39.4949310  13.5289310
  46.9519310  36.8709310  12.5079310  46.6919310  36.0949310  12.0109310
  47.9079310  36.8759310  12.4599310  47.0409310  36.7719310  12.4379310
  43.8719310  39.0189310   7.7889310  43.0209310  38.5879310   7.7019310
  43.9709310  39.1659310   8.7299310  43.7749310  38.9829310   7.8979310
  42.5029310  36.0399310  14.9399310  41.9499310  36.3509310  15.6559310
  42.5639310  36.7859310  14.3429310  42.4399310  36.1749310  14.9549310
  41.2939310  48.5529310   3.6249310  40.6579310  48.0979310   4.1759310
  40.8059310  49.2869310   3.2519310  41.1509310  48.5889310   3.6479310
  40.0099310  38.4319310   8.6589310  40.4619310  37.8529310   9.2729310
  40.5729310  38.4469310   7.8859310  40.1399310  38.3599310   8.6389310
  36.5919310  41.5319310  12.9279310  36.0259310  41.8929310  12.2459310
  36.0959310  41.6479310  13.7379310  36.4559310  41.5929310  12.9439310
  39.0089310  47.2899310  10.5029310  38.5479310  47.6339310   9.7379310
  39.0899310  46.3519310  10.3309310  38.9599310  47.2139310  10.3829310
  37.2049310  44.9309310   2.6879310  38.1609310  44.9629310   2.7149310
  36.9339310  45.8479310   2.7259310  37.2929310  45.0519310   2.6959310
  42.0449310  40.3899310  15.6309310  41.2799310  39.9929310  16.0489310
  41.7909310  41.3009310  15.4829310  41.9139310  40.4559310  15.6659310
  47.8729310  42.4819310   3.0429310  48.4929310  42.9259310   2.4639310
  47.0629310  42.9859310   2.9579310  47.8489310  42.6039310   2.9579310
  48.7659310  48.5609310  10.0969310  48.5929310  48.4839310   9.1589310
  49.5489310  49.1079310  10.1519310  48.8439310  48.6209310   9.9839310
  43.5839310  44.9449310   4.4159310  44.0979310  44.3449310   3.8759310
  43.3099310  45.6349310   3.8119310  43.6139310  44.9559310   4.2699310
  49.6259310  38.1739310  11.9749310  49.3389310  38.9999310  12.3659310
  49.4029310  38.2579310  11.0479310  49.5599310  38.2909310  11.9069310
  48.0199310  46.2859310  15.7689310  47.2089310  46.3239310  15.2619310
  48.3839310  45.4229310  15.5739310  47.9629310  46.1809310  15.6789310
  41.3599310  38.3289310   6.3269310  41.1819310  38.9189310   5.5949310
  41.8449310  37.6019310   5.9369310  41.3989310  38.3119310   6.1839310
  34.9649310  44.9189310   4.9039310  35.5619310  45.1749310   4.1999310
  35.2679310  45.4139310   5.6659310  35.0799310  45.0149310   4.9109310
  37.6459310  48.4259310   8.7089310  37.9049310  49.1189310   8.1009310
  36.7739310  48.6849310   9.0079310  37.5679310  48.5479310   8.6689310
  44.2639310  42.9269310  13.5949310  43.5099310  42.5969310  13.1059310
  44.0629310  42.7289310  14.5089310  44.1419310  42.8589310  13.6489310
  47.8139310  42.2499310  15.6639310  47.0299310  42.2109310  16.2119310
  48.4509310  41.6989310  16.1179310  47.7949310  42.1749310  15.7919310
  41.7859310  18.8469310  48.9059310  42.0139310  18.8189310  49.8349310
  41.1569310  18.1349310  48.7929310  41.7349310  18.7519310  49.0109310
  39.1849310  33.0329310  49.1659310  38.2309310  32.9649310  49.1339310
  39.3739310  33.3399310  50.0519310  39.0869310  33.0639310  49.2749310
  43.9499310  30.4769310  42.3289310  43.7759310  30.6379310  43.2569310
  43.1849310  29.9909310  42.0229310  43.8299310  30.4349310  42.4089310
  39.7019310  17.1329310  48.4119310  39.1419310  17.5809310  49.0459310
  39.5559310  16.2019310  48.5789310  39.6119310  17.0709310  48.5139310
  40.5209310  25.3739310  37.6599310  40.3669310  25.8309310  38.4869310
  41.2329310  24.7639310  37.8519310  40.5919310  25.3539310  37.7899310
  43.9159310  20.5829310  48.2649310  43.3129310  19.9419310  48.6399310
  44.7049310  20.5139310  48.8029310  43.9399310  20.4929310  48.3819310
  37.4079310  31.6299310  42.6229310  37.4459310  32.5229310  42.2789310
  36.6089310  31.6089310  43.1489310  37.3109310  31.7419310  42.6459310
  42.1189310  33.4199310  39.3119310  41.3199310  32.8929310  39.3219310
  42.4629310  33.3169310  38.4249310  42.0609310  33.3389310  39.1999310
  46.3389310  20.4089310  49.5329310  46.5169310  19.5269310  49.8589310
  46.6579310  20.9889310  50.2249310  46.4029310  20.3699310  49.6639310
  46.0269310  28.4049310  41.7789310  45.6009310  27.7979310  41.1749310
  45.3639310  29.0719310  41.9569310  45.8879310  28.4129310  41.7249310
  43.9939310  19.4559310  37.0209310  43.7279310  18.9929310  37.8159310
  44.0099310  18.7789310  36.3449310  43.9619310  19.3099310  37.0369310
  47.1049310  27.5959310  37.3239310  47.8749310  27.6169310  37.8909310
  47.4239310  27.2289310  36.4999310  47.2439310  27.5519310  37.2909310
  35.3529310  20.9739310  48.8619310  35.6299310  21.5429310  49.5799310
  34.7509310  20.3509310  49.2689310  35.3119310  20.9669310  49.0059310
  47.8159310  30.9999310  42.6599310  47.9919310  31.8499310  42.2569310
  47.0569310  30.6629310  42.1859310  47.7419310  31.0659310  42.5479310
  47.6059310  34.3249310  43.9119310  48.1919310  35.0619310  43.7369310
  46.8239310  34.5109310  43.3929310  47.5809310  34.4429310  43.8229310
  39.9279310  21.5799310  42.4319310  39.5209310  21.5789310  41.5649310
  39.4419310  22.2429310  42.9229310  39.8139310  21.6649310  42.3839310
  39.3549310  18.7669310  41.1499310  38.5969310  18.7539310  41.7349310
  39.8869310  18.0229310  41.4309310  39.3259310  18.6699310  41.2609310
  44.0149310  22.9659310  40.9809310  43.1899310  22.9479310  40.4959310
  43.7639310  22.7799310  41.8859310  43.8769310  22.9399310  41.0349310
  41.1289310  32.6309310  45.5979310  40.8679310  32.2559310  46.4389310
  41.8599310  32.0859310  45.3089310  41.1889310  32.5129310  45.6679310
  39.3669310  30.8239310  44.3129310  38.6429310  31.1269310  43.7649310
  39.9609310  31.5739310  44.3609310  39.3509310  30.9589310  44.2489310
  43.2669310  33.0499310  36.9439310  43.7259310  32.2279310  37.1159310
  43.9649310  33.6899310  36.8049310  43.4149310  33.0269310  36.9479310
  46.2869310  19.3599310  44.1099310  45.3349310  19.2969310  44.1809310
  46.6149310  18.6319310  44.6379310  46.2069310  19.2589310  44.1869310
  46.1429310  30.1969310  37.3979310  46.4469310  29.3039310  37.5539310
  46.6699310  30.7369310  37.9869310  46.2489310  30.1519310  37.4929310
  48.7659310  20.6849310  37.9739310  48.8699310  21.0289310  38.8609310
  48.6359310  21.4609310  37.4289310  48.7629310  20.8279310  38.0179310
  49.2529310  25.8699310  47.1519310  48.3779310  25.6129310  46.8619310
  49.6049310  25.0869310  47.5759310  49.1859310  25.7369310  47.1689310
  40.9949310  17.8589310  35.9609310  41.3369310  17.8679310  36.8549310
  40.5099310  18.6809310  35.8829310  40.9769310  17.9659310  36.0649310
  43.5979310  22.3699310  43.6149310  43.6839310  21.5859310  44.1579310
  44.0379310  23.0569310  44.1149310  43.6649310  22.3579310  43.7479310
  36.6729310  34.5919310  40.1339310  35.8919310  34.4609310  39.5959310
  36.6429310  35.5169310  40.3779310  36.5689310  34.6939310  40.0959310
  43.0259310  30.8579310  44.8239310  42.5459310  30.0499310  45.0009310
  43.7559310  30.8439310  45.4429310  43.0579310  30.7529310  44.9259310
  45.8309310  21.7109310  37.0909310  45.2049310  20.9869310  37.1149310
  46.0489310  21.8699310  38.0089310  45.7789310  21.6389310  37.2109310
  42.5689310  23.3589310  49.2109310  41.7239310  23.0389310  49.5279310
  43.0419310  22.5679310  48.9519310  42.5209310  23.2169310  49.2189310
  38.4039310  33.1169310  38.6679310  37.8219310  33.6149310  39.2409310
  38.6329310  33.7279310  37.9679310  38.3589310  33.2589310  38.6519310
  46.0289310  21.8289310  39.7549310  45.2059310  22.1119310  40.1509310
  46.7069310  22.2149310  40.3099310  46.0109310  21.9139310  39.8769310
  39.0409310  25.4199310  47.8479310  38.6639310  25.2929310  48.7179310
  38.4779310  24.9089310  47.2659310  38.9209310  25.3389310  47.8849310
  48.0479310  26.9299310  43.3029310  48.5929310  27.4309310  43.9099310
  47.3539310  27.5369310  43.0459310  48.0289310  27.0709310  43.3479310
  36.0309310  28.4959310  44.1239310  36.4249310  28.4259310  43.2539310
  36.6429310  28.0409310  44.7009310  36.1599310  28.4289310  44.0859310
  45.5019310  25.0399310  39.9749310  44.8299310  24.3589310  40.0049310
  45.5809310  25.2569310  39.0459310  45.4259310  24.9809310  39.8599310
  46.6879310  34.0189310  49.0929310  46.1389310  33.9499310  48.3129310
  47.0519310  33.1419310  49.2089310  46.6649310  33.8979310  49.0079310
  40.1669310  22.3409310  47.8899310  39.5769310  21.6019310  47.7379310
  40.7789310  22.3129310  47.1549310  40.1699310  22.2429310  47.7759310
  41.5519310  28.5329310  45.9219310  41.5119310  27.5779310  45.8849310
  41.0969310  28.7609310  46.7319310  41.4889310  28.4399310  46.0209310
  35.1349310  24.2879310  39.7409310  35.7999310  24.8879310  40.0789310
  34.3029310  24.7219310  39.9299310  35.1139310  24.4199310  39.8089310
  37.4679310  28.7329310  41.9429310  38.1469310  28.4529310  42.5569310
  37.5659310  29.6829310  41.8939310  37.5669310  28.8189310  42.0159310
  42.8819310  27.4689310  37.0299310  42.4989310  27.1599310  36.2089310
  43.1209310  28.3799310  36.8549310  42.8639310  27.5459310  36.9029310
  37.1379310  18.9239310  42.7079310  36.8999310  18.1049310  42.2739310
  36.3769310  19.4919310  42.5809310  37.0099310  18.8919310  42.6359310
  41.7089310  17.7389310  38.7119310  41.9539310  16.8639310  39.0129310
  41.4939310  18.2159310  39.5129310  41.7129310  17.6879310  38.8529310
  46.9409310  19.4879310  41.2499310  46.6469310  20.2029310  40.6859310
  46.6699310  19.7489310  42.1299310  46.8689310  19.6129310  41.2899310
  45.3949310  31.1439310  46.3319310  45.3309310  30.6239310  47.1339310
  45.9399310  31.8929310  46.5749310  45.4559310  31.1729310  46.4659310
  38.5469310  22.0039310  36.7459310  37.6219310  21.7609310  36.7839310
  38.5429310  22.9239310  36.4809310  38.4289310  22.0909310  36.7169310
  40.5159310  26.3569310  40.0349310  41.3389310  26.8429310  39.9969310
  40.5669310  25.8619310  40.8519310  40.6279310  26.3559310  40.1339310
  37.2069310  34.2319310  44.1109310  36.6649310  34.6549310  44.7779310
  38.1059310  34.4289310  44.3729310  37.2519310  34.3119310  44.2299310
  42.8109310  27.9939310  40.0369310  42.2879310  28.6969310  40.4229310
  42.8229310  28.1899310  39.1009310  42.7459310  28.1089310  39.9669310
  42.6559310  30.0369310  49.6059310  41.8729310  30.4429310  49.2369310
  42.3679310  29.1659310  49.8789310  42.5189310  29.9769310  49.5939310
  36.3939310  32.0489310  46.3489310  37.0489310  32.4099310  45.7519310
  35.7159310  31.6939310  45.7739310  36.3909310  32.0499310  46.1989310
  41.6819310  25.9939310  48.0849310  42.0069310  25.1909310  48.4919310
  40.8129310  25.7619310  47.7589310  41.6119310  25.8619310  48.0949310
  47.7939310  24.0759310  43.3139310  48.2919310  23.8689310  42.5229310
  47.9779310  25.0009310  43.4779310  47.8809310  24.1679310  43.2339310
  42.4189310  22.8219310  37.0549310  41.9379310  22.0049310  36.9239310
  42.8529310  22.9809310  36.2169310  42.4129310  22.7379310  36.9309310
  36.3829310  27.8589310  37.5129310  37.1499310  27.5359310  37.9879310
  35.6409310  27.6199310  38.0679310  36.3859310  27.7869310  37.6449310
  35.7209310  21.6149310  46.2089310  36.5189310  21.2649310  45.8139310
  35.7009310  21.2349310  47.0869310  35.8199310  21.5209310  46.2709310
  45.1149310  24.6719310  43.9369310  44.7079310  25.4319310  43.5209310
  45.9769310  24.6069310  43.5269310  45.1729310  24.7609310  43.8309310
  37.8059310  26.4019310  44.9219310  38.7629310  26.3859310  44.9029310
  37.5609310  25.5879310  45.3619310  37.8969310  26.2959310  44.9759310
  48.1089310  20.4119310  47.4609310  47.6549310  20.8539310  46.7429310
  47.5669310  20.5869310  48.2299310  47.9819310  20.4909310  47.4669310
  46.6479310  21.8879310  45.2709310  47.2739310  22.3379310  44.7039310
  46.5059310  21.0409310  44.8469310  46.7099310  21.8369310  45.1439310
  45.1829310  29.7649310  48.7699310  45.5759310  30.5859310  49.0659310
  44.2699310  29.8199310  49.0519310  45.1169310  29.8769310  48.8439310
  46.6719310  18.6329310  38.0269310  45.9129310  18.8809310  37.4989310
  47.2269310  19.4129310  38.0279310  46.6459310  18.7649310  37.9599310
  39.2069310  21.9259310  39.7439310  39.1169310  21.6549310  38.8309310
  38.3089310  22.0829310  40.0369310  39.0799310  21.9119310  39.6649310
  48.7939310  17.8169310  42.5399310  48.1319310  18.2229310  41.9799310
  49.4889310  17.5539310  41.9369310  48.7979310  17.8359310  42.3909310
  41.1529310  24.8419310  42.1439310  41.3409310  24.0899310  41.5819310
  42.0089310  25.2329310  42.3139310  41.2859310  24.7959310  42.0939310
  39.7999310  16.7119310  44.3029310  39.9709310  17.6329310  44.5019310
  40.3659310  16.2279310  44.9039310  39.8939310  16.7679310  44.4049310
  43.6029310  30.0489310  36.4269310  44.4469310  30.0109310  36.8779310
  43.8259310  30.2539310  35.5189310  43.7399310  30.0699310  36.3689310
  40.6539310  25.8389310  44.6959310  40.9109310  25.4209310  43.8739310
  40.7379310  25.1469310  45.3519310  40.6979310  25.6969310  44.6749310
  47.9659310  30.2939310  45.1549310  48.0639310  30.5409310  44.2349310
  47.1119310  30.6439310  45.4069310  47.8689310  30.3699310  45.0699310
  45.3559310  34.7079310  42.4939310  45.1709310  33.8809310  42.0479310
  45.0439310  35.3809310  41.8889310  45.2919310  34.6879310  42.3589310
  46.9439310  33.9429310  35.5839310  47.1019310  34.7819310  35.1509310
  47.2059310  34.0899310  36.4929310  46.9979310  34.0689310  35.6449310
  49.0539310  32.7199310  45.6939310  48.5099310  33.3199310  45.1829310
  48.6629310  31.8589310  45.5479310  48.9349310  32.6869310  45.6099310
  43.1459310  35.0879310  44.6669310  43.1119310  34.4009310  45.3319310
  43.6219310  34.6929310  43.9369310  43.2019310  34.9499310  44.6589310
  45.0249310  25.8159310  37.3549310  45.7549310  26.4359310  37.3439310
  44.2429310  26.3669310  37.3239310  45.0179310  25.9659310  37.3489310
  44.6569310  23.1969310  46.4709310  44.2079310  22.4429310  46.8529310
  45.3789310  22.8169310  45.9709310  44.6919310  23.0519310  46.4559310
  46.1919310  27.3209310  48.1829310  45.9159310  28.1449310  48.5849310
  47.1429310  27.3079310  48.2919310  46.2789310  27.4249310  48.2479310
  41.6799310  19.9339310  40.4539310  41.5319310  20.8769310  40.3759310
  40.8879310  19.6019310  40.8779310  41.5599310  20.0119310  40.4979310
  45.5479310  34.5439310  46.4319310  46.3379310  35.0819310  46.3779310
  44.9479310  34.9359310  45.7979310  45.5719310  34.6629310  46.3439310
  40.9359310  20.4229310  37.0489310  40.0189310  20.2079310  37.2149310
  41.4109310  20.0349310  37.7839310  40.8789310  20.3459310  37.1639310
  48.5379310  33.1739310  41.2839310  48.1699310  33.7549310  41.9489310
  49.4289310  33.4969310  41.1499310  48.6049310  33.2899310  41.3519310
  35.7259310  18.0779310  48.9019310  36.5879310  18.0389310  49.3159310
  35.9119310  18.2279310  47.9749310  35.8599310  18.0919310  48.8359310
  46.6429310  25.6109310  46.2689310  46.3749310  26.2539310  46.9259310
  45.8439310  25.4289310  45.7729310  46.5059310  25.6699310  46.2889310
  36.5409310  22.1499310  40.9319310  36.9409310  22.7349310  41.5759310
  36.0769310  22.7349310  40.3329310  36.5329310  22.2999310  40.9379310
  46.6199310  23.9449310  48.8309310  46.4569310  24.2539310  47.9399310
  45.7589310  23.6809310  49.1539310  46.4889310  23.9509310  48.7589310
  38.5009310  16.8289310  36.9769310  38.5019310  17.5709310  37.5809310
  39.0049310  17.1329310  36.2229310  38.5659310  16.9629310  36.9579310
  39.4169310  28.8649310  37.2609310  39.5029310  28.8139310  36.3089310
  38.8639310  29.6329310  37.4099310  39.3569310  28.9569310  37.1579310
  36.9309310  24.0859310  46.1199310  36.1519310  24.5919310  46.3509310
  36.6689310  23.1729310  46.2429310  36.7979310  24.0339310  46.1649310
  40.0269310  28.2429310  43.2259310  39.9399310  29.0229310  43.7749310
  40.0989310  27.5189310  43.8489310  40.0249310  28.2499310  43.3759310
  41.2109310  16.8999310  41.8619310  40.8059310  16.5689310  42.6639310
  41.3179310  16.1259310  41.3099310  41.1729310  16.7589310  41.8939310
  41.4529310  30.1029310  38.1819310  40.7209310  29.6139310  37.8059310
  42.1129310  30.1159310  37.4899310  41.4429310  30.0419310  38.0459310
  43.8989310  19.8429310  42.1329310  43.0469310  19.7049310  41.7209310
  43.9489310  20.7899310  42.2689310  43.7969310  19.9469310  42.0979310
  36.3989310  33.4479310  48.7529310  36.1059310  33.1749310  47.8829310
  36.0909310  34.3499310  48.8369310  36.3219310  33.5279310  48.6519310
  44.9439310  23.5139310  35.3719310  44.9249310  24.1639310  36.0739310
  45.2989310  22.7259310  35.7839310  44.9869310  23.4969310  35.5139310
  40.3139310  30.8119310  48.1509310  39.7439310  31.4989310  48.4979310
  39.8619310  29.9959310  48.3649310  40.1829310  30.7959310  48.2229310
  46.9059310  32.3929310  39.2419310  46.2209310  32.3209310  39.9069310
  47.7039310  32.5709310  39.7389310  46.9199310  32.4059310  39.3909310
  44.6169310  18.0169310  40.2239310  44.3919310  18.8019310  40.7229310
  45.5159310  18.1689310  39.9319310  44.7039310  18.1369310  40.2509310
  46.9519310  18.0039310  50.2279310  46.6919310  17.2279310  49.7309310
  47.9079310  18.0089310  50.1799310  47.0409310  17.9049310  50.1579310
  47.9149310  31.3649310  35.4889310  47.5149310  32.2329310  35.5389310
  47.4389310  30.8439310  36.1359310  47.8029310  31.4099310  35.5779310
  43.8719310  20.1519310  45.5089310  43.0209310  19.7209310  45.4219310
  43.9709310  20.2989310  46.4499310  43.7749310  20.1159310  45.6179310
  41.2939310  29.6859310  41.3449310  40.6579310  29.2309310  41.8959310
  40.8059310  30.4199310  40.9719310  41.1509310  29.7219310  41.3679310
  47.1719310  31.3569310  49.5499310  46.9689310  31.0469310  50.4319310
  47.6859310  30.6489310  49.1599310  47.2119310  31.2259310  49.6129310
  35.9439310  30.6809310  49.7009310  35.5619310  31.5239310  49.9449310
  36.7679310  30.9069310  49.2699310  35.9999310  30.8179310  49.6769310
  37.8469310  20.3069310  45.1229310  37.7529310  19.8399310  44.2929310
  38.6699310  19.9839310  45.4879310  37.9399310  20.2059310  45.0639310
  48.1009310  34.7539310  38.2639310  47.5849310  34.0689310  38.6899310
  47.6179310  35.5609310  38.4379310  47.9729310  34.7689310  38.3409310
  40.0099310  19.5649310  46.3789310  40.4619310  18.9859310  46.9929310
  40.5729310  19.5799310  45.6059310  40.1399310  19.4929310  46.3589310
  47.8379310  36.2969310  46.5649310  48.6129310  36.1409310  46.0259310
  47.8069310  37.2479310  46.6709310  47.9329310  36.3989310  46.5099310
  44.4079310  32.7089310  40.7939310  44.1699310  31.8959310  41.2379310
  43.6029310  32.9869310  40.3569310  44.2749310  32.6409310  40.7949310
  39.0089310  28.4229310  48.2229310  38.5479310  28.7669310  47.4579310
  39.0899310  27.4849310  48.0509310  38.9599310  28.3469310  48.1029310
  37.2049310  26.0639310  40.4079310  38.1609310  26.0959310  40.4349310
  36.9339310  26.9809310  40.4459310  37.2929310  26.1849310  40.4159310
  38.5639310  19.3539310  38.3789310  38.8719310  19.4189310  39.2829310
  37.6459310  19.0959310  38.4579310  38.4859310  19.3289310  38.5049310
  47.8729310  23.6149310  40.7629310  48.4929310  24.0589310  40.1839310
  47.0629310  24.1189310  40.6779310  47.8489310  23.7369310  40.6779310
  40.1649310  31.7509310  39.9949310  39.4649310  32.1489310  39.4779310
  40.5969310  31.1479310  39.3889310  40.1309310  31.7249310  39.8509310
  48.7659310  29.6939310  47.8169310  48.5929310  29.6169310  46.8789310
  49.5489310  30.2409310  47.8719310  48.8439310  29.7539310  47.7039310
  43.5839310  26.0779310  42.1359310  44.0979310  25.4779310  41.5959310
  43.3099310  26.7679310  41.5319310  43.6139310  26.0889310  41.9899310
  49.6259310  19.3069310  49.6949310  49.3389310  20.1329310  50.0859310
  49.4029310  19.3909310  48.7679310  49.5599310  19.4239310  49.6269310
  36.0709310  33.4329310  36.1819310  36.6279310  32.6739310  36.3539310
  36.6389310  34.1869310  36.3379310  36.2149310  33.4319310  36.2239310
  41.3599310  19.4619310  44.0469310  41.1819310  20.0519310  43.3149310
  41.8449310  18.7349310  43.6569310  41.3989310  19.4449310  43.9039310
  34.9649310  26.0519310  42.6239310  35.5619310  26.3079310  41.9199310
  35.2679310  26.5469310  43.3859310  35.0799310  26.1479310  42.6309310
  37.6459310  29.5589310  46.4289310  37.9049310  30.2519310  45.8209310
  36.7739310  29.8179310  46.7279310  37.5679310  29.6809310  46.3889310
  49.6739310  34.1759310  48.0619310  49.2009310  35.0089310  48.0549310
  49.1429310  33.5949310  47.5179310  49.5449310  34.2079310  47.9919310
  41.7859310  18.8469310  30.0459310  42.0139310  18.8189310  30.9749310
  41.1569310  18.1349310  29.9329310  41.7349310  18.7519310  30.1509310
  39.1849310  33.0329310  30.3059310  38.2309310  32.9649310  30.2739310
  39.3739310  33.3399310  31.1919310  39.0869310  33.0639310  30.4149310
  43.9499310  30.4769310  23.4689310  43.7759310  30.6379310  24.3969310
  43.1849310  29.9909310  23.1629310  43.8299310  30.4349310  23.5489310
  40.5209310  25.3739310  18.7999310  40.3669310  25.8309310  19.6269310
  41.2329310  24.7639310  18.9919310  40.5919310  25.3539310  18.9299310
  43.9159310  20.5829310  29.4049310  43.3129310  19.9419310  29.7799310
  44.7049310  20.5139310  29.9429310  43.9399310  20.4929310  29.5219310
  44.4539310  17.0199310  35.6829310  45.3459310  16.7909310  35.4189310
  43.9319310  16.8989310  34.8899310  44.5019310  16.9759310  35.5479310
  37.4079310  31.6299310  23.7629310  37.4459310  32.5229310  23.4189310
  36.6089310  31.6089310  24.2889310  37.3109310  31.7419310  23.7859310
  42.1189310  33.4199310  20.4519310  41.3199310  32.8929310  20.4619310
  42.4629310  33.3169310  19.5649310  42.0609310  33.3389310  20.3399310
  46.3389310  20.4089310  30.6729310  46.5169310  19.5269310  30.9989310
  46.6579310  20.9889310  31.3649310  46.4029310  20.3699310  30.8039310
  46.0269310  28.4049310  22.9189310  45.6009310  27.7979310  22.3149310
  45.3639310  29.0719310  23.0969310  45.8879310  28.4129310  22.8649310
  43.9939310  19.4559310  18.1609310  43.7279310  18.9929310  18.9559310
  44.0099310  18.7789310  17.4849310  43.9619310  19.3099310  18.1769310
  44.2289310  26.6439310  31.4449310  44.1009310  25.7789310  31.8339310
  44.6719310  26.4689310  30.6139310  44.2689310  26.5109310  31.3879310
  47.1049310  27.5959310  18.4639310  47.8749310  27.6169310  19.0309310
  47.4239310  27.2289310  17.6399310  47.2439310  27.5519310  18.4309310
  47.8159310  30.9999310  23.7999310  47.9919310  31.8499310  23.3969310
  47.0569310  30.6629310  23.3259310  47.7419310  31.0659310  23.6879310
  47.6059310  34.3249310  25.0519310  48.1919310  35.0619310  24.8769310
  46.8239310  34.5109310  24.5329310  47.5809310  34.4429310  24.9629310
  39.9279310  21.5799310  23.5719310  39.5209310  21.5789310  22.7049310
  39.4419310  22.2429310  24.0629310  39.8139310  21.6649310  23.5239310
  39.3549310  18.7669310  22.2899310  38.5969310  18.7539310  22.8749310
  39.8869310  18.0229310  22.5709310  39.3259310  18.6699310  22.4009310
  46.3949310  22.4649310  32.5889310  46.9809310  22.7779310  33.2779310
  45.6689310  23.0899310  32.5889310  46.3769310  22.5849310  32.6769310
  44.0149310  22.9659310  22.1209310  43.1899310  22.9479310  21.6359310
  43.7639310  22.7799310  23.0259310  43.8769310  22.9399310  22.1749310
  41.1289310  32.6309310  26.7379310  40.8679310  32.2559310  27.5789310
  41.8599310  32.0859310  26.4489310  41.1889310  32.5129310  26.8079310
  39.3669310  30.8239310  25.4529310  38.6429310  31.1269310  24.9049310
  39.9609310  31.5739310  25.5009310  39.3509310  30.9589310  25.3889310
  38.8399310  24.5879310  16.7909310  38.2369310  25.3249310  16.6949310
  39.4689310  24.8779310  17.4519310  38.8429310  24.7189310  16.8629310
  43.2669310  33.0499310  18.0839310  43.7259310  32.2279310  18.2559310
  43.9649310  33.6899310  17.9449310  43.4149310  33.0269310  18.0879310
  41.9899310  23.5409310  27.0659310  42.8709310  23.8329310  27.2979310
  42.0759310  23.2069310  26.1729310  42.1139310  23.5359310  26.9809310
  37.9549310  31.2989310  35.7369310  38.4379310  31.8599310  35.1299310
  37.5119310  30.6629310  35.1759310  37.9599310  31.2899310  35.5879310
  41.5809310  33.0349310  34.5349310  42.1549310  32.9479310  35.2959310
  41.5389310  33.9769310  34.3729310  41.6489310  33.1439310  34.6109310
  46.2869310  19.3599310  25.2499310  45.3349310  19.2969310  25.3209310
  46.6149310  18.6319310  25.7779310  46.2069310  19.2589310  25.3269310
  41.9359310  26.8889310  34.4359310  41.7789310  25.9449310  34.3999310
  41.8469310  27.1809310  33.5289310  41.9039310  26.8049310  34.3149310
  46.1429310  30.1969310  18.5379310  46.4469310  29.3039310  18.6939310
  46.6699310  30.7369310  19.1269310  46.2489310  30.1519310  18.6329310
  48.7659310  20.6849310  19.1139310  48.8699310  21.0289310  20.0009310
  48.6359310  21.4609310  18.5689310  48.7629310  20.8279310  19.1579310
  49.2529310  25.8699310  28.2919310  48.3779310  25.6129310  28.0019310
  49.6049310  25.0869310  28.7159310  49.1859310  25.7369310  28.3089310
  38.9619310  32.7859310  33.4499310  38.7099310  33.6899310  33.6409310
  39.8669310  32.7209310  33.7529310  39.0459310  32.8939310  33.5129310
  40.9949310  17.8589310  17.1009310  41.3369310  17.8679310  17.9949310
  40.5099310  18.6809310  17.0229310  40.9769310  17.9659310  17.2049310
  43.5979310  22.3699310  24.7549310  43.6839310  21.5859310  25.2979310
  44.0379310  23.0569310  25.2549310  43.6649310  22.3579310  24.8879310
  36.6729310  34.5919310  21.2739310  35.8919310  34.4609310  20.7359310
  36.6429310  35.5169310  21.5179310  36.5689310  34.6939310  21.2359310
  46.7239310  30.3939310  33.2249310  47.3059310  30.2299310  33.9659310
  46.1309310  31.0799310  33.5329310  46.7219310  30.4609310  33.3589310
  43.0259310  30.8579310  25.9639310  42.5459310  30.0499310  26.1409310
  43.7559310  30.8439310  26.5829310  43.0579310  30.7529310  26.0659310
  45.8309310  21.7109310  18.2309310  45.2049310  20.9869310  18.2549310
  46.0489310  21.8699310  19.1489310  45.7789310  21.6389310  18.3509310
  42.5689310  23.3589310  30.3509310  41.7239310  23.0389310  30.6679310
  43.0419310  22.5679310  30.0919310  42.5209310  23.2169310  30.3589310
  39.4959310  28.5449310  34.6849310  40.3069310  28.0569310  34.5429310
  39.2269310  28.8219310  33.8089310  39.5649310  28.5179310  34.5539310
  38.4039310  33.1169310  19.8079310  37.8219310  33.6149310  20.3809310
  38.6329310  33.7279310  19.1079310  38.3589310  33.2589310  19.7919310
  41.7579310  27.5849310  31.7129310  42.6379310  27.2119310  31.6609310
  41.2199310  27.0039310  31.1759310  41.8019310  27.4629310  31.6379310
  48.2019310  25.8419310  31.3619310  47.6449310  25.4479310  30.6899310
  47.6259310  26.4519310  31.8219310  48.0569310  25.8699310  31.3349310
  46.0289310  21.8289310  20.8949310  45.2059310  22.1119310  21.2909310
  46.7069310  22.2149310  21.4499310  46.0109310  21.9139310  21.0169310
  39.0409310  25.4199310  28.9879310  38.6639310  25.2929310  29.8579310
  38.4779310  24.9089310  28.4059310  38.9209310  25.3389310  29.0249310
  48.0479310  26.9299310  24.4429310  48.5929310  27.4309310  25.0499310
  47.3539310  27.5369310  24.1859310  48.0289310  27.0709310  24.4879310
  36.0309310  28.4959310  25.2639310  36.4249310  28.4259310  24.3939310
  36.6429310  28.0409310  25.8409310  36.1599310  28.4289310  25.2259310
  45.5019310  25.0399310  21.1149310  44.8299310  24.3589310  21.1449310
  45.5809310  25.2569310  20.1859310  45.4259310  24.9809310  20.9999310
  46.6879310  34.0189310  30.2329310  46.1389310  33.9499310  29.4529310
  47.0519310  33.1419310  30.3489310  46.6649310  33.8979310  30.1479310
  40.1669310  22.3409310  29.0299310  39.5769310  21.6019310  28.8779310
  40.7789310  22.3129310  28.2949310  40.1699310  22.2429310  28.9159310
  41.5519310  28.5329310  27.0619310  41.5119310  27.5779310  27.0249310
  41.0969310  28.7609310  27.8719310  41.4889310  28.4399310  27.1609310
  49.5169310  25.1859310  33.7439310  48.8259310  24.5459310  33.9119310
  49.3089310  25.5419310  32.8809310  49.4019310  25.1489310  33.6549310
  35.1349310  24.2879310  20.8809310  35.7999310  24.8879310  21.2189310
  34.3029310  24.7219310  21.0699310  35.1139310  24.4199310  20.9489310
  37.4679310  28.7329310  23.0829310  38.1469310  28.4529310  23.6969310
  37.5659310  29.6829310  23.0339310  37.5669310  28.8189310  23.1559310
  42.8819310  27.4689310  18.1699310  42.4989310  27.1599310  17.3489310
  43.1209310  28.3799310  17.9949310  42.8639310  27.5459310  18.0429310
  41.7089310  17.7389310  19.8519310  41.9539310  16.8639310  20.1529310
  41.4939310  18.2159310  20.6529310  41.7129310  17.6879310  19.9929310
  46.9409310  19.4879310  22.3899310  46.6469310  20.2029310  21.8259310
  46.6699310  19.7489310  23.2699310  46.8689310  19.6129310  22.4299310
  45.3949310  31.1439310  27.4719310  45.3309310  30.6239310  28.2739310
  45.9399310  31.8929310  27.7149310  45.4559310  31.1729310  27.6059310
  38.5469310  22.0039310  17.8859310  37.6219310  21.7609310  17.9239310
  38.5429310  22.9239310  17.6209310  38.4289310  22.0909310  17.8569310
  40.5159310  26.3569310  21.1749310  41.3389310  26.8429310  21.1369310
  40.5669310  25.8619310  21.9919310  40.6279310  26.3559310  21.2739310
  37.2069310  34.2319310  25.2509310  36.6649310  34.6549310  25.9179310
  38.1059310  34.4289310  25.5129310  37.2519310  34.3119310  25.3699310
  42.8109310  27.9939310  21.1769310  42.2879310  28.6969310  21.5629310
  42.8229310  28.1899310  20.2409310  42.7459310  28.1089310  21.1069310
  38.7479310  28.2969310  32.1709310  38.7099310  28.6139310  31.2689310
  37.8759310  27.9379310  32.3359310  38.6309310  28.2909310  32.0769310
  42.6559310  30.0369310  30.7459310  41.8729310  30.4429310  30.3769310
  42.3679310  29.1659310  31.0189310  42.5189310  29.9769310  30.7339310
  41.6819310  25.9939310  29.2249310  42.0069310  25.1909310  29.6319310
  40.8129310  25.7619310  28.8989310  41.6119310  25.8619310  29.2349310
  47.7939310  24.0759310  24.4539310  48.2919310  23.8689310  23.6629310
  47.9779310  25.0009310  24.6179310  47.8809310  24.1679310  24.3739310
  42.4189310  22.8219310  18.1949310  41.9379310  22.0049310  18.0639310
  42.8529310  22.9809310  17.3569310  42.4129310  22.7379310  18.0709310
  36.3829310  27.8589310  18.6529310  37.1499310  27.5359310  19.1279310
  35.6409310  27.6199310  19.2079310  36.3859310  27.7869310  18.7849310
  45.1149310  24.6719310  25.0769310  44.7079310  25.4319310  24.6609310
  45.9769310  24.6069310  24.6669310  45.1729310  24.7609310  24.9709310
  37.8059310  26.4019310  26.0619310  38.7629310  26.3859310  26.0429310
  37.5609310  25.5879310  26.5019310  37.8969310  26.2959310  26.1159310
  48.1089310  20.4119310  28.6009310  47.6549310  20.8539310  27.8829310
  47.5669310  20.5869310  29.3699310  47.9819310  20.4909310  28.6069310
  46.6479310  21.8879310  26.4109310  47.2739310  22.3379310  25.8439310
  46.5059310  21.0409310  25.9869310  46.7099310  21.8369310  26.2839310
  45.1829310  29.7649310  29.9099310  45.5759310  30.5859310  30.2059310
  44.2699310  29.8199310  30.1919310  45.1169310  29.8769310  29.9839310
  46.6719310  18.6329310  19.1669310  45.9129310  18.8809310  18.6389310
  47.2269310  19.4129310  19.1679310  46.6459310  18.7649310  19.0999310
  39.2069310  21.9259310  20.8839310  39.1169310  21.6549310  19.9709310
  38.3089310  22.0829310  21.1769310  39.0799310  21.9119310  20.8049310
  48.7939310  17.8169310  23.6799310  48.1319310  18.2229310  23.1199310
  49.4889310  17.5539310  23.0769310  48.7979310  17.8359310  23.5309310
  41.1529310  24.8419310  23.2839310  41.3409310  24.0899310  22.7219310
  42.0089310  25.2329310  23.4539310  41.2859310  24.7959310  23.2339310
  42.8089310  19.7019310  32.5239310  43.7309310  19.7779310  32.7679310
  42.3569310  20.3189310  33.0989310  42.8689310  19.7899310  32.6279310
  39.7999310  16.7119310  25.4429310  39.9709310  17.6329310  25.6419310
  40.3659310  16.2279310  26.0439310  39.8939310  16.7679310  25.5449310
  43.6029310  30.0489310  17.5669310  44.4469310  30.0109310  18.0179310
  43.8259310  30.2539310  16.6589310  43.7399310  30.0699310  17.5089310
  40.6539310  25.8389310  25.8359310  40.9109310  25.4209310  25.0139310
  40.7379310  25.1469310  26.4919310  40.6979310  25.6969310  25.8149310
  47.9659310  30.2939310  26.2949310  48.0639310  30.5409310  25.3749310
  47.1119310  30.6439310  26.5469310  47.8689310  30.3699310  26.2099310
  45.3559310  34.7079310  23.6339310  45.1709310  33.8809310  23.1879310
  45.0439310  35.3809310  23.0289310  45.2919310  34.6879310  23.4989310
  46.9439310  33.9429310  16.7239310  47.1019310  34.7819310  16.2909310
  47.2059310  34.0899310  17.6329310  46.9979310  34.0689310  16.7849310
  49.0539310  32.7199310  26.8339310  48.5099310  33.3199310  26.3229310
  48.6629310  31.8589310  26.6879310  48.9349310  32.6869310  26.7499310
  43.1459310  35.0879310  25.8069310  43.1119310  34.4009310  26.4719310
  43.6219310  34.6929310  25.0769310  43.2019310  34.9499310  25.7989310
  45.0249310  25.8159310  18.4949310  45.7549310  26.4359310  18.4839310
  44.2429310  26.3669310  18.4639310  45.0179310  25.9659310  18.4889310
  44.6569310  23.1969310  27.6109310  44.2079310  22.4429310  27.9929310
  45.3789310  22.8169310  27.1109310  44.6919310  23.0519310  27.5959310
  46.1919310  27.3209310  29.3229310  45.9159310  28.1449310  29.7249310
  47.1429310  27.3079310  29.4319310  46.2789310  27.4249310  29.3879310
  41.6799310  19.9339310  21.5939310  41.5319310  20.8769310  21.5159310
  40.8879310  19.6019310  22.0179310  41.5599310  20.0119310  21.6379310
  45.5479310  34.5439310  27.5719310  46.3379310  35.0819310  27.5179310
  44.9479310  34.9359310  26.9379310  45.5719310  34.6629310  27.4839310
  45.3309310  20.2779310  34.0129310  44.8649310  20.8759310  34.5969310
  45.9259310  20.8419310  33.5179310  45.3469310  20.4259310  34.0239310
  40.9359310  20.4229310  18.1889310  40.0189310  20.2079310  18.3549310
  41.4109310  20.0349310  18.9239310  40.8789310  20.3459310  18.3039310
  48.5379310  33.1739310  22.4239310  48.1699310  33.7549310  23.0889310
  49.4289310  33.4969310  22.2899310  48.6049310  33.2899310  22.4919310
  46.6429310  25.6109310  27.4089310  46.3749310  26.2539310  28.0659310
  45.8439310  25.4289310  26.9129310  46.5059310  25.6699310  27.4289310
  36.5409310  22.1499310  22.0719310  36.9409310  22.7349310  22.7159310
  36.0769310  22.7349310  21.4729310  36.5329310  22.2999310  22.0779310
  46.6199310  23.9449310  29.9709310  46.4569310  24.2539310  29.0799310
  45.7589310  23.6809310  30.2939310  46.4889310  23.9509310  29.8989310
  46.8419310  18.1659310  34.1089310  46.8389310  17.8759310  33.1969310
  46.1699310  18.8469310  34.1459310  46.7549310  18.2159310  33.9969310
  38.5009310  16.8289310  18.1169310  38.5019310  17.5709310  18.7209310
  39.0049310  17.1329310  17.3629310  38.5659310  16.9629310  18.0979310
  39.4169310  28.8649310  18.4009310  39.5029310  28.8139310  17.4489310
  38.8639310  29.6329310  18.5499310  39.3569310  28.9569310  18.2979310
  46.5519310  27.6079310  32.5069310  45.7339310  27.4519310  32.0359310
  46.5999310  28.5599310  32.5959310  46.4539310  27.7099310  32.4579310
  40.0269310  28.2429310  24.3659310  39.9399310  29.0229310  24.9149310
  40.0989310  27.5189310  24.9889310  40.0249310  28.2499310  24.5159310
  35.6579310  19.3269310  19.5709310  35.6009310  19.0729310  18.6499310
  35.1099310  20.1089310  19.6389310  35.5809310  19.3949310  19.4619310
  41.2109310  16.8999310  23.0019310  40.8059310  16.5689310  23.8039310
  41.3179310  16.1259310  22.4499310  41.1729310  16.7589310  23.0339310
  41.7539310  22.9459310  20.8879310  42.1269310  22.8809310  20.0089310
  40.8489310  22.6499310  20.7869310  41.6859310  22.8989310  20.7629310
  41.4529310  30.1029310  19.3219310  40.7209310  29.6139310  18.9459310
  42.1129310  30.1159310  18.6299310  41.4429310  30.0419310  19.1859310
  43.8989310  19.8429310  23.2729310  43.0469310  19.7049310  22.8609310
  43.9489310  20.7899310  23.4089310  43.7969310  19.9469310  23.2379310
  44.9439310  23.5139310  16.5119310  44.9249310  24.1639310  17.2139310
  45.2989310  22.7259310  16.9239310  44.9869310  23.4969310  16.6539310
  40.3139310  30.8119310  29.2909310  39.7439310  31.4989310  29.6379310
  39.8619310  29.9959310  29.5049310  40.1829310  30.7959310  29.3629310
  46.9059310  32.3929310  20.3819310  46.2209310  32.3209310  21.0469310
  47.7039310  32.5709310  20.8789310  46.9199310  32.4059310  20.5309310
  44.6169310  18.0169310  21.3639310  44.3919310  18.8019310  21.8629310
  45.5159310  18.1689310  21.0719310  44.7039310  18.1369310  21.3909310
  46.9519310  18.0039310  31.3679310  46.6919310  17.2279310  30.8709310
  47.9079310  18.0089310  31.3199310  47.0409310  17.9049310  31.2979310
  47.9149310  31.3649310  16.6289310  47.5149310  32.2329310  16.6789310
  47.4389310  30.8439310  17.2759310  47.8029310  31.4099310  16.7179310
  43.8719310  20.1519310  26.6489310  43.0209310  19.7209310  26.5619310
  43.9709310  20.2989310  27.5899310  43.7749310  20.1159310  26.7579310
  42.5029310  17.1729310  33.7999310  41.9499310  17.4839310  34.5159310
  42.5639310  17.9189310  33.2029310  42.4399310  17.3079310  33.8149310
  41.2939310  29.6859310  22.4849310  40.6579310  29.2309310  23.0359310
  40.8059310  30.4199310  22.1119310  41.1509310  29.7219310  22.5079310
  47.1719310  31.3569310  30.6899310  46.9689310  31.0469310  31.5719310
  47.6859310  30.6489310  30.2999310  47.2119310  31.2259310  30.7529310
  43.5839310  31.3269310  33.4719310  43.1969310  30.9619310  32.6759310
  42.9359310  31.9559310  33.7869310  43.4509310  31.3599310  33.4109310
  48.1009310  34.7539310  19.4039310  47.5849310  34.0689310  19.8299310
  47.6179310  35.5609310  19.5779310  47.9729310  34.7689310  19.4809310
  40.0099310  19.5649310  27.5189310  40.4619310  18.9859310  28.1329310
  40.5729310  19.5799310  26.7459310  40.1399310  19.4929310  27.4989310
  47.8379310  36.2969310  27.7049310  48.6129310  36.1409310  27.1659310
  47.8069310  37.2479310  27.8109310  47.9329310  36.3989310  27.6499310
  44.4079310  32.7089310  21.9339310  44.1699310  31.8959310  22.3779310
  43.6029310  32.9869310  21.4969310  44.2749310  32.6409310  21.9349310
  39.0089310  28.4229310  29.3629310  38.5479310  28.7669310  28.5979310
  39.0899310  27.4849310  29.1909310  38.9599310  28.3469310  29.2429310
  37.2049310  26.0639310  21.5479310  38.1609310  26.0959310  21.5749310
  36.9339310  26.9809310  21.5859310  37.2929310  26.1849310  21.5559310
  42.0449310  21.5229310  34.4909310  41.2799310  21.1259310  34.9089310
  41.7909310  22.4339310  34.3429310  41.9139310  21.5889310  34.5259310
  38.5639310  19.3539310  19.5189310  38.8719310  19.4189310  20.4229310
  37.6459310  19.0959310  19.5979310  38.4859310  19.3289310  19.6449310
  47.8729310  23.6149310  21.9029310  48.4929310  24.0589310  21.3239310
  47.0629310  24.1189310  21.8179310  47.8489310  23.7369310  21.8179310
  34.4929310  29.6669310  17.8639310  35.1209310  29.1439310  18.3629310
  34.9869310  29.9729310  17.1029310  34.6369310  29.6389310  17.8309310
  40.1649310  31.7509310  21.1349310  39.4649310  32.1489310  20.6179310
  40.5969310  31.1479310  20.5289310  40.1309310  31.7249310  20.9909310
  48.7659310  29.6939310  28.9569310  48.5929310  29.6169310  28.0189310
  49.5489310  30.2409310  29.0119310  48.8439310  29.7539310  28.8439310
  43.5839310  26.0779310  23.2759310  44.0979310  25.4779310  22.7359310
  43.3099310  26.7679310  22.6719310  43.6139310  26.0889310  23.1299310
  49.6259310  19.3069310  30.8349310  49.3389310  20.1329310  31.2259310
  49.4029310  19.3909310  29.9079310  49.5599310  19.4239310  30.7669310
  36.0709310  33.4329310  17.3219310  36.6279310  32.6739310  17.4939310
  36.6389310  34.1869310  17.4779310  36.2149310  33.4319310  17.3639310
  48.0199310  27.4189310  34.6289310  47.2089310  27.4569310  34.1219310
  48.3839310  26.5559310  34.4339310  47.9629310  27.3139310  34.5389310
  41.3599310  19.4619310  25.1869310  41.1819310  20.0519310  24.4549310
  41.8449310  18.7349310  24.7969310  41.3989310  19.4449310  25.0439310
  34.9649310  26.0519310  23.7639310  35.5619310  26.3079310  23.0599310
  35.2679310  26.5469310  24.5259310  35.0799310  26.1479310  23.7709310
  37.6459310  29.5589310  27.5689310  37.9049310  30.2519310  26.9609310
  36.7739310  29.8179310  27.8679310  37.5679310  29.6809310  27.5289310
  44.2639310  24.0599310  32.4549310  43.5099310  23.7299310  31.9659310
  44.0629310  23.8619310  33.3689310  44.1419310  23.9919310  32.5089310
  47.8139310  23.3829310  34.5239310  47.0299310  23.3439310  35.0719310
  48.4509310  22.8319310  34.9779310  47.7949310  23.3079310  34.6519310
  49.6739310  34.1759310  29.2019310  49.2009310  35.0089310  29.1949310
  49.1429310  33.5949310  28.6579310  49.5449310  34.2079310  29.1319310
  41.7859310  18.8469310  11.1859310  42.0139310  18.8189310  12.1149310
  41.1569310  18.1349310  11.0729310  41.7349310  18.7519310  11.2909310
  39.1849310  33.0329310  11.4459310  38.2309310  32.9649310  11.4139310
  39.3739310  33.3399310  12.3319310  39.0869310  33.0639310  11.5549310
  43.9499310  30.4769310   4.6089310  43.7759310  30.6379310   5.5369310
  43.1849310  29.9909310   4.3029310  43.8299310  30.4349310   4.6889310
  39.7019310  17.1329310  10.6919310  39.1419310  17.5809310  11.3259310
  39.5559310  16.2019310  10.8589310  39.6119310  17.0709310  10.7939310
  43.9159310  20.5829310  10.5449310  43.3129310  19.9419310  10.9199310
  44.7049310  20.5139310  11.0829310  43.9399310  20.4929310  10.6619310
  44.4539310  17.0199310  16.8229310  45.3459310  16.7909310  16.5589310
  43.9319310  16.8989310  16.0299310  44.5019310  16.9759310  16.6879310
  37.4079310  31.6299310   4.9029310  37.4459310  32.5229310   4.5589310
  36.6089310  31.6089310   5.4289310  37.3109310  31.7419310   4.9259310
  46.3389310  20.4089310  11.8129310  46.5169310  19.5269310  12.1389310
  46.6579310  20.9889310  12.5049310  46.4029310  20.3699310  11.9439310
  46.0269310  28.4049310   4.0589310  45.6009310  27.7979310   3.4549310
  45.3639310  29.0719310   4.2369310  45.8879310  28.4129310   4.0049310
  44.2289310  26.6439310  12.5849310  44.1009310  25.7789310  12.9739310
  44.6719310  26.4689310  11.7539310  44.2689310  26.5109310  12.5279310
  35.3529310  20.9739310  11.1419310  35.6299310  21.5429310  11.8599310
  34.7509310  20.3509310  11.5489310  35.3119310  20.9669310  11.2859310
  36.2259310  27.3109310  13.7349310  35.3049310  27.0909310  13.5949310
  36.3059310  27.4179310  14.6819310  36.1179310  27.2959310  13.8379310
  47.8159310  30.9999310   4.9399310  47.9919310  31.8499310   4.5369310
  47.0569310  30.6629310   4.4659310  47.7419310  31.0659310   4.8279310
  47.6059310  34.3249310   6.1919310  48.1919310  35.0619310   6.0169310
  46.8239310  34.5109310   5.6729310  47.5809310  34.4429310   6.1029310
  39.9279310  21.5799310   4.7119310  39.5209310  21.5789310   3.8449310
  39.4419310  22.2429310   5.2029310  39.8139310  21.6649310   4.6639310
  38.0469310  17.9759310  12.7299310  38.2539310  18.8739310  12.9869310
  37.6909310  17.5749310  13.5229310  38.0279310  18.0389310  12.8639310
  39.3549310  18.7669310   3.4299310  38.5969310  18.7539310   4.0149310
  39.8869310  18.0229310   3.7109310  39.3259310  18.6699310   3.5409310
  46.3949310  22.4649310  13.7289310  46.9809310  22.7779310  14.4179310
  45.6689310  23.0899310  13.7289310  46.3769310  22.5849310  13.8169310
  44.0149310  22.9659310   3.2609310  43.1899310  22.9479310   2.7759310
  43.7639310  22.7799310   4.1659310  43.8769310  22.9399310   3.3149310
  41.1289310  32.6309310   7.8779310  40.8679310  32.2559310   8.7189310
  41.8599310  32.0859310   7.5889310  41.1889310  32.5129310   7.9479310
  39.3669310  30.8239310   6.5929310  38.6429310  31.1269310   6.0449310
  39.9609310  31.5739310   6.6409310  39.3509310  30.9589310   6.5289310
  35.9159310  20.9779310  16.7829310  35.7179310  21.0589310  15.8509310
  35.1219310  21.2809310  17.2239310  35.7889310  21.0269310  16.7199310
  41.9899310  23.5409310   8.2059310  42.8709310  23.8329310   8.4379310
  42.0759310  23.2069310   7.3129310  42.1139310  23.5359310   8.1209310
  35.8839310  30.0039310  15.5399310  35.1219310  30.5719310  15.4229310
  36.0889310  29.6939310  14.6579310  35.8119310  30.0369310  15.4119310
  37.9549310  31.2989310  16.8769310  38.4379310  31.8599310  16.2699310
  37.5119310  30.6629310  16.3159310  37.9599310  31.2899310  16.7279310
  41.5809310  33.0349310  15.6749310  42.1549310  32.9479310  16.4359310
  41.5389310  33.9769310  15.5129310  41.6489310  33.1439310  15.7509310
  46.2869310  19.3599310   6.3899310  45.3349310  19.2969310   6.4609310
  46.6149310  18.6319310   6.9179310  46.2069310  19.2589310   6.4669310
  41.9359310  26.8889310  15.5759310  41.7789310  25.9449310  15.5399310
  41.8469310  27.1809310  14.6689310  41.9039310  26.8049310  15.4549310
  49.2529310  25.8699310   9.4319310  48.3779310  25.6129310   9.1419310
  49.6049310  25.0869310   9.8559310  49.1859310  25.7369310   9.4489310
  38.9619310  32.7859310  14.5899310  38.7099310  33.6899310  14.7809310
  39.8669310  32.7209310  14.8929310  39.0459310  32.8939310  14.6529310
  36.1639310  17.7749310   8.1449310  36.9979310  18.2289310   8.0209310
  35.5759310  18.1739310   7.5049310  36.1959310  17.8839310   8.0479310
  37.2629310  16.9079310  15.1569310  36.4299310  16.4809310  15.3579310
  37.2299310  17.7349310  15.6369310  37.1519310  16.9589310  15.2439310
  43.5979310  22.3699310   5.8949310  43.6839310  21.5859310   6.4379310
  44.0379310  23.0569310   6.3949310  43.6649310  22.3579310   6.0279310
  36.6729310  34.5919310   2.4139310  35.8919310  34.4609310   1.8759310
  36.6429310  35.5169310   2.6579310  36.5689310  34.6939310   2.3759310
  46.7239310  30.3939310  14.3649310  47.3059310  30.2299310  15.1059310
  46.1309310  31.0799310  14.6729310  46.7219310  30.4609310  14.4989310
  43.0259310  30.8579310   7.1039310  42.5459310  30.0499310   7.2809310
  43.7559310  30.8439310   7.7229310  43.0579310  30.7529310   7.2059310
  42.5689310  23.3589310  11.4909310  41.7239310  23.0389310  11.8079310
  43.0419310  22.5679310  11.2319310  42.5209310  23.2169310  11.4989310
  39.4959310  28.5449310  15.8249310  40.3069310  28.0569310  15.6829310
  39.2269310  28.8219310  14.9489310  39.5649310  28.5179310  15.6939310
  41.7579310  27.5849310  12.8529310  42.6379310  27.2119310  12.8009310
  41.2199310  27.0039310  12.3159310  41.8019310  27.4629310  12.7779310
  48.2019310  25.8419310  12.5019310  47.6449310  25.4479310  11.8299310
  47.6259310  26.4519310  12.9619310  48.0569310  25.8699310  12.4749310
  46.0289310  21.8289310   2.0349310  45.2059310  22.1119310   2.4309310
  46.7069310  22.2149310   2.5899310  46.0109310  21.9139310   2.1569310
  39.0409310  25.4199310  10.1279310  38.6639310  25.2929310  10.9979310
  38.4779310  24.9089310   9.5459310  38.9209310  25.3389310  10.1649310
  48.0479310  26.9299310   5.5829310  48.5929310  27.4309310   6.1899310
  47.3539310  27.5369310   5.3259310  48.0289310  27.0709310   5.6279310
  36.0309310  28.4959310   6.4039310  36.4249310  28.4259310   5.5339310
  36.6429310  28.0409310   6.9809310  36.1599310  28.4289310   6.3659310
  39.1889310  19.8929310  16.2179310  39.0359310  20.1729310  15.3159310
  38.9519310  20.6529310  16.7489310  39.1389310  20.0259310  16.1709310
  46.6879310  34.0189310  11.3729310  46.1389310  33.9499310  10.5929310
  47.0519310  33.1419310  11.4889310  46.6649310  33.8979310  11.2879310
  41.1219310  24.0139310  15.3239310  41.0069310  23.7299310  14.4169310
  40.2309310  24.1169310  15.6569310  40.9929310  23.9909310  15.2499310
  40.1669310  22.3409310  10.1699310  39.5769310  21.6019310  10.0179310
  40.7789310  22.3129310   9.4349310  40.1699310  22.2429310  10.0559310
  41.5519310  28.5329310   8.2019310  41.5119310  27.5779310   8.1649310
  41.0969310  28.7609310   9.0119310  41.4889310  28.4399310   8.3009310
  49.5169310  25.1859310  14.8839310  48.8259310  24.5459310  15.0519310
  49.3089310  25.5419310  14.0209310  49.4019310  25.1489310  14.7949310
  35.1349310  24.2879310   2.0209310  35.7999310  24.8879310   2.3589310
  34.3029310  24.7219310   2.2099310  35.1139310  24.4199310   2.0889310
  37.4679310  28.7329310   4.2229310  38.1469310  28.4529310   4.8369310
  37.5659310  29.6829310   4.1739310  37.5669310  28.8189310   4.2959310
  37.1379310  18.9239310   4.9879310  36.8999310  18.1049310   4.5539310
  36.3769310  19.4919310   4.8609310  37.0099310  18.8919310   4.9159310
  46.9409310  19.4879310   3.5299310  46.6469310  20.2029310   2.9659310
  46.6699310  19.7489310   4.4099310  46.8689310  19.6129310   3.5699310
  45.3949310  31.1439310   8.6119310  45.3309310  30.6239310   9.4139310
  45.9399310  31.8929310   8.8549310  45.4559310  31.1729310   8.7459310
  40.5159310  26.3569310   2.3149310  41.3389310  26.8429310   2.2769310
  40.5669310  25.8619310   3.1319310  40.6279310  26.3559310   2.4139310
  37.2069310  34.2319310   6.3909310  36.6649310  34.6549310   7.0579310
  38.1059310  34.4289310   6.6529310  37.2519310  34.3119310   6.5099310
  38.7479310  28.2969310  13.3109310  38.7099310  28.6139310  12.4089310
  37.8759310  27.9379310  13.4759310  38.6309310  28.2909310  13.2169310
  42.6559310  30.0369310  11.8859310  41.8729310  30.4429310  11.5169310
  42.3679310  29.1659310  12.1589310  42.5189310  29.9769310  11.8739310
  36.3939310  32.0489310   8.6289310  37.0489310  32.4099310   8.0319310
  35.7159310  31.6939310   8.0539310  36.3909310  32.0499310   8.4789310
  41.6819310  25.9939310  10.3649310  42.0069310  25.1909310  10.7719310
  40.8129310  25.7619310  10.0389310  41.6119310  25.8619310  10.3749310
  37.2979310  26.9279310  16.3339310  38.1009310  27.4379310  16.2239310
  36.8479310  27.3459310  17.0679310  37.3429310  27.0469310  16.4139310
  47.7939310  24.0759310   5.5939310  48.2919310  23.8689310   4.8029310
  47.9779310  25.0009310   5.7579310  47.8809310  24.1679310   5.5139310
  35.7209310  21.6149310   8.4889310  36.5189310  21.2649310   8.0939310
  35.7009310  21.2349310   9.3669310  35.8199310  21.5209310   8.5509310
  45.1149310  24.6719310   6.2169310  44.7079310  25.4319310   5.8009310
  45.9769310  24.6069310   5.8069310  45.1729310  24.7609310   6.1109310
  37.8059310  26.4019310   7.2019310  38.7629310  26.3859310   7.1829310
  37.5609310  25.5879310   7.6419310  37.8969310  26.2959310   7.2559310
  48.1089310  20.4119310   9.7409310  47.6549310  20.8539310   9.0229310
  47.5669310  20.5869310  10.5099310  47.9819310  20.4909310   9.7469310
  46.6479310  21.8879310   7.5509310  47.2739310  22.3379310   6.9839310
  46.5059310  21.0409310   7.1269310  46.7099310  21.8369310   7.4239310
  45.1829310  29.7649310  11.0499310  45.5759310  30.5859310  11.3459310
  44.2699310  29.8199310  11.3319310  45.1169310  29.8769310  11.1239310
  48.7939310  17.8169310   4.8199310  48.1319310  18.2229310   4.2599310
  49.4889310  17.5539310   4.2169310  48.7979310  17.8359310   4.6709310
  41.1529310  24.8419310   4.4239310  41.3409310  24.0899310   3.8619310
  42.0089310  25.2329310   4.5939310  41.2859310  24.7959310   4.3739310
  42.8089310  19.7019310  13.6639310  43.7309310  19.7779310  13.9079310
  42.3569310  20.3189310  14.2389310  42.8689310  19.7899310  13.7679310
  39.7999310  16.7119310   6.5829310  39.9709310  17.6329310   6.7819310
  40.3659310  16.2279310   7.1839310  39.8939310  16.7679310   6.6849310
  40.6539310  25.8389310   6.9759310  40.9109310  25.4209310   6.1539310
  40.7379310  25.1469310   7.6319310  40.6979310  25.6969310   6.9549310
  47.9659310  30.2939310   7.4349310  48.0639310  30.5409310   6.5149310
  47.1119310  30.6439310   7.6869310  47.8689310  30.3699310   7.3499310
  45.3559310  34.7079310   4.7739310  45.1709310  33.8809310   4.3279310
  45.0439310  35.3809310   4.1689310  45.2919310  34.6879310   4.6389310
  49.0539310  32.7199310   7.9739310  48.5099310  33.3199310   7.4629310
  48.6629310  31.8589310   7.8279310  48.9349310  32.6869310   7.8899310
  43.1459310  35.0879310   6.9469310  43.1119310  34.4009310   7.6119310
  43.6219310  34.6929310   6.2169310  43.2019310  34.9499310   6.9389310
  44.6569310  23.1969310   8.7509310  44.2079310  22.4429310   9.1329310
  45.3789310  22.8169310   8.2509310  44.6919310  23.0519310   8.7359310
  46.1919310  27.3209310  10.4629310  45.9159310  28.1449310  10.8649310
  47.1429310  27.3079310  10.5719310  46.2789310  27.4249310  10.5279310
  41.6799310  19.9339310   2.7339310  41.5319310  20.8769310   2.6559310
  40.8879310  19.6019310   3.1579310  41.5599310  20.0119310   2.7779310
  45.5479310  34.5439310   8.7119310  46.3379310  35.0819310   8.6579310
  44.9479310  34.9359310   8.0779310  45.5719310  34.6629310   8.6239310
  45.3309310  20.2779310  15.1529310  44.8649310  20.8759310  15.7369310
  45.9259310  20.8419310  14.6579310  45.3469310  20.4259310  15.1639310
  37.5779310  25.1689310  12.5999310  36.8989310  25.8079310  12.8199310
  37.1689310  24.3199310  12.7629310  37.4379310  25.1419310  12.6489310
  48.5379310  33.1739310   3.5639310  48.1699310  33.7549310   4.2289310
  49.4289310  33.4969310   3.4299310  48.6049310  33.2899310   3.6319310
  35.7259310  18.0779310  11.1819310  36.5879310  18.0389310  11.5959310
  35.9119310  18.2279310  10.2549310  35.8599310  18.0919310  11.1159310
  46.6429310  25.6109310   8.5489310  46.3749310  26.2539310   9.2059310
  45.8439310  25.4289310   8.0529310  46.5059310  25.6699310   8.5689310
  35.1849310  23.2489310  15.1689310  34.5849310  23.9819310  15.3099310
  35.7319310  23.2319310  15.9549310  35.1779310  23.3409310  15.2879310
  36.5409310  22.1499310   3.2119310  36.9409310  22.7349310   3.8559310
  36.0769310  22.7349310   2.6129310  36.5329310  22.2999310   3.2179310
  46.6199310  23.9449310  11.1109310  46.4569310  24.2539310  10.2199310
  45.7589310  23.6809310  11.4339310  46.4889310  23.9509310  11.0389310
  46.8419310  18.1659310  15.2489310  46.8389310  17.8759310  14.3369310
  46.1699310  18.8469310  15.2859310  46.7549310  18.2159310  15.1369310
  46.5519310  27.6079310  13.6469310  45.7339310  27.4519310  13.1759310
  46.5999310  28.5599310  13.7359310  46.4539310  27.7099310  13.5979310
  36.9309310  24.0859310   8.3999310  36.1519310  24.5919310   8.6309310
  36.6689310  23.1729310   8.5229310  36.7979310  24.0339310   8.4449310
  40.0269310  28.2429310   5.5059310  39.9399310  29.0229310   6.0549310
  40.0989310  27.5189310   6.1289310  40.0249310  28.2499310   5.6559310
  40.1289310  23.3839310  12.6899310  40.0379310  23.2639310  11.7449310
  39.4049310  23.9619310  12.9279310  40.0249310  23.4429310  12.5989310
  41.2109310  16.8999310   4.1419310  40.8059310  16.5689310   4.9439310
  41.3179310  16.1259310   3.5899310  41.1729310  16.7589310   4.1739310
  43.8989310  19.8429310   4.4129310  43.0469310  19.7049310   4.0009310
  43.9489310  20.7899310   4.5489310  43.7969310  19.9469310   4.3779310
  36.3989310  33.4479310  11.0329310  36.1059310  33.1749310  10.1629310
  36.0909310  34.3499310  11.1169310  36.3219310  33.5279310  10.9319310
  38.7709310  20.5109310  13.6039310  39.5619310  20.5439310  13.0669310
  38.4109310  21.3969310  13.5559310  38.8259310  20.6279310  13.5289310
  40.3139310  30.8119310  10.4309310  39.7439310  31.4989310  10.7779310
  39.8619310  29.9959310  10.6449310  40.1829310  30.7959310  10.5029310
  44.6169310  18.0169310   2.5039310  44.3919310  18.8019310   3.0029310
  45.5159310  18.1689310   2.2119310  44.7039310  18.1369310   2.5309310
  46.9519310  18.0039310  12.5079310  46.6919310  17.2279310  12.0109310
  47.9079310  18.0089310  12.4599310  47.0409310  17.9049310  12.4379310
  43.8719310  20.1519310   7.7889310  43.0209310  19.7209310   7.7019310
  43.9709310  20.2989310   8.7299310  43.7749310  20.1159310   7.8979310
  42.5029310  17.1729310  14.9399310  41.9499310  17.4839310  15.6559310
  42.5639310  17.9189310  14.3429310  42.4399310  17.3079310  14.9549310
  41.2939310  29.6859310   3.6249310  40.6579310  29.2309310   4.1759310
  40.8059310  30.4199310   3.2519310  41.1509310  29.7219310   3.6479310
  47.1719310  31.3569310  11.8299310  46.9689310  31.0469310  12.7119310
  47.6859310  30.6489310  11.4399310  47.2119310  31.2259310  11.8929310
  43.5839310  31.3269310  14.6119310  43.1969310  30.9619310  13.8159310
  42.9359310  31.9559310  14.9269310  43.4509310  31.3599310  14.5509310
  35.9439310  30.6809310  11.9809310  35.5619310  31.5239310  12.2249310
  36.7679310  30.9069310  11.5499310  35.9999310  30.8179310  11.9569310
  37.8469310  20.3069310   7.4029310  37.7529310  19.8399310   6.5729310
  38.6699310  19.9839310   7.7679310  37.9399310  20.2059310   7.3439310
  40.0099310  19.5649310   8.6589310  40.4619310  18.9859310   9.2729310
  40.5729310  19.5799310   7.8859310  40.1399310  19.4929310   8.6389310
  36.5919310  22.6649310  12.9279310  36.0259310  23.0259310  12.2459310
  36.0959310  22.7809310  13.7379310  36.4559310  22.7259310  12.9439310
  47.8379310  36.2969310   8.8449310  48.6129310  36.1409310   8.3059310
  47.8069310  37.2479310   8.9509310  47.9329310  36.3989310   8.7899310
  44.4079310  32.7089310   3.0739310  44.1699310  31.8959310   3.5179310
  43.6029310  32.9869310   2.6369310  44.2749310  32.6409310   3.0749310
  39.0089310  28.4229310  10.5029310  38.5479310  28.7669310   9.7379310
  39.0899310  27.4849310  10.3309310  38.9599310  28.3469310  10.3829310
  37.2049310  26.0639310   2.6879310  38.1609310  26.0959310   2.7149310
  36.9339310  26.9809310   2.7259310  37.2929310  26.1849310   2.6959310
  42.0449310  21.5229310  15.6309310  41.2799310  21.1259310  16.0489310
  41.7909310  22.4339310  15.4829310  41.9139310  21.5889310  15.6659310
  47.8729310  23.6149310   3.0429310  48.4929310  24.0589310   2.4639310
  47.0629310  24.1189310   2.9579310  47.8489310  23.7369310   2.9579310
  40.1649310  31.7509310   2.2749310  39.4649310  32.1489310   1.7579310
  40.5969310  31.1479310   1.6689310  40.1309310  31.7249310   2.1309310
  48.7659310  29.6939310  10.0969310  48.5929310  29.6169310   9.1589310
  49.5489310  30.2409310  10.1519310  48.8439310  29.7539310   9.9839310
  43.5839310  26.0779310   4.4159310  44.0979310  25.4779310   3.8759310
  43.3099310  26.7679310   3.8119310  43.6139310  26.0889310   4.2699310
  48.0199310  27.4189310  15.7689310  47.2089310  27.4569310  15.2619310
  48.3839310  26.5559310  15.5739310  47.9629310  27.3139310  15.6789310
  41.3599310  19.4619310   6.3269310  41.1819310  20.0519310   5.5949310
  41.8449310  18.7349310   5.9369310  41.3989310  19.4449310   6.1839310
  34.9649310  26.0519310   4.9039310  35.5619310  26.3079310   4.1999310
  35.2679310  26.5469310   5.6659310  35.0799310  26.1479310   4.9109310
  37.6459310  29.5589310   8.7089310  37.9049310  30.2519310   8.1009310
  36.7739310  29.8179310   9.0079310  37.5679310  29.6809310   8.6689310
  44.2639310  24.0599310  13.5949310  43.5099310  23.7299310  13.1059310
  44.0629310  23.8619310  14.5089310  44.1419310  23.9919310  13.6489310
  47.8139310  23.3829310  15.6639310  47.0299310  23.3439310  16.2119310
  48.4509310  22.8319310  16.1179310  47.7949310  23.3079310  15.7919310
  49.6739310  34.1759310  10.3419310  49.2009310  35.0089310  10.3349310
  49.1429310  33.5949310   9.7979310  49.5449310  34.2079310  10.2719310
  39.1849310  14.1659310  49.1659310  38.2309310  14.0979310  49.1339310
  39.3739310  14.4729310  50.0519310  39.0869310  14.1969310  49.2749310
  43.9499310  11.6099310  42.3289310  43.7759310  11.7709310  43.2569310
  43.1849310  11.1239310  42.0229310  43.8299310  11.5679310  42.4089310
  40.5209310   6.5069310  37.6599310  40.3669310   6.9639310  38.4869310
  41.2329310   5.8969310  37.8519310  40.5919310   6.4869310  37.7899310
  37.4079310  12.7629310  42.6229310  37.4459310  13.6559310  42.2789310
  36.6089310  12.7419310  43.1489310  37.3109310  12.8749310  42.6459310
  42.1189310  14.5529310  39.3119310  41.3199310  14.0259310  39.3219310
  42.4629310  14.4499310  38.4249310  42.0609310  14.4719310  39.1999310
  46.0269310   9.5379310  41.7789310  45.6009310   8.9309310  41.1749310
  45.3639310  10.2049310  41.9569310  45.8879310   9.5459310  41.7249310
  47.1049310   8.7289310  37.3239310  47.8749310   8.7499310  37.8909310
  47.4239310   8.3619310  36.4999310  47.2439310   8.6849310  37.2909310
  47.8159310  12.1329310  42.6599310  47.9919310  12.9829310  42.2569310
  47.0569310  11.7959310  42.1859310  47.7419310  12.1989310  42.5479310
  47.6059310  15.4579310  43.9119310  48.1919310  16.1949310  43.7369310
  46.8239310  15.6439310  43.3929310  47.5809310  15.5759310  43.8229310
  39.9279310   2.7129310  42.4319310  39.5209310   2.7119310  41.5649310
  39.4419310   3.3759310  42.9229310  39.8139310   2.7979310  42.3839310
  44.0149310   4.0989310  40.9809310  43.1899310   4.0809310  40.4959310
  43.7639310   3.9129310  41.8859310  43.8769310   4.0729310  41.0349310
  41.1289310  13.7639310  45.5979310  40.8679310  13.3889310  46.4389310
  41.8599310  13.2189310  45.3089310  41.1889310  13.6459310  45.6679310
  39.3669310  11.9569310  44.3129310  38.6429310  12.2599310  43.7649310
  39.9609310  12.7069310  44.3609310  39.3509310  12.0919310  44.2489310
  38.8399310   5.7209310  35.6509310  38.2369310   6.4579310  35.5549310
  39.4689310   6.0109310  36.3119310  38.8429310   5.8519310  35.7229310
  43.2669310  14.1829310  36.9439310  43.7259310  13.3609310  37.1159310
  43.9649310  14.8229310  36.8049310  43.4149310  14.1599310  36.9479310
  41.9899310   4.6739310  45.9259310  42.8709310   4.9659310  46.1579310
  42.0759310   4.3399310  45.0329310  42.1139310   4.6689310  45.8409310
  46.1429310  11.3299310  37.3979310  46.4469310  10.4369310  37.5539310
  46.6699310  11.8699310  37.9869310  46.2489310  11.2849310  37.4929310
  48.7659310   1.8179310  37.9739310  48.8699310   2.1619310  38.8609310
  48.6359310   2.5939310  37.4289310  48.7629310   1.9609310  38.0179310
  49.2529310   7.0029310  47.1519310  48.3779310   6.7459310  46.8619310
  49.6049310   6.2199310  47.5759310  49.1859310   6.8699310  47.1689310
  43.5979310   3.5029310  43.6149310  43.6839310   2.7189310  44.1579310
  44.0379310   4.1899310  44.1149310  43.6649310   3.4909310  43.7479310
  36.6729310  15.7249310  40.1339310  35.8919310  15.5939310  39.5959310
  36.6429310  16.6499310  40.3779310  36.5689310  15.8269310  40.0959310
  43.0259310  11.9909310  44.8239310  42.5459310  11.1829310  45.0009310
  43.7559310  11.9769310  45.4429310  43.0579310  11.8859310  44.9259310
  45.8309310   2.8439310  37.0909310  45.2049310   2.1199310  37.1149310
  46.0489310   3.0029310  38.0089310  45.7789310   2.7719310  37.2109310
  42.5689310   4.4919310  49.2109310  41.7239310   4.1719310  49.5279310
  43.0419310   3.7009310  48.9519310  42.5209310   4.3499310  49.2189310
  38.4039310  14.2499310  38.6679310  37.8219310  14.7479310  39.2409310
  38.6329310  14.8609310  37.9679310  38.3589310  14.3919310  38.6519310
  46.0289310   2.9619310  39.7549310  45.2059310   3.2449310  40.1509310
  46.7069310   3.3479310  40.3099310  46.0109310   3.0469310  39.8769310
  39.0409310   6.5529310  47.8479310  38.6639310   6.4259310  48.7179310
  38.4779310   6.0419310  47.2659310  38.9209310   6.4719310  47.8849310
  48.0479310   8.0629310  43.3029310  48.5929310   8.5639310  43.9099310
  47.3539310   8.6699310  43.0459310  48.0289310   8.2039310  43.3479310
  36.0309310   9.6289310  44.1239310  36.4249310   9.5589310  43.2539310
  36.6429310   9.1739310  44.7009310  36.1599310   9.5619310  44.0859310
  45.5019310   6.1729310  39.9749310  44.8299310   5.4919310  40.0049310
  45.5809310   6.3899310  39.0459310  45.4259310   6.1139310  39.8599310
  46.6879310  15.1519310  49.0929310  46.1389310  15.0829310  48.3129310
  47.0519310  14.2749310  49.2089310  46.6649310  15.0309310  49.0079310
  40.1669310   3.4739310  47.8899310  39.5769310   2.7349310  47.7379310
  40.7789310   3.4459310  47.1549310  40.1699310   3.3759310  47.7759310
  41.5519310   9.6659310  45.9219310  41.5119310   8.7109310  45.8849310
  41.0969310   9.8939310  46.7319310  41.4889310   9.5729310  46.0209310
  35.1349310   5.4209310  39.7409310  35.7999310   6.0209310  40.0789310
  34.3029310   5.8549310  39.9299310  35.1139310   5.5529310  39.8089310
  37.4679310   9.8659310  41.9429310  38.1469310   9.5859310  42.5569310
  37.5659310  10.8159310  41.8939310  37.5669310   9.9519310  42.0159310
  42.8819310   8.6019310  37.0299310  42.4989310   8.2929310  36.2089310
  43.1209310   9.5129310  36.8549310  42.8639310   8.6789310  36.9029310
  45.3949310  12.2769310  46.3319310  45.3309310  11.7569310  47.1339310
  45.9399310  13.0259310  46.5749310  45.4559310  12.3059310  46.4659310
  38.5469310   3.1369310  36.7459310  37.6219310   2.8939310  36.7839310
  38.5429310   4.0569310  36.4809310  38.4289310   3.2239310  36.7169310
  40.5159310   7.4899310  40.0349310  41.3389310   7.9759310  39.9969310
  40.5669310   6.9949310  40.8519310  40.6279310   7.4889310  40.1339310
  37.2069310  15.3649310  44.1109310  36.6649310  15.7879310  44.7779310
  38.1059310  15.5619310  44.3729310  37.2519310  15.4449310  44.2299310
  42.8109310   9.1269310  40.0369310  42.2879310   9.8299310  40.4229310
  42.8229310   9.3229310  39.1009310  42.7459310   9.2419310  39.9669310
  42.6559310  11.1699310  49.6059310  41.8729310  11.5759310  49.2369310
  42.3679310  10.2989310  49.8789310  42.5189310  11.1099310  49.5939310
  36.3939310  13.1819310  46.3489310  37.0489310  13.5429310  45.7519310
  35.7159310  12.8269310  45.7739310  36.3909310  13.1829310  46.1989310
  41.6819310   7.1269310  48.0849310  42.0069310   6.3239310  48.4919310
  40.8129310   6.8949310  47.7589310  41.6119310   6.9949310  48.0949310
  47.7939310   5.2089310  43.3139310  48.2919310   5.0019310  42.5229310
  47.9779310   6.1339310  43.4779310  47.8809310   5.3009310  43.2339310
  42.4189310   3.9549310  37.0549310  41.9379310   3.1379310  36.9239310
  42.8529310   4.1139310  36.2169310  42.4129310   3.8709310  36.9309310
  36.3829310   8.9919310  37.5129310  37.1499310   8.6689310  37.9879310
  35.6409310   8.7529310  38.0679310  36.3859310   8.9199310  37.6449310
  35.7209310   2.7479310  46.2089310  36.5189310   2.3979310  45.8139310
  35.7009310   2.3679310  47.0869310  35.8199310   2.6539310  46.2709310
  45.1149310   5.8049310  43.9369310  44.7079310   6.5649310  43.5209310
  45.9769310   5.7399310  43.5269310  45.1729310   5.8939310  43.8309310
  37.8059310   7.5349310  44.9219310  38.7629310   7.5189310  44.9029310
  37.5609310   6.7209310  45.3619310  37.8969310   7.4289310  44.9759310
  46.6479310   3.0209310  45.2709310  47.2739310   3.4709310  44.7039310
  46.5059310   2.1739310  44.8469310  46.7099310   2.9699310  45.1439310
  45.1829310  10.8979310  48.7699310  45.5759310  11.7189310  49.0659310
  44.2699310  10.9529310  49.0519310  45.1169310  11.0099310  48.8439310
  39.2069310   3.0589310  39.7439310  39.1169310   2.7879310  38.8309310
  38.3089310   3.2159310  40.0369310  39.0799310   3.0449310  39.6649310
  41.1529310   5.9749310  42.1439310  41.3409310   5.2229310  41.5819310
  42.0089310   6.3659310  42.3139310  41.2859310   5.9289310  42.0939310
  43.6029310  11.1819310  36.4269310  44.4469310  11.1439310  36.8779310
  43.8259310  11.3869310  35.5189310  43.7399310  11.2029310  36.3689310
  40.6539310   6.9719310  44.6959310  40.9109310   6.5539310  43.8739310
  40.7379310   6.2799310  45.3519310  40.6979310   6.8299310  44.6749310
  47.9659310  11.4269310  45.1549310  48.0639310  11.6739310  44.2349310
  47.1119310  11.7769310  45.4069310  47.8689310  11.5029310  45.0699310
  45.3559310  15.8409310  42.4939310  45.1709310  15.0139310  42.0479310
  45.0439310  16.5139310  41.8889310  45.2919310  15.8209310  42.3589310
  46.9439310  15.0759310  35.5839310  47.1019310  15.9149310  35.1509310
  47.2059310  15.2229310  36.4929310  46.9979310  15.2019310  35.6449310
  49.0539310  13.8529310  45.6939310  48.5099310  14.4529310  45.1829310
  48.6629310  12.9919310  45.5479310  48.9349310  13.8199310  45.6099310
  43.1459310  16.2209310  44.6669310  43.1119310  15.5339310  45.3319310
  43.6219310  15.8259310  43.9369310  43.2019310  16.0829310  44.6589310
  45.0249310   6.9489310  37.3549310  45.7549310   7.5689310  37.3439310
  44.2429310   7.4999310  37.3239310  45.0179310   7.0989310  37.3489310
  44.6569310   4.3299310  46.4709310  44.2079310   3.5759310  46.8529310
  45.3789310   3.9499310  45.9709310  44.6919310   4.1849310  46.4559310
  46.1919310   8.4539310  48.1829310  45.9159310   9.2779310  48.5849310
  47.1429310   8.4409310  48.2919310  46.2789310   8.5579310  48.2479310
  45.5479310  15.6769310  46.4319310  46.3379310  16.2149310  46.3779310
  44.9479310  16.0689310  45.7979310  45.5719310  15.7959310  46.3439310
  48.5379310  14.3069310  41.2839310  48.1699310  14.8879310  41.9489310
  49.4289310  14.6299310  41.1499310  48.6049310  14.4229310  41.3519310
  46.6429310   6.7439310  46.2689310  46.3749310   7.3869310  46.9259310
  45.8439310   6.5619310  45.7729310  46.5059310   6.8029310  46.2889310
  36.5409310   3.2829310  40.9319310  36.9409310   3.8679310  41.5759310
  36.0769310   3.8679310  40.3329310  36.5329310   3.4329310  40.9379310
  46.6199310   5.0779310  48.8309310  46.4569310   5.3869310  47.9399310
  45.7589310   4.8139310  49.1539310  46.4889310   5.0839310  48.7589310
  39.4169310   9.9979310  37.2609310  39.5029310   9.9469310  36.3089310
  38.8639310  10.7659310  37.4099310  39.3569310  10.0899310  37.1579310
  36.9309310   5.2189310  46.1199310  36.1519310   5.7249310  46.3509310
  36.6689310   4.3059310  46.2429310  36.7979310   5.1669310  46.1649310
  40.0269310   9.3759310  43.2259310  39.9399310  10.1559310  43.7749310
  40.0989310   8.6519310  43.8489310  40.0249310   9.3829310  43.3759310
  41.7539310   4.0789310  39.7479310  42.1269310   4.0139310  38.8689310
  40.8489310   3.7829310  39.6469310  41.6859310   4.0319310  39.6229310
  41.4529310  11.2359310  38.1819310  40.7209310  10.7469310  37.8059310
  42.1129310  11.2489310  37.4899310  41.4429310  11.1749310  38.0459310
  36.3989310  14.5809310  48.7529310  36.1059310  14.3079310  47.8829310
  36.0909310  15.4829310  48.8369310  36.3219310  14.6609310  48.6519310
  44.9439310   4.6469310  35.3719310  44.9249310   5.2969310  36.0739310
  45.2989310   3.8589310  35.7839310  44.9869310   4.6299310  35.5139310
  40.3139310  11.9449310  48.1509310  39.7439310  12.6319310  48.4979310
  39.8619310  11.1289310  48.3649310  40.1829310  11.9289310  48.2229310
  46.9059310  13.5259310  39.2419310  46.2209310  13.4539310  39.9069310
  47.7039310  13.7039310  39.7389310  46.9199310  13.5389310  39.3909310
  47.9149310  12.4979310  35.4889310  47.5149310  13.3659310  35.5389310
  47.4389310  11.9769310  36.1359310  47.8029310  12.5429310  35.5779310
  41.2939310  10.8189310  41.3449310  40.6579310  10.3639310  41.8959310
  40.8059310  11.5529310  40.9719310  41.1509310  10.8549310  41.3679310
  47.1719310  12.4899310  49.5499310  46.9689310  12.1799310  50.4319310
  47.6859310  11.7819310  49.1599310  47.2119310  12.3589310  49.6129310
  35.9439310  11.8139310  49.7009310  35.5619310  12.6569310  49.9449310
  36.7679310  12.0399310  49.2699310  35.9999310  11.9509310  49.6769310
  48.1009310  15.8869310  38.2639310  47.5849310  15.2019310  38.6899310
  47.6179310  16.6939310  38.4379310  47.9729310  15.9019310  38.3409310
  47.8379310  17.4299310  46.5649310  48.6129310  17.2739310  46.0259310
  47.8069310  18.3809310  46.6709310  47.9329310  17.5319310  46.5099310
  44.4079310  13.8419310  40.7939310  44.1699310  13.0289310  41.2379310
  43.6029310  14.1199310  40.3569310  44.2749310  13.7739310  40.7949310
  39.0089310   9.5559310  48.2229310  38.5479310   9.8999310  47.4579310
  39.0899310   8.6179310  48.0509310  38.9599310   9.4799310  48.1029310
  37.2049310   7.1969310  40.4079310  38.1609310   7.2289310  40.4349310
  36.9339310   8.1139310  40.4459310  37.2929310   7.3179310  40.4159310
  47.8729310   4.7479310  40.7629310  48.4929310   5.1919310  40.1839310
  47.0629310   5.2519310  40.6779310  47.8489310   4.8699310  40.6779310
  34.4929310  10.7999310  36.7239310  35.1209310  10.2769310  37.2229310
  34.9869310  11.1059310  35.9629310  34.6369310  10.7719310  36.6909310
  40.1649310  12.8839310  39.9949310  39.4649310  13.2819310  39.4779310
  40.5969310  12.2809310  39.3889310  40.1309310  12.8579310  39.8509310
  48.7659310  10.8269310  47.8169310  48.5929310  10.7499310  46.8789310
  49.5489310  11.3739310  47.8719310  48.8439310  10.8869310  47.7039310
  43.5839310   7.2109310  42.1359310  44.0979310   6.6109310  41.5959310
  43.3099310   7.9009310  41.5319310  43.6139310   7.2219310  41.9899310
  36.0709310  14.5659310  36.1819310  36.6279310  13.8069310  36.3539310
  36.6389310  15.3199310  36.3379310  36.2149310  14.5649310  36.2239310
  34.9649310   7.1849310  42.6239310  35.5619310   7.4409310  41.9199310
  35.2679310   7.6799310  43.3859310  35.0799310   7.2809310  42.6309310
  37.6459310  10.6919310  46.4289310  37.9049310  11.3849310  45.8209310
  36.7739310  10.9509310  46.7279310  37.5679310  10.8139310  46.3889310
  49.6739310  15.3089310  48.0619310  49.2009310  16.1419310  48.0549310
  49.1429310  14.7279310  47.5179310  49.5449310  15.3409310  47.9919310
  43.9499310  11.6099310  23.4689310  43.7759310  11.7709310  24.3969310
  43.1849310  11.1239310  23.1629310  43.8299310  11.5679310  23.5489310
  40.5209310   6.5069310  18.7999310  40.3669310   6.9639310  19.6269310
  41.2329310   5.8969310  18.9919310  40.5919310   6.4869310  18.9299310
  37.4079310  12.7629310  23.7629310  37.4459310  13.6559310  23.4189310
  36.6089310  12.7419310  24.2889310  37.3109310  12.8749310  23.7859310
  42.1189310  14.5529310  20.4519310  41.3199310  14.0259310  20.4619310
  42.4629310  14.4499310  19.5649310  42.0609310  14.4719310  20.3399310
  46.0269310   9.5379310  22.9189310  45.6009310   8.9309310  22.3149310
  45.3639310  10.2049310  23.0969310  45.8879310   9.5459310  22.8649310
  44.2289310   7.7769310  31.4449310  44.1009310   6.9119310  31.8339310
  44.6719310   7.6019310  30.6139310  44.2689310   7.6439310  31.3879310
  47.1049310   8.7289310  18.4639310  47.8749310   8.7499310  19.0309310
  47.4239310   8.3619310  17.6399310  47.2439310   8.6849310  18.4309310
  36.2259310   8.4439310  32.5949310  35.3049310   8.2239310  32.4549310
  36.3059310   8.5509310  33.5419310  36.1179310   8.4289310  32.6979310
  47.8159310  12.1329310  23.7999310  47.9919310  12.9829310  23.3969310
  47.0569310  11.7959310  23.3259310  47.7419310  12.1989310  23.6879310
  47.6059310  15.4579310  25.0519310  48.1919310  16.1949310  24.8769310
  46.8239310  15.6439310  24.5329310  47.5809310  15.5759310  24.9629310
  39.9279310   2.7129310  23.5719310  39.5209310   2.7119310  22.7049310
  39.4419310   3.3759310  24.0629310  39.8139310   2.7979310  23.5239310
  46.3949310   3.5979310  32.5889310  46.9809310   3.9109310  33.2779310
  45.6689310   4.2229310  32.5889310  46.3769310   3.7179310  32.6769310
  44.0149310   4.0989310  22.1209310  43.1899310   4.0809310  21.6359310
  43.7639310   3.9129310  23.0259310  43.8769310   4.0729310  22.1749310
  41.1289310  13.7639310  26.7379310  40.8679310  13.3889310  27.5789310
  41.8599310  13.2189310  26.4489310  41.1889310  13.6459310  26.8079310
  39.3669310  11.9569310  25.4529310  38.6429310  12.2599310  24.9049310
  39.9609310  12.7069310  25.5009310  39.3509310  12.0919310  25.3889310
  35.9159310   2.1109310  35.6429310  35.7179310   2.1919310  34.7109310
  35.1219310   2.4139310  36.0839310  35.7889310   2.1599310  35.5799310
  38.8399310   5.7209310  16.7909310  38.2369310   6.4579310  16.6949310
  39.4689310   6.0109310  17.4519310  38.8429310   5.8519310  16.8629310
  43.2669310  14.1829310  18.0839310  43.7259310  13.3609310  18.2559310
  43.9649310  14.8229310  17.9449310  43.4149310  14.1599310  18.0879310
  41.9899310   4.6739310  27.0659310  42.8709310   4.9659310  27.2979310
  42.0759310   4.3399310  26.1729310  42.1139310   4.6689310  26.9809310
  35.8839310  11.1369310  34.3999310  35.1219310  11.7049310  34.2829310
  36.0889310  10.8269310  33.5179310  35.8119310  11.1699310  34.2719310
  37.9549310  12.4319310  35.7369310  38.4379310  12.9929310  35.1299310
  37.5119310  11.7959310  35.1759310  37.9599310  12.4229310  35.5879310
  41.5809310  14.1679310  34.5349310  42.1549310  14.0809310  35.2959310
  41.5389310  15.1099310  34.3729310  41.6489310  14.2769310  34.6109310
  41.9359310   8.0219310  34.4359310  41.7789310   7.0779310  34.3999310
  41.8469310   8.3139310  33.5289310  41.9039310   7.9379310  34.3149310
  46.1429310  11.3299310  18.5379310  46.4469310  10.4369310  18.6939310
  46.6699310  11.8699310  19.1269310  46.2489310  11.2849310  18.6329310
  48.7659310   1.8179310  19.1139310  48.8699310   2.1619310  20.0009310
  48.6359310   2.5939310  18.5689310  48.7629310   1.9609310  19.1579310
  49.2529310   7.0029310  28.2919310  48.3779310   6.7459310  28.0019310
  49.6049310   6.2199310  28.7159310  49.1859310   6.8699310  28.3089310
  43.5979310   3.5029310  24.7549310  43.6839310   2.7189310  25.2979310
  44.0379310   4.1899310  25.2549310  43.6649310   3.4909310  24.8879310
  36.6729310  15.7249310  21.2739310  35.8919310  15.5939310  20.7359310
  36.6429310  16.6499310  21.5179310  36.5689310  15.8269310  21.2359310
  46.7239310  11.5269310  33.2249310  47.3059310  11.3629310  33.9659310
  46.1309310  12.2129310  33.5329310  46.7219310  11.5939310  33.3589310
  43.0259310  11.9909310  25.9639310  42.5459310  11.1829310  26.1409310
  43.7559310  11.9769310  26.5829310  43.0579310  11.8859310  26.0659310
  45.8309310   2.8439310  18.2309310  45.2049310   2.1199310  18.2549310
  46.0489310   3.0029310  19.1489310  45.7789310   2.7719310  18.3509310
  42.5689310   4.4919310  30.3509310  41.7239310   4.1719310  30.6679310
  43.0419310   3.7009310  30.0919310  42.5209310   4.3499310  30.3589310
  39.4959310   9.6779310  34.6849310  40.3069310   9.1899310  34.5429310
  39.2269310   9.9549310  33.8089310  39.5649310   9.6509310  34.5539310
  38.4039310  14.2499310  19.8079310  37.8219310  14.7479310  20.3809310
  38.6329310  14.8609310  19.1079310  38.3589310  14.3919310  19.7919310
  41.7579310   8.7179310  31.7129310  42.6379310   8.3449310  31.6609310
  41.2199310   8.1369310  31.1759310  41.8019310   8.5959310  31.6379310
  48.2019310   6.9749310  31.3619310  47.6449310   6.5809310  30.6899310
  47.6259310   7.5849310  31.8219310  48.0569310   7.0029310  31.3349310
  46.0289310   2.9619310  20.8949310  45.2059310   3.2449310  21.2909310
  46.7069310   3.3479310  21.4499310  46.0109310   3.0469310  21.0169310
  39.0409310   6.5529310  28.9879310  38.6639310   6.4259310  29.8579310
  38.4779310   6.0419310  28.4059310  38.9209310   6.4719310  29.0249310
  48.0479310   8.0629310  24.4429310  48.5929310   8.5639310  25.0499310
  47.3539310   8.6699310  24.1859310  48.0289310   8.2039310  24.4879310
  36.0309310   9.6289310  25.2639310  36.4249310   9.5589310  24.3939310
  36.6429310   9.1739310  25.8409310  36.1599310   9.5619310  25.2259310
  45.5019310   6.1729310  21.1149310  44.8299310   5.4919310  21.1449310
  45.5809310   6.3899310  20.1859310  45.4259310   6.1139310  20.9999310
  46.6879310  15.1519310  30.2329310  46.1389310  15.0829310  29.4529310
  47.0519310  14.2749310  30.3489310  46.6649310  15.0309310  30.1479310
  41.1219310   5.1469310  34.1839310  41.0069310   4.8629310  33.2769310
  40.2309310   5.2499310  34.5169310  40.9929310   5.1239310  34.1099310
  40.1669310   3.4739310  29.0299310  39.5769310   2.7349310  28.8779310
  40.7789310   3.4459310  28.2949310  40.1699310   3.3759310  28.9159310
  41.5519310   9.6659310  27.0619310  41.5119310   8.7109310  27.0249310
  41.0969310   9.8939310  27.8719310  41.4889310   9.5729310  27.1609310
  49.5169310   6.3189310  33.7439310  48.8259310   5.6789310  33.9119310
  49.3089310   6.6749310  32.8809310  49.4019310   6.2819310  33.6549310
  35.1349310   5.4209310  20.8809310  35.7999310   6.0209310  21.2189310
  34.3029310   5.8549310  21.0699310  35.1139310   5.5529310  20.9489310
  37.4679310   9.8659310  23.0829310  38.1469310   9.5859310  23.6969310
  37.5659310  10.8159310  23.0339310  37.5669310   9.9519310  23.1559310
  42.8819310   8.6019310  18.1699310  42.4989310   8.2929310  17.3489310
  43.1209310   9.5129310  17.9949310  42.8639310   8.6789310  18.0429310
  45.3949310  12.2769310  27.4719310  45.3309310  11.7569310  28.2739310
  45.9399310  13.0259310  27.7149310  45.4559310  12.3059310  27.6059310
  38.5469310   3.1369310  17.8859310  37.6219310   2.8939310  17.9239310
  38.5429310   4.0569310  17.6209310  38.4289310   3.2239310  17.8569310
  40.5159310   7.4899310  21.1749310  41.3389310   7.9759310  21.1369310
  40.5669310   6.9949310  21.9919310  40.6279310   7.4889310  21.2739310
  42.8109310   9.1269310  21.1769310  42.2879310   9.8299310  21.5629310
  42.8229310   9.3229310  20.2409310  42.7459310   9.2419310  21.1069310
  38.7479310   9.4299310  32.1709310  38.7099310   9.7469310  31.2689310
  37.8759310   9.0709310  32.3359310  38.6309310   9.4239310  32.0769310
  42.6559310  11.1699310  30.7459310  41.8729310  11.5759310  30.3769310
  42.3679310  10.2989310  31.0189310  42.5189310  11.1099310  30.7339310
  41.6819310   7.1269310  29.2249310  42.0069310   6.3239310  29.6319310
  40.8129310   6.8949310  28.8989310  41.6119310   6.9949310  29.2349310
  37.2979310   8.0609310  35.1939310  38.1009310   8.5709310  35.0839310
  36.8479310   8.4789310  35.9279310  37.3429310   8.1799310  35.2739310
  47.7939310   5.2089310  24.4539310  48.2919310   5.0019310  23.6629310
  47.9779310   6.1339310  24.6179310  47.8809310   5.3009310  24.3739310
  42.4189310   3.9549310  18.1949310  41.9379310   3.1379310  18.0639310
  42.8529310   4.1139310  17.3569310  42.4129310   3.8709310  18.0709310
  36.3829310   8.9919310  18.6529310  37.1499310   8.6689310  19.1279310
  35.6409310   8.7529310  19.2079310  36.3859310   8.9199310  18.7849310
  35.7209310   2.7479310  27.3489310  36.5189310   2.3979310  26.9539310
  35.7009310   2.3679310  28.2269310  35.8199310   2.6539310  27.4109310
  45.1149310   5.8049310  25.0769310  44.7079310   6.5649310  24.6609310
  45.9769310   5.7399310  24.6669310  45.1729310   5.8939310  24.9709310
  37.8059310   7.5349310  26.0619310  38.7629310   7.5189310  26.0429310
  37.5609310   6.7209310  26.5019310  37.8969310   7.4289310  26.1159310
  46.6479310   3.0209310  26.4109310  47.2739310   3.4709310  25.8439310
  46.5059310   2.1739310  25.9869310  46.7099310   2.9699310  26.2839310
  45.1829310  10.8979310  29.9099310  45.5759310  11.7189310  30.2059310
  44.2699310  10.9529310  30.1919310  45.1169310  11.0099310  29.9839310
  39.2069310   3.0589310  20.8839310  39.1169310   2.7879310  19.9709310
  38.3089310   3.2159310  21.1769310  39.0799310   3.0449310  20.8049310
  41.1529310   5.9749310  23.2839310  41.3409310   5.2229310  22.7219310
  42.0089310   6.3659310  23.4539310  41.2859310   5.9289310  23.2339310
  43.6029310  11.1819310  17.5669310  44.4469310  11.1439310  18.0179310
  43.8259310  11.3869310  16.6589310  43.7399310  11.2029310  17.5089310
  40.6539310   6.9719310  25.8359310  40.9109310   6.5539310  25.0139310
  40.7379310   6.2799310  26.4919310  40.6979310   6.8299310  25.8149310
  47.9659310  11.4269310  26.2949310  48.0639310  11.6739310  25.3749310
  47.1119310  11.7769310  26.5469310  47.8689310  11.5029310  26.2099310
  45.3559310  15.8409310  23.6339310  45.1709310  15.0139310  23.1879310
  45.0439310  16.5139310  23.0289310  45.2919310  15.8209310  23.4989310
  46.9439310  15.0759310  16.7239310  47.1019310  15.9149310  16.2909310
  47.2059310  15.2229310  17.6329310  46.9979310  15.2019310  16.7849310
  49.0539310  13.8529310  26.8339310  48.5099310  14.4529310  26.3229310
  48.6629310  12.9919310  26.6879310  48.9349310  13.8199310  26.7499310
  43.1459310  16.2209310  25.8069310  43.1119310  15.5339310  26.4719310
  43.6219310  15.8259310  25.0769310  43.2019310  16.0829310  25.7989310
  45.0249310   6.9489310  18.4949310  45.7549310   7.5689310  18.4839310
  44.2429310   7.4999310  18.4639310  45.0179310   7.0989310  18.4889310
  44.6569310   4.3299310  27.6109310  44.2079310   3.5759310  27.9929310
  45.3789310   3.9499310  27.1109310  44.6919310   4.1849310  27.5959310
  46.1919310   8.4539310  29.3229310  45.9159310   9.2779310  29.7249310
  47.1429310   8.4409310  29.4319310  46.2789310   8.5579310  29.3879310
  45.5479310  15.6769310  27.5719310  46.3379310  16.2149310  27.5179310
  44.9479310  16.0689310  26.9379310  45.5719310  15.7959310  27.4839310
  37.5779310   6.3019310  31.4599310  36.8989310   6.9409310  31.6799310
  37.1689310   5.4529310  31.6229310  37.4379310   6.2749310  31.5089310
  48.5379310  14.3069310  22.4239310  48.1699310  14.8879310  23.0889310
  49.4289310  14.6299310  22.2899310  48.6049310  14.4229310  22.4919310
  46.6429310   6.7439310  27.4089310  46.3749310   7.3869310  28.0659310
  45.8439310   6.5619310  26.9129310  46.5059310   6.8029310  27.4289310
  35.1849310   4.3819310  34.0289310  34.5849310   5.1149310  34.1699310
  35.7319310   4.3649310  34.8149310  35.1779310   4.4739310  34.1479310
  36.5409310   3.2829310  22.0719310  36.9409310   3.8679310  22.7159310
  36.0769310   3.8679310  21.4729310  36.5329310   3.4329310  22.0779310
  46.6199310   5.0779310  29.9709310  46.4569310   5.3869310  29.0799310
  45.7589310   4.8139310  30.2939310  46.4889310   5.0839310  29.8989310
  39.4169310   9.9979310  18.4009310  39.5029310   9.9469310  17.4489310
  38.8639310  10.7659310  18.5499310  39.3569310  10.0899310  18.2979310
  46.5519310   8.7409310  32.5069310  45.7339310   8.5849310  32.0359310
  46.5999310   9.6929310  32.5959310  46.4539310   8.8429310  32.4579310
  36.9309310   5.2189310  27.2599310  36.1519310   5.7249310  27.4909310
  36.6689310   4.3059310  27.3829310  36.7979310   5.1669310  27.3049310
  40.0269310   9.3759310  24.3659310  39.9399310  10.1559310  24.9149310
  40.0989310   8.6519310  24.9889310  40.0249310   9.3829310  24.5159310
  40.1289310   4.5169310  31.5499310  40.0379310   4.3969310  30.6049310
  39.4049310   5.0949310  31.7879310  40.0249310   4.5759310  31.4589310
  41.7539310   4.0789310  20.8879310  42.1269310   4.0139310  20.0089310
  40.8489310   3.7829310  20.7869310  41.6859310   4.0319310  20.7629310
  41.4529310  11.2359310  19.3219310  40.7209310  10.7469310  18.9459310
  42.1129310  11.2489310  18.6299310  41.4429310  11.1749310  19.1859310
  44.9439310   4.6469310  16.5119310  44.9249310   5.2969310  17.2139310
  45.2989310   3.8589310  16.9239310  44.9869310   4.6299310  16.6539310
  40.3139310  11.9449310  29.2909310  39.7439310  12.6319310  29.6379310
  39.8619310  11.1289310  29.5049310  40.1829310  11.9289310  29.3629310
  46.9059310  13.5259310  20.3819310  46.2209310  13.4539310  21.0469310
  47.7039310  13.7039310  20.8789310  46.9199310  13.5389310  20.5309310
  47.9149310  12.4979310  16.6289310  47.5149310  13.3659310  16.6789310
  47.4389310  11.9769310  17.2759310  47.8029310  12.5429310  16.7179310
  41.2939310  10.8189310  22.4849310  40.6579310  10.3639310  23.0359310
  40.8059310  11.5529310  22.1119310  41.1509310  10.8549310  22.5079310
  47.1719310  12.4899310  30.6899310  46.9689310  12.1799310  31.5719310
  47.6859310  11.7819310  30.2999310  47.2119310  12.3589310  30.7529310
  43.5839310  12.4599310  33.4719310  43.1969310  12.0949310  32.6759310
  42.9359310  13.0889310  33.7869310  43.4509310  12.4929310  33.4109310
  48.1009310  15.8869310  19.4039310  47.5849310  15.2019310  19.8299310
  47.6179310  16.6939310  19.5779310  47.9729310  15.9019310  19.4809310
  36.5919310   3.7979310  31.7879310  36.0259310   4.1589310  31.1059310
  36.0959310   3.9139310  32.5979310  36.4559310   3.8589310  31.8039310
  47.8379310  17.4299310  27.7049310  48.6129310  17.2739310  27.1659310
  47.8069310  18.3809310  27.8109310  47.9329310  17.5319310  27.6499310
  44.4079310  13.8419310  21.9339310  44.1699310  13.0289310  22.3779310
  43.6029310  14.1199310  21.4969310  44.2749310  13.7739310  21.9349310
  39.0089310   9.5559310  29.3629310  38.5479310   9.8999310  28.5979310
  39.0899310   8.6179310  29.1909310  38.9599310   9.4799310  29.2429310
  37.2049310   7.1969310  21.5479310  38.1609310   7.2289310  21.5749310
  36.9339310   8.1139310  21.5859310  37.2929310   7.3179310  21.5559310
  42.0449310   2.6559310  34.4909310  41.2799310   2.2589310  34.9089310
  41.7909310   3.5669310  34.3429310  41.9139310   2.7219310  34.5259310
  47.8729310   4.7479310  21.9029310  48.4929310   5.1919310  21.3239310
  47.0629310   5.2519310  21.8179310  47.8489310   4.8699310  21.8179310
  34.4929310  10.7999310  17.8639310  35.1209310  10.2769310  18.3629310
  34.9869310  11.1059310  17.1029310  34.6369310  10.7719310  17.8309310
  40.1649310  12.8839310  21.1349310  39.4649310  13.2819310  20.6179310
  40.5969310  12.2809310  20.5289310  40.1309310  12.8579310  20.9909310
  48.7659310  10.8269310  28.9569310  48.5929310  10.7499310  28.0189310
  49.5489310  11.3739310  29.0119310  48.8439310  10.8869310  28.8439310
  43.5839310   7.2109310  23.2759310  44.0979310   6.6109310  22.7359310
  43.3099310   7.9009310  22.6719310  43.6139310   7.2219310  23.1299310
  36.0709310  14.5659310  17.3219310  36.6279310  13.8069310  17.4939310
  36.6389310  15.3199310  17.4779310  36.2149310  14.5649310  17.3639310
  48.0199310   8.5519310  34.6289310  47.2089310   8.5899310  34.1219310
  48.3839310   7.6889310  34.4339310  47.9629310   8.4469310  34.5389310
  34.9649310   7.1849310  23.7639310  35.5619310   7.4409310  23.0599310
  35.2679310   7.6799310  24.5259310  35.0799310   7.2809310  23.7709310
  37.6459310  10.6919310  27.5689310  37.9049310  11.3849310  26.9609310
  36.7739310  10.9509310  27.8679310  37.5679310  10.8139310  27.5289310
  44.2639310   5.1929310  32.4549310  43.5099310   4.8629310  31.9659310
  44.0629310   4.9949310  33.3689310  44.1419310   5.1249310  32.5089310
  47.8139310   4.5159310  34.5239310  47.0299310   4.4769310  35.0719310
  48.4509310   3.9649310  34.9779310  47.7949310   4.4409310  34.6519310
  49.6739310  15.3089310  29.2019310  49.2009310  16.1419310  29.1949310
  49.1429310  14.7279310  28.6579310  49.5449310  15.3409310  29.1319310
  39.1849310  14.1659310  11.4459310  38.2309310  14.0979310  11.4139310
  39.3739310  14.4729310  12.3319310  39.0869310  14.1969310  11.5549310
  43.9499310  11.6099310   4.6089310  43.7759310  11.7709310   5.5369310
  43.1849310  11.1239310   4.3029310  43.8299310  11.5679310   4.6889310
  37.4079310  12.7629310   4.9029310  37.4459310  13.6559310   4.5589310
  36.6089310  12.7419310   5.4289310  37.3109310  12.8749310   4.9259310
  46.0269310   9.5379310   4.0589310  45.6009310   8.9309310   3.4549310
  45.3639310  10.2049310   4.2369310  45.8879310   9.5459310   4.0049310
  44.2289310   7.7769310  12.5849310  44.1009310   6.9119310  12.9739310
  44.6719310   7.6019310  11.7539310  44.2689310   7.6439310  12.5279310
  36.2259310   8.4439310  13.7349310  35.3049310   8.2239310  13.5949310
  36.3059310   8.5509310  14.6819310  36.1179310   8.4289310  13.8379310
  47.8159310  12.1329310   4.9399310  47.9919310  12.9829310   4.5369310
  47.0569310  11.7959310   4.4659310  47.7419310  12.1989310   4.8279310
  47.6059310  15.4579310   6.1919310  48.1919310  16.1949310   6.0169310
  46.8239310  15.6439310   5.6729310  47.5809310  15.5759310   6.1029310
  39.9279310   2.7129310   4.7119310  39.5209310   2.7119310   3.8449310
  39.4419310   3.3759310   5.2029310  39.8139310   2.7979310   4.6639310
  46.3949310   3.5979310  13.7289310  46.9809310   3.9109310  14.4179310
  45.6689310   4.2229310  13.7289310  46.3769310   3.7179310  13.8169310
  44.0149310   4.0989310   3.2609310  43.1899310   4.0809310   2.7759310
  43.7639310   3.9129310   4.1659310  43.8769310   4.0729310   3.3149310
  41.1289310  13.7639310   7.8779310  40.8679310  13.3889310   8.7189310
  41.8599310  13.2189310   7.5889310  41.1889310  13.6459310   7.9479310
  39.3669310  11.9569310   6.5929310  38.6429310  12.2599310   6.0449310
  39.9609310  12.7069310   6.6409310  39.3509310  12.0919310   6.5289310
  35.9159310   2.1109310  16.7829310  35.7179310   2.1919310  15.8509310
  35.1219310   2.4139310  17.2239310  35.7889310   2.1599310  16.7199310
  41.9899310   4.6739310   8.2059310  42.8709310   4.9659310   8.4379310
  42.0759310   4.3399310   7.3129310  42.1139310   4.6689310   8.1209310
  35.8839310  11.1369310  15.5399310  35.1219310  11.7049310  15.4229310
  36.0889310  10.8269310  14.6579310  35.8119310  11.1699310  15.4119310
  37.9549310  12.4319310  16.8769310  38.4379310  12.9929310  16.2699310
  37.5119310  11.7959310  16.3159310  37.9599310  12.4229310  16.7279310
  41.5809310  14.1679310  15.6749310  42.1549310  14.0809310  16.4359310
  41.5389310  15.1099310  15.5129310  41.6489310  14.2769310  15.7509310
  41.9359310   8.0219310  15.5759310  41.7789310   7.0779310  15.5399310
  41.8469310   8.3139310  14.6689310  41.9039310   7.9379310  15.4549310
  49.2529310   7.0029310   9.4319310  48.3779310   6.7459310   9.1419310
  49.6049310   6.2199310   9.8559310  49.1859310   6.8699310   9.4489310
  38.9619310  13.9189310  14.5899310  38.7099310  14.8229310  14.7809310
  39.8669310  13.8539310  14.8929310  39.0459310  14.0269310  14.6529310
  43.5979310   3.5029310   5.8949310  43.6839310   2.7189310   6.4379310
  44.0379310   4.1899310   6.3949310  43.6649310   3.4909310   6.0279310
  36.6729310  15.7249310   2.4139310  35.8919310  15.5939310   1.8759310
  36.6429310  16.6499310   2.6579310  36.5689310  15.8269310   2.3759310
  46.7239310  11.5269310  14.3649310  47.3059310  11.3629310  15.1059310
  46.1309310  12.2129310  14.6729310  46.7219310  11.5939310  14.4989310
  43.0259310  11.9909310   7.1039310  42.5459310  11.1829310   7.2809310
  43.7559310  11.9769310   7.7229310  43.0579310  11.8859310   7.2059310
  42.5689310   4.4919310  11.4909310  41.7239310   4.1719310  11.8079310
  43.0419310   3.7009310  11.2319310  42.5209310   4.3499310  11.4989310
  39.4959310   9.6779310  15.8249310  40.3069310   9.1899310  15.6829310
  39.2269310   9.9549310  14.9489310  39.5649310   9.6509310  15.6939310
  41.7579310   8.7179310  12.8529310  42.6379310   8.3449310  12.8009310
  41.2199310   8.1369310  12.3159310  41.8019310   8.5959310  12.7779310
  48.2019310   6.9749310  12.5019310  47.6449310   6.5809310  11.8299310
  47.6259310   7.5849310  12.9619310  48.0569310   7.0029310  12.4749310
  46.0289310   2.9619310   2.0349310  45.2059310   3.2449310   2.4309310
  46.7069310   3.3479310   2.5899310  46.0109310   3.0469310   2.1569310
  39.0409310   6.5529310  10.1279310  38.6639310   6.4259310  10.9979310
  38.4779310   6.0419310   9.5459310  38.9209310   6.4719310  10.1649310
  48.0479310   8.0629310   5.5829310  48.5929310   8.5639310   6.1899310
  47.3539310   8.6699310   5.3259310  48.0289310   8.2039310   5.6279310
  36.0309310   9.6289310   6.4039310  36.4249310   9.5589310   5.5339310
  36.6429310   9.1739310   6.9809310  36.1599310   9.5619310   6.3659310
  46.6879310  15.1519310  11.3729310  46.1389310  15.0829310  10.5929310
  47.0519310  14.2749310  11.4889310  46.6649310  15.0309310  11.2879310
  41.1219310   5.1469310  15.3239310  41.0069310   4.8629310  14.4169310
  40.2309310   5.2499310  15.6569310  40.9929310   5.1239310  15.2499310
  40.1669310   3.4739310  10.1699310  39.5769310   2.7349310  10.0179310
  40.7789310   3.4459310   9.4349310  40.1699310   3.3759310  10.0559310
  41.5519310   9.6659310   8.2019310  41.5119310   8.7109310   8.1649310
  41.0969310   9.8939310   9.0119310  41.4889310   9.5729310   8.3009310
  49.5169310   6.3189310  14.8839310  48.8259310   5.6789310  15.0519310
  49.3089310   6.6749310  14.0209310  49.4019310   6.2819310  14.7949310
  35.1349310   5.4209310   2.0209310  35.7999310   6.0209310   2.3589310
  34.3029310   5.8549310   2.2099310  35.1139310   5.5529310   2.0889310
  37.4679310   9.8659310   4.2229310  38.1469310   9.5859310   4.8369310
  37.5659310  10.8159310   4.1739310  37.5669310   9.9519310   4.2959310
  45.3949310  12.2769310   8.6119310  45.3309310  11.7569310   9.4139310
  45.9399310  13.0259310   8.8549310  45.4559310  12.3059310   8.7459310
  40.5159310   7.4899310   2.3149310  41.3389310   7.9759310   2.2769310
  40.5669310   6.9949310   3.1319310  40.6279310   7.4889310   2.4139310
  37.2069310  15.3649310   6.3909310  36.6649310  15.7879310   7.0579310
  38.1059310  15.5619310   6.6529310  37.2519310  15.4449310   6.5099310
  38.7479310   9.4299310  13.3109310  38.7099310   9.7469310  12.4089310
  37.8759310   9.0709310  13.4759310  38.6309310   9.4239310  13.2169310
  42.6559310  11.1699310  11.8859310  41.8729310  11.5759310  11.5169310
  42.3679310  10.2989310  12.1589310  42.5189310  11.1099310  11.8739310
  36.3939310  13.1819310   8.6289310  37.0489310  13.5429310   8.0319310
  35.7159310  12.8269310   8.0539310  36.3909310  13.1829310   8.4789310
  41.6819310   7.1269310  10.3649310  42.0069310   6.3239310  10.7719310
  40.8129310   6.8949310  10.0389310  41.6119310   6.9949310  10.3749310
  37.2979310   8.0609310  16.3339310  38.1009310   8.5709310  16.2239310
  36.8479310   8.4789310  17.0679310  37.3429310   8.1799310  16.4139310
  47.7939310   5.2089310   5.5939310  48.2919310   5.0019310   4.8029310
  47.9779310   6.1339310   5.7579310  47.8809310   5.3009310   5.5139310
  35.7209310   2.7479310   8.4889310  36.5189310   2.3979310   8.0939310
  35.7009310   2.3679310   9.3669310  35.8199310   2.6539310   8.5509310
  45.1149310   5.8049310   6.2169310  44.7079310   6.5649310   5.8009310
  45.9769310   5.7399310   5.8069310  45.1729310   5.8939310   6.1109310
  37.8059310   7.5349310   7.2019310  38.7629310   7.5189310   7.1829310
  37.5609310   6.7209310   7.6419310  37.8969310   7.4289310   7.2559310
  46.6479310   3.0209310   7.5509310  47.2739310   3.4709310   6.9839310
  46.5059310   2.1739310   7.1269310  46.7099310   2.9699310   7.4239310
  45.1829310  10.8979310  11.0499310  45.5759310  11.7189310  11.3459310
  44.2699310  10.9529310  11.3319310  45.1169310  11.0099310  11.1239310
  41.1529310   5.9749310   4.4239310  41.3409310   5.2229310   3.8619310
  42.0089310   6.3659310   4.5939310  41.2859310   5.9289310   4.3739310
  40.6539310   6.9719310   6.9759310  40.9109310   6.5539310   6.1539310
  40.7379310   6.2799310   7.6319310  40.6979310   6.8299310   6.9549310
  47.9659310  11.4269310   7.4349310  48.0639310  11.6739310   6.5149310
  47.1119310  11.7769310   7.6869310  47.8689310  11.5029310   7.3499310
  45.3559310  15.8409310   4.7739310  45.1709310  15.0139310   4.3279310
  45.0439310  16.5139310   4.1689310  45.2919310  15.8209310   4.6389310
  49.0539310  13.8529310   7.9739310  48.5099310  14.4529310   7.4629310
  48.6629310  12.9919310   7.8279310  48.9349310  13.8199310   7.8899310
  43.1459310  16.2209310   6.9469310  43.1119310  15.5339310   7.6119310
  43.6219310  15.8259310   6.2169310  43.2019310  16.0829310   6.9389310
  44.6569310   4.3299310   8.7509310  44.2079310   3.5759310   9.1329310
  45.3789310   3.9499310   8.2509310  44.6919310   4.1849310   8.7359310
  46.1919310   8.4539310  10.4629310  45.9159310   9.2779310  10.8649310
  47.1429310   8.4409310  10.5719310  46.2789310   8.5579310  10.5279310
  45.5479310  15.6769310   8.7119310  46.3379310  16.2149310   8.6579310
  44.9479310  16.0689310   8.0779310  45.5719310  15.7959310   8.6239310
  37.5779310   6.3019310  12.5999310  36.8989310   6.9409310  12.8199310
  37.1689310   5.4529310  12.7629310  37.4379310   6.2749310  12.6489310
  46.6429310   6.7439310   8.5489310  46.3749310   7.3869310   9.2059310
  45.8439310   6.5619310   8.0529310  46.5059310   6.8029310   8.5689310
  35.1849310   4.3819310  15.1689310  34.5849310   5.1149310  15.3099310
  35.7319310   4.3649310  15.9549310  35.1779310   4.4739310  15.2879310
  36.5409310   3.2829310   3.2119310  36.9409310   3.8679310   3.8559310
  36.0769310   3.8679310   2.6129310  36.5329310   3.4329310   3.2179310
  46.6199310   5.0779310  11.1109310  46.4569310   5.3869310  10.2199310
  45.7589310   4.8139310  11.4339310  46.4889310   5.0839310  11.0389310
  46.5519310   8.7409310  13.6469310  45.7339310   8.5849310  13.1759310
  46.5999310   9.6929310  13.7359310  46.4539310   8.8429310  13.5979310
  36.9309310   5.2189310   8.3999310  36.1519310   5.7249310   8.6309310
  36.6689310   4.3059310   8.5229310  36.7979310   5.1669310   8.4449310
  40.0269310   9.3759310   5.5059310  39.9399310  10.1559310   6.0549310
  40.0989310   8.6519310   6.1289310  40.0249310   9.3829310   5.6559310
  40.1289310   4.5169310  12.6899310  40.0379310   4.3969310  11.7449310
  39.4049310   5.0949310  12.9279310  40.0249310   4.5759310  12.5989310
  36.3989310  14.5809310  11.0329310  36.1059310  14.3079310  10.1629310
  36.0909310  15.4829310  11.1169310  36.3219310  14.6609310  10.9319310
  40.3139310  11.9449310  10.4309310  39.7439310  12.6319310  10.7779310
  39.8619310  11.1289310  10.6449310  40.1829310  11.9289310  10.5029310
  41.2939310  10.8189310   3.6249310  40.6579310  10.3639310   4.1759310
  40.8059310  11.5529310   3.2519310  41.1509310  10.8549310   3.6479310
  47.1719310  12.4899310  11.8299310  46.9689310  12.1799310  12.7119310
  47.6859310  11.7819310  11.4399310  47.2119310  12.3589310  11.8929310
  43.5839310  12.4599310  14.6119310  43.1969310  12.0949310  13.8159310
  42.9359310  13.0889310  14.9269310  43.4509310  12.4929310  14.5509310
  35.9439310  11.8139310  11.9809310  35.5619310  12.6569310  12.2249310
  36.7679310  12.0399310  11.5499310  35.9999310  11.9509310  11.9569310
  36.5919310   3.7979310  12.9279310  36.0259310   4.1589310  12.2459310
  36.0959310   3.9139310  13.7379310  36.4559310   3.8589310  12.9439310
  47.8379310  17.4299310   8.8449310  48.6129310  17.2739310   8.3059310
  47.8069310  18.3809310   8.9509310  47.9329310  17.5319310   8.7899310
  44.4079310  13.8419310   3.0739310  44.1699310  13.0289310   3.5179310
  43.6029310  14.1199310   2.6369310  44.2749310  13.7739310   3.0749310
  39.0089310   9.5559310  10.5029310  38.5479310   9.8999310   9.7379310
  39.0899310   8.6179310  10.3309310  38.9599310   9.4799310  10.3829310
  37.2049310   7.1969310   2.6879310  38.1609310   7.2289310   2.7149310
  36.9339310   8.1139310   2.7259310  37.2929310   7.3179310   2.6959310
  42.0449310   2.6559310  15.6309310  41.2799310   2.2589310  16.0489310
  41.7909310   3.5669310  15.4829310  41.9139310   2.7219310  15.6659310
  47.8729310   4.7479310   3.0429310  48.4929310   5.1919310   2.4639310
  47.0629310   5.2519310   2.9579310  47.8489310   4.8699310   2.9579310
  40.1649310  12.8839310   2.2749310  39.4649310  13.2819310   1.7579310
  40.5969310  12.2809310   1.6689310  40.1309310  12.8579310   2.1309310
  48.7659310  10.8269310  10.0969310  48.5929310  10.7499310   9.1589310
  49.5489310  11.3739310  10.1519310  48.8439310  10.8869310   9.9839310
  43.5839310   7.2109310   4.4159310  44.0979310   6.6109310   3.8759310
  43.3099310   7.9009310   3.8119310  43.6139310   7.2219310   4.2699310
  48.0199310   8.5519310  15.7689310  47.2089310   8.5899310  15.2619310
  48.3839310   7.6889310  15.5739310  47.9629310   8.4469310  15.6789310
  34.9649310   7.1849310   4.9039310  35.5619310   7.4409310   4.1999310
  35.2679310   7.6799310   5.6659310  35.0799310   7.2809310   4.9109310
  37.6459310  10.6919310   8.7089310  37.9049310  11.3849310   8.1009310
  36.7739310  10.9509310   9.0079310  37.5679310  10.8139310   8.6689310
  44.2639310   5.1929310  13.5949310  43.5099310   4.8629310  13.1059310
  44.0629310   4.9949310  14.5089310  44.1419310   5.1249310  13.6489310
  47.8139310   4.5159310  15.6639310  47.0299310   4.4769310  16.2119310
  48.4509310   3.9649310  16.1179310  47.7949310   4.4409310  15.7919310
  49.6739310  15.3089310  10.3419310  49.2009310  16.1419310  10.3349310
  49.1429310  14.7279310   9.7979310  49.5449310  15.3409310  10.2719310
  22.9259310  37.7139310  48.9059310  23.1539310  37.6859310  49.8349310
  22.2969310  37.0019310  48.7929310  22.8749310  37.6189310  49.0109310
  25.0899310  49.3439310  42.3289310  24.9159310  49.5049310  43.2569310
  24.3249310  48.8579310  42.0229310  24.9699310  49.3019310  42.4089310
  20.8419310  35.9999310  48.4119310  20.2819310  36.4479310  49.0459310
  20.6959310  35.0689310  48.5789310  20.7519310  35.9379310  48.5139310
  21.6609310  44.2409310  37.6599310  21.5069310  44.6979310  38.4869310
  22.3729310  43.6309310  37.8519310  21.7319310  44.2209310  37.7899310
  25.0559310  39.4499310  48.2649310  24.4529310  38.8089310  48.6399310
  25.8449310  39.3809310  48.8029310  25.0799310  39.3599310  48.3819310
  27.4789310  39.2759310  49.5329310  27.6569310  38.3939310  49.8589310
  27.7979310  39.8559310  50.2249310  27.5429310  39.2369310  49.6639310
  27.1669310  47.2719310  41.7789310  26.7409310  46.6649310  41.1749310
  26.5039310  47.9389310  41.9569310  27.0279310  47.2799310  41.7249310
  32.9189310  37.9039310  41.0319310  32.9869310  36.9569310  40.9079310
  33.7879310  38.1689310  41.3329310  33.0389310  37.8169310  41.0549310
  34.0379310  42.1949310  42.8729310  33.2589310  42.3049310  43.4179310
  34.3819310  43.0809310  42.7639310  33.9819310  42.3219310  42.9289310
  25.1339310  38.3229310  37.0209310  24.8679310  37.8599310  37.8159310
  25.1499310  37.6459310  36.3449310  25.1019310  38.1769310  37.0369310
  28.2449310  46.4629310  37.3239310  29.0149310  46.4839310  37.8909310
  28.5639310  46.0959310  36.4999310  28.3839310  46.4189310  37.2909310
  33.9809310  46.0999310  39.0539310  33.6149310  46.7409310  39.6639310
  33.2159310  45.6779310  38.6619310  33.8359310  46.1279310  39.0819310
  16.4929310  39.8409310  48.8619310  16.7699310  40.4099310  49.5799310
  15.8909310  39.2179310  49.2689310  16.4519310  39.8339310  49.0059310
  31.9629310  47.6999310  36.0709310  32.0049310  47.5659310  35.1239310
  32.8489310  47.9669310  36.3139310  32.0819310  47.7169310  35.9809310
  32.3059310  38.1299310  38.1589310  32.4379310  37.9859310  39.0959310
  31.4379310  38.5289310  38.0989310  32.2119310  38.1619310  38.2719310
  21.0679310  40.4469310  42.4319310  20.6609310  40.4459310  41.5649310
  20.5819310  41.1099310  42.9229310  20.9539310  40.5319310  42.3839310
  20.4949310  37.6339310  41.1499310  19.7369310  37.6209310  41.7349310
  21.0269310  36.8899310  41.4309310  20.4659310  37.5369310  41.2609310
  25.1549310  41.8329310  40.9809310  24.3299310  41.8149310  40.4959310
  24.9039310  41.6469310  41.8859310  25.0169310  41.8069310  41.0349310
  19.9799310  43.4549310  35.6509310  19.3769310  44.1919310  35.5549310
  20.6089310  43.7449310  36.3119310  19.9829310  43.5859310  35.7229310
  23.1299310  42.4079310  45.9259310  24.0109310  42.6999310  46.1579310
  23.2159310  42.0739310  45.0329310  23.2539310  42.4029310  45.8409310
  27.4269310  38.2269310  44.1099310  26.4749310  38.1639310  44.1809310
  27.7549310  37.4989310  44.6379310  27.3469310  38.1259310  44.1869310
  32.5559310  46.2349310  46.2319310  32.9959310  46.7419310  46.9149310
  31.8839310  45.7379310  46.6979310  32.5269310  46.2359310  46.3789310
  33.7709310  48.0029310  48.4599310  33.0569310  48.6079310  48.2609310
  34.4869310  48.5659310  48.7569310  33.7719310  48.1519310  48.4729310
  29.9059310  39.5519310  37.9739310  30.0099310  39.8959310  38.8609310
  29.7759310  40.3279310  37.4289310  29.9029310  39.6949310  38.0179310
  32.5479310  40.3999310  45.3009310  33.4599310  40.4109310  45.5939310
  32.5479310  39.8149310  44.5429310  32.6649310  40.3259310  45.2419310
  30.3929310  44.7369310  47.1519310  29.5179310  44.4799310  46.8619310
  30.7449310  43.9539310  47.5759310  30.3259310  44.6039310  47.1689310
  22.1349310  36.7259310  35.9609310  22.4769310  36.7349310  36.8549310
  21.6499310  37.5479310  35.8829310  22.1169310  36.8329310  36.0649310
  17.3039310  36.6419310  45.8649310  18.1379310  37.0959310  45.7409310
  16.7159310  37.0409310  45.2249310  17.3359310  36.7509310  45.7679310
  24.7379310  41.2369310  43.6149310  24.8239310  40.4529310  44.1579310
  25.1779310  41.9239310  44.1149310  24.8049310  41.2249310  43.7479310
  31.8339310  35.3759310  37.8289310  31.9619310  36.2909310  37.5769310
  30.8849310  35.2809310  37.9139310  31.7289310  35.4809310  37.8079310
  35.0089310  36.7139310  35.8299310  34.8329310  37.5549310  35.4089310
  34.1999310  36.2149310  35.7159310  34.8829310  36.7579310  35.7619310
  37.5779310  42.6419310  43.2079310  37.5919310  42.3289310  44.1129310
  37.5289310  43.5949310  43.2849310  37.5739310  42.7239310  43.3339310
  26.9709310  40.5779310  37.0909310  26.3449310  39.8539310  37.1149310
  27.1889310  40.7369310  38.0089310  26.9189310  40.5059310  37.2109310
  23.7089310  42.2259310  49.2109310  22.8639310  41.9059310  49.5279310
  24.1819310  41.4349310  48.9519310  23.6609310  42.0839310  49.2189310
  33.4369310  38.0929310  50.3859310  32.5709310  37.9289310  50.0149310
  34.0189310  37.5009310  49.9079310  33.4009310  37.9959310  50.2769310
  33.1429310  43.5429310  37.0919310  32.6859310  43.3019310  37.8979310
  34.0689310  43.4029310  37.2909310  33.2029310  43.4939310  37.2209310
  31.2679310  39.2599310  42.6799310  31.9639310  38.8739310  42.1469310
  30.6579310  38.5379310  42.8349310  31.2789310  39.1179310  42.6309310
  27.1689310  40.6959310  39.7549310  26.3459310  40.9789310  40.1509310
  27.8469310  41.0819310  40.3099310  27.1509310  40.7809310  39.8769310
  20.1809310  44.2869310  47.8479310  19.8039310  44.1599310  48.7179310
  19.6179310  43.7759310  47.2659310  20.0609310  44.2059310  47.8849310
  29.1879310  45.7969310  43.3029310  29.7329310  46.2979310  43.9099310
  28.4939310  46.4039310  43.0459310  29.1689310  45.9379310  43.3479310
  17.1709310  47.3629310  44.1239310  17.5649310  47.2929310  43.2539310
  17.7829310  46.9079310  44.7009310  17.2999310  47.2959310  44.0859310
  31.8919310  43.0429310  39.4959310  31.8489310  43.6619310  40.2259310
  31.5259310  42.2319310  39.8479310  31.8399310  43.0189310  39.6349310
  26.6419310  43.9069310  39.9749310  25.9699310  43.2259310  40.0049310
  26.7209310  44.1239310  39.0459310  26.5659310  43.8479310  39.8599310
  21.3069310  41.2079310  47.8899310  20.7169310  40.4689310  47.7379310
  21.9189310  41.1799310  47.1549310  21.3099310  41.1099310  47.7759310
  22.6919310  47.3999310  45.9219310  22.6519310  46.4449310  45.8849310
  22.2369310  47.6279310  46.7319310  22.6289310  47.3069310  46.0209310
  16.2749310  43.1549310  39.7409310  16.9399310  43.7549310  40.0789310
  15.4429310  43.5889310  39.9299310  16.2539310  43.2869310  39.8089310
  18.6079310  47.5999310  41.9429310  19.2869310  47.3199310  42.5569310
  18.7059310  48.5499310  41.8939310  18.7069310  47.6859310  42.0159310
  24.0219310  46.3359310  37.0299310  23.6389310  46.0269310  36.2089310
  24.2609310  47.2469310  36.8549310  24.0039310  46.4129310  36.9029310
  18.2779310  37.7909310  42.7079310  18.0399310  36.9719310  42.2739310
  17.5169310  38.3589310  42.5809310  18.1499310  37.7589310  42.6359310
  22.8489310  36.6059310  38.7119310  23.0939310  35.7309310  39.0129310
  22.6339310  37.0829310  39.5129310  22.8529310  36.5549310  38.8529310
  28.0809310  38.3549310  41.2499310  27.7869310  39.0699310  40.6859310
  27.8099310  38.6159310  42.1299310  28.0089310  38.4799310  41.2899310
  32.0339310  48.9069310  42.9509310  31.1189310  48.9169310  42.6679310
  32.1559310  48.0389310  43.3359310  31.9319310  48.7969310  42.9639310
  19.6869310  40.8709310  36.7459310  18.7619310  40.6279310  36.7839310
  19.6829310  41.7909310  36.4809310  19.5689310  40.9579310  36.7169310
  21.6559310  45.2239310  40.0349310  22.4789310  45.7099310  39.9969310
  21.7069310  44.7289310  40.8519310  21.7679310  45.2229310  40.1339310
  23.9509310  46.8609310  40.0369310  23.4279310  47.5639310  40.4229310
  23.9629310  47.0569310  39.1009310  23.8859310  46.9759310  39.9669310
  30.9939310  41.7279310  36.2009310  31.4719310  41.3749310  35.4519310
  31.4959310  42.4999310  36.4639310  31.1189310  41.7819310  36.1389310
  23.7959310  48.9039310  49.6059310  23.0129310  49.3099310  49.2369310
  23.5079310  48.0329310  49.8789310  23.6589310  48.8439310  49.5939310
  32.8459310  32.8079310  45.5999310  32.9919310  33.2129310  46.4549310
  31.9009310  32.8759310  45.4609310  32.7439310  32.8679310  45.6919310
  22.8219310  44.8609310  48.0849310  23.1469310  44.0579310  48.4919310
  21.9529310  44.6289310  47.7589310  22.7519310  44.7289310  48.0949310
  28.9339310  42.9429310  43.3139310  29.4319310  42.7359310  42.5229310
  29.1179310  43.8679310  43.4779310  29.0209310  43.0349310  43.2339310
  23.5589310  41.6889310  37.0549310  23.0779310  40.8719310  36.9239310
  23.9929310  41.8479310  36.2169310  23.5529310  41.6049310  36.9309310
  17.5229310  46.7259310  37.5129310  18.2899310  46.4029310  37.9879310
  16.7809310  46.4869310  38.0679310  17.5259310  46.6539310  37.6449310
  16.8609310  40.4819310  46.2089310  17.6589310  40.1319310  45.8139310
  16.8409310  40.1019310  47.0869310  16.9599310  40.3879310  46.2709310
  26.2549310  43.5389310  43.9369310  25.8479310  44.2989310  43.5209310
  27.1169310  43.4739310  43.5269310  26.3129310  43.6279310  43.8309310
  30.7919310  44.7779310  41.4189310  31.4659310  45.1899310  41.9589310
  29.9819310  45.2239310  41.6649310  30.7749310  44.8879310  41.5189310
  18.9459310  45.2689310  44.9219310  19.9029310  45.2529310  44.9029310
  18.7009310  44.4549310  45.3619310  19.0369310  45.1629310  44.9759310
  29.2489310  39.2789310  47.4609310  28.7949310  39.7209310  46.7429310
  28.7069310  39.4539310  48.2299310  29.1219310  39.3579310  47.4669310
  34.4139310  44.2069310  46.4049310  34.0249310  43.7329310  47.1409310
  33.8789310  44.9959310  46.3189310  34.2959310  44.2469310  46.4879310
  27.7879310  40.7549310  45.2709310  28.4139310  41.2049310  44.7039310
  27.6459310  39.9079310  44.8469310  27.8499310  40.7039310  45.1439310
  26.3229310  48.6319310  48.7699310  26.7159310  49.4529310  49.0659310
  25.4099310  48.6869310  49.0519310  26.2569310  48.7439310  48.8439310
  27.8119310  37.4999310  38.0269310  27.0529310  37.7479310  37.4989310
  28.3669310  38.2799310  38.0279310  27.7859310  37.6319310  37.9599310
  20.3469310  40.7929310  39.7439310  20.2569310  40.5219310  38.8309310
  19.4489310  40.9499310  40.0369310  20.2199310  40.7789310  39.6649310
  29.9339310  36.6839310  42.5399310  29.2719310  37.0899310  41.9799310
  30.6289310  36.4209310  41.9369310  29.9379310  36.7029310  42.3909310
  31.5469310  41.9159310  47.9189310  31.2819310  41.2639310  48.5689310
  31.7659310  41.4029310  47.1409310  31.5409310  41.7669310  47.9029310
  22.2929310  43.7089310  42.1439310  22.4809310  42.9569310  41.5819310
  23.1489310  44.0999310  42.3139310  22.4259310  43.6629310  42.0939310
  20.9399310  35.5789310  44.3029310  21.1109310  36.4999310  44.5019310
  21.5059310  35.0949310  44.9039310  21.0339310  35.6349310  44.4049310
  24.7429310  48.9159310  36.4269310  25.5869310  48.8779310  36.8779310
  24.9659310  49.1209310  35.5189310  24.8799310  48.9369310  36.3689310
  21.7939310  44.7059310  44.6959310  22.0509310  44.2879310  43.8739310
  21.8779310  44.0139310  45.3519310  21.8379310  44.5639310  44.6749310
  29.1059310  49.1609310  45.1549310  29.2039310  49.4079310  44.2349310
  28.2519310  49.5109310  45.4069310  29.0089310  49.2369310  45.0699310
  33.9689310  42.9959310  49.3169310  33.0729310  42.6709310  49.2299310
  33.8689310  43.8909310  49.6419310  33.8409310  43.0689310  49.3479310
  26.1649310  44.6829310  37.3549310  26.8949310  45.3029310  37.3439310
  25.3829310  45.2339310  37.3239310  26.1579310  44.8329310  37.3489310
  25.7969310  42.0639310  46.4709310  25.3479310  41.3099310  46.8529310
  26.5189310  41.6839310  45.9709310  25.8319310  41.9189310  46.4559310
  27.3319310  46.1879310  48.1829310  27.0559310  47.0119310  48.5849310
  28.2829310  46.1749310  48.2919310  27.4189310  46.2919310  48.2479310
  22.8199310  38.8009310  40.4539310  22.6719310  39.7439310  40.3759310
  22.0279310  38.4689310  40.8779310  22.6999310  38.8789310  40.4979310
  22.0759310  39.2899310  37.0489310  21.1589310  39.0749310  37.2149310
  22.5509310  38.9019310  37.7839310  22.0189310  39.2129310  37.1639310
  16.8659310  36.9449310  48.9019310  17.7279310  36.9059310  49.3159310
  17.0519310  37.0949310  47.9749310  16.9999310  36.9589310  48.8359310
  27.7829310  44.4779310  46.2689310  27.5149310  45.1209310  46.9259310
  26.9839310  44.2959310  45.7729310  27.6459310  44.5369310  46.2889310
  17.6809310  41.0169310  40.9319310  18.0809310  41.6019310  41.5759310
  17.2169310  41.6019310  40.3329310  17.6729310  41.1669310  40.9379310
  27.7599310  42.8119310  48.8309310  27.5969310  43.1209310  47.9399310
  26.8989310  42.5479310  49.1539310  27.6289310  42.8179310  48.7589310
  19.6409310  35.6959310  36.9769310  19.6419310  36.4379310  37.5809310
  20.1449310  35.9999310  36.2229310  19.7059310  35.8299310  36.9579310
  20.5569310  47.7319310  37.2609310  20.6429310  47.6809310  36.3089310
  20.0039310  48.4999310  37.4099310  20.4969310  47.8239310  37.1579310
  18.0709310  42.9529310  46.1199310  17.2919310  43.4589310  46.3509310
  17.8089310  42.0399310  46.2429310  17.9379310  42.9009310  46.1649310
  21.1669310  47.1099310  43.2259310  21.0799310  47.8899310  43.7749310
  21.2389310  46.3859310  43.8489310  21.1649310  47.1169310  43.3759310
  16.7979310  38.1939310  38.4309310  16.7409310  37.9399310  37.5099310
  16.2499310  38.9759310  38.4989310  16.7209310  38.2619310  38.3219310
  22.3509310  35.7669310  41.8619310  21.9459310  35.4359310  42.6639310
  22.4579310  34.9929310  41.3099310  22.3129310  35.6259310  41.8939310
  22.8939310  41.8129310  39.7479310  23.2669310  41.7479310  38.8689310
  21.9889310  41.5169310  39.6469310  22.8259310  41.7659310  39.6229310
  22.5929310  48.9699310  38.1819310  21.8609310  48.4809310  37.8059310
  23.2529310  48.9829310  37.4899310  22.5829310  48.9089310  38.0459310
  25.0389310  38.7099310  42.1329310  24.1869310  38.5719310  41.7209310
  25.0889310  39.6569310  42.2689310  24.9369310  38.8139310  42.0979310
  26.0839310  42.3809310  35.3719310  26.0649310  43.0309310  36.0739310
  26.4389310  41.5929310  35.7839310  26.1269310  42.3639310  35.5139310
  25.7569310  36.8839310  40.2239310  25.5319310  37.6689310  40.7229310
  26.6559310  37.0359310  39.9319310  25.8439310  37.0039310  40.2509310
  31.1839310  36.6039310  45.0939310  32.0549310  36.2109310  45.1509310
  31.0849310  36.8349310  44.1709310  31.2829310  36.5829310  44.9829310
  28.0919310  36.8709310  50.2279310  27.8319310  36.0949310  49.7309310
  29.0479310  36.8759310  50.1799310  28.1809310  36.7719310  50.1579310
  31.2089310  40.4689310  40.3419310  30.9879310  40.2189310  41.2399310
  32.0249310  40.0029310  40.1589310  31.2849310  40.3769310  40.4339310
  25.0119310  39.0189310  45.5089310  24.1609310  38.5879310  45.4219310
  25.1109310  39.1659310  46.4499310  24.9149310  38.9829310  45.6179310
  22.4339310  48.5529310  41.3449310  21.7979310  48.0979310  41.8959310
  21.9459310  49.2869310  40.9719310  22.2909310  48.5889310  41.3679310
  33.8999310  40.4929310  38.1779310  33.0769310  40.0059310  38.1299310
  33.6479310  41.3569310  38.5059310  33.7629310  40.5409310  38.2139310
  18.9869310  39.1739310  45.1229310  18.8929310  38.7069310  44.2929310
  19.8099310  38.8509310  45.4879310  19.0799310  39.0729310  45.0639310
  33.6239310  45.6629310  50.0139310  32.7329310  45.8789310  50.2919310
  33.9009310  46.4159310  49.4919310  33.5449310  45.7869310  49.9829310
  32.6919310  47.6849310  40.4459310  32.7139310  47.8009310  41.3959310
  32.8649310  48.5579310  40.0949310  32.7169310  47.8119310  40.5229310
  21.1499310  38.4319310  46.3789310  21.6019310  37.8529310  46.9929310
  21.7129310  38.4469310  45.6059310  21.2799310  38.3599310  46.3589310
  31.0509310  46.7019310  49.7979310  30.4409310  45.9659310  49.8539310
  30.6189310  47.3259310  49.2149310  30.9179310  46.6869310  49.7309310
  20.1489310  47.2899310  48.2229310  19.6879310  47.6339310  47.4579310
  20.2299310  46.3519310  48.0509310  20.0999310  47.2139310  48.1029310
  18.3449310  44.9309310  40.4079310  19.3009310  44.9629310  40.4349310
  18.0739310  45.8479310  40.4459310  18.4329310  45.0519310  40.4159310
  19.7039310  38.2209310  38.3789310  20.0119310  38.2859310  39.2829310
  18.7859310  37.9629310  38.4579310  19.6259310  38.1959310  38.5049310
  29.0129310  42.4819310  40.7629310  29.6329310  42.9259310  40.1839310
  28.2029310  42.9859310  40.6779310  28.9889310  42.6039310  40.6779310
  15.6329310  48.5339310  36.7239310  16.2609310  48.0109310  37.2229310
  16.1269310  48.8399310  35.9629310  15.7769310  48.5059310  36.6909310
  29.9059310  48.5609310  47.8169310  29.7329310  48.4839310  46.8789310
  30.6889310  49.1079310  47.8719310  29.9839310  48.6209310  47.7039310
  24.7239310  44.9449310  42.1359310  25.2379310  44.3449310  41.5959310
  24.4499310  45.6349310  41.5319310  24.7539310  44.9559310  41.9899310
  30.7659310  38.1739310  49.6949310  30.4789310  38.9999310  50.0859310
  30.5429310  38.2579310  48.7679310  30.6999310  38.2909310  49.6269310
  34.7809310  39.5099310  42.1809310  35.3629310  39.9949310  41.5949310
  34.2149310  40.1799310  42.5639310  34.7829310  39.6579310  42.1549310
  22.4999310  38.3289310  44.0469310  22.3219310  38.9189310  43.3149310
  22.9849310  37.6019310  43.6569310  22.5389310  38.3119310  43.9039310
  16.1049310  44.9189310  42.6239310  16.7019310  45.1749310  41.9199310
  16.4079310  45.4139310  43.3859310  16.2199310  45.0149310  42.6309310
  18.7859310  48.4259310  46.4289310  19.0449310  49.1189310  45.8209310
  17.9139310  48.6849310  46.7279310  18.7079310  48.5479310  46.3889310
  32.4739310  46.0159310  43.4099310  33.3269310  45.6749310  43.1399310
  32.4959310  45.9869310  44.3659310  32.5859310  45.9679310  43.4969310
  34.5499310  36.0419310  42.9179310  33.9539310  35.6919310  43.5799310
  35.2679310  35.4099310  42.8829310  34.5659310  35.9169310  42.9979310
  30.6199310  46.6869310  38.6249310  31.0159310  47.0279310  39.4269310
  31.1109310  47.1059310  37.9179310  30.7329310  46.7839310  38.6369310
  22.9259310  37.7139310  30.0459310  23.1539310  37.6859310  30.9749310
  22.2969310  37.0019310  29.9329310  22.8749310  37.6189310  30.1509310
  25.0899310  49.3439310  23.4689310  24.9159310  49.5049310  24.3969310
  24.3249310  48.8579310  23.1629310  24.9699310  49.3019310  23.5489310
  21.6609310  44.2409310  18.7999310  21.5069310  44.6979310  19.6269310
  22.3729310  43.6309310  18.9919310  21.7319310  44.2209310  18.9299310
  25.0559310  39.4499310  29.4049310  24.4529310  38.8089310  29.7799310
  25.8449310  39.3809310  29.9429310  25.0799310  39.3599310  29.5219310
  27.4789310  39.2759310  30.6729310  27.6569310  38.3939310  30.9989310
  27.7979310  39.8559310  31.3649310  27.5429310  39.2369310  30.8039310
  32.9189310  37.9039310  22.1719310  32.9869310  36.9569310  22.0479310
  33.7879310  38.1689310  22.4729310  33.0389310  37.8169310  22.1949310
  34.0379310  42.1949310  24.0129310  33.2589310  42.3049310  24.5579310
  34.3819310  43.0809310  23.9039310  33.9819310  42.3219310  24.0689310
  25.1339310  38.3229310  18.1609310  24.8679310  37.8599310  18.9559310
  25.1499310  37.6459310  17.4849310  25.1019310  38.1769310  18.1769310
  25.3689310  45.5109310  31.4449310  25.2409310  44.6459310  31.8339310
  25.8119310  45.3359310  30.6139310  25.4089310  45.3779310  31.3879310
  28.2449310  46.4629310  18.4639310  29.0149310  46.4839310  19.0309310
  28.5639310  46.0959310  17.6399310  28.3839310  46.4189310  18.4309310
  33.9809310  46.0999310  20.1939310  33.6149310  46.7409310  20.8039310
  33.2159310  45.6779310  19.8019310  33.8359310  46.1279310  20.2219310
  16.4929310  39.8409310  30.0019310  16.7699310  40.4099310  30.7199310
  15.8909310  39.2179310  30.4089310  16.4519310  39.8339310  30.1459310
  31.9629310  47.6999310  17.2109310  32.0049310  47.5659310  16.2639310
  32.8489310  47.9669310  17.4539310  32.0819310  47.7169310  17.1209310
  17.3659310  46.1779310  32.5949310  16.4449310  45.9579310  32.4549310
  17.4459310  46.2849310  33.5419310  17.2579310  46.1629310  32.6979310
  32.3059310  38.1299310  19.2989310  32.4379310  37.9859310  20.2359310
  31.4379310  38.5289310  19.2389310  32.2119310  38.1619310  19.4119310
  21.0679310  40.4469310  23.5719310  20.6609310  40.4459310  22.7049310
  20.5819310  41.1099310  24.0629310  20.9539310  40.5319310  23.5239310
  27.5349310  41.3319310  32.5889310  28.1209310  41.6449310  33.2779310
  26.8089310  41.9569310  32.5889310  27.5169310  41.4519310  32.6769310
  25.1549310  41.8329310  22.1209310  24.3299310  41.8149310  21.6359310
  24.9039310  41.6469310  23.0259310  25.0169310  41.8069310  22.1749310
  17.0559310  39.8449310  35.6429310  16.8579310  39.9259310  34.7109310
  16.2619310  40.1479310  36.0839310  16.9289310  39.8939310  35.5799310
  19.9799310  43.4549310  16.7909310  19.3769310  44.1919310  16.6949310
  20.6089310  43.7449310  17.4519310  19.9829310  43.5859310  16.8629310
  23.1299310  42.4079310  27.0659310  24.0109310  42.6999310  27.2979310
  23.2159310  42.0739310  26.1729310  23.2539310  42.4029310  26.9809310
  17.0239310  48.8709310  34.3999310  16.2619310  49.4389310  34.2829310
  17.2289310  48.5609310  33.5179310  16.9519310  48.9039310  34.2719310
  27.4269310  38.2269310  25.2499310  26.4749310  38.1639310  25.3209310
  27.7549310  37.4989310  25.7779310  27.3469310  38.1259310  25.3269310
  32.5559310  46.2349310  27.3719310  32.9959310  46.7419310  28.0549310
  31.8839310  45.7379310  27.8379310  32.5269310  46.2359310  27.5189310
  33.7709310  48.0029310  29.5999310  33.0569310  48.6079310  29.4009310
  34.4869310  48.5659310  29.8969310  33.7719310  48.1519310  29.6129310
  23.0759310  45.7559310  34.4359310  22.9189310  44.8119310  34.3999310
  22.9869310  46.0479310  33.5289310  23.0439310  45.6719310  34.3149310
  29.9059310  39.5519310  19.1139310  30.0099310  39.8959310  20.0009310
  29.7759310  40.3279310  18.5689310  29.9029310  39.6949310  19.1579310
  32.5479310  40.3999310  26.4409310  33.4599310  40.4109310  26.7339310
  32.5479310  39.8149310  25.6829310  32.6649310  40.3259310  26.3819310
  30.3929310  44.7369310  28.2919310  29.5179310  44.4799310  28.0019310
  30.7449310  43.9539310  28.7159310  30.3259310  44.6039310  28.3089310
  22.1349310  36.7259310  17.1009310  22.4769310  36.7349310  17.9949310
  21.6499310  37.5479310  17.0229310  22.1169310  36.8329310  17.2049310
  18.4029310  35.7749310  34.0169310  17.5699310  35.3479310  34.2179310
  18.3699310  36.6019310  34.4969310  18.2919310  35.8259310  34.1039310
  24.7379310  41.2369310  24.7549310  24.8239310  40.4529310  25.2979310
  25.1779310  41.9239310  25.2549310  24.8049310  41.2249310  24.8879310
  33.3999310  38.8549310  34.0949310  32.5009310  38.5269310  34.0899310
  33.7249310  38.6779310  33.2129310  33.3259310  38.7899310  33.9819310
  31.8339310  35.3759310  18.9689310  31.9619310  36.2909310  18.7169310
  30.8849310  35.2809310  19.0539310  31.7289310  35.4809310  18.9479310
  35.0089310  36.7139310  16.9699310  34.8329310  37.5549310  16.5489310
  34.1999310  36.2149310  16.8559310  34.8829310  36.7579310  16.9019310
  37.5779310  42.6419310  24.3479310  37.5919310  42.3289310  25.2529310
  37.5289310  43.5949310  24.4249310  37.5739310  42.7239310  24.4739310
  26.9709310  40.5779310  18.2309310  26.3449310  39.8539310  18.2549310
  27.1889310  40.7369310  19.1489310  26.9189310  40.5059310  18.3509310
  23.7089310  42.2259310  30.3509310  22.8639310  41.9059310  30.6679310
  24.1819310  41.4349310  30.0919310  23.6609310  42.0839310  30.3589310
  20.6359310  47.4119310  34.6849310  21.4469310  46.9239310  34.5429310
  20.3669310  47.6889310  33.8089310  20.7049310  47.3849310  34.5539310
  33.4369310  38.0929310  31.5259310  32.5709310  37.9289310  31.1549310
  34.0189310  37.5009310  31.0479310  33.4009310  37.9959310  31.4169310
  33.1429310  43.5429310  18.2319310  32.6859310  43.3019310  19.0379310
  34.0689310  43.4029310  18.4309310  33.2029310  43.4939310  18.3609310
  22.8979310  46.4519310  31.7129310  23.7779310  46.0789310  31.6609310
  22.3599310  45.8709310  31.1759310  22.9419310  46.3299310  31.6379310
  31.2679310  39.2599310  23.8199310  31.9639310  38.8739310  23.2869310
  30.6579310  38.5379310  23.9749310  31.2789310  39.1179310  23.7709310
  29.3419310  44.7089310  31.3619310  28.7849310  44.3149310  30.6899310
  28.7659310  45.3189310  31.8219310  29.1969310  44.7369310  31.3349310
  33.2559310  43.9699310  34.5559310  32.4329310  44.3099310  34.2069310
  33.1119310  43.9139310  35.5009310  33.1329310  44.0059310  34.6319310
  27.1689310  40.6959310  20.8949310  26.3459310  40.9789310  21.2909310
  27.8469310  41.0819310  21.4499310  27.1509310  40.7809310  21.0169310
  20.1809310  44.2869310  28.9879310  19.8039310  44.1599310  29.8579310
  19.6179310  43.7759310  28.4059310  20.0609310  44.2059310  29.0249310
  29.1879310  45.7969310  24.4429310  29.7329310  46.2979310  25.0499310
  28.4939310  46.4039310  24.1859310  29.1689310  45.9379310  24.4879310
  17.1709310  47.3629310  25.2639310  17.5649310  47.2929310  24.3939310
  17.7829310  46.9079310  25.8409310  17.2999310  47.2959310  25.2259310
  31.8919310  43.0429310  20.6359310  31.8489310  43.6619310  21.3659310
  31.5259310  42.2319310  20.9879310  31.8399310  43.0189310  20.7749310
  26.6419310  43.9069310  21.1149310  25.9699310  43.2259310  21.1449310
  26.7209310  44.1239310  20.1859310  26.5659310  43.8479310  20.9999310
  20.3289310  38.7599310  35.0779310  20.1759310  39.0399310  34.1759310
  20.0919310  39.5199310  35.6089310  20.2789310  38.8929310  35.0309310
  22.2619310  42.8809310  34.1839310  22.1469310  42.5969310  33.2769310
  21.3709310  42.9839310  34.5169310  22.1329310  42.8579310  34.1099310
  21.3069310  41.2079310  29.0299310  20.7169310  40.4689310  28.8779310
  21.9189310  41.1799310  28.2949310  21.3099310  41.1099310  28.9159310
  22.6919310  47.3999310  27.0619310  22.6519310  46.4449310  27.0249310
  22.2369310  47.6279310  27.8719310  22.6289310  47.3069310  27.1609310
  30.6569310  44.0529310  33.7439310  29.9659310  43.4129310  33.9119310
  30.4489310  44.4089310  32.8809310  30.5419310  44.0159310  33.6549310
  16.2749310  43.1549310  20.8809310  16.9399310  43.7549310  21.2189310
  15.4429310  43.5889310  21.0699310  16.2539310  43.2869310  20.9489310
  18.6079310  47.5999310  23.0829310  19.2869310  47.3199310  23.6969310
  18.7059310  48.5499310  23.0339310  18.7069310  47.6859310  23.1559310
  24.0219310  46.3359310  18.1699310  23.6389310  46.0269310  17.3489310
  24.2609310  47.2469310  17.9949310  24.0039310  46.4129310  18.0429310
  22.8489310  36.6059310  19.8519310  23.0939310  35.7309310  20.1529310
  22.6339310  37.0829310  20.6529310  22.8529310  36.5549310  19.9929310
  28.0809310  38.3549310  22.3899310  27.7869310  39.0699310  21.8259310
  27.8099310  38.6159310  23.2699310  28.0089310  38.4799310  22.4299310
  32.0339310  48.9069310  24.0909310  31.1189310  48.9169310  23.8079310
  32.1559310  48.0389310  24.4759310  31.9319310  48.7969310  24.1039310
  19.6869310  40.8709310  17.8859310  18.7619310  40.6279310  17.9239310
  19.6829310  41.7909310  17.6209310  19.5689310  40.9579310  17.8569310
  21.6559310  45.2239310  21.1749310  22.4789310  45.7099310  21.1369310
  21.7069310  44.7289310  21.9919310  21.7679310  45.2229310  21.2739310
  23.9509310  46.8609310  21.1769310  23.4279310  47.5639310  21.5629310
  23.9629310  47.0569310  20.2409310  23.8859310  46.9759310  21.1069310
  30.9939310  41.7279310  17.3409310  31.4719310  41.3749310  16.5919310
  31.4959310  42.4999310  17.6039310  31.1189310  41.7819310  17.2789310
  19.8879310  47.1639310  32.1709310  19.8499310  47.4809310  31.2689310
  19.0159310  46.8049310  32.3359310  19.7709310  47.1579310  32.0769310
  23.7959310  48.9039310  30.7459310  23.0129310  49.3099310  30.3769310
  23.5079310  48.0329310  31.0189310  23.6589310  48.8439310  30.7339310
  22.8219310  44.8609310  29.2249310  23.1469310  44.0579310  29.6319310
  21.9529310  44.6289310  28.8989310  22.7519310  44.7289310  29.2349310
  18.4379310  45.7949310  35.1939310  19.2409310  46.3049310  35.0839310
  17.9879310  46.2129310  35.9279310  18.4829310  45.9139310  35.2739310
  28.9339310  42.9429310  24.4539310  29.4319310  42.7359310  23.6629310
  29.1179310  43.8679310  24.6179310  29.0209310  43.0349310  24.3739310
  23.5589310  41.6889310  18.1949310  23.0779310  40.8719310  18.0639310
  23.9929310  41.8479310  17.3569310  23.5529310  41.6049310  18.0709310
  17.5229310  46.7259310  18.6529310  18.2899310  46.4029310  19.1279310
  16.7809310  46.4869310  19.2079310  17.5259310  46.6539310  18.7849310
  16.8609310  40.4819310  27.3489310  17.6589310  40.1319310  26.9539310
  16.8409310  40.1019310  28.2269310  16.9599310  40.3879310  27.4109310
  26.2549310  43.5389310  25.0769310  25.8479310  44.2989310  24.6609310
  27.1169310  43.4739310  24.6669310  26.3129310  43.6279310  24.9709310
  30.7919310  44.7779310  22.5589310  31.4659310  45.1899310  23.0989310
  29.9819310  45.2239310  22.8049310  30.7749310  44.8879310  22.6589310
  18.9459310  45.2689310  26.0619310  19.9029310  45.2529310  26.0429310
  18.7009310  44.4549310  26.5019310  19.0369310  45.1629310  26.1159310
  29.2489310  39.2789310  28.6009310  28.7949310  39.7209310  27.8829310
  28.7069310  39.4539310  29.3699310  29.1219310  39.3579310  28.6069310
  34.4139310  44.2069310  27.5449310  34.0249310  43.7329310  28.2809310
  33.8789310  44.9959310  27.4589310  34.2959310  44.2469310  27.6279310
  27.7879310  40.7549310  26.4109310  28.4139310  41.2049310  25.8439310
  27.6459310  39.9079310  25.9869310  27.8499310  40.7039310  26.2839310
  26.3229310  48.6319310  29.9099310  26.7159310  49.4529310  30.2059310
  25.4099310  48.6869310  30.1919310  26.2569310  48.7439310  29.9839310
  27.8119310  37.4999310  19.1669310  27.0529310  37.7479310  18.6389310
  28.3669310  38.2799310  19.1679310  27.7859310  37.6319310  19.0999310
  20.3469310  40.7929310  20.8839310  20.2569310  40.5219310  19.9709310
  19.4489310  40.9499310  21.1769310  20.2199310  40.7789310  20.8049310
  31.5469310  41.9159310  29.0589310  31.2819310  41.2639310  29.7089310
  31.7659310  41.4029310  28.2809310  31.5409310  41.7669310  29.0429310
  22.2929310  43.7089310  23.2839310  22.4809310  42.9569310  22.7219310
  23.1489310  44.0999310  23.4539310  22.4259310  43.6629310  23.2339310
  23.9489310  38.5689310  32.5239310  24.8709310  38.6449310  32.7679310
  23.4969310  39.1859310  33.0989310  24.0089310  38.6569310  32.6279310
  24.7429310  48.9159310  17.5669310  25.5869310  48.8779310  18.0179310
  24.9659310  49.1209310  16.6589310  24.8799310  48.9369310  17.5089310
  21.7939310  44.7059310  25.8359310  22.0509310  44.2879310  25.0139310
  21.8779310  44.0139310  26.4919310  21.8379310  44.5639310  25.8149310
  29.1059310  49.1609310  26.2949310  29.2039310  49.4079310  25.3749310
  28.2519310  49.5109310  26.5469310  29.0089310  49.2369310  26.2099310
  32.5999310  35.4449310  35.2589310  32.0589310  34.9299310  35.8569310
  32.1359310  36.2779310  35.1719310  32.4719310  35.4859310  35.3249310
  33.9689310  42.9959310  30.4569310  33.0729310  42.6709310  30.3699310
  33.8689310  43.8909310  30.7819310  33.8409310  43.0689310  30.4879310
  26.1649310  44.6829310  18.4949310  26.8949310  45.3029310  18.4839310
  25.3829310  45.2339310  18.4639310  26.1579310  44.8329310  18.4889310
  25.7969310  42.0639310  27.6109310  25.3479310  41.3099310  27.9929310
  26.5189310  41.6839310  27.1109310  25.8319310  41.9189310  27.5959310
  27.3319310  46.1879310  29.3229310  27.0559310  47.0119310  29.7249310
  28.2829310  46.1749310  29.4319310  27.4189310  46.2919310  29.3879310
  22.8199310  38.8009310  21.5939310  22.6719310  39.7439310  21.5159310
  22.0279310  38.4689310  22.0179310  22.6999310  38.8789310  21.6379310
  26.4709310  39.1449310  34.0129310  26.0049310  39.7429310  34.5969310
  27.0659310  39.7089310  33.5179310  26.4869310  39.2929310  34.0239310
  22.0759310  39.2899310  18.1889310  21.1589310  39.0749310  18.3549310
  22.5509310  38.9019310  18.9239310  22.0189310  39.2129310  18.3039310
  18.7179310  44.0359310  31.4599310  18.0389310  44.6749310  31.6799310
  18.3089310  43.1869310  31.6229310  18.5779310  44.0089310  31.5089310
  16.3249310  42.1159310  34.0289310  15.7249310  42.8489310  34.1699310
  16.8719310  42.0989310  34.8149310  16.3179310  42.2079310  34.1479310
  17.6809310  41.0169310  22.0719310  18.0809310  41.6019310  22.7159310
  17.2169310  41.6019310  21.4729310  17.6729310  41.1669310  22.0779310
  27.7599310  42.8119310  29.9709310  27.5969310  43.1209310  29.0799310
  26.8989310  42.5479310  30.2939310  27.6289310  42.8179310  29.8989310
  27.9819310  37.0329310  34.1089310  27.9789310  36.7429310  33.1969310
  27.3099310  37.7139310  34.1459310  27.8949310  37.0829310  33.9969310
  19.6409310  35.6959310  18.1169310  19.6419310  36.4379310  18.7209310
  20.1449310  35.9999310  17.3629310  19.7059310  35.8299310  18.0979310
  20.5569310  47.7319310  18.4009310  20.6429310  47.6809310  17.4489310
  20.0039310  48.4999310  18.5499310  20.4969310  47.8239310  18.2979310
  27.6919310  46.4749310  32.5069310  26.8739310  46.3189310  32.0359310
  27.7399310  47.4269310  32.5959310  27.5939310  46.5769310  32.4579310
  32.0419310  41.1709310  33.7379310  32.7549310  40.5389310  33.8329310
  32.4819310  42.0079310  33.5919310  32.1889310  41.1969310  33.7309310
  18.0709310  42.9529310  27.2599310  17.2919310  43.4589310  27.4909310
  17.8089310  42.0399310  27.3829310  17.9379310  42.9009310  27.3049310
  21.1669310  47.1099310  24.3659310  21.0799310  47.8899310  24.9149310
  21.2389310  46.3859310  24.9889310  21.1649310  47.1169310  24.5159310
  21.2689310  42.2509310  31.5499310  21.1779310  42.1309310  30.6049310
  20.5449310  42.8289310  31.7879310  21.1649310  42.3099310  31.4589310
  22.8939310  41.8129310  20.8879310  23.2669310  41.7479310  20.0089310
  21.9889310  41.5169310  20.7869310  22.8259310  41.7659310  20.7629310
  22.5929310  48.9699310  19.3219310  21.8609310  48.4809310  18.9459310
  23.2529310  48.9829310  18.6299310  22.5829310  48.9089310  19.1859310
  25.0389310  38.7099310  23.2729310  24.1869310  38.5719310  22.8609310
  25.0889310  39.6569310  23.4089310  24.9369310  38.8139310  23.2379310
  19.9109310  39.3779310  32.4639310  20.7019310  39.4109310  31.9269310
  19.5509310  40.2639310  32.4159310  19.9659310  39.4949310  32.3889310
  26.0839310  42.3809310  16.5119310  26.0649310  43.0309310  17.2139310
  26.4389310  41.5929310  16.9239310  26.1269310  42.3639310  16.6539310
  31.0669310  37.6309310  33.9329310  31.1279310  37.2839310  33.0429310
  30.1269310  37.6789310  34.1069310  30.9539310  37.5929310  33.8409310
  28.0919310  36.8709310  31.3679310  27.8319310  36.0949310  30.8709310
  29.0479310  36.8759310  31.3199310  28.1809310  36.7719310  31.2979310
  31.2089310  40.4689310  21.4819310  30.9879310  40.2189310  22.3799310
  32.0249310  40.0029310  21.2989310  31.2849310  40.3769310  21.5739310
  25.0119310  39.0189310  26.6489310  24.1609310  38.5879310  26.5619310
  25.1109310  39.1659310  27.5899310  24.9149310  38.9829310  26.7579310
  23.6429310  36.0399310  33.7999310  23.0899310  36.3509310  34.5159310
  23.7039310  36.7859310  33.2029310  23.5799310  36.1749310  33.8149310
  22.4339310  48.5529310  22.4849310  21.7979310  48.0979310  23.0359310
  21.9459310  49.2869310  22.1119310  22.2909310  48.5889310  22.5079310
  33.8999310  40.4929310  19.3179310  33.0769310  40.0059310  19.2699310
  33.6479310  41.3569310  19.6459310  33.7629310  40.5409310  19.3539310
  30.9569310  47.8259310  33.3369310  30.3169310  47.2929310  33.8089310
  30.9189310  47.5029310  32.4359310  30.8699310  47.7159310  33.2819310
  18.9869310  39.1739310  26.2629310  18.8929310  38.7069310  25.4329310
  19.8099310  38.8509310  26.6279310  19.0799310  39.0729310  26.2039310
  33.6239310  45.6629310  31.1539310  32.7329310  45.8789310  31.4319310
  33.9009310  46.4159310  30.6319310  33.5449310  45.7869310  31.1229310
  32.6919310  47.6849310  21.5859310  32.7139310  47.8009310  22.5359310
  32.8649310  48.5579310  21.2349310  32.7169310  47.8119310  21.6629310
  21.1499310  38.4319310  27.5189310  21.6019310  37.8529310  28.1329310
  21.7129310  38.4469310  26.7459310  21.2799310  38.3599310  27.4989310
  17.7319310  41.5319310  31.7879310  17.1659310  41.8929310  31.1059310
  17.2359310  41.6479310  32.5979310  17.5959310  41.5929310  31.8039310
  31.0509310  46.7019310  30.9379310  30.4409310  45.9659310  30.9939310
  30.6189310  47.3259310  30.3549310  30.9179310  46.6869310  30.8709310
  20.1489310  47.2899310  29.3629310  19.6879310  47.6339310  28.5979310
  20.2299310  46.3519310  29.1909310  20.0999310  47.2139310  29.2429310
  18.3449310  44.9309310  21.5479310  19.3009310  44.9629310  21.5749310
  18.0739310  45.8479310  21.5859310  18.4329310  45.0519310  21.5559310
  23.1849310  40.3899310  34.4909310  22.4199310  39.9929310  34.9089310
  22.9309310  41.3009310  34.3429310  23.0539310  40.4559310  34.5259310
  19.7039310  38.2209310  19.5189310  20.0119310  38.2859310  20.4229310
  18.7859310  37.9629310  19.5979310  19.6259310  38.1959310  19.6449310
  29.0129310  42.4819310  21.9029310  29.6329310  42.9259310  21.3239310
  28.2029310  42.9859310  21.8179310  28.9889310  42.6039310  21.8179310
  15.6329310  48.5339310  17.8639310  16.2609310  48.0109310  18.3629310
  16.1269310  48.8399310  17.1029310  15.7769310  48.5059310  17.8309310
  29.9059310  48.5609310  28.9569310  29.7329310  48.4839310  28.0189310
  30.6889310  49.1079310  29.0119310  29.9839310  48.6209310  28.8439310
  24.7239310  44.9449310  23.2759310  25.2379310  44.3449310  22.7359310
  24.4499310  45.6349310  22.6719310  24.7539310  44.9559310  23.1299310
  30.7659310  38.1739310  30.8349310  30.4789310  38.9999310  31.2259310
  30.5429310  38.2579310  29.9079310  30.6999310  38.2909310  30.7669310
  34.7809310  39.5099310  23.3209310  35.3629310  39.9949310  22.7349310
  34.2149310  40.1799310  23.7039310  34.7829310  39.6579310  23.2949310
  29.1599310  46.2859310  34.6289310  28.3489310  46.3239310  34.1219310
  29.5239310  45.4229310  34.4339310  29.1029310  46.1809310  34.5389310
  22.4999310  38.3289310  25.1869310  22.3219310  38.9189310  24.4549310
  22.9849310  37.6019310  24.7969310  22.5389310  38.3119310  25.0439310
  16.1049310  44.9189310  23.7639310  16.7019310  45.1749310  23.0599310
  16.4079310  45.4139310  24.5259310  16.2199310  45.0149310  23.7709310
  18.7859310  48.4259310  27.5689310  19.0449310  49.1189310  26.9609310
  17.9139310  48.6849310  27.8679310  18.7079310  48.5479310  27.5289310
  32.4739310  46.0159310  24.5499310  33.3269310  45.6749310  24.2799310
  32.4959310  45.9869310  25.5059310  32.5859310  45.9679310  24.6369310
  25.4039310  42.9269310  32.4549310  24.6499310  42.5969310  31.9659310
  25.2029310  42.7289310  33.3689310  25.2819310  42.8589310  32.5089310
  28.9539310  42.2499310  34.5239310  28.1699310  42.2109310  35.0719310
  29.5909310  41.6989310  34.9779310  28.9349310  42.1749310  34.6519310
  30.6199310  46.6869310  19.7649310  31.0159310  47.0279310  20.5669310
  31.1109310  47.1059310  19.0579310  30.7329310  46.7839310  19.7769310
  30.3489310  40.7729310  31.7269310  31.0419310  40.9669310  32.3589310
  29.7129310  41.4789310  31.8449310  30.3559310  40.8879310  31.8229310
  22.9259310  37.7139310  11.1859310  23.1539310  37.6859310  12.1149310
  22.2969310  37.0019310  11.0729310  22.8749310  37.6189310  11.2909310
  25.0899310  49.3439310   4.6089310  24.9159310  49.5049310   5.5369310
  24.3249310  48.8579310   4.3029310  24.9699310  49.3019310   4.6889310
  20.8419310  35.9999310  10.6919310  20.2819310  36.4479310  11.3259310
  20.6959310  35.0689310  10.8589310  20.7519310  35.9379310  10.7939310
  25.0559310  39.4499310  10.5449310  24.4529310  38.8089310  10.9199310
  25.8449310  39.3809310  11.0829310  25.0799310  39.3599310  10.6619310
  27.4789310  39.2759310  11.8129310  27.6569310  38.3939310  12.1389310
  27.7979310  39.8559310  12.5049310  27.5429310  39.2369310  11.9439310
  27.1669310  47.2719310   4.0589310  26.7409310  46.6649310   3.4549310
  26.5039310  47.9389310   4.2369310  27.0279310  47.2799310   4.0049310
  32.9189310  37.9039310   3.3119310  32.9869310  36.9569310   3.1879310
  33.7879310  38.1689310   3.6129310  33.0389310  37.8169310   3.3349310
  34.0379310  42.1949310   5.1529310  33.2589310  42.3049310   5.6979310
  34.3819310  43.0809310   5.0439310  33.9819310  42.3219310   5.2089310
  25.3689310  45.5109310  12.5849310  25.2409310  44.6459310  12.9739310
  25.8119310  45.3359310  11.7539310  25.4089310  45.3779310  12.5279310
  16.4929310  39.8409310  11.1419310  16.7699310  40.4099310  11.8599310
  15.8909310  39.2179310  11.5489310  16.4519310  39.8339310  11.2859310
  17.3659310  46.1779310  13.7349310  16.4449310  45.9579310  13.5949310
  17.4459310  46.2849310  14.6819310  17.2579310  46.1629310  13.8379310
  21.0679310  40.4469310   4.7119310  20.6609310  40.4459310   3.8449310
  20.5819310  41.1099310   5.2029310  20.9539310  40.5319310   4.6639310
  19.1869310  36.8429310  12.7299310  19.3939310  37.7409310  12.9869310
  18.8309310  36.4419310  13.5229310  19.1679310  36.9059310  12.8639310
  20.4949310  37.6339310   3.4299310  19.7369310  37.6209310   4.0149310
  21.0269310  36.8899310   3.7109310  20.4659310  37.5369310   3.5409310
  27.5349310  41.3319310  13.7289310  28.1209310  41.6449310  14.4179310
  26.8089310  41.9569310  13.7289310  27.5169310  41.4519310  13.8169310
  25.1549310  41.8329310   3.2609310  24.3299310  41.8149310   2.7759310
  24.9039310  41.6469310   4.1659310  25.0169310  41.8069310   3.3149310
  17.0559310  39.8449310  16.7829310  16.8579310  39.9259310  15.8509310
  16.2619310  40.1479310  17.2239310  16.9289310  39.8939310  16.7199310
  23.1299310  42.4079310   8.2059310  24.0109310  42.6999310   8.4379310
  23.2159310  42.0739310   7.3129310  23.2539310  42.4029310   8.1209310
  17.0239310  48.8709310  15.5399310  16.2619310  49.4389310  15.4229310
  17.2289310  48.5609310  14.6579310  16.9519310  48.9039310  15.4119310
  27.4269310  38.2269310   6.3899310  26.4749310  38.1639310   6.4609310
  27.7549310  37.4989310   6.9179310  27.3469310  38.1259310   6.4669310
  32.5559310  46.2349310   8.5119310  32.9959310  46.7419310   9.1949310
  31.8839310  45.7379310   8.9779310  32.5269310  46.2359310   8.6589310
  33.7709310  48.0029310  10.7399310  33.0569310  48.6079310  10.5409310
  34.4869310  48.5659310  11.0369310  33.7719310  48.1519310  10.7529310
  23.0759310  45.7559310  15.5759310  22.9189310  44.8119310  15.5399310
  22.9869310  46.0479310  14.6689310  23.0439310  45.6719310  15.4549310
  32.5479310  40.3999310   7.5809310  33.4599310  40.4109310   7.8739310
  32.5479310  39.8149310   6.8229310  32.6649310  40.3259310   7.5219310
  30.3929310  44.7369310   9.4319310  29.5179310  44.4799310   9.1419310
  30.7449310  43.9539310   9.8559310  30.3259310  44.6039310   9.4489310
  17.3039310  36.6419310   8.1449310  18.1379310  37.0959310   8.0209310
  16.7159310  37.0409310   7.5049310  17.3359310  36.7509310   8.0479310
  18.4029310  35.7749310  15.1569310  17.5699310  35.3479310  15.3579310
  18.3699310  36.6019310  15.6369310  18.2919310  35.8259310  15.2439310
  24.7379310  41.2369310   5.8949310  24.8239310  40.4529310   6.4379310
  25.1779310  41.9239310   6.3949310  24.8049310  41.2249310   6.0279310
  33.3999310  38.8549310  15.2349310  32.5009310  38.5269310  15.2299310
  33.7249310  38.6779310  14.3529310  33.3259310  38.7899310  15.1219310
  37.5779310  42.6419310   5.4879310  37.5919310  42.3289310   6.3929310
  37.5289310  43.5949310   5.5649310  37.5739310  42.7239310   5.6139310
  23.7089310  42.2259310  11.4909310  22.8639310  41.9059310  11.8079310
  24.1819310  41.4349310  11.2319310  23.6609310  42.0839310  11.4989310
  20.6359310  47.4119310  15.8249310  21.4469310  46.9239310  15.6829310
  20.3669310  47.6889310  14.9489310  20.7049310  47.3849310  15.6939310
  33.4369310  38.0929310  12.6659310  32.5709310  37.9289310  12.2949310
  34.0189310  37.5009310  12.1879310  33.4009310  37.9959310  12.5569310
  22.8979310  46.4519310  12.8529310  23.7779310  46.0789310  12.8009310
  22.3599310  45.8709310  12.3159310  22.9419310  46.3299310  12.7779310
  31.2679310  39.2599310   4.9599310  31.9639310  38.8739310   4.4269310
  30.6579310  38.5379310   5.1149310  31.2789310  39.1179310   4.9109310
  29.3419310  44.7089310  12.5019310  28.7849310  44.3149310  11.8299310
  28.7659310  45.3189310  12.9619310  29.1969310  44.7369310  12.4749310
  33.2559310  43.9699310  15.6959310  32.4329310  44.3099310  15.3469310
  33.1119310  43.9139310  16.6409310  33.1329310  44.0059310  15.7719310
  27.1689310  40.6959310   2.0349310  26.3459310  40.9789310   2.4309310
  27.8469310  41.0819310   2.5899310  27.1509310  40.7809310   2.1569310
  20.1809310  44.2869310  10.1279310  19.8039310  44.1599310  10.9979310
  19.6179310  43.7759310   9.5459310  20.0609310  44.2059310  10.1649310
  29.1879310  45.7969310   5.5829310  29.7329310  46.2979310   6.1899310
  28.4939310  46.4039310   5.3259310  29.1689310  45.9379310   5.6279310
  17.1709310  47.3629310   6.4039310  17.5649310  47.2929310   5.5339310
  17.7829310  46.9079310   6.9809310  17.2999310  47.2959310   6.3659310
  31.8919310  43.0429310   1.7759310  31.8489310  43.6619310   2.5059310
  31.5259310  42.2319310   2.1279310  31.8399310  43.0189310   1.9149310
  20.3289310  38.7599310  16.2179310  20.1759310  39.0399310  15.3159310
  20.0919310  39.5199310  16.7489310  20.2789310  38.8929310  16.1709310
  22.2619310  42.8809310  15.3239310  22.1469310  42.5969310  14.4169310
  21.3709310  42.9839310  15.6569310  22.1329310  42.8579310  15.2499310
  21.3069310  41.2079310  10.1699310  20.7169310  40.4689310  10.0179310
  21.9189310  41.1799310   9.4349310  21.3099310  41.1099310  10.0559310
  22.6919310  47.3999310   8.2019310  22.6519310  46.4449310   8.1649310
  22.2369310  47.6279310   9.0119310  22.6289310  47.3069310   8.3009310
  30.6569310  44.0529310  14.8839310  29.9659310  43.4129310  15.0519310
  30.4489310  44.4089310  14.0209310  30.5419310  44.0159310  14.7949310
  16.2749310  43.1549310   2.0209310  16.9399310  43.7549310   2.3589310
  15.4429310  43.5889310   2.2099310  16.2539310  43.2869310   2.0889310
  18.6079310  47.5999310   4.2229310  19.2869310  47.3199310   4.8369310
  18.7059310  48.5499310   4.1739310  18.7069310  47.6859310   4.2959310
  18.2779310  37.7909310   4.9879310  18.0399310  36.9719310   4.5539310
  17.5169310  38.3589310   4.8609310  18.1499310  37.7589310   4.9159310
  28.0809310  38.3549310   3.5299310  27.7869310  39.0699310   2.9659310
  27.8099310  38.6159310   4.4099310  28.0089310  38.4799310   3.5699310
  32.0339310  48.9069310   5.2309310  31.1189310  48.9169310   4.9479310
  32.1559310  48.0389310   5.6159310  31.9319310  48.7969310   5.2439310
  21.6559310  45.2239310   2.3149310  22.4789310  45.7099310   2.2769310
  21.7069310  44.7289310   3.1319310  21.7679310  45.2229310   2.4139310
  19.8879310  47.1639310  13.3109310  19.8499310  47.4809310  12.4089310
  19.0159310  46.8049310  13.4759310  19.7709310  47.1579310  13.2169310
  23.7959310  48.9039310  11.8859310  23.0129310  49.3099310  11.5169310
  23.5079310  48.0329310  12.1589310  23.6589310  48.8439310  11.8739310
  32.8459310  32.8079310   7.8799310  32.9919310  33.2129310   8.7349310
  31.9009310  32.8759310   7.7409310  32.7439310  32.8679310   7.9719310
  22.8219310  44.8609310  10.3649310  23.1469310  44.0579310  10.7719310
  21.9529310  44.6289310  10.0389310  22.7519310  44.7289310  10.3749310
  18.4379310  45.7949310  16.3339310  19.2409310  46.3049310  16.2239310
  17.9879310  46.2129310  17.0679310  18.4829310  45.9139310  16.4139310
  28.9339310  42.9429310   5.5939310  29.4319310  42.7359310   4.8029310
  29.1179310  43.8679310   5.7579310  29.0209310  43.0349310   5.5139310
  16.8609310  40.4819310   8.4889310  17.6589310  40.1319310   8.0939310
  16.8409310  40.1019310   9.3669310  16.9599310  40.3879310   8.5509310
  26.2549310  43.5389310   6.2169310  25.8479310  44.2989310   5.8009310
  27.1169310  43.4739310   5.8069310  26.3129310  43.6279310   6.1109310
  30.7919310  44.7779310   3.6989310  31.4659310  45.1899310   4.2389310
  29.9819310  45.2239310   3.9449310  30.7749310  44.8879310   3.7989310
  18.9459310  45.2689310   7.2019310  19.9029310  45.2529310   7.1829310
  18.7009310  44.4549310   7.6419310  19.0369310  45.1629310   7.2559310
  29.2489310  39.2789310   9.7409310  28.7949310  39.7209310   9.0229310
  28.7069310  39.4539310  10.5099310  29.1219310  39.3579310   9.7469310
  34.4139310  44.2069310   8.6849310  34.0249310  43.7329310   9.4209310
  33.8789310  44.9959310   8.5989310  34.2959310  44.2469310   8.7679310
  27.7879310  40.7549310   7.5509310  28.4139310  41.2049310   6.9839310
  27.6459310  39.9079310   7.1269310  27.8499310  40.7039310   7.4239310
  26.3229310  48.6319310  11.0499310  26.7159310  49.4529310  11.3459310
  25.4099310  48.6869310  11.3319310  26.2569310  48.7439310  11.1239310
  29.9339310  36.6839310   4.8199310  29.2719310  37.0899310   4.2599310
  30.6289310  36.4209310   4.2169310  29.9379310  36.7029310   4.6709310
  31.5469310  41.9159310  10.1989310  31.2819310  41.2639310  10.8489310
  31.7659310  41.4029310   9.4209310  31.5409310  41.7669310  10.1829310
  22.2929310  43.7089310   4.4239310  22.4809310  42.9569310   3.8619310
  23.1489310  44.0999310   4.5939310  22.4259310  43.6629310   4.3739310
  23.9489310  38.5689310  13.6639310  24.8709310  38.6449310  13.9079310
  23.4969310  39.1859310  14.2389310  24.0089310  38.6569310  13.7679310
  20.9399310  35.5789310   6.5829310  21.1109310  36.4999310   6.7819310
  21.5059310  35.0949310   7.1839310  21.0339310  35.6349310   6.6849310
  21.7939310  44.7059310   6.9759310  22.0509310  44.2879310   6.1539310
  21.8779310  44.0139310   7.6319310  21.8379310  44.5639310   6.9549310
  29.1059310  49.1609310   7.4349310  29.2039310  49.4079310   6.5149310
  28.2519310  49.5109310   7.6869310  29.0089310  49.2369310   7.3499310
  32.5999310  35.4449310  16.3989310  32.0589310  34.9299310  16.9969310
  32.1359310  36.2779310  16.3119310  32.4719310  35.4859310  16.4649310
  33.9689310  42.9959310  11.5969310  33.0729310  42.6709310  11.5099310
  33.8689310  43.8909310  11.9219310  33.8409310  43.0689310  11.6279310
  25.7969310  42.0639310   8.7509310  25.3479310  41.3099310   9.1329310
  26.5189310  41.6839310   8.2509310  25.8319310  41.9189310   8.7359310
  27.3319310  46.1879310  10.4629310  27.0559310  47.0119310  10.8649310
  28.2829310  46.1749310  10.5719310  27.4189310  46.2919310  10.5279310
  22.8199310  38.8009310   2.7339310  22.6719310  39.7439310   2.6559310
  22.0279310  38.4689310   3.1579310  22.6999310  38.8789310   2.7779310
  26.4709310  39.1449310  15.1529310  26.0049310  39.7429310  15.7369310
  27.0659310  39.7089310  14.6579310  26.4869310  39.2929310  15.1639310
  18.7179310  44.0359310  12.5999310  18.0389310  44.6749310  12.8199310
  18.3089310  43.1869310  12.7629310  18.5779310  44.0089310  12.6489310
  16.8659310  36.9449310  11.1819310  17.7279310  36.9059310  11.5959310
  17.0519310  37.0949310  10.2549310  16.9999310  36.9589310  11.1159310
  27.7829310  44.4779310   8.5489310  27.5149310  45.1209310   9.2059310
  26.9839310  44.2959310   8.0529310  27.6459310  44.5369310   8.5689310
  16.3249310  42.1159310  15.1689310  15.7249310  42.8489310  15.3099310
  16.8719310  42.0989310  15.9549310  16.3179310  42.2079310  15.2879310
  17.6809310  41.0169310   3.2119310  18.0809310  41.6019310   3.8559310
  17.2169310  41.6019310   2.6129310  17.6729310  41.1669310   3.2179310
  27.7599310  42.8119310  11.1109310  27.5969310  43.1209310  10.2199310
  26.8989310  42.5479310  11.4339310  27.6289310  42.8179310  11.0389310
  27.9819310  37.0329310  15.2489310  27.9789310  36.7429310  14.3369310
  27.3099310  37.7139310  15.2859310  27.8949310  37.0829310  15.1369310
  27.6919310  46.4749310  13.6469310  26.8739310  46.3189310  13.1759310
  27.7399310  47.4269310  13.7359310  27.5939310  46.5769310  13.5979310
  32.0419310  41.1709310  14.8779310  32.7549310  40.5389310  14.9729310
  32.4819310  42.0079310  14.7319310  32.1889310  41.1969310  14.8709310
  18.0709310  42.9529310   8.3999310  17.2919310  43.4589310   8.6309310
  17.8089310  42.0399310   8.5229310  17.9379310  42.9009310   8.4449310
  21.1669310  47.1099310   5.5059310  21.0799310  47.8899310   6.0549310
  21.2389310  46.3859310   6.1289310  21.1649310  47.1169310   5.6559310
  21.2689310  42.2509310  12.6899310  21.1779310  42.1309310  11.7449310
  20.5449310  42.8289310  12.9279310  21.1649310  42.3099310  12.5989310
  22.3509310  35.7669310   4.1419310  21.9459310  35.4359310   4.9439310
  22.4579310  34.9929310   3.5899310  22.3129310  35.6259310   4.1739310
  25.0389310  38.7099310   4.4129310  24.1869310  38.5719310   4.0009310
  25.0889310  39.6569310   4.5489310  24.9369310  38.8139310   4.3779310
  19.9109310  39.3779310  13.6039310  20.7019310  39.4109310  13.0669310
  19.5509310  40.2639310  13.5559310  19.9659310  39.4949310  13.5289310
  31.0669310  37.6309310  15.0729310  31.1279310  37.2839310  14.1829310
  30.1269310  37.6789310  15.2469310  30.9539310  37.5929310  14.9809310
  25.7569310  36.8839310   2.5039310  25.5319310  37.6689310   3.0029310
  26.6559310  37.0359310   2.2119310  25.8439310  37.0039310   2.5309310
  31.1839310  36.6039310   7.3739310  32.0549310  36.2109310   7.4309310
  31.0849310  36.8349310   6.4509310  31.2829310  36.5829310   7.2629310
  28.0919310  36.8709310  12.5079310  27.8319310  36.0949310  12.0109310
  29.0479310  36.8759310  12.4599310  28.1809310  36.7719310  12.4379310
  31.2089310  40.4689310   2.6219310  30.9879310  40.2189310   3.5199310
  32.0249310  40.0029310   2.4389310  31.2849310  40.3769310   2.7139310
  25.0119310  39.0189310   7.7889310  24.1609310  38.5879310   7.7019310
  25.1109310  39.1659310   8.7299310  24.9149310  38.9829310   7.8979310
  23.6429310  36.0399310  14.9399310  23.0899310  36.3509310  15.6559310
  23.7039310  36.7859310  14.3429310  23.5799310  36.1749310  14.9549310
  22.4339310  48.5529310   3.6249310  21.7979310  48.0979310   4.1759310
  21.9459310  49.2869310   3.2519310  22.2909310  48.5889310   3.6479310
  30.9569310  47.8259310  14.4769310  30.3169310  47.2929310  14.9489310
  30.9189310  47.5029310  13.5759310  30.8699310  47.7159310  14.4219310
  18.9869310  39.1739310   7.4029310  18.8929310  38.7069310   6.5729310
  19.8099310  38.8509310   7.7679310  19.0799310  39.0729310   7.3439310
  33.6239310  45.6629310  12.2939310  32.7329310  45.8789310  12.5719310
  33.9009310  46.4159310  11.7719310  33.5449310  45.7869310  12.2629310
  32.6919310  47.6849310   2.7259310  32.7139310  47.8009310   3.6759310
  32.8649310  48.5579310   2.3749310  32.7169310  47.8119310   2.8029310
  21.1499310  38.4319310   8.6589310  21.6019310  37.8529310   9.2729310
  21.7129310  38.4469310   7.8859310  21.2799310  38.3599310   8.6389310
  17.7319310  41.5319310  12.9279310  17.1659310  41.8929310  12.2459310
  17.2359310  41.6479310  13.7379310  17.5959310  41.5929310  12.9439310
  31.0509310  46.7019310  12.0779310  30.4409310  45.9659310  12.1339310
  30.6189310  47.3259310  11.4949310  30.9179310  46.6869310  12.0109310
  20.1489310  47.2899310  10.5029310  19.6879310  47.6339310   9.7379310
  20.2299310  46.3519310  10.3309310  20.0999310  47.2139310  10.3829310
  18.3449310  44.9309310   2.6879310  19.3009310  44.9629310   2.7149310
  18.0739310  45.8479310   2.7259310  18.4329310  45.0519310   2.6959310
  23.1849310  40.3899310  15.6309310  22.4199310  39.9929310  16.0489310
  22.9309310  41.3009310  15.4829310  23.0539310  40.4559310  15.6659310
  29.0129310  42.4819310   3.0429310  29.6329310  42.9259310   2.4639310
  28.2029310  42.9859310   2.9579310  28.9889310  42.6039310   2.9579310
  29.9059310  48.5609310  10.0969310  29.7329310  48.4839310   9.1589310
  30.6889310  49.1079310  10.1519310  29.9839310  48.6209310   9.9839310
  24.7239310  44.9449310   4.4159310  25.2379310  44.3449310   3.8759310
  24.4499310  45.6349310   3.8119310  24.7539310  44.9559310   4.2699310
  30.7659310  38.1739310  11.9749310  30.4789310  38.9999310  12.3659310
  30.5429310  38.2579310  11.0479310  30.6999310  38.2909310  11.9069310
  34.7809310  39.5099310   4.4609310  35.3629310  39.9949310   3.8749310
  34.2149310  40.1799310   4.8439310  34.7829310  39.6579310   4.4349310
  29.1599310  46.2859310  15.7689310  28.3489310  46.3239310  15.2619310
  29.5239310  45.4229310  15.5739310  29.1029310  46.1809310  15.6789310
  22.4999310  38.3289310   6.3269310  22.3219310  38.9189310   5.5949310
  22.9849310  37.6019310   5.9369310  22.5389310  38.3119310   6.1839310
  16.1049310  44.9189310   4.9039310  16.7019310  45.1749310   4.1999310
  16.4079310  45.4139310   5.6659310  16.2199310  45.0149310   4.9109310
  18.7859310  48.4259310   8.7089310  19.0449310  49.1189310   8.1009310
  17.9139310  48.6849310   9.0079310  18.7079310  48.5479310   8.6689310
  32.4739310  46.0159310   5.6899310  33.3269310  45.6749310   5.4199310
  32.4959310  45.9869310   6.6459310  32.5859310  45.9679310   5.7769310
  25.4039310  42.9269310  13.5949310  24.6499310  42.5969310  13.1059310
  25.2029310  42.7289310  14.5089310  25.2819310  42.8589310  13.6489310
  28.9539310  42.2499310  15.6639310  28.1699310  42.2109310  16.2119310
  29.5909310  41.6989310  16.1179310  28.9349310  42.1749310  15.7919310
  34.5499310  36.0419310   5.1979310  33.9539310  35.6919310   5.8599310
  35.2679310  35.4099310   5.1629310  34.5659310  35.9169310   5.2779310
  30.3489310  40.7729310  12.8669310  31.0419310  40.9669310  13.4989310
  29.7129310  41.4789310  12.9849310  30.3559310  40.8879310  12.9629310
  22.9259310  18.8469310  48.9059310  23.1539310  18.8189310  49.8349310
  22.2969310  18.1349310  48.7929310  22.8749310  18.7519310  49.0109310
  20.3249310  33.0329310  49.1659310  19.3709310  32.9649310  49.1339310
  20.5139310  33.3399310  50.0519310  20.2269310  33.0639310  49.2749310
  25.0899310  30.4769310  42.3289310  24.9159310  30.6379310  43.2569310
  24.3249310  29.9909310  42.0229310  24.9699310  30.4349310  42.4089310
  20.8419310  17.1329310  48.4119310  20.2819310  17.5809310  49.0459310
  20.6959310  16.2019310  48.5789310  20.7519310  17.0709310  48.5139310
  21.6609310  25.3739310  37.6599310  21.5069310  25.8309310  38.4869310
  22.3729310  24.7639310  37.8519310  21.7319310  25.3539310  37.7899310
  25.0559310  20.5829310  48.2649310  24.4529310  19.9419310  48.6399310
  25.8449310  20.5139310  48.8029310  25.0799310  20.4929310  48.3819310
  31.8219310  31.5329310  35.8459310  30.9599310  31.8609310  35.5899310
  31.7259310  30.5809310  35.8449310  31.6989310  31.4529310  35.8129310
  18.5479310  31.6299310  42.6229310  18.5859310  32.5229310  42.2789310
  17.7489310  31.6089310  43.1489310  18.4509310  31.7419310  42.6459310
  23.2589310  33.4199310  39.3119310  22.4599310  32.8929310  39.3219310
  23.6029310  33.3169310  38.4249310  23.2009310  33.3389310  39.1999310
  27.4789310  20.4089310  49.5329310  27.6569310  19.5269310  49.8589310
  27.7979310  20.9889310  50.2249310  27.5429310  20.3699310  49.6639310
  27.1669310  28.4049310  41.7789310  26.7409310  27.7979310  41.1749310
  26.5039310  29.0719310  41.9569310  27.0279310  28.4129310  41.7249310
  34.0379310  23.3279310  42.8729310  33.2589310  23.4379310  43.4179310
  34.3819310  24.2139310  42.7639310  33.9819310  23.4549310  42.9289310
  25.1339310  19.4559310  37.0209310  24.8679310  18.9929310  37.8159310
  25.1499310  18.7789310  36.3449310  25.1019310  19.3099310  37.0369310
  28.2449310  27.5959310  37.3239310  29.0149310  27.6169310  37.8909310
  28.5639310  27.2289310  36.4999310  28.3839310  27.5519310  37.2909310
  33.9809310  27.2329310  39.0539310  33.6149310  27.8739310  39.6639310
  33.2159310  26.8109310  38.6619310  33.8359310  27.2609310  39.0819310
  16.4929310  20.9739310  48.8619310  16.7699310  21.5429310  49.5799310
  15.8909310  20.3509310  49.2689310  16.4519310  20.9669310  49.0059310
  28.9559310  30.9999310  42.6599310  29.1319310  31.8499310  42.2569310
  28.1969310  30.6629310  42.1859310  28.8819310  31.0659310  42.5479310
  28.7459310  34.3249310  43.9119310  29.3319310  35.0619310  43.7369310
  27.9639310  34.5109310  43.3929310  28.7209310  34.4429310  43.8229310
  21.0679310  21.5799310  42.4319310  20.6609310  21.5789310  41.5649310
  20.5819310  22.2429310  42.9229310  20.9539310  21.6649310  42.3839310
  20.4949310  18.7669310  41.1499310  19.7369310  18.7539310  41.7349310
  21.0269310  18.0229310  41.4309310  20.4659310  18.6699310  41.2609310
  25.1549310  22.9659310  40.9809310  24.3299310  22.9479310  40.4959310
  24.9039310  22.7799310  41.8859310  25.0169310  22.9399310  41.0349310
  22.2689310  32.6309310  45.5979310  22.0079310  32.2559310  46.4389310
  22.9999310  32.0859310  45.3089310  22.3289310  32.5129310  45.6679310
  20.5069310  30.8239310  44.3129310  19.7829310  31.1269310  43.7649310
  21.1009310  31.5739310  44.3609310  20.4909310  30.9589310  44.2489310
  24.4069310  33.0499310  36.9439310  24.8659310  32.2279310  37.1159310
  25.1049310  33.6899310  36.8049310  24.5549310  33.0269310  36.9479310
  23.1299310  23.5409310  45.9259310  24.0109310  23.8329310  46.1579310
  23.2159310  23.2069310  45.0329310  23.2539310  23.5359310  45.8409310
  27.4269310  19.3599310  44.1099310  26.4749310  19.2969310  44.1809310
  27.7549310  18.6319310  44.6379310  27.3469310  19.2589310  44.1869310
  32.5559310  27.3679310  46.2319310  32.9959310  27.8749310  46.9149310
  31.8839310  26.8709310  46.6979310  32.5269310  27.3689310  46.3789310
  33.7709310  29.1359310  48.4599310  33.0569310  29.7409310  48.2609310
  34.4869310  29.6989310  48.7569310  33.7719310  29.2849310  48.4729310
  27.2829310  30.1969310  37.3979310  27.5869310  29.3039310  37.5539310
  27.8099310  30.7369310  37.9869310  27.3889310  30.1519310  37.4929310
  32.5479310  21.5329310  45.3009310  33.4599310  21.5439310  45.5939310
  32.5479310  20.9479310  44.5429310  32.6649310  21.4589310  45.2419310
  30.3929310  25.8699310  47.1519310  29.5179310  25.6129310  46.8619310
  30.7449310  25.0869310  47.5759310  30.3259310  25.7369310  47.1689310
  22.1349310  17.8589310  35.9609310  22.4769310  17.8679310  36.8549310
  21.6499310  18.6809310  35.8829310  22.1169310  17.9659310  36.0649310
  17.3039310  17.7749310  45.8649310  18.1379310  18.2289310  45.7409310
  16.7159310  18.1739310  45.2249310  17.3359310  17.8839310  45.7679310
  24.7379310  22.3699310  43.6149310  24.8239310  21.5859310  44.1579310
  25.1779310  23.0569310  44.1149310  24.8049310  22.3579310  43.7479310
  33.4159310  31.1099310  38.9509310  33.5369310  31.9849310  38.5829310
  33.6249310  30.5159310  38.2299310  33.4579310  31.1459310  38.8109310
  17.8129310  34.5919310  40.1339310  17.0319310  34.4609310  39.5959310
  17.7829310  35.5169310  40.3779310  17.7089310  34.6939310  40.0959310
  24.1659310  30.8579310  44.8239310  23.6859310  30.0499310  45.0009310
  24.8959310  30.8439310  45.4429310  24.1979310  30.7529310  44.9259310
  37.5779310  23.7749310  43.2079310  37.5919310  23.4619310  44.1129310
  37.5289310  24.7279310  43.2849310  37.5739310  23.8569310  43.3339310
  26.9709310  21.7109310  37.0909310  26.3449310  20.9869310  37.1149310
  27.1889310  21.8699310  38.0089310  26.9189310  21.6389310  37.2109310
  23.7089310  23.3589310  49.2109310  22.8639310  23.0389310  49.5279310
  24.1819310  22.5679310  48.9519310  23.6609310  23.2169310  49.2189310
  19.5439310  33.1169310  38.6679310  18.9619310  33.6149310  39.2409310
  19.7729310  33.7279310  37.9679310  19.4989310  33.2589310  38.6519310
  33.4369310  19.2259310  50.3859310  32.5709310  19.0619310  50.0149310
  34.0189310  18.6339310  49.9079310  33.4009310  19.1289310  50.2769310
  31.8869310  31.2959310  48.9299310  31.5359310  31.1929310  49.8149310
  32.0349310  32.2379310  48.8399310  31.8609310  31.4029310  49.0319310
  31.2679310  20.3929310  42.6799310  31.9639310  20.0069310  42.1469310
  30.6579310  19.6709310  42.8349310  31.2789310  20.2509310  42.6309310
  27.1689310  21.8289310  39.7549310  26.3459310  22.1119310  40.1509310
  27.8469310  22.2149310  40.3099310  27.1509310  21.9139310  39.8769310
  20.1809310  25.4199310  47.8479310  19.8039310  25.2929310  48.7179310
  19.6179310  24.9089310  47.2659310  20.0609310  25.3389310  47.8849310
  29.1879310  26.9299310  43.3029310  29.7329310  27.4309310  43.9099310
  28.4939310  27.5369310  43.0459310  29.1689310  27.0709310  43.3479310
  17.1709310  28.4959310  44.1239310  17.5649310  28.4259310  43.2539310
  17.7829310  28.0409310  44.7009310  17.2999310  28.4289310  44.0859310
  26.6419310  25.0399310  39.9749310  25.9699310  24.3589310  40.0049310
  26.7209310  25.2569310  39.0459310  26.5659310  24.9809310  39.8599310
  27.8279310  34.0189310  49.0929310  27.2789310  33.9499310  48.3129310
  28.1919310  33.1419310  49.2089310  27.8049310  33.8979310  49.0079310
  21.3069310  22.3409310  47.8899310  20.7169310  21.6019310  47.7379310
  21.9189310  22.3129310  47.1549310  21.3099310  22.2429310  47.7759310
  22.6919310  28.5329310  45.9219310  22.6519310  27.5779310  45.8849310
  22.2369310  28.7609310  46.7319310  22.6289310  28.4399310  46.0209310
  16.2749310  24.2879310  39.7409310  16.9399310  24.8879310  40.0789310
  15.4429310  24.7219310  39.9299310  16.2539310  24.4199310  39.8089310
  18.6079310  28.7329310  41.9429310  19.2869310  28.4529310  42.5569310
  18.7059310  29.6829310  41.8939310  18.7069310  28.8189310  42.0159310
  24.0219310  27.4689310  37.0299310  23.6389310  27.1599310  36.2089310
  24.2609310  28.3799310  36.8549310  24.0039310  27.5459310  36.9029310
  18.2779310  18.9239310  42.7079310  18.0399310  18.1049310  42.2739310
  17.5169310  19.4919310  42.5809310  18.1499310  18.8919310  42.6359310
  22.8489310  17.7389310  38.7119310  23.0939310  16.8639310  39.0129310
  22.6339310  18.2159310  39.5129310  22.8529310  17.6879310  38.8529310
  28.0809310  19.4879310  41.2499310  27.7869310  20.2029310  40.6859310
  27.8099310  19.7489310  42.1299310  28.0089310  19.6129310  41.2899310
  26.5349310  31.1439310  46.3319310  26.4709310  30.6239310  47.1339310
  27.0799310  31.8929310  46.5749310  26.5959310  31.1729310  46.4659310
  32.0339310  30.0399310  42.9509310  31.1189310  30.0499310  42.6679310
  32.1559310  29.1719310  43.3359310  31.9319310  29.9299310  42.9639310
  19.6869310  22.0039310  36.7459310  18.7619310  21.7609310  36.7839310
  19.6829310  22.9239310  36.4809310  19.5689310  22.0909310  36.7169310
  21.6559310  26.3569310  40.0349310  22.4789310  26.8429310  39.9969310
  21.7069310  25.8619310  40.8519310  21.7679310  26.3559310  40.1339310
  18.3469310  34.2319310  44.1109310  17.8049310  34.6549310  44.7779310
  19.2459310  34.4289310  44.3729310  18.3919310  34.3119310  44.2299310
  23.9509310  27.9939310  40.0369310  23.4279310  28.6969310  40.4229310
  23.9629310  28.1899310  39.1009310  23.8859310  28.1089310  39.9669310
  23.7959310  30.0369310  49.6059310  23.0129310  30.4429310  49.2369310
  23.5079310  29.1659310  49.8789310  23.6589310  29.9769310  49.5939310
  17.5339310  32.0489310  46.3489310  18.1889310  32.4099310  45.7519310
  16.8559310  31.6939310  45.7739310  17.5309310  32.0499310  46.1989310
  32.8459310  13.9409310  45.5999310  32.9919310  14.3459310  46.4549310
  31.9009310  14.0089310  45.4609310  32.7439310  14.0009310  45.6919310
  22.8219310  25.9939310  48.0849310  23.1469310  25.1909310  48.4919310
  21.9529310  25.7619310  47.7589310  22.7519310  25.8619310  48.0949310
  28.9339310  24.0759310  43.3139310  29.4319310  23.8689310  42.5229310
  29.1179310  25.0009310  43.4779310  29.0209310  24.1679310  43.2339310
  17.5229310  27.8589310  37.5129310  18.2899310  27.5359310  37.9879310
  16.7809310  27.6199310  38.0679310  17.5259310  27.7869310  37.6449310
  33.6219310  34.8479310  45.3819310  33.4749310  33.9049310  45.4629310
  34.2759310  35.0459310  46.0529310  33.6869310  34.7519310  45.4779310
  34.9549310  31.1259310  44.1679310  34.1109310  31.5389310  44.3519310
  34.8229310  30.2039310  44.3859310  34.8299310  31.0609310  44.2189310
  16.8609310  21.6149310  46.2089310  17.6589310  21.2649310  45.8139310
  16.8409310  21.2349310  47.0869310  16.9599310  21.5209310  46.2709310
  26.2549310  24.6719310  43.9369310  25.8479310  25.4319310  43.5209310
  27.1169310  24.6069310  43.5269310  26.3129310  24.7609310  43.8309310
  30.7919310  25.9109310  41.4189310  31.4659310  26.3229310  41.9589310
  29.9819310  26.3569310  41.6649310  30.7749310  26.0209310  41.5189310
  18.9459310  26.4019310  44.9219310  19.9029310  26.3859310  44.9029310
  18.7009310  25.5879310  45.3619310  19.0369310  26.2959310  44.9759310
  29.2489310  20.4119310  47.4609310  28.7949310  20.8539310  46.7429310
  28.7069310  20.5869310  48.2299310  29.1219310  20.4909310  47.4669310
  34.4139310  25.3399310  46.4049310  34.0249310  24.8659310  47.1409310
  33.8789310  26.1289310  46.3189310  34.2959310  25.3799310  46.4879310
  27.7879310  21.8879310  45.2709310  28.4139310  22.3379310  44.7039310
  27.6459310  21.0409310  44.8469310  27.8499310  21.8369310  45.1439310
  26.3229310  29.7649310  48.7699310  26.7159310  30.5859310  49.0659310
  25.4099310  29.8199310  49.0519310  26.2569310  29.8769310  48.8439310
  27.8119310  18.6329310  38.0269310  27.0529310  18.8809310  37.4989310
  28.3669310  19.4129310  38.0279310  27.7859310  18.7649310  37.9599310
  20.3469310  21.9259310  39.7439310  20.2569310  21.6549310  38.8309310
  19.4489310  22.0829310  40.0369310  20.2199310  21.9119310  39.6649310
  29.9339310  17.8169310  42.5399310  29.2719310  18.2229310  41.9799310
  30.6289310  17.5539310  41.9369310  29.9379310  17.8359310  42.3909310
  31.5469310  23.0489310  47.9189310  31.2819310  22.3969310  48.5689310
  31.7659310  22.5359310  47.1409310  31.5409310  22.8999310  47.9029310
  22.2929310  24.8419310  42.1439310  22.4809310  24.0899310  41.5819310
  23.1489310  25.2329310  42.3139310  22.4259310  24.7959310  42.0939310
  20.9399310  16.7119310  44.3029310  21.1109310  17.6329310  44.5019310
  21.5059310  16.2279310  44.9039310  21.0339310  16.7679310  44.4049310
  24.7429310  30.0489310  36.4269310  25.5869310  30.0109310  36.8779310
  24.9659310  30.2539310  35.5189310  24.8799310  30.0699310  36.3689310
  21.7939310  25.8389310  44.6959310  22.0509310  25.4209310  43.8739310
  21.8779310  25.1469310  45.3519310  21.8379310  25.6969310  44.6749310
  29.1059310  30.2939310  45.1549310  29.2039310  30.5409310  44.2349310
  28.2519310  30.6439310  45.4069310  29.0089310  30.3699310  45.0699310
  26.4959310  34.7079310  42.4939310  26.3109310  33.8809310  42.0479310
  26.1839310  35.3809310  41.8889310  26.4319310  34.6879310  42.3589310
  28.0839310  33.9429310  35.5839310  28.2419310  34.7819310  35.1509310
  28.3459310  34.0899310  36.4929310  28.1379310  34.0689310  35.6449310
  30.1939310  32.7199310  45.6939310  29.6499310  33.3199310  45.1829310
  29.8029310  31.8589310  45.5479310  30.0749310  32.6869310  45.6099310
  33.9689310  24.1289310  49.3169310  33.0729310  23.8039310  49.2299310
  33.8689310  25.0239310  49.6419310  33.8409310  24.2019310  49.3479310
  24.2859310  35.0879310  44.6669310  24.2519310  34.4009310  45.3319310
  24.7619310  34.6929310  43.9369310  24.3419310  34.9499310  44.6589310
  26.1649310  25.8159310  37.3549310  26.8949310  26.4359310  37.3439310
  25.3829310  26.3669310  37.3239310  26.1579310  25.9659310  37.3489310
  25.7969310  23.1969310  46.4709310  25.3479310  22.4429310  46.8529310
  26.5189310  22.8169310  45.9709310  25.8319310  23.0519310  46.4559310
  27.3319310  27.3209310  48.1829310  27.0559310  28.1449310  48.5849310
  28.2829310  27.3079310  48.2919310  27.4189310  27.4249310  48.2479310
  22.8199310  19.9339310  40.4539310  22.6719310  20.8769310  40.3759310
  22.0279310  19.6019310  40.8779310  22.6999310  20.0119310  40.4979310
  26.6879310  34.5439310  46.4319310  27.4779310  35.0819310  46.3779310
  26.0879310  34.9359310  45.7979310  26.7119310  34.6629310  46.3439310
  22.0759310  20.4229310  37.0489310  21.1589310  20.2079310  37.2149310
  22.5509310  20.0349310  37.7839310  22.0189310  20.3459310  37.1639310
  29.6779310  33.1739310  41.2839310  29.3099310  33.7549310  41.9489310
  30.5689310  33.4969310  41.1499310  29.7449310  33.2899310  41.3519310
  16.8659310  18.0779310  48.9019310  17.7279310  18.0389310  49.3159310
  17.0519310  18.2279310  47.9749310  16.9999310  18.0919310  48.8359310
  27.7829310  25.6109310  46.2689310  27.5149310  26.2539310  46.9259310
  26.9839310  25.4289310  45.7729310  27.6459310  25.6699310  46.2889310
  17.6809310  22.1499310  40.9319310  18.0809310  22.7349310  41.5759310
  17.2169310  22.7349310  40.3329310  17.6729310  22.2999310  40.9379310
  27.7599310  23.9449310  48.8309310  27.5969310  24.2539310  47.9399310
  26.8989310  23.6809310  49.1539310  27.6289310  23.9509310  48.7589310
  19.6409310  16.8289310  36.9769310  19.6419310  17.5709310  37.5809310
  20.1449310  17.1329310  36.2229310  19.7059310  16.9629310  36.9579310
  20.5569310  28.8649310  37.2609310  20.6429310  28.8139310  36.3089310
  20.0039310  29.6329310  37.4099310  20.4969310  28.9569310  37.1579310
  18.0709310  24.0859310  46.1199310  17.2919310  24.5919310  46.3509310
  17.8089310  23.1729310  46.2429310  17.9379310  24.0339310  46.1649310
  33.5149310  33.5809310  48.1669310  33.7969310  33.4849310  49.0769310
  32.7339310  34.1319310  48.2159310  33.4509310  33.6389310  48.2899310
  21.1669310  28.2429310  43.2259310  21.0799310  29.0229310  43.7749310
  21.2389310  27.5189310  43.8489310  21.1649310  28.2499310  43.3759310
  16.7979310  19.3269310  38.4309310  16.7409310  19.0729310  37.5099310
  16.2499310  20.1089310  38.4989310  16.7209310  19.3949310  38.3219310
  22.3509310  16.8999310  41.8619310  21.9459310  16.5689310  42.6639310
  22.4579310  16.1259310  41.3099310  22.3129310  16.7589310  41.8939310
  33.4359310  32.3589310  41.6019310  33.5059310  31.7299310  42.3189310
  33.5019310  31.8269310  40.8089310  33.4529310  32.2109310  41.5919310
  22.8939310  22.9459310  39.7479310  23.2669310  22.8809310  38.8689310
  21.9889310  22.6499310  39.6469310  22.8259310  22.8989310  39.6229310
  22.5929310  30.1029310  38.1819310  21.8609310  29.6139310  37.8059310
  23.2529310  30.1159310  37.4899310  22.5829310  30.0419310  38.0459310
  25.0389310  19.8429310  42.1329310  24.1869310  19.7049310  41.7209310
  25.0889310  20.7899310  42.2689310  24.9369310  19.9469310  42.0979310
  17.5389310  33.4479310  48.7529310  17.2459310  33.1749310  47.8829310
  17.2309310  34.3499310  48.8369310  17.4619310  33.5279310  48.6519310
  21.4539310  30.8119310  48.1509310  20.8839310  31.4989310  48.4979310
  21.0019310  29.9959310  48.3649310  21.3229310  30.7959310  48.2229310
  28.0459310  32.3929310  39.2419310  27.3609310  32.3209310  39.9069310
  28.8439310  32.5709310  39.7389310  28.0599310  32.4059310  39.3909310
  25.7569310  18.0169310  40.2239310  25.5319310  18.8019310  40.7229310
  26.6559310  18.1689310  39.9319310  25.8439310  18.1369310  40.2509310
  31.1839310  17.7369310  45.0939310  32.0549310  17.3439310  45.1509310
  31.0849310  17.9679310  44.1709310  31.2829310  17.7159310  44.9829310
  28.0919310  18.0039310  50.2279310  27.8319310  17.2279310  49.7309310
  29.0479310  18.0089310  50.1799310  28.1809310  17.9049310  50.1579310
  29.0549310  31.3649310  35.4889310  28.6549310  32.2329310  35.5389310
  28.5789310  30.8439310  36.1359310  28.9429310  31.4099310  35.5779310
  25.0119310  20.1519310  45.5089310  24.1609310  19.7209310  45.4219310
  25.1109310  20.2989310  46.4499310  24.9149310  20.1159310  45.6179310
  22.4339310  29.6859310  41.3449310  21.7979310  29.2309310  41.8959310
  21.9459310  30.4199310  40.9719310  22.2909310  29.7219310  41.3679310
  28.3119310  31.3569310  49.5499310  28.1089310  31.0469310  50.4319310
  28.8259310  30.6489310  49.1599310  28.3519310  31.2259310  49.6129310
  17.0839310  30.6809310  49.7009310  16.7019310  31.5239310  49.9449310
  17.9079310  30.9069310  49.2699310  17.1399310  30.8179310  49.6769310
  18.9869310  20.3069310  45.1229310  18.8929310  19.8399310  44.2929310
  19.8099310  19.9839310  45.4879310  19.0799310  20.2059310  45.0639310
  33.6239310  26.7959310  50.0139310  32.7329310  27.0119310  50.2919310
  33.9009310  27.5489310  49.4919310  33.5449310  26.9199310  49.9829310
  32.6919310  28.8179310  40.4459310  32.7139310  28.9339310  41.3959310
  32.8649310  29.6909310  40.0949310  32.7169310  28.9449310  40.5229310
  32.0669310  34.7579310  40.7529310  31.8029310  34.7229310  39.8339310
  32.6889310  34.0369310  40.8519310  32.1129310  34.6609310  40.6479310
  29.2409310  34.7539310  38.2639310  28.7249310  34.0689310  38.6899310
  28.7579310  35.5609310  38.4379310  29.1129310  34.7689310  38.3409310
  21.1499310  19.5649310  46.3789310  21.6019310  18.9859310  46.9929310
  21.7129310  19.5799310  45.6059310  21.2799310  19.4929310  46.3589310
  28.9779310  36.2969310  46.5649310  29.7529310  36.1409310  46.0259310
  28.9469310  37.2479310  46.6709310  29.0729310  36.3989310  46.5099310
  25.5479310  32.7089310  40.7939310  25.3099310  31.8959310  41.2379310
  24.7429310  32.9869310  40.3569310  25.4149310  32.6409310  40.7949310
  31.0509310  27.8349310  49.7979310  30.4409310  27.0989310  49.8539310
  30.6189310  28.4589310  49.2149310  30.9179310  27.8199310  49.7309310
  20.1489310  28.4229310  48.2229310  19.6879310  28.7669310  47.4579310
  20.2299310  27.4849310  48.0509310  20.0999310  28.3469310  48.1029310
  18.3449310  26.0639310  40.4079310  19.3009310  26.0959310  40.4349310
  18.0739310  26.9809310  40.4459310  18.4329310  26.1849310  40.4159310
  19.7039310  19.3539310  38.3789310  20.0119310  19.4189310  39.2829310
  18.7859310  19.0959310  38.4579310  19.6259310  19.3289310  38.5049310
  29.0129310  23.6149310  40.7629310  29.6329310  24.0589310  40.1839310
  28.2029310  24.1189310  40.6779310  28.9889310  23.7369310  40.6779310
  15.6329310  29.6669310  36.7239310  16.2609310  29.1439310  37.2229310
  16.1269310  29.9729310  35.9629310  15.7769310  29.6389310  36.6909310
  21.3049310  31.7509310  39.9949310  20.6049310  32.1489310  39.4779310
  21.7369310  31.1479310  39.3889310  21.2709310  31.7249310  39.8509310
  29.9059310  29.6939310  47.8169310  29.7329310  29.6169310  46.8789310
  30.6889310  30.2409310  47.8719310  29.9839310  29.7539310  47.7039310
  24.7239310  26.0779310  42.1359310  25.2379310  25.4779310  41.5959310
  24.4499310  26.7679310  41.5319310  24.7539310  26.0889310  41.9899310
  30.7659310  19.3069310  49.6949310  30.4789310  20.1329310  50.0859310
  30.5429310  19.3909310  48.7679310  30.6999310  19.4239310  49.6269310
  34.4189310  33.9369310  38.4249310  35.0059310  33.7599310  37.6899310
  33.8279310  34.6169310  38.1009310  34.4179310  34.0009310  38.2889310
  17.2109310  33.4329310  36.1819310  17.7679310  32.6739310  36.3539310
  17.7789310  34.1869310  36.3379310  17.3549310  33.4319310  36.2239310
  34.7809310  20.6429310  42.1809310  35.3629310  21.1279310  41.5949310
  34.2149310  21.3129310  42.5639310  34.7829310  20.7909310  42.1549310
  22.4999310  19.4619310  44.0469310  22.3219310  20.0519310  43.3149310
  22.9849310  18.7349310  43.6569310  22.5389310  19.4449310  43.9039310
  16.1049310  26.0519310  42.6239310  16.7019310  26.3079310  41.9199310
  16.4079310  26.5469310  43.3859310  16.2199310  26.1479310  42.6309310
  18.7859310  29.5589310  46.4289310  19.0449310  30.2519310  45.8209310
  17.9139310  29.8179310  46.7279310  18.7079310  29.6809310  46.3889310
  32.4739310  27.1489310  43.4099310  33.3269310  26.8079310  43.1399310
  32.4959310  27.1199310  44.3659310  32.5859310  27.1009310  43.4969310
  34.5499310  17.1749310  42.9179310  33.9539310  16.8249310  43.5799310
  35.2679310  16.5429310  42.8829310  34.5659310  17.0499310  42.9979310
  30.6199310  27.8199310  38.6249310  31.0159310  28.1609310  39.4269310
  31.1109310  28.2389310  37.9179310  30.7329310  27.9169310  38.6369310
  30.8139310  34.1759310  48.0619310  30.3409310  35.0089310  48.0549310
  30.2829310  33.5949310  47.5179310  30.6849310  34.2079310  47.9919310
  32.9189310  19.0369310  22.1719310  32.9869310  18.0899310  22.0479310
  33.7879310  19.3019310  22.4729310  33.0389310  18.9499310  22.1949310
  34.0379310  23.3279310  24.0129310  33.2589310  23.4379310  24.5579310
  34.3819310  24.2139310  23.9039310  33.9819310  23.4549310  24.0689310
  25.1339310  19.4559310  18.1609310  24.8679310  18.9929310  18.9559310
  25.1499310  18.7789310  17.4849310  25.1019310  19.3099310  18.1769310
  33.9809310  27.2329310  20.1939310  33.6149310  27.8739310  20.8039310
  33.2159310  26.8109310  19.8019310  33.8359310  27.2609310  20.2219310
  16.4929310  20.9739310  30.0019310  16.7699310  21.5429310  30.7199310
  15.8909310  20.3509310  30.4089310  16.4519310  20.9669310  30.1459310
  31.9629310  28.8329310  17.2109310  32.0049310  28.6989310  16.2639310
  32.8489310  29.0999310  17.4539310  32.0819310  28.8499310  17.1209310
  32.3059310  19.2629310  19.2989310  32.4379310  19.1189310  20.2359310
  31.4379310  19.6619310  19.2389310  32.2119310  19.2949310  19.4119310
  21.0679310  21.5799310  23.5719310  20.6609310  21.5789310  22.7049310
  20.5819310  22.2429310  24.0629310  20.9539310  21.6649310  23.5239310
  20.4949310  18.7669310  22.2899310  19.7369310  18.7539310  22.8749310
  21.0269310  18.0229310  22.5709310  20.4659310  18.6699310  22.4009310
  25.1549310  22.9659310  22.1209310  24.3299310  22.9479310  21.6359310
  24.9039310  22.7799310  23.0259310  25.0169310  22.9399310  22.1749310
  17.0559310  20.9779310  35.6429310  16.8579310  21.0589310  34.7109310
  16.2619310  21.2809310  36.0839310  16.9289310  21.0269310  35.5799310
  22.7209310  33.0349310  34.5349310  23.2949310  32.9479310  35.2959310
  22.6789310  33.9769310  34.3729310  22.7889310  33.1439310  34.6109310
  29.9059310  20.6849310  19.1139310  30.0099310  21.0289310  20.0009310
  29.7759310  21.4609310  18.5689310  29.9029310  20.8279310  19.1579310
  17.3039310  17.7749310  27.0049310  18.1379310  18.2289310  26.8809310
  16.7159310  18.1739310  26.3649310  17.3359310  17.8839310  26.9079310
  24.7379310  22.3699310  24.7549310  24.8239310  21.5859310  25.2979310
  25.1779310  23.0569310  25.2549310  24.8049310  22.3579310  24.8879310
  31.8339310  16.5089310  18.9689310  31.9619310  17.4239310  18.7169310
  30.8849310  16.4139310  19.0539310  31.7289310  16.6139310  18.9479310
  35.0089310  17.8469310  16.9699310  34.8329310  18.6879310  16.5489310
  34.1999310  17.3479310  16.8559310  34.8829310  17.8909310  16.9019310
  37.5779310  23.7749310  24.3479310  37.5919310  23.4619310  25.2529310
  37.5289310  24.7279310  24.4249310  37.5739310  23.8569310  24.4739310
  26.9709310  21.7109310  18.2309310  26.3449310  20.9869310  18.2549310
  27.1889310  21.8699310  19.1489310  26.9189310  21.6389310  18.3509310
  33.1429310  24.6759310  18.2319310  32.6859310  24.4349310  19.0379310
  34.0689310  24.5359310  18.4309310  33.2029310  24.6269310  18.3609310
  31.2679310  20.3929310  23.8199310  31.9639310  20.0069310  23.2869310
  30.6579310  19.6709310  23.9749310  31.2789310  20.2509310  23.7709310
  27.1689310  21.8289310  20.8949310  26.3459310  22.1119310  21.2909310
  27.8469310  22.2149310  21.4499310  27.1509310  21.9139310  21.0169310
  31.8919310  24.1759310  20.6359310  31.8489310  24.7949310  21.3659310
  31.5259310  23.3649310  20.9879310  31.8399310  24.1519310  20.7749310
  26.6419310  25.0399310  21.1149310  25.9699310  24.3589310  21.1449310
  26.7209310  25.2569310  20.1859310  26.5659310  24.9809310  20.9999310
  18.2779310  18.9239310  23.8479310  18.0399310  18.1049310  23.4139310
  17.5169310  19.4919310  23.7209310  18.1499310  18.8919310  23.7759310
  22.8489310  17.7389310  19.8519310  23.0939310  16.8639310  20.1529310
  22.6339310  18.2159310  20.6529310  22.8529310  17.6879310  19.9929310
  28.0809310  19.4879310  22.3899310  27.7869310  20.2029310  21.8259310
  27.8099310  19.7489310  23.2699310  28.0089310  19.6129310  22.4299310
  30.9939310  22.8609310  17.3409310  31.4719310  22.5079310  16.5919310
  31.4959310  23.6329310  17.6039310  31.1189310  22.9149310  17.2789310
  16.8609310  21.6149310  27.3489310  17.6589310  21.2649310  26.9539310
  16.8409310  21.2349310  28.2269310  16.9599310  21.5209310  27.4109310
  30.7919310  25.9109310  22.5589310  31.4659310  26.3229310  23.0989310
  29.9819310  26.3569310  22.8049310  30.7749310  26.0209310  22.6589310
  27.8119310  18.6329310  19.1669310  27.0529310  18.8809310  18.6389310
  28.3669310  19.4129310  19.1679310  27.7859310  18.7649310  19.0999310
  20.3469310  21.9259310  20.8839310  20.2569310  21.6549310  19.9709310
  19.4489310  22.0829310  21.1769310  20.2199310  21.9119310  20.8049310
  29.9339310  17.8169310  23.6799310  29.2719310  18.2229310  23.1199310
  30.6289310  17.5539310  23.0769310  29.9379310  17.8359310  23.5309310
  20.9399310  16.7119310  25.4429310  21.1109310  17.6329310  25.6419310
  21.5059310  16.2279310  26.0439310  21.0339310  16.7679310  25.5449310
  24.2859310  35.0879310  25.8069310  24.2519310  34.4009310  26.4719310
  24.7619310  34.6929310  25.0769310  24.3419310  34.9499310  25.7989310
  22.8199310  19.9339310  21.5939310  22.6719310  20.8769310  21.5159310
  22.0279310  19.6019310  22.0179310  22.6999310  20.0119310  21.6379310
  16.8659310  18.0779310  30.0419310  17.7279310  18.0389310  30.4559310
  17.0519310  18.2279310  29.1149310  16.9999310  18.0919310  29.9759310
  17.6809310  22.1499310  22.0719310  18.0809310  22.7349310  22.7159310
  17.2169310  22.7349310  21.4729310  17.6729310  22.2999310  22.0779310
  19.6409310  16.8289310  18.1169310  19.6419310  17.5709310  18.7209310
  20.1449310  17.1329310  17.3629310  19.7059310  16.9629310  18.0979310
  18.0709310  24.0859310  27.2599310  17.2919310  24.5919310  27.4909310
  17.8089310  23.1729310  27.3829310  17.9379310  24.0339310  27.3049310
  22.3509310  16.8999310  23.0019310  21.9459310  16.5689310  23.8039310
  22.4579310  16.1259310  22.4499310  22.3129310  16.7589310  23.0339310
  22.8939310  22.9459310  20.8879310  23.2669310  22.8809310  20.0089310
  21.9889310  22.6499310  20.7869310  22.8259310  22.8989310  20.7629310
  25.0389310  19.8429310  23.2729310  24.1869310  19.7049310  22.8609310
  25.0889310  20.7899310  23.4089310  24.9369310  19.9469310  23.2379310
  25.7569310  18.0169310  21.3639310  25.5319310  18.8019310  21.8629310
  26.6559310  18.1689310  21.0719310  25.8439310  18.1369310  21.3909310
  31.2089310  21.6019310  21.4819310  30.9879310  21.3519310  22.3799310
  32.0249310  21.1359310  21.2989310  31.2849310  21.5099310  21.5739310
  33.8999310  21.6259310  19.3179310  33.0769310  21.1389310  19.2699310
  33.6479310  22.4899310  19.6459310  33.7629310  21.6739310  19.3539310
  24.7239310  31.3269310  33.4719310  24.3369310  30.9619310  32.6759310
  24.0759310  31.9559310  33.7869310  24.5909310  31.3599310  33.4109310
  18.9869310  20.3069310  26.2629310  18.8929310  19.8399310  25.4329310
  19.8099310  19.9839310  26.6279310  19.0799310  20.2059310  26.2039310
  32.6919310  28.8179310  21.5859310  32.7139310  28.9339310  22.5359310
  32.8649310  29.6909310  21.2349310  32.7169310  28.9449310  21.6629310
  29.0129310  23.6149310  21.9029310  29.6329310  24.0589310  21.3239310
  28.2029310  24.1189310  21.8179310  28.9889310  23.7369310  21.8179310
  34.4189310  33.9369310  19.5649310  35.0059310  33.7599310  18.8299310
  33.8279310  34.6169310  19.2409310  34.4179310  34.0009310  19.4289310
  34.7809310  20.6429310  23.3209310  35.3629310  21.1279310  22.7349310
  34.2149310  21.3129310  23.7039310  34.7829310  20.7909310  23.2949310
  22.4999310  19.4619310  25.1869310  22.3219310  20.0519310  24.4549310
  22.9849310  18.7349310  24.7969310  22.5389310  19.4449310  25.0439310
  28.9539310  23.3829310  34.5239310  28.1699310  23.3439310  35.0719310
  29.5909310  22.8319310  34.9779310  28.9349310  23.3079310  34.6519310
  22.9259310  18.8469310  11.1859310  23.1539310  18.8189310  12.1149310
  22.2969310  18.1349310  11.0729310  22.8749310  18.7519310  11.2909310
  20.3249310  33.0329310  11.4459310  19.3709310  32.9649310  11.4139310
  20.5139310  33.3399310  12.3319310  20.2269310  33.0639310  11.5549310
  25.0899310  30.4769310   4.6089310  24.9159310  30.6379310   5.5369310
  24.3249310  29.9909310   4.3029310  24.9699310  30.4349310   4.6889310
  20.8419310  17.1329310  10.6919310  20.2819310  17.5809310  11.3259310
  20.6959310  16.2019310  10.8589310  20.7519310  17.0709310  10.7939310
  25.0559310  20.5829310  10.5449310  24.4529310  19.9419310  10.9199310
  25.8449310  20.5139310  11.0829310  25.0799310  20.4929310  10.6619310
  25.5939310  17.0199310  16.8229310  26.4859310  16.7909310  16.5589310
  25.0719310  16.8989310  16.0299310  25.6419310  16.9759310  16.6879310
  18.5479310  31.6299310   4.9029310  18.5859310  32.5229310   4.5589310
  17.7489310  31.6089310   5.4289310  18.4509310  31.7419310   4.9259310
  27.4789310  20.4089310  11.8129310  27.6569310  19.5269310  12.1389310
  27.7979310  20.9889310  12.5049310  27.5429310  20.3699310  11.9439310
  27.1669310  28.4049310   4.0589310  26.7409310  27.7979310   3.4549310
  26.5039310  29.0719310   4.2369310  27.0279310  28.4129310   4.0049310
  32.9189310  19.0369310   3.3119310  32.9869310  18.0899310   3.1879310
  33.7879310  19.3019310   3.6129310  33.0389310  18.9499310   3.3349310
  34.0379310  23.3279310   5.1529310  33.2589310  23.4379310   5.6979310
  34.3819310  24.2139310   5.0439310  33.9819310  23.4549310   5.2089310
  28.9559310  30.9999310   4.9399310  29.1319310  31.8499310   4.5369310
  28.1969310  30.6629310   4.4659310  28.8819310  31.0659310   4.8279310
  28.7459310  34.3249310   6.1919310  29.3319310  35.0619310   6.0169310
  27.9639310  34.5109310   5.6729310  28.7209310  34.4429310   6.1029310
  21.0679310  21.5799310   4.7119310  20.6609310  21.5789310   3.8449310
  20.5819310  22.2429310   5.2029310  20.9539310  21.6649310   4.6639310
  20.4949310  18.7669310   3.4299310  19.7369310  18.7539310   4.0149310
  21.0269310  18.0229310   3.7109310  20.4659310  18.6699310   3.5409310
  27.5349310  22.4649310  13.7289310  28.1209310  22.7779310  14.4179310
  26.8089310  23.0899310  13.7289310  27.5169310  22.5849310  13.8169310
  25.1549310  22.9659310   3.2609310  24.3299310  22.9479310   2.7759310
  24.9039310  22.7799310   4.1659310  25.0169310  22.9399310   3.3149310
  22.2689310  32.6309310   7.8779310  22.0079310  32.2559310   8.7189310
  22.9999310  32.0859310   7.5889310  22.3289310  32.5129310   7.9479310
  20.5069310  30.8239310   6.5929310  19.7829310  31.1269310   6.0449310
  21.1009310  31.5739310   6.6409310  20.4909310  30.9589310   6.5289310
  23.1299310  23.5409310   8.2059310  24.0109310  23.8329310   8.4379310
  23.2159310  23.2069310   7.3129310  23.2539310  23.5359310   8.1209310
  27.4269310  19.3599310   6.3899310  26.4749310  19.2969310   6.4609310
  27.7549310  18.6319310   6.9179310  27.3469310  19.2589310   6.4669310
  32.5559310  27.3679310   8.5119310  32.9959310  27.8749310   9.1949310
  31.8839310  26.8709310   8.9779310  32.5269310  27.3689310   8.6589310
  33.7709310  29.1359310  10.7399310  33.0569310  29.7409310  10.5409310
  34.4869310  29.6989310  11.0369310  33.7719310  29.2849310  10.7529310
  32.5479310  21.5329310   7.5809310  33.4599310  21.5439310   7.8739310
  32.5479310  20.9479310   6.8229310  32.6649310  21.4589310   7.5219310
  30.3929310  25.8699310   9.4319310  29.5179310  25.6129310   9.1419310
  30.7449310  25.0869310   9.8559310  30.3259310  25.7369310   9.4489310
  20.1019310  32.7859310  14.5899310  19.8499310  33.6899310  14.7809310
  21.0069310  32.7209310  14.8929310  20.1859310  32.8939310  14.6529310
  17.3039310  17.7749310   8.1449310  18.1379310  18.2289310   8.0209310
  16.7159310  18.1739310   7.5049310  17.3359310  17.8839310   8.0479310
  24.7379310  22.3699310   5.8949310  24.8239310  21.5859310   6.4379310
  25.1779310  23.0569310   6.3949310  24.8049310  22.3579310   6.0279310
  33.3999310  19.9879310  15.2349310  32.5009310  19.6599310  15.2299310
  33.7249310  19.8109310  14.3529310  33.3259310  19.9229310  15.1219310
  17.8129310  34.5919310   2.4139310  17.0319310  34.4609310   1.8759310
  17.7829310  35.5169310   2.6579310  17.7089310  34.6939310   2.3759310
  24.1659310  30.8579310   7.1039310  23.6859310  30.0499310   7.2809310
  24.8959310  30.8439310   7.7229310  24.1979310  30.7529310   7.2059310
  37.5779310  23.7749310   5.4879310  37.5919310  23.4619310   6.3929310
  37.5289310  24.7279310   5.5649310  37.5739310  23.8569310   5.6139310
  33.4369310  19.2259310  12.6659310  32.5709310  19.0619310  12.2949310
  34.0189310  18.6339310  12.1879310  33.4009310  19.1289310  12.5569310
  31.8869310  31.2959310  11.2099310  31.5359310  31.1929310  12.0949310
  32.0349310  32.2379310  11.1199310  31.8609310  31.4029310  11.3119310
  34.0239310  33.0629310  13.0889310  34.2219310  32.6679310  13.9389310
  33.3529310  33.7179310  13.2799310  33.9629310  33.0959310  13.2219310
  31.2679310  20.3929310   4.9599310  31.9639310  20.0069310   4.4269310
  30.6579310  19.6709310   5.1149310  31.2789310  20.2509310   4.9109310
  29.3419310  25.8419310  12.5019310  28.7849310  25.4479310  11.8299310
  28.7659310  26.4519310  12.9619310  29.1969310  25.8699310  12.4749310
  33.2559310  25.1029310  15.6959310  32.4329310  25.4429310  15.3469310
  33.1119310  25.0469310  16.6409310  33.1329310  25.1389310  15.7719310
  27.1689310  21.8289310   2.0349310  26.3459310  22.1119310   2.4309310
  27.8469310  22.2149310   2.5899310  27.1509310  21.9139310   2.1569310
  20.1809310  25.4199310  10.1279310  19.8039310  25.2929310  10.9979310
  19.6179310  24.9089310   9.5459310  20.0609310  25.3389310  10.1649310
  29.1879310  26.9299310   5.5829310  29.7329310  27.4309310   6.1899310
  28.4939310  27.5369310   5.3259310  29.1689310  27.0709310   5.6279310
  17.1709310  28.4959310   6.4039310  17.5649310  28.4259310   5.5339310
  17.7829310  28.0409310   6.9809310  17.2999310  28.4289310   6.3659310
  31.8919310  24.1759310   1.7759310  31.8489310  24.7949310   2.5059310
  31.5259310  23.3649310   2.1279310  31.8399310  24.1519310   1.9149310
  27.8279310  34.0189310  11.3729310  27.2789310  33.9499310  10.5929310
  28.1919310  33.1419310  11.4889310  27.8049310  33.8979310  11.2879310
  21.3069310  22.3409310  10.1699310  20.7169310  21.6019310  10.0179310
  21.9189310  22.3129310   9.4349310  21.3099310  22.2429310  10.0559310
  22.6919310  28.5329310   8.2019310  22.6519310  27.5779310   8.1649310
  22.2369310  28.7609310   9.0119310  22.6289310  28.4399310   8.3009310
  30.6569310  25.1859310  14.8839310  29.9659310  24.5459310  15.0519310
  30.4489310  25.5419310  14.0209310  30.5419310  25.1489310  14.7949310
  16.2749310  24.2879310   2.0209310  16.9399310  24.8879310   2.3589310
  15.4429310  24.7219310   2.2099310  16.2539310  24.4199310   2.0889310
  18.6079310  28.7329310   4.2229310  19.2869310  28.4529310   4.8369310
  18.7059310  29.6829310   4.1739310  18.7069310  28.8189310   4.2959310
  18.2779310  18.9239310   4.9879310  18.0399310  18.1049310   4.5539310
  17.5169310  19.4919310   4.8609310  18.1499310  18.8919310   4.9159310
  28.0809310  19.4879310   3.5299310  27.7869310  20.2029310   2.9659310
  27.8099310  19.7489310   4.4099310  28.0089310  19.6129310   3.5699310
  26.5349310  31.1439310   8.6119310  26.4709310  30.6239310   9.4139310
  27.0799310  31.8929310   8.8549310  26.5959310  31.1729310   8.7459310
  32.0339310  30.0399310   5.2309310  31.1189310  30.0499310   4.9479310
  32.1559310  29.1719310   5.6159310  31.9319310  29.9299310   5.2439310
  21.6559310  26.3569310   2.3149310  22.4789310  26.8429310   2.2769310
  21.7069310  25.8619310   3.1319310  21.7679310  26.3559310   2.4139310
  18.3469310  34.2319310   6.3909310  17.8049310  34.6549310   7.0579310
  19.2459310  34.4289310   6.6529310  18.3919310  34.3119310   6.5099310
  17.5339310  32.0489310   8.6289310  18.1889310  32.4099310   8.0319310
  16.8559310  31.6939310   8.0539310  17.5309310  32.0499310   8.4789310
  32.8459310  13.9409310   7.8799310  32.9919310  14.3459310   8.7349310
  31.9009310  14.0089310   7.7409310  32.7439310  14.0009310   7.9719310
  28.9339310  24.0759310   5.5939310  29.4319310  23.8689310   4.8029310
  29.1179310  25.0009310   5.7579310  29.0209310  24.1679310   5.5139310
  33.6219310  34.8479310   7.6619310  33.4749310  33.9049310   7.7429310
  34.2759310  35.0459310   8.3329310  33.6869310  34.7519310   7.7579310
  34.9549310  31.1259310   6.4479310  34.1109310  31.5389310   6.6319310
  34.8229310  30.2039310   6.6659310  34.8299310  31.0609310   6.4989310
  16.8609310  21.6149310   8.4889310  17.6589310  21.2649310   8.0939310
  16.8409310  21.2349310   9.3669310  16.9599310  21.5209310   8.5509310
  26.2549310  24.6719310   6.2169310  25.8479310  25.4319310   5.8009310
  27.1169310  24.6069310   5.8069310  26.3129310  24.7609310   6.1109310
  30.7919310  25.9109310   3.6989310  31.4659310  26.3229310   4.2389310
  29.9819310  26.3569310   3.9449310  30.7749310  26.0209310   3.7989310
  18.9459310  26.4019310   7.2019310  19.9029310  26.3859310   7.1829310
  18.7009310  25.5879310   7.6419310  19.0369310  26.2959310   7.2559310
  29.2489310  20.4119310   9.7409310  28.7949310  20.8539310   9.0229310
  28.7069310  20.5869310  10.5099310  29.1219310  20.4909310   9.7469310
  34.4139310  25.3399310   8.6849310  34.0249310  24.8659310   9.4209310
  33.8789310  26.1289310   8.5989310  34.2959310  25.3799310   8.7679310
  27.7879310  21.8879310   7.5509310  28.4139310  22.3379310   6.9839310
  27.6459310  21.0409310   7.1269310  27.8499310  21.8369310   7.4239310
  26.3229310  29.7649310  11.0499310  26.7159310  30.5859310  11.3459310
  25.4099310  29.8199310  11.3319310  26.2569310  29.8769310  11.1239310
  29.9339310  17.8169310   4.8199310  29.2719310  18.2229310   4.2599310
  30.6289310  17.5539310   4.2169310  29.9379310  17.8359310   4.6709310
  31.5469310  23.0489310  10.1989310  31.2819310  22.3969310  10.8489310
  31.7659310  22.5359310   9.4209310  31.5409310  22.8999310  10.1829310
  22.2929310  24.8419310   4.4239310  22.4809310  24.0899310   3.8619310
  23.1489310  25.2329310   4.5939310  22.4259310  24.7959310   4.3739310
  20.9399310  16.7119310   6.5829310  21.1109310  17.6329310   6.7819310
  21.5059310  16.2279310   7.1839310  21.0339310  16.7679310   6.6849310
  21.7939310  25.8389310   6.9759310  22.0509310  25.4209310   6.1539310
  21.8779310  25.1469310   7.6319310  21.8379310  25.6969310   6.9549310
  29.1059310  30.2939310   7.4349310  29.2039310  30.5409310   6.5149310
  28.2519310  30.6439310   7.6869310  29.0089310  30.3699310   7.3499310
  26.4959310  34.7079310   4.7739310  26.3109310  33.8809310   4.3279310
  26.1839310  35.3809310   4.1689310  26.4319310  34.6879310   4.6389310
  32.5999310  16.5779310  16.3989310  32.0589310  16.0629310  16.9969310
  32.1359310  17.4109310  16.3119310  32.4719310  16.6189310  16.4649310
  30.1939310  32.7199310   7.9739310  29.6499310  33.3199310   7.4629310
  29.8029310  31.8589310   7.8279310  30.0749310  32.6869310   7.8899310
  33.9689310  24.1289310  11.5969310  33.0729310  23.8039310  11.5099310
  33.8689310  25.0239310  11.9219310  33.8409310  24.2019310  11.6279310
  24.2859310  35.0879310   6.9469310  24.2519310  34.4009310   7.6119310
  24.7619310  34.6929310   6.2169310  24.3419310  34.9499310   6.9389310
  25.7969310  23.1969310   8.7509310  25.3479310  22.4429310   9.1329310
  26.5189310  22.8169310   8.2509310  25.8319310  23.0519310   8.7359310
  27.3319310  27.3209310  10.4629310  27.0559310  28.1449310  10.8649310
  28.2829310  27.3079310  10.5719310  27.4189310  27.4249310  10.5279310
  22.8199310  19.9339310   2.7339310  22.6719310  20.8769310   2.6559310
  22.0279310  19.6019310   3.1579310  22.6999310  20.0119310   2.7779310
  26.6879310  34.5439310   8.7119310  27.4779310  35.0819310   8.6579310
  26.0879310  34.9359310   8.0779310  26.7119310  34.6629310   8.6239310
  26.4709310  20.2779310  15.1529310  26.0049310  20.8759310  15.7369310
  27.0659310  20.8419310  14.6579310  26.4869310  20.4259310  15.1639310
  29.6779310  33.1739310   3.5639310  29.3099310  33.7549310   4.2289310
  30.5689310  33.4969310   3.4299310  29.7449310  33.2899310   3.6319310
  16.8659310  18.0779310  11.1819310  17.7279310  18.0389310  11.5959310
  17.0519310  18.2279310  10.2549310  16.9999310  18.0919310  11.1159310
  27.7829310  25.6109310   8.5489310  27.5149310  26.2539310   9.2059310
  26.9839310  25.4289310   8.0529310  27.6459310  25.6699310   8.5689310
  17.6809310  22.1499310   3.2119310  18.0809310  22.7349310   3.8559310
  17.2169310  22.7349310   2.6129310  17.6729310  22.2999310   3.2179310
  27.7599310  23.9449310  11.1109310  27.5969310  24.2539310  10.2199310
  26.8989310  23.6809310  11.4339310  27.6289310  23.9509310  11.0389310
  27.9819310  18.1659310  15.2489310  27.9789310  17.8759310  14.3369310
  27.3099310  18.8469310  15.2859310  27.8949310  18.2159310  15.1369310
  32.0419310  22.3039310  14.8779310  32.7549310  21.6719310  14.9729310
  32.4819310  23.1409310  14.7319310  32.1889310  22.3299310  14.8709310
  18.0709310  24.0859310   8.3999310  17.2919310  24.5919310   8.6309310
  17.8089310  23.1729310   8.5229310  17.9379310  24.0339310   8.4449310
  33.5149310  33.5809310  10.4469310  33.7969310  33.4849310  11.3569310
  32.7339310  34.1319310  10.4959310  33.4509310  33.6389310  10.5699310
  21.1669310  28.2429310   5.5059310  21.0799310  29.0229310   6.0549310
  21.2389310  27.5189310   6.1289310  21.1649310  28.2499310   5.6559310
  22.3509310  16.8999310   4.1419310  21.9459310  16.5689310   4.9439310
  22.4579310  16.1259310   3.5899310  22.3129310  16.7589310   4.1739310
  33.4359310  32.3589310   3.8819310  33.5059310  31.7299310   4.5989310
  33.5019310  31.8269310   3.0889310  33.4529310  32.2109310   3.8719310
  25.0389310  19.8429310   4.4129310  24.1869310  19.7049310   4.0009310
  25.0889310  20.7899310   4.5489310  24.9369310  19.9469310   4.3779310
  17.5389310  33.4479310  11.0329310  17.2459310  33.1749310  10.1629310
  17.2309310  34.3499310  11.1169310  17.4619310  33.5279310  10.9319310
  31.0669310  18.7639310  15.0729310  31.1279310  18.4169310  14.1829310
  30.1269310  18.8119310  15.2469310  30.9539310  18.7259310  14.9809310
  21.4539310  30.8119310  10.4309310  20.8839310  31.4989310  10.7779310
  21.0019310  29.9959310  10.6449310  21.3229310  30.7959310  10.5029310
  25.7569310  18.0169310   2.5039310  25.5319310  18.8019310   3.0029310
  26.6559310  18.1689310   2.2119310  25.8439310  18.1369310   2.5309310
  31.1839310  17.7369310   7.3739310  32.0549310  17.3439310   7.4309310
  31.0849310  17.9679310   6.4509310  31.2829310  17.7159310   7.2629310
  28.0919310  18.0039310  12.5079310  27.8319310  17.2279310  12.0109310
  29.0479310  18.0089310  12.4599310  28.1809310  17.9049310  12.4379310
  31.2089310  21.6019310   2.6219310  30.9879310  21.3519310   3.5199310
  32.0249310  21.1359310   2.4389310  31.2849310  21.5099310   2.7139310
  25.0119310  20.1519310   7.7889310  24.1609310  19.7209310   7.7019310
  25.1109310  20.2989310   8.7299310  24.9149310  20.1159310   7.8979310
  23.6429310  17.1729310  14.9399310  23.0899310  17.4839310  15.6559310
  23.7039310  17.9189310  14.3429310  23.5799310  17.3079310  14.9549310
  22.4339310  29.6859310   3.6249310  21.7979310  29.2309310   4.1759310
  21.9459310  30.4199310   3.2519310  22.2909310  29.7219310   3.6479310
  28.3119310  31.3569310  11.8299310  28.1089310  31.0469310  12.7119310
  28.8259310  30.6489310  11.4399310  28.3519310  31.2259310  11.8929310
  30.9569310  28.9589310  14.4769310  30.3169310  28.4259310  14.9489310
  30.9189310  28.6359310  13.5759310  30.8699310  28.8489310  14.4219310
  17.0839310  30.6809310  11.9809310  16.7019310  31.5239310  12.2249310
  17.9079310  30.9069310  11.5499310  17.1399310  30.8179310  11.9569310
  18.9869310  20.3069310   7.4029310  18.8929310  19.8399310   6.5729310
  19.8099310  19.9839310   7.7679310  19.0799310  20.2059310   7.3439310
  33.6239310  26.7959310  12.2939310  32.7329310  27.0119310  12.5719310
  33.9009310  27.5489310  11.7719310  33.5449310  26.9199310  12.2629310
  32.6919310  28.8179310   2.7259310  32.7139310  28.9339310   3.6759310
  32.8649310  29.6909310   2.3749310  32.7169310  28.9449310   2.8029310
  32.0669310  34.7579310   3.0329310  31.8029310  34.7229310   2.1139310
  32.6889310  34.0369310   3.1319310  32.1129310  34.6609310   2.9279310
  21.1499310  19.5649310   8.6589310  21.6019310  18.9859310   9.2729310
  21.7129310  19.5799310   7.8859310  21.2799310  19.4929310   8.6389310
  28.9779310  36.2969310   8.8449310  29.7529310  36.1409310   8.3059310
  28.9469310  37.2479310   8.9509310  29.0729310  36.3989310   8.7899310
  25.5479310  32.7089310   3.0739310  25.3099310  31.8959310   3.5179310
  24.7429310  32.9869310   2.6369310  25.4149310  32.6409310   3.0749310
  31.0509310  27.8349310  12.0779310  30.4409310  27.0989310  12.1339310
  30.6189310  28.4589310  11.4949310  30.9179310  27.8199310  12.0109310
  20.1489310  28.4229310  10.5029310  19.6879310  28.7669310   9.7379310
  20.2299310  27.4849310  10.3309310  20.0999310  28.3469310  10.3829310
  18.3449310  26.0639310   2.6879310  19.3009310  26.0959310   2.7149310
  18.0739310  26.9809310   2.7259310  18.4329310  26.1849310   2.6959310
  29.0129310  23.6149310   3.0429310  29.6329310  24.0589310   2.4639310
  28.2029310  24.1189310   2.9579310  28.9889310  23.7369310   2.9579310
  21.3049310  31.7509310   2.2749310  20.6049310  32.1489310   1.7579310
  21.7369310  31.1479310   1.6689310  21.2709310  31.7249310   2.1309310
  29.9059310  29.6939310  10.0969310  29.7329310  29.6169310   9.1589310
  30.6889310  30.2409310  10.1519310  29.9839310  29.7539310   9.9839310
  24.7239310  26.0779310   4.4159310  25.2379310  25.4779310   3.8759310
  24.4499310  26.7679310   3.8119310  24.7539310  26.0889310   4.2699310
  31.7519310  34.6449310  13.7069310  32.1609310  34.8169310  14.5549310
  31.4829310  33.7279310  13.7519310  31.7699310  34.5499310  13.8209310
  30.7659310  19.3069310  11.9749310  30.4789310  20.1329310  12.3659310
  30.5429310  19.3909310  11.0479310  30.6999310  19.4239310  11.9069310
  34.2589310  32.2919310  15.6999310  33.4869310  32.3229310  16.2639310
  34.8759310  32.9019310  16.1059310  34.2389310  32.3739310  15.8249310
  34.7809310  20.6429310   4.4609310  35.3629310  21.1279310   3.8749310
  34.2149310  21.3129310   4.8439310  34.7829310  20.7909310   4.4349310
  22.4999310  19.4619310   6.3269310  22.3219310  20.0519310   5.5949310
  22.9849310  18.7349310   5.9369310  22.5389310  19.4449310   6.1839310
  16.1049310  26.0519310   4.9039310  16.7019310  26.3079310   4.1999310
  16.4079310  26.5469310   5.6659310  16.2199310  26.1479310   4.9109310
  18.7859310  29.5589310   8.7089310  19.0449310  30.2519310   8.1009310
  17.9139310  29.8179310   9.0079310  18.7079310  29.6809310   8.6689310
  32.4739310  27.1489310   5.6899310  33.3269310  26.8079310   5.4199310
  32.4959310  27.1199310   6.6459310  32.5859310  27.1009310   5.7769310
  28.9539310  23.3829310  15.6639310  28.1699310  23.3439310  16.2119310
  29.5909310  22.8319310  16.1179310  28.9349310  23.3079310  15.7919310
  34.5499310  17.1749310   5.1979310  33.9539310  16.8249310   5.8599310
  35.2679310  16.5429310   5.1629310  34.5659310  17.0499310   5.2779310
  30.3489310  21.9059310  12.8669310  31.0419310  22.0999310  13.4989310
  29.7129310  22.6119310  12.9849310  30.3559310  22.0209310  12.9629310
  30.8139310  34.1759310  10.3419310  30.3409310  35.0089310  10.3349310
  30.2829310  33.5949310   9.7979310  30.6849310  34.2079310  10.2719310
  20.3249310  14.1659310  49.1659310  19.3709310  14.0979310  49.1339310
  20.5139310  14.4729310  50.0519310  20.2269310  14.1969310  49.2749310
  25.0899310  11.6099310  42.3289310  24.9159310  11.7709310  43.2569310
  24.3249310  11.1239310  42.0229310  24.9699310  11.5679310  42.4089310
  21.6609310   6.5069310  37.6599310  21.5069310   6.9639310  38.4869310
  22.3729310   5.8969310  37.8519310  21.7319310   6.4869310  37.7899310
  31.8219310  12.6659310  35.8459310  30.9599310  12.9939310  35.5899310
  31.7259310  11.7139310  35.8449310  31.6989310  12.5859310  35.8129310
  18.5479310  12.7629310  42.6229310  18.5859310  13.6559310  42.2789310
  17.7489310  12.7419310  43.1489310  18.4509310  12.8749310  42.6459310
  23.2589310  14.5529310  39.3119310  22.4599310  14.0259310  39.3219310
  23.6029310  14.4499310  38.4249310  23.2009310  14.4719310  39.1999310
  27.1669310   9.5379310  41.7789310  26.7409310   8.9309310  41.1749310
  26.5039310  10.2049310  41.9569310  27.0279310   9.5459310  41.7249310
  34.0379310   4.4609310  42.8729310  33.2589310   4.5709310  43.4179310
  34.3819310   5.3469310  42.7639310  33.9819310   4.5879310  42.9289310
  28.2449310   8.7289310  37.3239310  29.0149310   8.7499310  37.8909310
  28.5639310   8.3619310  36.4999310  28.3839310   8.6849310  37.2909310
  33.9809310   8.3659310  39.0539310  33.6149310   9.0069310  39.6639310
  33.2159310   7.9439310  38.6619310  33.8359310   8.3939310  39.0819310
  31.9629310   9.9659310  36.0709310  32.0049310   9.8319310  35.1239310
  32.8489310  10.2329310  36.3139310  32.0819310   9.9829310  35.9809310
  28.9559310  12.1329310  42.6599310  29.1319310  12.9829310  42.2569310
  28.1969310  11.7959310  42.1859310  28.8819310  12.1989310  42.5479310
  28.7459310  15.4579310  43.9119310  29.3319310  16.1949310  43.7369310
  27.9639310  15.6439310  43.3929310  28.7209310  15.5759310  43.8229310
  21.0679310   2.7129310  42.4319310  20.6609310   2.7119310  41.5649310
  20.5819310   3.3759310  42.9229310  20.9539310   2.7979310  42.3839310
  25.1549310   4.0989310  40.9809310  24.3299310   4.0809310  40.4959310
  24.9039310   3.9129310  41.8859310  25.0169310   4.0729310  41.0349310
  22.2689310  13.7639310  45.5979310  22.0079310  13.3889310  46.4389310
  22.9999310  13.2189310  45.3089310  22.3289310  13.6459310  45.6679310
  20.5069310  11.9569310  44.3129310  19.7829310  12.2599310  43.7649310
  21.1009310  12.7069310  44.3609310  20.4909310  12.0919310  44.2489310
  19.9799310   5.7209310  35.6509310  19.3769310   6.4579310  35.5549310
  20.6089310   6.0109310  36.3119310  19.9829310   5.8519310  35.7229310
  24.4069310  14.1829310  36.9439310  24.8659310  13.3609310  37.1159310
  25.1049310  14.8229310  36.8049310  24.5549310  14.1599310  36.9479310
  23.1299310   4.6739310  45.9259310  24.0109310   4.9659310  46.1579310
  23.2159310   4.3399310  45.0329310  23.2539310   4.6689310  45.8409310
  32.5559310   8.5009310  46.2319310  32.9959310   9.0079310  46.9149310
  31.8839310   8.0039310  46.6979310  32.5269310   8.5019310  46.3789310
  33.7709310  10.2689310  48.4599310  33.0569310  10.8739310  48.2609310
  34.4869310  10.8319310  48.7569310  33.7719310  10.4179310  48.4729310
  27.2829310  11.3299310  37.3979310  27.5869310  10.4369310  37.5539310
  27.8099310  11.8699310  37.9869310  27.3889310  11.2849310  37.4929310
  29.9059310   1.8179310  37.9739310  30.0099310   2.1619310  38.8609310
  29.7759310   2.5939310  37.4289310  29.9029310   1.9609310  38.0179310
  32.5479310   2.6659310  45.3009310  33.4599310   2.6769310  45.5939310
  32.5479310   2.0809310  44.5429310  32.6649310   2.5919310  45.2419310
  30.3929310   7.0029310  47.1519310  29.5179310   6.7459310  46.8619310
  30.7449310   6.2199310  47.5759310  30.3259310   6.8699310  47.1689310
  24.7379310   3.5029310  43.6149310  24.8239310   2.7189310  44.1579310
  25.1779310   4.1899310  44.1149310  24.8049310   3.4909310  43.7479310
  33.4159310  12.2429310  38.9509310  33.5369310  13.1179310  38.5829310
  33.6249310  11.6489310  38.2299310  33.4579310  12.2789310  38.8109310
  17.8129310  15.7249310  40.1339310  17.0319310  15.5939310  39.5959310
  17.7829310  16.6499310  40.3779310  17.7089310  15.8269310  40.0959310
  24.1659310  11.9909310  44.8239310  23.6859310  11.1829310  45.0009310
  24.8959310  11.9769310  45.4429310  24.1979310  11.8859310  44.9259310
  37.5779310   4.9079310  43.2079310  37.5919310   4.5949310  44.1129310
  37.5289310   5.8609310  43.2849310  37.5739310   4.9899310  43.3339310
  26.9709310   2.8439310  37.0909310  26.3449310   2.1199310  37.1149310
  27.1889310   3.0029310  38.0089310  26.9189310   2.7719310  37.2109310
  23.7089310   4.4919310  49.2109310  22.8639310   4.1719310  49.5279310
  24.1819310   3.7009310  48.9519310  23.6609310   4.3499310  49.2189310
  19.5439310  14.2499310  38.6679310  18.9619310  14.7479310  39.2409310
  19.7729310  14.8609310  37.9679310  19.4989310  14.3919310  38.6519310
  33.1429310   5.8089310  37.0919310  32.6859310   5.5679310  37.8979310
  34.0689310   5.6689310  37.2909310  33.2029310   5.7599310  37.2209310
  31.8869310  12.4289310  48.9299310  31.5359310  12.3259310  49.8149310
  32.0349310  13.3709310  48.8399310  31.8609310  12.5359310  49.0319310
  27.1689310   2.9619310  39.7549310  26.3459310   3.2449310  40.1509310
  27.8469310   3.3479310  40.3099310  27.1509310   3.0469310  39.8769310
  20.1809310   6.5529310  47.8479310  19.8039310   6.4259310  48.7179310
  19.6179310   6.0419310  47.2659310  20.0609310   6.4719310  47.8849310
  29.1879310   8.0629310  43.3029310  29.7329310   8.5639310  43.9099310
  28.4939310   8.6699310  43.0459310  29.1689310   8.2039310  43.3479310
  17.1709310   9.6289310  44.1239310  17.5649310   9.5589310  43.2539310
  17.7829310   9.1739310  44.7009310  17.2999310   9.5619310  44.0859310
  31.8919310   5.3089310  39.4959310  31.8489310   5.9279310  40.2259310
  31.5259310   4.4979310  39.8479310  31.8399310   5.2849310  39.6349310
  26.6419310   6.1729310  39.9749310  25.9699310   5.4919310  40.0049310
  26.7209310   6.3899310  39.0459310  26.5659310   6.1139310  39.8599310
  27.8279310  15.1519310  49.0929310  27.2789310  15.0829310  48.3129310
  28.1919310  14.2749310  49.2089310  27.8049310  15.0309310  49.0079310
  21.3069310   3.4739310  47.8899310  20.7169310   2.7349310  47.7379310
  21.9189310   3.4459310  47.1549310  21.3099310   3.3759310  47.7759310
  22.6919310   9.6659310  45.9219310  22.6519310   8.7109310  45.8849310
  22.2369310   9.8939310  46.7319310  22.6289310   9.5729310  46.0209310
  16.2749310   5.4209310  39.7409310  16.9399310   6.0209310  40.0789310
  15.4429310   5.8549310  39.9299310  16.2539310   5.5529310  39.8089310
  18.6079310   9.8659310  41.9429310  19.2869310   9.5859310  42.5569310
  18.7059310  10.8159310  41.8939310  18.7069310   9.9519310  42.0159310
  24.0219310   8.6019310  37.0299310  23.6389310   8.2929310  36.2089310
  24.2609310   9.5129310  36.8549310  24.0039310   8.6789310  36.9029310
  26.5349310  12.2769310  46.3319310  26.4709310  11.7569310  47.1339310
  27.0799310  13.0259310  46.5749310  26.5959310  12.3059310  46.4659310
  32.0339310  11.1729310  42.9509310  31.1189310  11.1829310  42.6679310
  32.1559310  10.3049310  43.3359310  31.9319310  11.0629310  42.9639310
  19.6869310   3.1369310  36.7459310  18.7619310   2.8939310  36.7839310
  19.6829310   4.0569310  36.4809310  19.5689310   3.2239310  36.7169310
  21.6559310   7.4899310  40.0349310  22.4789310   7.9759310  39.9969310
  21.7069310   6.9949310  40.8519310  21.7679310   7.4889310  40.1339310
  18.3469310  15.3649310  44.1109310  17.8049310  15.7879310  44.7779310
  19.2459310  15.5619310  44.3729310  18.3919310  15.4449310  44.2299310
  23.9509310   9.1269310  40.0369310  23.4279310   9.8299310  40.4229310
  23.9629310   9.3229310  39.1009310  23.8859310   9.2419310  39.9669310
  30.9939310   3.9939310  36.2009310  31.4719310   3.6409310  35.4519310
  31.4959310   4.7659310  36.4639310  31.1189310   4.0479310  36.1389310
  23.7959310  11.1699310  49.6059310  23.0129310  11.5759310  49.2369310
  23.5079310  10.2989310  49.8789310  23.6589310  11.1099310  49.5939310
  17.5339310  13.1819310  46.3489310  18.1889310  13.5429310  45.7519310
  16.8559310  12.8269310  45.7739310  17.5309310  13.1829310  46.1989310
  22.8219310   7.1269310  48.0849310  23.1469310   6.3239310  48.4919310
  21.9529310   6.8949310  47.7589310  22.7519310   6.9949310  48.0949310
  28.9339310   5.2089310  43.3139310  29.4319310   5.0019310  42.5229310
  29.1179310   6.1339310  43.4779310  29.0209310   5.3009310  43.2339310
  23.5589310   3.9549310  37.0549310  23.0779310   3.1379310  36.9239310
  23.9929310   4.1139310  36.2169310  23.5529310   3.8709310  36.9309310
  17.5229310   8.9919310  37.5129310  18.2899310   8.6689310  37.9879310
  16.7809310   8.7529310  38.0679310  17.5259310   8.9199310  37.6449310
  33.6219310  15.9809310  45.3819310  33.4749310  15.0379310  45.4629310
  34.2759310  16.1789310  46.0529310  33.6869310  15.8849310  45.4779310
  34.9549310  12.2589310  44.1679310  34.1109310  12.6719310  44.3519310
  34.8229310  11.3369310  44.3859310  34.8299310  12.1939310  44.2189310
  16.8609310   2.7479310  46.2089310  17.6589310   2.3979310  45.8139310
  16.8409310   2.3679310  47.0869310  16.9599310   2.6539310  46.2709310
  26.2549310   5.8049310  43.9369310  25.8479310   6.5649310  43.5209310
  27.1169310   5.7399310  43.5269310  26.3129310   5.8939310  43.8309310
  30.7919310   7.0439310  41.4189310  31.4659310   7.4559310  41.9589310
  29.9819310   7.4899310  41.6649310  30.7749310   7.1539310  41.5189310
  18.9459310   7.5349310  44.9219310  19.9029310   7.5189310  44.9029310
  18.7009310   6.7209310  45.3619310  19.0369310   7.4289310  44.9759310
  34.4139310   6.4729310  46.4049310  34.0249310   5.9989310  47.1409310
  33.8789310   7.2619310  46.3189310  34.2959310   6.5129310  46.4879310
  27.7879310   3.0209310  45.2709310  28.4139310   3.4709310  44.7039310
  27.6459310   2.1739310  44.8469310  27.8499310   2.9699310  45.1439310
  26.3229310  10.8979310  48.7699310  26.7159310  11.7189310  49.0659310
  25.4099310  10.9529310  49.0519310  26.2569310  11.0099310  48.8439310
  20.3469310   3.0589310  39.7439310  20.2569310   2.7879310  38.8309310
  19.4489310   3.2159310  40.0369310  20.2199310   3.0449310  39.6649310
  31.5469310   4.1819310  47.9189310  31.2819310   3.5299310  48.5689310
  31.7659310   3.6689310  47.1409310  31.5409310   4.0329310  47.9029310
  22.2929310   5.9749310  42.1439310  22.4809310   5.2229310  41.5819310
  23.1489310   6.3659310  42.3139310  22.4259310   5.9289310  42.0939310
  24.7429310  11.1819310  36.4269310  25.5869310  11.1439310  36.8779310
  24.9659310  11.3869310  35.5189310  24.8799310  11.2029310  36.3689310
  21.7939310   6.9719310  44.6959310  22.0509310   6.5539310  43.8739310
  21.8779310   6.2799310  45.3519310  21.8379310   6.8299310  44.6749310
  29.1059310  11.4269310  45.1549310  29.2039310  11.6739310  44.2349310
  28.2519310  11.7769310  45.4069310  29.0089310  11.5029310  45.0699310
  26.4959310  15.8409310  42.4939310  26.3109310  15.0139310  42.0479310
  26.1839310  16.5139310  41.8889310  26.4319310  15.8209310  42.3589310
  30.1939310  13.8529310  45.6939310  29.6499310  14.4529310  45.1829310
  29.8029310  12.9919310  45.5479310  30.0749310  13.8199310  45.6099310
  33.9689310   5.2619310  49.3169310  33.0729310   4.9369310  49.2299310
  33.8689310   6.1569310  49.6419310  33.8409310   5.3349310  49.3479310
  24.2859310  16.2209310  44.6669310  24.2519310  15.5339310  45.3319310
  24.7619310  15.8259310  43.9369310  24.3419310  16.0829310  44.6589310
  26.1649310   6.9489310  37.3549310  26.8949310   7.5689310  37.3439310
  25.3829310   7.4999310  37.3239310  26.1579310   7.0989310  37.3489310
  25.7969310   4.3299310  46.4709310  25.3479310   3.5759310  46.8529310
  26.5189310   3.9499310  45.9709310  25.8319310   4.1849310  46.4559310
  27.3319310   8.4539310  48.1829310  27.0559310   9.2779310  48.5849310
  28.2829310   8.4409310  48.2919310  27.4189310   8.5579310  48.2479310
  26.6879310  15.6769310  46.4319310  27.4779310  16.2149310  46.3779310
  26.0879310  16.0689310  45.7979310  26.7119310  15.7959310  46.3439310
  29.6779310  14.3069310  41.2839310  29.3099310  14.8879310  41.9489310
  30.5689310  14.6299310  41.1499310  29.7449310  14.4229310  41.3519310
  27.7829310   6.7439310  46.2689310  27.5149310   7.3869310  46.9259310
  26.9839310   6.5619310  45.7729310  27.6459310   6.8029310  46.2889310
  17.6809310   3.2829310  40.9319310  18.0809310   3.8679310  41.5759310
  17.2169310   3.8679310  40.3329310  17.6729310   3.4329310  40.9379310
  27.7599310   5.0779310  48.8309310  27.5969310   5.3869310  47.9399310
  26.8989310   4.8139310  49.1539310  27.6289310   5.0839310  48.7589310
  20.5569310   9.9979310  37.2609310  20.6429310   9.9469310  36.3089310
  20.0039310  10.7659310  37.4099310  20.4969310  10.0899310  37.1579310
  18.0709310   5.2189310  46.1199310  17.2919310   5.7249310  46.3509310
  17.8089310   4.3059310  46.2429310  17.9379310   5.1669310  46.1649310
  33.5149310  14.7139310  48.1669310  33.7969310  14.6179310  49.0769310
  32.7339310  15.2649310  48.2159310  33.4509310  14.7719310  48.2899310
  21.1669310   9.3759310  43.2259310  21.0799310  10.1559310  43.7749310
  21.2389310   8.6519310  43.8489310  21.1649310   9.3829310  43.3759310
  33.4359310  13.4919310  41.6019310  33.5059310  12.8629310  42.3189310
  33.5019310  12.9599310  40.8089310  33.4529310  13.3439310  41.5919310
  22.8939310   4.0789310  39.7479310  23.2669310   4.0139310  38.8689310
  21.9889310   3.7829310  39.6469310  22.8259310   4.0319310  39.6229310
  22.5929310  11.2359310  38.1819310  21.8609310  10.7469310  37.8059310
  23.2529310  11.2489310  37.4899310  22.5829310  11.1749310  38.0459310
  17.5389310  14.5809310  48.7529310  17.2459310  14.3079310  47.8829310
  17.2309310  15.4829310  48.8369310  17.4619310  14.6609310  48.6519310
  26.0839310   4.6469310  35.3719310  26.0649310   5.2969310  36.0739310
  26.4389310   3.8589310  35.7839310  26.1269310   4.6299310  35.5139310
  21.4539310  11.9449310  48.1509310  20.8839310  12.6319310  48.4979310
  21.0019310  11.1289310  48.3649310  21.3229310  11.9289310  48.2229310
  28.0459310  13.5259310  39.2419310  27.3609310  13.4539310  39.9069310
  28.8439310  13.7039310  39.7389310  28.0599310  13.5389310  39.3909310
  31.2089310   2.7349310  40.3419310  30.9879310   2.4849310  41.2399310
  32.0249310   2.2689310  40.1589310  31.2849310   2.6429310  40.4339310
  29.0549310  12.4979310  35.4889310  28.6549310  13.3659310  35.5389310
  28.5789310  11.9769310  36.1359310  28.9429310  12.5429310  35.5779310
  22.4339310  10.8189310  41.3449310  21.7979310  10.3639310  41.8959310
  21.9459310  11.5529310  40.9719310  22.2909310  10.8549310  41.3679310
  28.3119310  12.4899310  49.5499310  28.1089310  12.1799310  50.4319310
  28.8259310  11.7819310  49.1599310  28.3519310  12.3589310  49.6129310
  33.8999310   2.7589310  38.1779310  33.0769310   2.2719310  38.1299310
  33.6479310   3.6229310  38.5059310  33.7629310   2.8069310  38.2139310
  17.0839310  11.8139310  49.7009310  16.7019310  12.6569310  49.9449310
  17.9079310  12.0399310  49.2699310  17.1399310  11.9509310  49.6769310
  33.6239310   7.9289310  50.0139310  32.7329310   8.1449310  50.2919310
  33.9009310   8.6819310  49.4919310  33.5449310   8.0529310  49.9829310
  32.6919310   9.9509310  40.4459310  32.7139310  10.0669310  41.3959310
  32.8649310  10.8239310  40.0949310  32.7169310  10.0779310  40.5229310
  32.0669310  15.8909310  40.7529310  31.8029310  15.8559310  39.8339310
  32.6889310  15.1699310  40.8519310  32.1129310  15.7939310  40.6479310
  29.2409310  15.8869310  38.2639310  28.7249310  15.2019310  38.6899310
  28.7579310  16.6939310  38.4379310  29.1129310  15.9019310  38.3409310
  28.9779310  17.4299310  46.5649310  29.7529310  17.2739310  46.0259310
  28.9469310  18.3809310  46.6709310  29.0729310  17.5319310  46.5099310
  25.5479310  13.8419310  40.7939310  25.3099310  13.0289310  41.2379310
  24.7429310  14.1199310  40.3569310  25.4149310  13.7739310  40.7949310
  31.0509310   8.9679310  49.7979310  30.4409310   8.2319310  49.8539310
  30.6189310   9.5919310  49.2149310  30.9179310   8.9529310  49.7309310
  20.1489310   9.5559310  48.2229310  19.6879310   9.8999310  47.4579310
  20.2299310   8.6179310  48.0509310  20.0999310   9.4799310  48.1029310
  18.3449310   7.1969310  40.4079310  19.3009310   7.2289310  40.4349310
  18.0739310   8.1139310  40.4459310  18.4329310   7.3179310  40.4159310
  29.0129310   4.7479310  40.7629310  29.6329310   5.1919310  40.1839310
  28.2029310   5.2519310  40.6779310  28.9889310   4.8699310  40.6779310
  15.6329310  10.7999310  36.7239310  16.2609310  10.2769310  37.2229310
  16.1269310  11.1059310  35.9629310  15.7769310  10.7719310  36.6909310
  21.3049310  12.8839310  39.9949310  20.6049310  13.2819310  39.4779310
  21.7369310  12.2809310  39.3889310  21.2709310  12.8579310  39.8509310
  29.9059310  10.8269310  47.8169310  29.7329310  10.7499310  46.8789310
  30.6889310  11.3739310  47.8719310  29.9839310  10.8869310  47.7039310
  24.7239310   7.2109310  42.1359310  25.2379310   6.6109310  41.5959310
  24.4499310   7.9009310  41.5319310  24.7539310   7.2219310  41.9899310
  17.2109310  14.5659310  36.1819310  17.7679310  13.8069310  36.3539310
  17.7789310  15.3199310  36.3379310  17.3549310  14.5649310  36.2239310
  34.7809310   1.7759310  42.1809310  35.3629310   2.2609310  41.5949310
  34.2149310   2.4459310  42.5639310  34.7829310   1.9239310  42.1549310
  16.1049310   7.1849310  42.6239310  16.7019310   7.4409310  41.9199310
  16.4079310   7.6799310  43.3859310  16.2199310   7.2809310  42.6309310
  18.7859310  10.6919310  46.4289310  19.0449310  11.3849310  45.8209310
  17.9139310  10.9509310  46.7279310  18.7079310  10.8139310  46.3889310
  32.4739310   8.2819310  43.4099310  33.3269310   7.9409310  43.1399310
  32.4959310   8.2529310  44.3659310  32.5859310   8.2339310  43.4969310
  30.6199310   8.9529310  38.6249310  31.0159310   9.2939310  39.4269310
  31.1109310   9.3719310  37.9179310  30.7329310   9.0499310  38.6369310
  30.8139310  15.3089310  48.0619310  30.3409310  16.1419310  48.0549310
  30.2829310  14.7279310  47.5179310  30.6849310  15.3409310  47.9919310
  20.3249310  14.1659310  30.3059310  19.3709310  14.0979310  30.2739310
  20.5139310  14.4729310  31.1919310  20.2269310  14.1969310  30.4149310
  25.0899310  11.6099310  23.4689310  24.9159310  11.7709310  24.3969310
  24.3249310  11.1239310  23.1629310  24.9699310  11.5679310  23.5489310
  21.6609310   6.5069310  18.7999310  21.5069310   6.9639310  19.6269310
  22.3729310   5.8969310  18.9919310  21.7319310   6.4869310  18.9299310
  31.8219310  12.6659310  16.9859310  30.9599310  12.9939310  16.7299310
  31.7259310  11.7139310  16.9849310  31.6989310  12.5859310  16.9529310
  18.5479310  12.7629310  23.7629310  18.5859310  13.6559310  23.4189310
  17.7489310  12.7419310  24.2889310  18.4509310  12.8749310  23.7859310
  23.2589310  14.5529310  20.4519310  22.4599310  14.0259310  20.4619310
  23.6029310  14.4499310  19.5649310  23.2009310  14.4719310  20.3399310
  27.1669310   9.5379310  22.9189310  26.7409310   8.9309310  22.3149310
  26.5039310  10.2049310  23.0969310  27.0279310   9.5459310  22.8649310
  34.0379310   4.4609310  24.0129310  33.2589310   4.5709310  24.5579310
  34.3819310   5.3469310  23.9039310  33.9819310   4.5879310  24.0689310
  25.3689310   7.7769310  31.4449310  25.2409310   6.9119310  31.8339310
  25.8119310   7.6019310  30.6139310  25.4089310   7.6439310  31.3879310
  28.2449310   8.7289310  18.4639310  29.0149310   8.7499310  19.0309310
  28.5639310   8.3619310  17.6399310  28.3839310   8.6849310  18.4309310
  33.9809310   8.3659310  20.1939310  33.6149310   9.0069310  20.8039310
  33.2159310   7.9439310  19.8019310  33.8359310   8.3939310  20.2219310
  31.9629310   9.9659310  17.2109310  32.0049310   9.8319310  16.2639310
  32.8489310  10.2329310  17.4539310  32.0819310   9.9829310  17.1209310
  17.3659310   8.4439310  32.5949310  16.4449310   8.2239310  32.4549310
  17.4459310   8.5509310  33.5419310  17.2579310   8.4289310  32.6979310
  28.9559310  12.1329310  23.7999310  29.1319310  12.9829310  23.3969310
  28.1969310  11.7959310  23.3259310  28.8819310  12.1989310  23.6879310
  21.0679310   2.7129310  23.5719310  20.6609310   2.7119310  22.7049310
  20.5819310   3.3759310  24.0629310  20.9539310   2.7979310  23.5239310
  27.5349310   3.5979310  32.5889310  28.1209310   3.9109310  33.2779310
  26.8089310   4.2229310  32.5889310  27.5169310   3.7179310  32.6769310
  25.1549310   4.0989310  22.1209310  24.3299310   4.0809310  21.6359310
  24.9039310   3.9129310  23.0259310  25.0169310   4.0729310  22.1749310
  20.5069310  11.9569310  25.4529310  19.7829310  12.2599310  24.9049310
  21.1009310  12.7069310  25.5009310  20.4909310  12.0919310  25.3889310
  17.0559310   2.1109310  35.6429310  16.8579310   2.1919310  34.7109310
  16.2619310   2.4139310  36.0839310  16.9289310   2.1599310  35.5799310
  19.9799310   5.7209310  16.7909310  19.3769310   6.4579310  16.6949310
  20.6089310   6.0109310  17.4519310  19.9829310   5.8519310  16.8629310
  24.4069310  14.1829310  18.0839310  24.8659310  13.3609310  18.2559310
  25.1049310  14.8229310  17.9449310  24.5549310  14.1599310  18.0879310
  23.1299310   4.6739310  27.0659310  24.0109310   4.9659310  27.2979310
  23.2159310   4.3399310  26.1729310  23.2539310   4.6689310  26.9809310
  17.0239310  11.1369310  34.3999310  16.2619310  11.7049310  34.2829310
  17.2289310  10.8269310  33.5179310  16.9519310  11.1699310  34.2719310
  19.0949310  12.4319310  35.7369310  19.5779310  12.9929310  35.1299310
  18.6519310  11.7959310  35.1759310  19.0999310  12.4229310  35.5879310
  22.7209310  14.1679310  34.5349310  23.2949310  14.0809310  35.2959310
  22.6789310  15.1099310  34.3729310  22.7889310  14.2769310  34.6109310
  32.5559310   8.5009310  27.3719310  32.9959310   9.0079310  28.0549310
  31.8839310   8.0039310  27.8379310  32.5269310   8.5019310  27.5189310
  33.7709310  10.2689310  29.5999310  33.0569310  10.8739310  29.4009310
  34.4869310  10.8319310  29.8969310  33.7719310  10.4179310  29.6129310
  23.0759310   8.0219310  34.4359310  22.9189310   7.0779310  34.3999310
  22.9869310   8.3139310  33.5289310  23.0439310   7.9379310  34.3149310
  27.2829310  11.3299310  18.5379310  27.5869310  10.4369310  18.6939310
  27.8099310  11.8699310  19.1269310  27.3889310  11.2849310  18.6329310
  29.9059310   1.8179310  19.1139310  30.0099310   2.1619310  20.0009310
  29.7759310   2.5939310  18.5689310  29.9029310   1.9609310  19.1579310
  32.5479310   2.6659310  26.4409310  33.4599310   2.6769310  26.7339310
  32.5479310   2.0809310  25.6829310  32.6649310   2.5919310  26.3819310
  30.3929310   7.0029310  28.2919310  29.5179310   6.7459310  28.0019310
  30.7449310   6.2199310  28.7159310  30.3259310   6.8699310  28.3089310
  20.1019310  13.9189310  33.4499310  19.8499310  14.8229310  33.6409310
  21.0069310  13.8539310  33.7529310  20.1859310  14.0269310  33.5129310
  24.7379310   3.5029310  24.7549310  24.8239310   2.7189310  25.2979310
  25.1779310   4.1899310  25.2549310  24.8049310   3.4909310  24.8879310
  33.4159310  12.2429310  20.0909310  33.5369310  13.1179310  19.7229310
  33.6249310  11.6489310  19.3699310  33.4579310  12.2789310  19.9509310
  17.8129310  15.7249310  21.2739310  17.0319310  15.5939310  20.7359310
  17.7829310  16.6499310  21.5179310  17.7089310  15.8269310  21.2359310
  37.5779310   4.9079310  24.3479310  37.5919310   4.5949310  25.2529310
  37.5289310   5.8609310  24.4249310  37.5739310   4.9899310  24.4739310
  26.9709310   2.8439310  18.2309310  26.3449310   2.1199310  18.2549310
  27.1889310   3.0029310  19.1489310  26.9189310   2.7719310  18.3509310
  23.7089310   4.4919310  30.3509310  22.8639310   4.1719310  30.6679310
  24.1819310   3.7009310  30.0919310  23.6609310   4.3499310  30.3589310
  20.6359310   9.6779310  34.6849310  21.4469310   9.1899310  34.5429310
  20.3669310   9.9549310  33.8089310  20.7049310   9.6509310  34.5539310
  19.5439310  14.2499310  19.8079310  18.9619310  14.7479310  20.3809310
  19.7729310  14.8609310  19.1079310  19.4989310  14.3919310  19.7919310
  33.1429310   5.8089310  18.2319310  32.6859310   5.5679310  19.0379310
  34.0689310   5.6689310  18.4309310  33.2029310   5.7599310  18.3609310
  22.8979310   8.7179310  31.7129310  23.7779310   8.3449310  31.6609310
  22.3599310   8.1369310  31.1759310  22.9419310   8.5959310  31.6379310
  29.3419310   6.9749310  31.3619310  28.7849310   6.5809310  30.6899310
  28.7659310   7.5849310  31.8219310  29.1969310   7.0029310  31.3349310
  33.2559310   6.2359310  34.5559310  32.4329310   6.5759310  34.2069310
  33.1119310   6.1799310  35.5009310  33.1329310   6.2719310  34.6319310
  27.1689310   2.9619310  20.8949310  26.3459310   3.2449310  21.2909310
  27.8469310   3.3479310  21.4499310  27.1509310   3.0469310  21.0169310
  20.1809310   6.5529310  28.9879310  19.8039310   6.4259310  29.8579310
  19.6179310   6.0419310  28.4059310  20.0609310   6.4719310  29.0249310
  29.1879310   8.0629310  24.4429310  29.7329310   8.5639310  25.0499310
  28.4939310   8.6699310  24.1859310  29.1689310   8.2039310  24.4879310
  17.1709310   9.6289310  25.2639310  17.5649310   9.5589310  24.3939310
  17.7829310   9.1739310  25.8409310  17.2999310   9.5619310  25.2259310
  31.8919310   5.3089310  20.6359310  31.8489310   5.9279310  21.3659310
  31.5259310   4.4979310  20.9879310  31.8399310   5.2849310  20.7749310
  26.6419310   6.1729310  21.1149310  25.9699310   5.4919310  21.1449310
  26.7209310   6.3899310  20.1859310  26.5659310   6.1139310  20.9999310
  22.2619310   5.1469310  34.1839310  22.1469310   4.8629310  33.2769310
  21.3709310   5.2499310  34.5169310  22.1329310   5.1239310  34.1099310
  21.3069310   3.4739310  29.0299310  20.7169310   2.7349310  28.8779310
  21.9189310   3.4459310  28.2949310  21.3099310   3.3759310  28.9159310
  22.6919310   9.6659310  27.0619310  22.6519310   8.7109310  27.0249310
  22.2369310   9.8939310  27.8719310  22.6289310   9.5729310  27.1609310
  30.6569310   6.3189310  33.7439310  29.9659310   5.6789310  33.9119310
  30.4489310   6.6749310  32.8809310  30.5419310   6.2819310  33.6549310
  16.2749310   5.4209310  20.8809310  16.9399310   6.0209310  21.2189310
  15.4429310   5.8549310  21.0699310  16.2539310   5.5529310  20.9489310
  18.6079310   9.8659310  23.0829310  19.2869310   9.5859310  23.6969310
  18.7059310  10.8159310  23.0339310  18.7069310   9.9519310  23.1559310
  24.0219310   8.6019310  18.1699310  23.6389310   8.2929310  17.3489310
  24.2609310   9.5129310  17.9949310  24.0039310   8.6789310  18.0429310
  32.0339310  11.1729310  24.0909310  31.1189310  11.1829310  23.8079310
  32.1559310  10.3049310  24.4759310  31.9319310  11.0629310  24.1039310
  19.6869310   3.1369310  17.8859310  18.7619310   2.8939310  17.9239310
  19.6829310   4.0569310  17.6209310  19.5689310   3.2239310  17.8569310
  21.6559310   7.4899310  21.1749310  22.4789310   7.9759310  21.1369310
  21.7069310   6.9949310  21.9919310  21.7679310   7.4889310  21.2739310
  18.3469310  15.3649310  25.2509310  17.8049310  15.7879310  25.9179310
  19.2459310  15.5619310  25.5129310  18.3919310  15.4449310  25.3699310
  23.9509310   9.1269310  21.1769310  23.4279310   9.8299310  21.5629310
  23.9629310   9.3229310  20.2409310  23.8859310   9.2419310  21.1069310
  30.9939310   3.9939310  17.3409310  31.4719310   3.6409310  16.5919310
  31.4959310   4.7659310  17.6039310  31.1189310   4.0479310  17.2789310
  19.8879310   9.4299310  32.1709310  19.8499310   9.7469310  31.2689310
  19.0159310   9.0709310  32.3359310  19.7709310   9.4239310  32.0769310
  23.7959310  11.1699310  30.7459310  23.0129310  11.5759310  30.3769310
  23.5079310  10.2989310  31.0189310  23.6589310  11.1099310  30.7339310
  17.5339310  13.1819310  27.4889310  18.1889310  13.5429310  26.8919310
  16.8559310  12.8269310  26.9139310  17.5309310  13.1829310  27.3389310
  22.8219310   7.1269310  29.2249310  23.1469310   6.3239310  29.6319310
  21.9529310   6.8949310  28.8989310  22.7519310   6.9949310  29.2349310
  18.4379310   8.0609310  35.1939310  19.2409310   8.5709310  35.0839310
  17.9879310   8.4789310  35.9279310  18.4829310   8.1799310  35.2739310
  28.9339310   5.2089310  24.4539310  29.4319310   5.0019310  23.6629310
  29.1179310   6.1339310  24.6179310  29.0209310   5.3009310  24.3739310
  23.5589310   3.9549310  18.1949310  23.0779310   3.1379310  18.0639310
  23.9929310   4.1139310  17.3569310  23.5529310   3.8709310  18.0709310
  17.5229310   8.9919310  18.6529310  18.2899310   8.6689310  19.1279310
  16.7809310   8.7529310  19.2079310  17.5259310   8.9199310  18.7849310
  16.8609310   2.7479310  27.3489310  17.6589310   2.3979310  26.9539310
  16.8409310   2.3679310  28.2269310  16.9599310   2.6539310  27.4109310
  26.2549310   5.8049310  25.0769310  25.8479310   6.5649310  24.6609310
  27.1169310   5.7399310  24.6669310  26.3129310   5.8939310  24.9709310
  30.7919310   7.0439310  22.5589310  31.4659310   7.4559310  23.0989310
  29.9819310   7.4899310  22.8049310  30.7749310   7.1539310  22.6589310
  18.9459310   7.5349310  26.0619310  19.9029310   7.5189310  26.0429310
  18.7009310   6.7209310  26.5019310  19.0369310   7.4289310  26.1159310
  34.4139310   6.4729310  27.5449310  34.0249310   5.9989310  28.2809310
  33.8789310   7.2619310  27.4589310  34.2959310   6.5129310  27.6279310
  27.7879310   3.0209310  26.4109310  28.4139310   3.4709310  25.8439310
  27.6459310   2.1739310  25.9869310  27.8499310   2.9699310  26.2839310
  20.3469310   3.0589310  20.8839310  20.2569310   2.7879310  19.9709310
  19.4489310   3.2159310  21.1769310  20.2199310   3.0449310  20.8049310
  31.5469310   4.1819310  29.0589310  31.2819310   3.5299310  29.7089310
  31.7659310   3.6689310  28.2809310  31.5409310   4.0329310  29.0429310
  22.2929310   5.9749310  23.2839310  22.4809310   5.2229310  22.7219310
  23.1489310   6.3659310  23.4539310  22.4259310   5.9289310  23.2339310
  24.7429310  11.1819310  17.5669310  25.5869310  11.1439310  18.0179310
  24.9659310  11.3869310  16.6589310  24.8799310  11.2029310  17.5089310
  21.7939310   6.9719310  25.8359310  22.0509310   6.5539310  25.0139310
  21.8779310   6.2799310  26.4919310  21.8379310   6.8299310  25.8149310
  29.1059310  11.4269310  26.2949310  29.2039310  11.6739310  25.3749310
  28.2519310  11.7769310  26.5469310  29.0089310  11.5029310  26.2099310
  28.0839310  15.0759310  16.7239310  28.2419310  15.9149310  16.2909310
  28.3459310  15.2229310  17.6329310  28.1379310  15.2019310  16.7849310
  33.9689310   5.2619310  30.4569310  33.0729310   4.9369310  30.3699310
  33.8689310   6.1569310  30.7819310  33.8409310   5.3349310  30.4879310
  26.1649310   6.9489310  18.4949310  26.8949310   7.5689310  18.4839310
  25.3829310   7.4999310  18.4639310  26.1579310   7.0989310  18.4889310
  25.7969310   4.3299310  27.6109310  25.3479310   3.5759310  27.9929310
  26.5189310   3.9499310  27.1109310  25.8319310   4.1849310  27.5959310
  27.3319310   8.4539310  29.3229310  27.0559310   9.2779310  29.7249310
  28.2829310   8.4409310  29.4319310  27.4189310   8.5579310  29.3879310
  18.7179310   6.3019310  31.4599310  18.0389310   6.9409310  31.6799310
  18.3089310   5.4529310  31.6229310  18.5779310   6.2749310  31.5089310
  29.6779310  14.3069310  22.4239310  29.3099310  14.8879310  23.0889310
  30.5689310  14.6299310  22.2899310  29.7449310  14.4229310  22.4919310
  27.7829310   6.7439310  27.4089310  27.5149310   7.3869310  28.0659310
  26.9839310   6.5619310  26.9129310  27.6459310   6.8029310  27.4289310
  16.3249310   4.3819310  34.0289310  15.7249310   5.1149310  34.1699310
  16.8719310   4.3649310  34.8149310  16.3179310   4.4739310  34.1479310
  17.6809310   3.2829310  22.0719310  18.0809310   3.8679310  22.7159310
  17.2169310   3.8679310  21.4729310  17.6729310   3.4329310  22.0779310
  27.7599310   5.0779310  29.9709310  27.5969310   5.3869310  29.0799310
  26.8989310   4.8139310  30.2939310  27.6289310   5.0839310  29.8989310
  20.5569310   9.9979310  18.4009310  20.6429310   9.9469310  17.4489310
  20.0039310  10.7659310  18.5499310  20.4969310  10.0899310  18.2979310
  27.6919310   8.7409310  32.5069310  26.8739310   8.5849310  32.0359310
  27.7399310   9.6929310  32.5959310  27.5939310   8.8429310  32.4579310
  32.0419310   3.4369310  33.7379310  32.7549310   2.8049310  33.8329310
  32.4819310   4.2739310  33.5919310  32.1889310   3.4629310  33.7309310
  18.0709310   5.2189310  27.2599310  17.2919310   5.7249310  27.4909310
  17.8089310   4.3059310  27.3829310  17.9379310   5.1669310  27.3049310
  21.1669310   9.3759310  24.3659310  21.0799310  10.1559310  24.9149310
  21.2389310   8.6519310  24.9889310  21.1649310   9.3829310  24.5159310
  21.2689310   4.5169310  31.5499310  21.1779310   4.3969310  30.6049310
  20.5449310   5.0949310  31.7879310  21.1649310   4.5759310  31.4589310
  22.8939310   4.0789310  20.8879310  23.2669310   4.0139310  20.0089310
  21.9889310   3.7829310  20.7869310  22.8259310   4.0319310  20.7629310
  22.5929310  11.2359310  19.3219310  21.8609310  10.7469310  18.9459310
  23.2529310  11.2489310  18.6299310  22.5829310  11.1749310  19.1859310
  17.5389310  14.5809310  29.8929310  17.2459310  14.3079310  29.0229310
  17.2309310  15.4829310  29.9769310  17.4619310  14.6609310  29.7919310
  26.0839310   4.6469310  16.5119310  26.0649310   5.2969310  17.2139310
  26.4389310   3.8589310  16.9239310  26.1269310   4.6299310  16.6539310
  21.4539310  11.9449310  29.2909310  20.8839310  12.6319310  29.6379310
  21.0019310  11.1289310  29.5049310  21.3229310  11.9289310  29.3629310
  28.0459310  13.5259310  20.3819310  27.3609310  13.4539310  21.0469310
  28.8439310  13.7039310  20.8789310  28.0599310  13.5389310  20.5309310
  31.2089310   2.7349310  21.4819310  30.9879310   2.4849310  22.3799310
  32.0249310   2.2689310  21.2989310  31.2849310   2.6429310  21.5739310
  29.0549310  12.4979310  16.6289310  28.6549310  13.3659310  16.6789310
  28.5789310  11.9769310  17.2759310  28.9429310  12.5429310  16.7179310
  22.4339310  10.8189310  22.4849310  21.7979310  10.3639310  23.0359310
  21.9459310  11.5529310  22.1119310  22.2909310  10.8549310  22.5079310
  33.8999310   2.7589310  19.3179310  33.0769310   2.2719310  19.2699310
  33.6479310   3.6229310  19.6459310  33.7629310   2.8069310  19.3539310
  30.9569310  10.0919310  33.3369310  30.3169310   9.5589310  33.8089310
  30.9189310   9.7689310  32.4359310  30.8699310   9.9819310  33.2819310
  24.7239310  12.4599310  33.4719310  24.3369310  12.0949310  32.6759310
  24.0759310  13.0889310  33.7869310  24.5909310  12.4929310  33.4109310
  17.0839310  11.8139310  30.8409310  16.7019310  12.6569310  31.0849310
  17.9079310  12.0399310  30.4099310  17.1399310  11.9509310  30.8169310
  33.6239310   7.9289310  31.1539310  32.7329310   8.1449310  31.4319310
  33.9009310   8.6819310  30.6319310  33.5449310   8.0529310  31.1229310
  32.6919310   9.9509310  21.5859310  32.7139310  10.0669310  22.5359310
  32.8649310  10.8239310  21.2349310  32.7169310  10.0779310  21.6629310
  32.0669310  15.8909310  21.8929310  31.8029310  15.8559310  20.9739310
  32.6889310  15.1699310  21.9919310  32.1129310  15.7939310  21.7879310
  29.2409310  15.8869310  19.4039310  28.7249310  15.2019310  19.8299310
  28.7579310  16.6939310  19.5779310  29.1129310  15.9019310  19.4809310
  17.7319310   3.7979310  31.7879310  17.1659310   4.1589310  31.1059310
  17.2359310   3.9139310  32.5979310  17.5959310   3.8589310  31.8039310
  25.5479310  13.8419310  21.9339310  25.3099310  13.0289310  22.3779310
  24.7429310  14.1199310  21.4969310  25.4149310  13.7739310  21.9349310
  31.0509310   8.9679310  30.9379310  30.4409310   8.2319310  30.9939310
  30.6189310   9.5919310  30.3549310  30.9179310   8.9529310  30.8709310
  20.1489310   9.5559310  29.3629310  19.6879310   9.8999310  28.5979310
  20.2299310   8.6179310  29.1909310  20.0999310   9.4799310  29.2429310
  18.3449310   7.1969310  21.5479310  19.3009310   7.2289310  21.5749310
  18.0739310   8.1139310  21.5859310  18.4329310   7.3179310  21.5559310
  23.1849310   2.6559310  34.4909310  22.4199310   2.2589310  34.9089310
  22.9309310   3.5669310  34.3429310  23.0539310   2.7219310  34.5259310
  29.0129310   4.7479310  21.9029310  29.6329310   5.1919310  21.3239310
  28.2029310   5.2519310  21.8179310  28.9889310   4.8699310  21.8179310
  15.6329310  10.7999310  17.8639310  16.2609310  10.2769310  18.3629310
  16.1269310  11.1059310  17.1029310  15.7769310  10.7719310  17.8309310
  21.3049310  12.8839310  21.1349310  20.6049310  13.2819310  20.6179310
  21.7369310  12.2809310  20.5289310  21.2709310  12.8579310  20.9909310
  24.7239310   7.2109310  23.2759310  25.2379310   6.6109310  22.7359310
  24.4499310   7.9009310  22.6719310  24.7539310   7.2219310  23.1299310
  34.4189310  15.0699310  19.5649310  35.0059310  14.8929310  18.8299310
  33.8279310  15.7499310  19.2409310  34.4179310  15.1339310  19.4289310
  17.2109310  14.5659310  17.3219310  17.7679310  13.8069310  17.4939310
  17.7789310  15.3199310  17.4779310  17.3549310  14.5649310  17.3639310
  34.2589310  13.4249310  34.5599310  33.4869310  13.4559310  35.1239310
  34.8759310  14.0349310  34.9659310  34.2389310  13.5069310  34.6849310
  34.7809310   1.7759310  23.3209310  35.3629310   2.2609310  22.7349310
  34.2149310   2.4459310  23.7039310  34.7829310   1.9239310  23.2949310
  29.1599310   8.5519310  34.6289310  28.3489310   8.5899310  34.1219310
  29.5239310   7.6889310  34.4339310  29.1029310   8.4469310  34.5389310
  16.1049310   7.1849310  23.7639310  16.7019310   7.4409310  23.0599310
  16.4079310   7.6799310  24.5259310  16.2199310   7.2809310  23.7709310
  18.7859310  10.6919310  27.5689310  19.0449310  11.3849310  26.9609310
  17.9139310  10.9509310  27.8679310  18.7079310  10.8139310  27.5289310
  32.4739310   8.2819310  24.5499310  33.3269310   7.9409310  24.2799310
  32.4959310   8.2529310  25.5059310  32.5859310   8.2339310  24.6369310
  25.4039310   5.1929310  32.4549310  24.6499310   4.8629310  31.9659310
  25.2029310   4.9949310  33.3689310  25.2819310   5.1249310  32.5089310
  28.9539310   4.5159310  34.5239310  28.1699310   4.4769310  35.0719310
  29.5909310   3.9649310  34.9779310  28.9349310   4.4409310  34.6519310
  30.6199310   8.9529310  19.7649310  31.0159310   9.2939310  20.5669310
  31.1109310   9.3719310  19.0579310  30.7329310   9.0499310  19.7769310
  30.3489310   3.0389310  31.7269310  31.0419310   3.2329310  32.3589310
  29.7129310   3.7449310  31.8449310  30.3559310   3.1539310  31.8229310
  20.3249310  14.1659310  11.4459310  19.3709310  14.0979310  11.4139310
  20.5139310  14.4729310  12.3319310  20.2269310  14.1969310  11.5549310
  25.0899310  11.6099310   4.6089310  24.9159310  11.7709310   5.5369310
  24.3249310  11.1239310   4.3029310  24.9699310  11.5679310   4.6889310
  18.5479310  12.7629310   4.9029310  18.5859310  13.6559310   4.5589310
  17.7489310  12.7419310   5.4289310  18.4509310  12.8749310   4.9259310
  27.1669310   9.5379310   4.0589310  26.7409310   8.9309310   3.4549310
  26.5039310  10.2049310   4.2369310  27.0279310   9.5459310   4.0049310
  25.3689310   7.7769310  12.5849310  25.2409310   6.9119310  12.9739310
  25.8119310   7.6019310  11.7539310  25.4089310   7.6439310  12.5279310
  17.3659310   8.4439310  13.7349310  16.4449310   8.2239310  13.5949310
  17.4459310   8.5509310  14.6819310  17.2579310   8.4289310  13.8379310
  28.9559310  12.1329310   4.9399310  29.1319310  12.9829310   4.5369310
  28.1969310  11.7959310   4.4659310  28.8819310  12.1989310   4.8279310
  28.7459310  15.4579310   6.1919310  29.3319310  16.1949310   6.0169310
  27.9639310  15.6439310   5.6729310  28.7209310  15.5759310   6.1029310
  21.0679310   2.7129310   4.7119310  20.6609310   2.7119310   3.8449310
  20.5819310   3.3759310   5.2029310  20.9539310   2.7979310   4.6639310
  27.5349310   3.5979310  13.7289310  28.1209310   3.9109310  14.4179310
  26.8089310   4.2229310  13.7289310  27.5169310   3.7179310  13.8169310
  25.1549310   4.0989310   3.2609310  24.3299310   4.0809310   2.7759310
  24.9039310   3.9129310   4.1659310  25.0169310   4.0729310   3.3149310
  22.2689310  13.7639310   7.8779310  22.0079310  13.3889310   8.7189310
  22.9999310  13.2189310   7.5889310  22.3289310  13.6459310   7.9479310
  20.5069310  11.9569310   6.5929310  19.7829310  12.2599310   6.0449310
  21.1009310  12.7069310   6.6409310  20.4909310  12.0919310   6.5289310
  17.0559310   2.1109310  16.7829310  16.8579310   2.1919310  15.8509310
  16.2619310   2.4139310  17.2239310  16.9289310   2.1599310  16.7199310
  23.1299310   4.6739310   8.2059310  24.0109310   4.9659310   8.4379310
  23.2159310   4.3399310   7.3129310  23.2539310   4.6689310   8.1209310
  17.0239310  11.1369310  15.5399310  16.2619310  11.7049310  15.4229310
  17.2289310  10.8269310  14.6579310  16.9519310  11.1699310  15.4119310
  19.0949310  12.4319310  16.8769310  19.5779310  12.9929310  16.2699310
  18.6519310  11.7959310  16.3159310  19.0999310  12.4229310  16.7279310
  22.7209310  14.1679310  15.6749310  23.2949310  14.0809310  16.4359310
  22.6789310  15.1099310  15.5129310  22.7889310  14.2769310  15.7509310
  32.5559310   8.5009310   8.5119310  32.9959310   9.0079310   9.1949310
  31.8839310   8.0039310   8.9779310  32.5269310   8.5019310   8.6589310
  33.7709310  10.2689310  10.7399310  33.0569310  10.8739310  10.5409310
  34.4869310  10.8319310  11.0369310  33.7719310  10.4179310  10.7529310
  23.0759310   8.0219310  15.5759310  22.9189310   7.0779310  15.5399310
  22.9869310   8.3139310  14.6689310  23.0439310   7.9379310  15.4549310
  32.5479310   2.6659310   7.5809310  33.4599310   2.6769310   7.8739310
  32.5479310   2.0809310   6.8229310  32.6649310   2.5919310   7.5219310
  30.3929310   7.0029310   9.4319310  29.5179310   6.7459310   9.1419310
  30.7449310   6.2199310   9.8559310  30.3259310   6.8699310   9.4489310
  20.1019310  13.9189310  14.5899310  19.8499310  14.8229310  14.7809310
  21.0069310  13.8539310  14.8929310  20.1859310  14.0269310  14.6529310
  24.7379310   3.5029310   5.8949310  24.8239310   2.7189310   6.4379310
  25.1779310   4.1899310   6.3949310  24.8049310   3.4909310   6.0279310
  17.8129310  15.7249310   2.4139310  17.0319310  15.5939310   1.8759310
  17.7829310  16.6499310   2.6579310  17.7089310  15.8269310   2.3759310
  27.8639310  11.5269310  14.3649310  28.4459310  11.3629310  15.1059310
  27.2709310  12.2129310  14.6729310  27.8619310  11.5939310  14.4989310
  24.1659310  11.9909310   7.1039310  23.6859310  11.1829310   7.2809310
  24.8959310  11.9769310   7.7229310  24.1979310  11.8859310   7.2059310
  37.5779310   4.9079310   5.4879310  37.5919310   4.5949310   6.3929310
  37.5289310   5.8609310   5.5649310  37.5739310   4.9899310   5.6139310
  23.7089310   4.4919310  11.4909310  22.8639310   4.1719310  11.8079310
  24.1819310   3.7009310  11.2319310  23.6609310   4.3499310  11.4989310
  20.6359310   9.6779310  15.8249310  21.4469310   9.1899310  15.6829310
  20.3669310   9.9549310  14.9489310  20.7049310   9.6509310  15.6939310
  22.8979310   8.7179310  12.8529310  23.7779310   8.3449310  12.8009310
  22.3599310   8.1369310  12.3159310  22.9419310   8.5959310  12.7779310
  31.8869310  12.4289310  11.2099310  31.5359310  12.3259310  12.0949310
  32.0349310  13.3709310  11.1199310  31.8609310  12.5359310  11.3119310
  34.0239310  14.1959310  13.0889310  34.2219310  13.8009310  13.9389310
  33.3529310  14.8509310  13.2799310  33.9629310  14.2289310  13.2219310
  29.3419310   6.9749310  12.5019310  28.7849310   6.5809310  11.8299310
  28.7659310   7.5849310  12.9619310  29.1969310   7.0029310  12.4749310
  33.2559310   6.2359310  15.6959310  32.4329310   6.5759310  15.3469310
  33.1119310   6.1799310  16.6409310  33.1329310   6.2719310  15.7719310
  27.1689310   2.9619310   2.0349310  26.3459310   3.2449310   2.4309310
  27.8469310   3.3479310   2.5899310  27.1509310   3.0469310   2.1569310
  20.1809310   6.5529310  10.1279310  19.8039310   6.4259310  10.9979310
  19.6179310   6.0419310   9.5459310  20.0609310   6.4719310  10.1649310
  29.1879310   8.0629310   5.5829310  29.7329310   8.5639310   6.1899310
  28.4939310   8.6699310   5.3259310  29.1689310   8.2039310   5.6279310
  17.1709310   9.6289310   6.4039310  17.5649310   9.5589310   5.5339310
  17.7829310   9.1739310   6.9809310  17.2999310   9.5619310   6.3659310
  31.8919310   5.3089310   1.7759310  31.8489310   5.9279310   2.5059310
  31.5259310   4.4979310   2.1279310  31.8399310   5.2849310   1.9149310
  27.8279310  15.1519310  11.3729310  27.2789310  15.0829310  10.5929310
  28.1919310  14.2749310  11.4889310  27.8049310  15.0309310  11.2879310
  22.2619310   5.1469310  15.3239310  22.1469310   4.8629310  14.4169310
  21.3709310   5.2499310  15.6569310  22.1329310   5.1239310  15.2499310
  21.3069310   3.4739310  10.1699310  20.7169310   2.7349310  10.0179310
  21.9189310   3.4459310   9.4349310  21.3099310   3.3759310  10.0559310
  22.6919310   9.6659310   8.2019310  22.6519310   8.7109310   8.1649310
  22.2369310   9.8939310   9.0119310  22.6289310   9.5729310   8.3009310
  30.6569310   6.3189310  14.8839310  29.9659310   5.6789310  15.0519310
  30.4489310   6.6749310  14.0209310  30.5419310   6.2819310  14.7949310
  16.2749310   5.4209310   2.0209310  16.9399310   6.0209310   2.3589310
  15.4429310   5.8549310   2.2099310  16.2539310   5.5529310   2.0889310
  18.6079310   9.8659310   4.2229310  19.2869310   9.5859310   4.8369310
  18.7059310  10.8159310   4.1739310  18.7069310   9.9519310   4.2959310
  26.5349310  12.2769310   8.6119310  26.4709310  11.7569310   9.4139310
  27.0799310  13.0259310   8.8549310  26.5959310  12.3059310   8.7459310
  32.0339310  11.1729310   5.2309310  31.1189310  11.1829310   4.9479310
  32.1559310  10.3049310   5.6159310  31.9319310  11.0629310   5.2439310
  21.6559310   7.4899310   2.3149310  22.4789310   7.9759310   2.2769310
  21.7069310   6.9949310   3.1319310  21.7679310   7.4889310   2.4139310
  18.3469310  15.3649310   6.3909310  17.8049310  15.7879310   7.0579310
  19.2459310  15.5619310   6.6529310  18.3919310  15.4449310   6.5099310
  19.8879310   9.4299310  13.3109310  19.8499310   9.7469310  12.4089310
  19.0159310   9.0709310  13.4759310  19.7709310   9.4239310  13.2169310
  23.7959310  11.1699310  11.8859310  23.0129310  11.5759310  11.5169310
  23.5079310  10.2989310  12.1589310  23.6589310  11.1099310  11.8739310
  17.5339310  13.1819310   8.6289310  18.1889310  13.5429310   8.0319310
  16.8559310  12.8269310   8.0539310  17.5309310  13.1829310   8.4789310
  22.8219310   7.1269310  10.3649310  23.1469310   6.3239310  10.7719310
  21.9529310   6.8949310  10.0389310  22.7519310   6.9949310  10.3749310
  18.4379310   8.0609310  16.3339310  19.2409310   8.5709310  16.2239310
  17.9879310   8.4789310  17.0679310  18.4829310   8.1799310  16.4139310
  28.9339310   5.2089310   5.5939310  29.4319310   5.0019310   4.8029310
  29.1179310   6.1339310   5.7579310  29.0209310   5.3009310   5.5139310
  33.6219310  15.9809310   7.6619310  33.4749310  15.0379310   7.7429310
  34.2759310  16.1789310   8.3329310  33.6869310  15.8849310   7.7579310
  34.9549310  12.2589310   6.4479310  34.1109310  12.6719310   6.6319310
  34.8229310  11.3369310   6.6659310  34.8299310  12.1939310   6.4989310
  16.8609310   2.7479310   8.4889310  17.6589310   2.3979310   8.0939310
  16.8409310   2.3679310   9.3669310  16.9599310   2.6539310   8.5509310
  26.2549310   5.8049310   6.2169310  25.8479310   6.5649310   5.8009310
  27.1169310   5.7399310   5.8069310  26.3129310   5.8939310   6.1109310
  30.7919310   7.0439310   3.6989310  31.4659310   7.4559310   4.2389310
  29.9819310   7.4899310   3.9449310  30.7749310   7.1539310   3.7989310
  18.9459310   7.5349310   7.2019310  19.9029310   7.5189310   7.1829310
  18.7009310   6.7209310   7.6419310  19.0369310   7.4289310   7.2559310
  34.4139310   6.4729310   8.6849310  34.0249310   5.9989310   9.4209310
  33.8789310   7.2619310   8.5989310  34.2959310   6.5129310   8.7679310
  27.7879310   3.0209310   7.5509310  28.4139310   3.4709310   6.9839310
  27.6459310   2.1739310   7.1269310  27.8499310   2.9699310   7.4239310
  26.3229310  10.8979310  11.0499310  26.7159310  11.7189310  11.3459310
  25.4099310  10.9529310  11.3319310  26.2569310  11.0099310  11.1239310
  31.5469310   4.1819310  10.1989310  31.2819310   3.5299310  10.8489310
  31.7659310   3.6689310   9.4209310  31.5409310   4.0329310  10.1829310
  22.2929310   5.9749310   4.4239310  22.4809310   5.2229310   3.8619310
  23.1489310   6.3659310   4.5939310  22.4259310   5.9289310   4.3739310
  21.7939310   6.9719310   6.9759310  22.0509310   6.5539310   6.1539310
  21.8779310   6.2799310   7.6319310  21.8379310   6.8299310   6.9549310
  29.1059310  11.4269310   7.4349310  29.2039310  11.6739310   6.5149310
  28.2519310  11.7769310   7.6869310  29.0089310  11.5029310   7.3499310
  26.4959310  15.8409310   4.7739310  26.3109310  15.0139310   4.3279310
  26.1839310  16.5139310   4.1689310  26.4319310  15.8209310   4.6389310
  30.1939310  13.8529310   7.9739310  29.6499310  14.4529310   7.4629310
  29.8029310  12.9919310   7.8279310  30.0749310  13.8199310   7.8899310
  33.9689310   5.2619310  11.5969310  33.0729310   4.9369310  11.5099310
  33.8689310   6.1569310  11.9219310  33.8409310   5.3349310  11.6279310
  24.2859310  16.2209310   6.9469310  24.2519310  15.5339310   7.6119310
  24.7619310  15.8259310   6.2169310  24.3419310  16.0829310   6.9389310
  25.7969310   4.3299310   8.7509310  25.3479310   3.5759310   9.1329310
  26.5189310   3.9499310   8.2509310  25.8319310   4.1849310   8.7359310
  27.3319310   8.4539310  10.4629310  27.0559310   9.2779310  10.8649310
  28.2829310   8.4409310  10.5719310  27.4189310   8.5579310  10.5279310
  26.6879310  15.6769310   8.7119310  27.4779310  16.2149310   8.6579310
  26.0879310  16.0689310   8.0779310  26.7119310  15.7959310   8.6239310
  18.7179310   6.3019310  12.5999310  18.0389310   6.9409310  12.8199310
  18.3089310   5.4529310  12.7629310  18.5779310   6.2749310  12.6489310
  29.6779310  14.3069310   3.5639310  29.3099310  14.8879310   4.2289310
  30.5689310  14.6299310   3.4299310  29.7449310  14.4229310   3.6319310
  27.7829310   6.7439310   8.5489310  27.5149310   7.3869310   9.2059310
  26.9839310   6.5619310   8.0529310  27.6459310   6.8029310   8.5689310
  16.3249310   4.3819310  15.1689310  15.7249310   5.1149310  15.3099310
  16.8719310   4.3649310  15.9549310  16.3179310   4.4739310  15.2879310
  17.6809310   3.2829310   3.2119310  18.0809310   3.8679310   3.8559310
  17.2169310   3.8679310   2.6129310  17.6729310   3.4329310   3.2179310
  27.7599310   5.0779310  11.1109310  27.5969310   5.3869310  10.2199310
  26.8989310   4.8139310  11.4339310  27.6289310   5.0839310  11.0389310
  27.6919310   8.7409310  13.6469310  26.8739310   8.5849310  13.1759310
  27.7399310   9.6929310  13.7359310  27.5939310   8.8429310  13.5979310
  32.0419310   3.4369310  14.8779310  32.7549310   2.8049310  14.9729310
  32.4819310   4.2739310  14.7319310  32.1889310   3.4629310  14.8709310
  18.0709310   5.2189310   8.3999310  17.2919310   5.7249310   8.6309310
  17.8089310   4.3059310   8.5229310  17.9379310   5.1669310   8.4449310
  33.5149310  14.7139310  10.4469310  33.7969310  14.6179310  11.3569310
  32.7339310  15.2649310  10.4959310  33.4509310  14.7719310  10.5699310
  21.1669310   9.3759310   5.5059310  21.0799310  10.1559310   6.0549310
  21.2389310   8.6519310   6.1289310  21.1649310   9.3829310   5.6559310
  21.2689310   4.5169310  12.6899310  21.1779310   4.3969310  11.7449310
  20.5449310   5.0949310  12.9279310  21.1649310   4.5759310  12.5989310
  33.4359310  13.4919310   3.8819310  33.5059310  12.8629310   4.5989310
  33.5019310  12.9599310   3.0889310  33.4529310  13.3439310   3.8719310
  17.5389310  14.5809310  11.0329310  17.2459310  14.3079310  10.1629310
  17.2309310  15.4829310  11.1169310  17.4619310  14.6609310  10.9319310
  21.4539310  11.9449310  10.4309310  20.8839310  12.6319310  10.7779310
  21.0019310  11.1289310  10.6449310  21.3229310  11.9289310  10.5029310
  31.2089310   2.7349310   2.6219310  30.9879310   2.4849310   3.5199310
  32.0249310   2.2689310   2.4389310  31.2849310   2.6429310   2.7139310
  22.4339310  10.8189310   3.6249310  21.7979310  10.3639310   4.1759310
  21.9459310  11.5529310   3.2519310  22.2909310  10.8549310   3.6479310
  28.3119310  12.4899310  11.8299310  28.1089310  12.1799310  12.7119310
  28.8259310  11.7819310  11.4399310  28.3519310  12.3589310  11.8929310
  30.9569310  10.0919310  14.4769310  30.3169310   9.5589310  14.9489310
  30.9189310   9.7689310  13.5759310  30.8699310   9.9819310  14.4219310
  24.7239310  12.4599310  14.6119310  24.3369310  12.0949310  13.8159310
  24.0759310  13.0889310  14.9269310  24.5909310  12.4929310  14.5509310
  17.0839310  11.8139310  11.9809310  16.7019310  12.6569310  12.2249310
  17.9079310  12.0399310  11.5499310  17.1399310  11.9509310  11.9569310
  33.6239310   7.9289310  12.2939310  32.7329310   8.1449310  12.5719310
  33.9009310   8.6819310  11.7719310  33.5449310   8.0529310  12.2629310
  32.6919310   9.9509310   2.7259310  32.7139310  10.0669310   3.6759310
  32.8649310  10.8239310   2.3749310  32.7169310  10.0779310   2.8029310
  32.0669310  15.8909310   3.0329310  31.8029310  15.8559310   2.1139310
  32.6889310  15.1699310   3.1319310  32.1129310  15.7939310   2.9279310
  17.7319310   3.7979310  12.9279310  17.1659310   4.1589310  12.2459310
  17.2359310   3.9139310  13.7379310  17.5959310   3.8589310  12.9439310
  28.9779310  17.4299310   8.8449310  29.7529310  17.2739310   8.3059310
  28.9469310  18.3809310   8.9509310  29.0729310  17.5319310   8.7899310
  25.5479310  13.8419310   3.0739310  25.3099310  13.0289310   3.5179310
  24.7429310  14.1199310   2.6369310  25.4149310  13.7739310   3.0749310
  30.7409310  13.2619310  14.3809310  31.0109310  12.3579310  14.5409310
  29.7889310  13.2489310  14.4819310  30.6539310  13.1449310  14.4149310
  31.0509310   8.9679310  12.0779310  30.4409310   8.2319310  12.1339310
  30.6189310   9.5919310  11.4949310  30.9179310   8.9529310  12.0109310
  20.1489310   9.5559310  10.5029310  19.6879310   9.8999310   9.7379310
  20.2299310   8.6179310  10.3309310  20.0999310   9.4799310  10.3829310
  18.3449310   7.1969310   2.6879310  19.3009310   7.2289310   2.7149310
  18.0739310   8.1139310   2.7259310  18.4329310   7.3179310   2.6959310
  23.1849310   2.6559310  15.6309310  22.4199310   2.2589310  16.0489310
  22.9309310   3.5669310  15.4829310  23.0539310   2.7219310  15.6659310
  29.0129310   4.7479310   3.0429310  29.6329310   5.1919310   2.4639310
  28.2029310   5.2519310   2.9579310  28.9889310   4.8699310   2.9579310
  21.3049310  12.8839310   2.2749310  20.6049310  13.2819310   1.7579310
  21.7369310  12.2809310   1.6689310  21.2709310  12.8579310   2.1309310
  29.9059310  10.8269310  10.0969310  29.7329310  10.7499310   9.1589310
  30.6889310  11.3739310  10.1519310  29.9839310  10.8869310   9.9839310
  24.7239310   7.2109310   4.4159310  25.2379310   6.6109310   3.8759310
  24.4499310   7.9009310   3.8119310  24.7539310   7.2219310   4.2699310
  31.7519310  15.7779310  13.7069310  32.1609310  15.9499310  14.5549310
  31.4829310  14.8609310  13.7519310  31.7699310  15.6829310  13.8209310
  34.2589310  13.4249310  15.6999310  33.4869310  13.4559310  16.2639310
  34.8759310  14.0349310  16.1059310  34.2389310  13.5069310  15.8249310
  34.7809310   1.7759310   4.4609310  35.3629310   2.2609310   3.8749310
  34.2149310   2.4459310   4.8439310  34.7829310   1.9239310   4.4349310
  29.1599310   8.5519310  15.7689310  28.3489310   8.5899310  15.2619310
  29.5239310   7.6889310  15.5739310  29.1029310   8.4469310  15.6789310
  16.1049310   7.1849310   4.9039310  16.7019310   7.4409310   4.1999310
  16.4079310   7.6799310   5.6659310  16.2199310   7.2809310   4.9109310
  18.7859310  10.6919310   8.7089310  19.0449310  11.3849310   8.1009310
  17.9139310  10.9509310   9.0079310  18.7079310  10.8139310   8.6689310
  32.4739310   8.2819310   5.6899310  33.3269310   7.9409310   5.4199310
  32.4959310   8.2529310   6.6459310  32.5859310   8.2339310   5.7769310
  25.4039310   5.1929310  13.5949310  24.6499310   4.8629310  13.1059310
  25.2029310   4.9949310  14.5089310  25.2819310   5.1249310  13.6489310
  28.9539310   4.5159310  15.6639310  28.1699310   4.4769310  16.2119310
  29.5909310   3.9649310  16.1179310  28.9349310   4.4409310  15.7919310
  30.3489310   3.0389310  12.8669310  31.0419310   3.2329310  13.4989310
  29.7129310   3.7449310  12.9849310  30.3559310   3.1539310  12.9629310
  30.8139310  15.3089310  10.3419310  30.3409310  16.1419310  10.3349310
  30.2829310  14.7279310   9.7979310  30.6849310  15.3409310  10.2719310
   4.0659310  37.7139310  48.9059310   4.2939310  37.6859310  49.8349310
   3.4369310  37.0019310  48.7929310   4.0149310  37.6189310  49.0109310
   6.2299310  49.3439310  42.3289310   6.0559310  49.5049310  43.2569310
   5.4649310  48.8579310  42.0229310   6.1099310  49.3019310  42.4089310
   2.8009310  44.2409310  37.6599310   2.6469310  44.6979310  38.4869310
   3.5129310  43.6309310  37.8519310   2.8719310  44.2209310  37.7899310
   6.1959310  39.4499310  48.2649310   5.5929310  38.8089310  48.6399310
   6.9849310  39.3809310  48.8029310   6.2199310  39.3599310  48.3819310
   8.6189310  39.2759310  49.5329310   8.7969310  38.3939310  49.8589310
   8.9379310  39.8559310  50.2249310   8.6829310  39.2369310  49.6639310
   8.3069310  47.2719310  41.7789310   7.8809310  46.6649310  41.1749310
   7.6439310  47.9389310  41.9569310   8.1679310  47.2799310  41.7249310
  14.0589310  37.9039310  41.0319310  14.1269310  36.9569310  40.9079310
  14.9279310  38.1689310  41.3329310  14.1789310  37.8169310  41.0549310
  15.1779310  42.1949310  42.8729310  14.3989310  42.3049310  43.4179310
  15.5219310  43.0809310  42.7639310  15.1219310  42.3219310  42.9289310
   6.2739310  38.3229310  37.0209310   6.0079310  37.8599310  37.8159310
   6.2899310  37.6459310  36.3449310   6.2419310  38.1769310  37.0369310
   9.3849310  46.4629310  37.3239310  10.1549310  46.4839310  37.8909310
   9.7039310  46.0959310  36.4999310   9.5239310  46.4189310  37.2909310
  15.1209310  46.0999310  39.0539310  14.7549310  46.7409310  39.6639310
  14.3559310  45.6779310  38.6619310  14.9759310  46.1279310  39.0819310
  13.1029310  47.6999310  36.0709310  13.1449310  47.5659310  35.1239310
  13.9889310  47.9669310  36.3139310  13.2219310  47.7169310  35.9809310
  13.4459310  38.1299310  38.1589310  13.5779310  37.9859310  39.0959310
  12.5779310  38.5289310  38.0989310  13.3519310  38.1619310  38.2719310
   2.2079310  40.4469310  42.4319310   1.8009310  40.4459310  41.5649310
   1.7219310  41.1099310  42.9229310   2.0939310  40.5319310  42.3839310
   6.2949310  41.8329310  40.9809310   5.4699310  41.8149310  40.4959310
   6.0439310  41.6469310  41.8859310   6.1569310  41.8069310  41.0349310
   4.2699310  42.4079310  45.9259310   5.1509310  42.6999310  46.1579310
   4.3559310  42.0739310  45.0329310   4.3939310  42.4029310  45.8409310
   8.5669310  38.2269310  44.1099310   7.6149310  38.1639310  44.1809310
   8.8949310  37.4989310  44.6379310   8.4869310  38.1259310  44.1869310
  13.6959310  46.2349310  46.2319310  14.1359310  46.7419310  46.9149310
  13.0239310  45.7379310  46.6979310  13.6669310  46.2359310  46.3789310
  14.9109310  48.0029310  48.4599310  14.1969310  48.6079310  48.2609310
  15.6269310  48.5659310  48.7569310  14.9119310  48.1519310  48.4729310
  11.0459310  39.5519310  37.9739310  11.1499310  39.8959310  38.8609310
  10.9159310  40.3279310  37.4289310  11.0429310  39.6949310  38.0179310
  13.6879310  40.3999310  45.3009310  14.5999310  40.4109310  45.5939310
  13.6879310  39.8149310  44.5429310  13.8049310  40.3259310  45.2419310
  11.5329310  44.7369310  47.1519310  10.6579310  44.4799310  46.8619310
  11.8849310  43.9539310  47.5759310  11.4659310  44.6039310  47.1689310
   3.2749310  36.7259310  35.9609310   3.6169310  36.7349310  36.8549310
   2.7899310  37.5479310  35.8829310   3.2569310  36.8329310  36.0649310
   5.8779310  41.2369310  43.6149310   5.9639310  40.4529310  44.1579310
   6.3179310  41.9239310  44.1149310   5.9449310  41.2249310  43.7479310
  12.9739310  35.3759310  37.8289310  13.1019310  36.2909310  37.5769310
  12.0249310  35.2809310  37.9139310  12.8689310  35.4809310  37.8079310
  16.1489310  36.7139310  35.8299310  15.9729310  37.5549310  35.4089310
  15.3399310  36.2149310  35.7159310  16.0229310  36.7579310  35.7619310
  18.7179310  42.6419310  43.2079310  18.7319310  42.3289310  44.1129310
  18.6689310  43.5949310  43.2849310  18.7139310  42.7239310  43.3339310
   8.1109310  40.5779310  37.0909310   7.4849310  39.8539310  37.1149310
   8.3289310  40.7369310  38.0089310   8.0589310  40.5059310  37.2109310
   4.8489310  42.2259310  49.2109310   4.0039310  41.9059310  49.5279310
   5.3219310  41.4349310  48.9519310   4.8009310  42.0839310  49.2189310
  14.5769310  38.0929310  50.3859310  13.7109310  37.9289310  50.0149310
  15.1589310  37.5009310  49.9079310  14.5409310  37.9959310  50.2769310
  14.2829310  43.5429310  37.0919310  13.8259310  43.3019310  37.8979310
  15.2089310  43.4029310  37.2909310  14.3429310  43.4939310  37.2209310
  12.4079310  39.2599310  42.6799310  13.1039310  38.8739310  42.1469310
  11.7979310  38.5379310  42.8349310  12.4189310  39.1179310  42.6309310
   8.3089310  40.6959310  39.7549310   7.4859310  40.9789310  40.1509310
   8.9869310  41.0819310  40.3099310   8.2909310  40.7809310  39.8769310
  10.3279310  45.7969310  43.3029310  10.8729310  46.2979310  43.9099310
   9.6339310  46.4039310  43.0459310  10.3089310  45.9379310  43.3479310
  13.0319310  43.0429310  39.4959310  12.9889310  43.6619310  40.2259310
  12.6659310  42.2319310  39.8479310  12.9799310  43.0189310  39.6349310
   7.7819310  43.9069310  39.9749310   7.1099310  43.2259310  40.0049310
   7.8609310  44.1239310  39.0459310   7.7059310  43.8479310  39.8599310
   2.4469310  41.2079310  47.8899310   1.8569310  40.4689310  47.7379310
   3.0589310  41.1799310  47.1549310   2.4499310  41.1099310  47.7759310
   3.8319310  47.3999310  45.9219310   3.7919310  46.4449310  45.8849310
   3.3769310  47.6279310  46.7319310   3.7689310  47.3069310  46.0209310
   5.1619310  46.3359310  37.0299310   4.7789310  46.0269310  36.2089310
   5.4009310  47.2469310  36.8549310   5.1439310  46.4129310  36.9029310
   9.2209310  38.3549310  41.2499310   8.9269310  39.0699310  40.6859310
   8.9499310  38.6159310  42.1299310   9.1489310  38.4799310  41.2899310
  13.1739310  48.9069310  42.9509310  12.2589310  48.9169310  42.6679310
  13.2959310  48.0389310  43.3359310  13.0719310  48.7969310  42.9639310
   2.7959310  45.2239310  40.0349310   3.6189310  45.7099310  39.9969310
   2.8469310  44.7289310  40.8519310   2.9079310  45.2229310  40.1339310
   5.0909310  46.8609310  40.0369310   4.5679310  47.5639310  40.4229310
   5.1029310  47.0569310  39.1009310   5.0259310  46.9759310  39.9669310
  12.1339310  41.7279310  36.2009310  12.6119310  41.3749310  35.4519310
  12.6359310  42.4999310  36.4639310  12.2589310  41.7819310  36.1389310
   4.9359310  48.9039310  49.6059310   4.1529310  49.3099310  49.2369310
   4.6479310  48.0329310  49.8789310   4.7989310  48.8439310  49.5939310
  13.9859310  32.8079310  45.5999310  14.1319310  33.2129310  46.4549310
  13.0409310  32.8759310  45.4609310  13.8839310  32.8679310  45.6919310
   3.9619310  44.8609310  48.0849310   4.2869310  44.0579310  48.4919310
   3.0929310  44.6289310  47.7589310   3.8919310  44.7289310  48.0949310
  10.0739310  42.9429310  43.3139310  10.5719310  42.7359310  42.5229310
  10.2579310  43.8679310  43.4779310  10.1609310  43.0349310  43.2339310
   4.6989310  41.6889310  37.0549310   4.2179310  40.8719310  36.9239310
   5.1329310  41.8479310  36.2169310   4.6929310  41.6049310  36.9309310
   7.3949310  43.5389310  43.9369310   6.9879310  44.2989310  43.5209310
   8.2569310  43.4739310  43.5269310   7.4529310  43.6279310  43.8309310
  11.9319310  44.7779310  41.4189310  12.6059310  45.1899310  41.9589310
  11.1219310  45.2239310  41.6649310  11.9149310  44.8879310  41.5189310
  10.3889310  39.2789310  47.4609310   9.9349310  39.7209310  46.7429310
   9.8469310  39.4539310  48.2299310  10.2619310  39.3579310  47.4669310
  15.5539310  44.2069310  46.4049310  15.1649310  43.7329310  47.1409310
  15.0189310  44.9959310  46.3189310  15.4359310  44.2469310  46.4879310
   8.9279310  40.7549310  45.2709310   9.5539310  41.2049310  44.7039310
   8.7859310  39.9079310  44.8469310   8.9899310  40.7039310  45.1439310
   7.4629310  48.6319310  48.7699310   7.8559310  49.4529310  49.0659310
   6.5499310  48.6869310  49.0519310   7.3969310  48.7439310  48.8439310
   8.9519310  37.4999310  38.0269310   8.1929310  37.7479310  37.4989310
   9.5069310  38.2799310  38.0279310   8.9259310  37.6319310  37.9599310
  11.0739310  36.6839310  42.5399310  10.4119310  37.0899310  41.9799310
  11.7689310  36.4209310  41.9369310  11.0779310  36.7029310  42.3909310
  12.6869310  41.9159310  47.9189310  12.4219310  41.2639310  48.5689310
  12.9059310  41.4029310  47.1409310  12.6809310  41.7669310  47.9029310
   3.4329310  43.7089310  42.1439310   3.6209310  42.9569310  41.5819310
   4.2889310  44.0999310  42.3139310   3.5659310  43.6629310  42.0939310
   2.0799310  35.5789310  44.3029310   2.2509310  36.4999310  44.5019310
   2.6459310  35.0949310  44.9039310   2.1739310  35.6349310  44.4049310
   5.8829310  48.9159310  36.4269310   6.7269310  48.8779310  36.8779310
   6.1059310  49.1209310  35.5189310   6.0199310  48.9369310  36.3689310
   2.9339310  44.7059310  44.6959310   3.1909310  44.2879310  43.8739310
   3.0179310  44.0139310  45.3519310   2.9779310  44.5639310  44.6749310
  10.2459310  49.1609310  45.1549310  10.3439310  49.4079310  44.2349310
   9.3919310  49.5109310  45.4069310  10.1489310  49.2369310  45.0699310
  15.1089310  42.9959310  49.3169310  14.2129310  42.6709310  49.2299310
  15.0089310  43.8909310  49.6419310  14.9809310  43.0689310  49.3479310
   7.3049310  44.6829310  37.3549310   8.0349310  45.3029310  37.3439310
   6.5229310  45.2339310  37.3239310   7.2979310  44.8329310  37.3489310
   6.9369310  42.0639310  46.4709310   6.4879310  41.3099310  46.8529310
   7.6589310  41.6839310  45.9709310   6.9719310  41.9189310  46.4559310
   8.4719310  46.1879310  48.1829310   8.1959310  47.0119310  48.5849310
   9.4229310  46.1749310  48.2919310   8.5589310  46.2919310  48.2479310
   3.9599310  38.8009310  40.4539310   3.8119310  39.7439310  40.3759310
   3.1679310  38.4689310  40.8779310   3.8399310  38.8789310  40.4979310
   3.2159310  39.2899310  37.0489310   2.2989310  39.0749310  37.2149310
   3.6909310  38.9019310  37.7839310   3.1589310  39.2129310  37.1639310
   8.9229310  44.4779310  46.2689310   8.6549310  45.1209310  46.9259310
   8.1239310  44.2959310  45.7729310   8.7859310  44.5369310  46.2889310
   8.8999310  42.8119310  48.8309310   8.7369310  43.1209310  47.9399310
   8.0389310  42.5479310  49.1539310   8.7689310  42.8179310  48.7589310
   2.3069310  47.1099310  43.2259310   2.2199310  47.8899310  43.7749310
   2.3789310  46.3859310  43.8489310   2.3049310  47.1169310  43.3759310
   3.4909310  35.7669310  41.8619310   3.0859310  35.4359310  42.6639310
   3.5979310  34.9929310  41.3099310   3.4529310  35.6259310  41.8939310
   4.0339310  41.8129310  39.7479310   4.4069310  41.7479310  38.8689310
   3.1289310  41.5169310  39.6469310   3.9659310  41.7659310  39.6229310
   3.7329310  48.9699310  38.1819310   3.0009310  48.4809310  37.8059310
   4.3929310  48.9829310  37.4899310   3.7229310  48.9089310  38.0459310
   6.1789310  38.7099310  42.1329310   5.3269310  38.5719310  41.7209310
   6.2289310  39.6569310  42.2689310   6.0769310  38.8139310  42.0979310
   7.2239310  42.3809310  35.3719310   7.2049310  43.0309310  36.0739310
   7.5789310  41.5929310  35.7839310   7.2669310  42.3639310  35.5139310
   6.8969310  36.8839310  40.2239310   6.6719310  37.6689310  40.7229310
   7.7959310  37.0359310  39.9319310   6.9839310  37.0039310  40.2509310
  12.3239310  36.6039310  45.0939310  13.1949310  36.2109310  45.1509310
  12.2249310  36.8349310  44.1709310  12.4229310  36.5829310  44.9829310
   9.2319310  36.8709310  50.2279310   8.9719310  36.0949310  49.7309310
  10.1879310  36.8759310  50.1799310   9.3209310  36.7719310  50.1579310
  12.3489310  40.4689310  40.3419310  12.1279310  40.2189310  41.2399310
  13.1649310  40.0029310  40.1589310  12.4249310  40.3769310  40.4339310
   6.1519310  39.0189310  45.5089310   5.3009310  38.5879310  45.4219310
   6.2509310  39.1659310  46.4499310   6.0549310  38.9829310  45.6179310
   3.5739310  48.5529310  41.3449310   2.9379310  48.0979310  41.8959310
   3.0859310  49.2869310  40.9719310   3.4309310  48.5889310  41.3679310
  15.0399310  40.4929310  38.1779310  14.2169310  40.0059310  38.1299310
  14.7879310  41.3569310  38.5059310  14.9029310  40.5409310  38.2139310
  14.7639310  45.6629310  50.0139310  13.8729310  45.8789310  50.2919310
  15.0409310  46.4159310  49.4919310  14.6849310  45.7869310  49.9829310
  13.8319310  47.6849310  40.4459310  13.8539310  47.8009310  41.3959310
  14.0049310  48.5579310  40.0949310  13.8569310  47.8119310  40.5229310
   2.2899310  38.4319310  46.3789310   2.7419310  37.8529310  46.9929310
   2.8529310  38.4469310  45.6059310   2.4199310  38.3599310  46.3589310
  12.1909310  46.7019310  49.7979310  11.5809310  45.9659310  49.8539310
  11.7589310  47.3259310  49.2149310  12.0579310  46.6869310  49.7309310
  10.1529310  42.4819310  40.7629310  10.7729310  42.9259310  40.1839310
   9.3429310  42.9859310  40.6779310  10.1289310  42.6039310  40.6779310
  11.0459310  48.5609310  47.8169310  10.8729310  48.4839310  46.8789310
  11.8289310  49.1079310  47.8719310  11.1239310  48.6209310  47.7039310
   5.8639310  44.9449310  42.1359310   6.3779310  44.3449310  41.5959310
   5.5899310  45.6349310  41.5319310   5.8939310  44.9559310  41.9899310
  11.9059310  38.1739310  49.6949310  11.6189310  38.9999310  50.0859310
  11.6829310  38.2579310  48.7679310  11.8399310  38.2909310  49.6269310
  15.9209310  39.5099310  42.1809310  16.5029310  39.9949310  41.5949310
  15.3549310  40.1799310  42.5639310  15.9229310  39.6579310  42.1549310
   3.6399310  38.3289310  44.0469310   3.4619310  38.9189310  43.3149310
   4.1249310  37.6019310  43.6569310   3.6789310  38.3119310  43.9039310
  13.6139310  46.0159310  43.4099310  14.4669310  45.6749310  43.1399310
  13.6359310  45.9869310  44.3659310  13.7259310  45.9679310  43.4969310
  15.6899310  36.0419310  42.9179310  15.0939310  35.6919310  43.5799310
  16.4079310  35.4099310  42.8829310  15.7059310  35.9169310  42.9979310
  11.7599310  46.6869310  38.6249310  12.1559310  47.0279310  39.4269310
  12.2509310  47.1059310  37.9179310  11.8729310  46.7839310  38.6369310
   4.0659310  37.7139310  30.0459310   4.2939310  37.6859310  30.9749310
   3.4369310  37.0019310  29.9329310   4.0149310  37.6189310  30.1509310
   6.2299310  49.3439310  23.4689310   6.0559310  49.5049310  24.3969310
   5.4649310  48.8579310  23.1629310   6.1099310  49.3019310  23.5489310
   2.8009310  44.2409310  18.7999310   2.6469310  44.6979310  19.6269310
   3.5129310  43.6309310  18.9919310   2.8719310  44.2209310  18.9299310
   6.1959310  39.4499310  29.4049310   5.5929310  38.8089310  29.7799310
   6.9849310  39.3809310  29.9429310   6.2199310  39.3599310  29.5219310
   6.7339310  35.8869310  35.6829310   7.6259310  35.6579310  35.4189310
   6.2119310  35.7659310  34.8899310   6.7819310  35.8429310  35.5479310
   8.6189310  39.2759310  30.6729310   8.7969310  38.3939310  30.9989310
   8.9379310  39.8559310  31.3649310   8.6829310  39.2369310  30.8039310
   8.3069310  47.2719310  22.9189310   7.8809310  46.6649310  22.3149310
   7.6439310  47.9389310  23.0969310   8.1679310  47.2799310  22.8649310
  15.1779310  42.1949310  24.0129310  14.3989310  42.3049310  24.5579310
  15.5219310  43.0809310  23.9039310  15.1219310  42.3219310  24.0689310
   6.2739310  38.3229310  18.1609310   6.0079310  37.8599310  18.9559310
   6.2899310  37.6459310  17.4849310   6.2419310  38.1769310  18.1769310
   6.5089310  45.5109310  31.4449310   6.3809310  44.6459310  31.8339310
   6.9519310  45.3359310  30.6139310   6.5489310  45.3779310  31.3879310
   9.3849310  46.4629310  18.4639310  10.1549310  46.4839310  19.0309310
   9.7039310  46.0959310  17.6399310   9.5239310  46.4189310  18.4309310
  15.1209310  46.0999310  20.1939310  14.7549310  46.7409310  20.8039310
  14.3559310  45.6779310  19.8019310  14.9759310  46.1279310  20.2219310
  13.1029310  47.6999310  17.2109310  13.1449310  47.5659310  16.2639310
  13.9889310  47.9669310  17.4539310  13.2219310  47.7169310  17.1209310
   2.2079310  40.4469310  23.5719310   1.8009310  40.4459310  22.7049310
   1.7219310  41.1099310  24.0629310   2.0939310  40.5319310  23.5239310
   8.6749310  41.3319310  32.5889310   9.2609310  41.6449310  33.2779310
   7.9489310  41.9569310  32.5889310   8.6569310  41.4519310  32.6769310
   6.2949310  41.8329310  22.1209310   5.4699310  41.8149310  21.6359310
   6.0439310  41.6469310  23.0259310   6.1569310  41.8069310  22.1749310
   4.2699310  42.4079310  27.0659310   5.1509310  42.6999310  27.2979310
   4.3559310  42.0739310  26.1729310   4.3939310  42.4029310  26.9809310
   8.5669310  38.2269310  25.2499310   7.6149310  38.1639310  25.3209310
   8.8949310  37.4989310  25.7779310   8.4869310  38.1259310  25.3269310
  13.6959310  46.2349310  27.3719310  14.1359310  46.7419310  28.0549310
  13.0239310  45.7379310  27.8379310  13.6669310  46.2359310  27.5189310
  14.9109310  48.0029310  29.5999310  14.1969310  48.6079310  29.4009310
  15.6269310  48.5659310  29.8969310  14.9119310  48.1519310  29.6129310
   4.2159310  45.7559310  34.4359310   4.0589310  44.8119310  34.3999310
   4.1269310  46.0479310  33.5289310   4.1839310  45.6719310  34.3149310
  11.0459310  39.5519310  19.1139310  11.1499310  39.8959310  20.0009310
  10.9159310  40.3279310  18.5689310  11.0429310  39.6949310  19.1579310
  13.6879310  40.3999310  26.4409310  14.5999310  40.4109310  26.7339310
  13.6879310  39.8149310  25.6829310  13.8049310  40.3259310  26.3819310
  11.5329310  44.7369310  28.2919310  10.6579310  44.4799310  28.0019310
  11.8849310  43.9539310  28.7159310  11.4659310  44.6039310  28.3089310
   3.2749310  36.7259310  17.1009310   3.6169310  36.7349310  17.9949310
   2.7899310  37.5479310  17.0229310   3.2569310  36.8329310  17.2049310
   5.8779310  41.2369310  24.7549310   5.9639310  40.4529310  25.2979310
   6.3179310  41.9239310  25.2549310   5.9449310  41.2249310  24.8879310
  14.5399310  38.8549310  34.0949310  13.6409310  38.5269310  34.0899310
  14.8649310  38.6779310  33.2129310  14.4659310  38.7899310  33.9819310
  18.7179310  42.6419310  24.3479310  18.7319310  42.3289310  25.2529310
  18.6689310  43.5949310  24.4249310  18.7139310  42.7239310  24.4739310
   8.1109310  40.5779310  18.2309310   7.4849310  39.8539310  18.2549310
   8.3289310  40.7369310  19.1489310   8.0589310  40.5059310  18.3509310
   4.8489310  42.2259310  30.3509310   4.0039310  41.9059310  30.6679310
   5.3219310  41.4349310  30.0919310   4.8009310  42.0839310  30.3589310
   1.7759310  47.4119310  34.6849310   2.5869310  46.9239310  34.5429310
   1.5069310  47.6889310  33.8089310   1.8449310  47.3849310  34.5539310
  14.5769310  38.0929310  31.5259310  13.7109310  37.9289310  31.1549310
  15.1589310  37.5009310  31.0479310  14.5409310  37.9959310  31.4169310
  14.2829310  43.5429310  18.2319310  13.8259310  43.3019310  19.0379310
  15.2089310  43.4029310  18.4309310  14.3429310  43.4939310  18.3609310
   4.0379310  46.4519310  31.7129310   4.9179310  46.0789310  31.6609310
   3.4999310  45.8709310  31.1759310   4.0819310  46.3299310  31.6379310
  10.4819310  44.7089310  31.3619310   9.9249310  44.3149310  30.6899310
   9.9059310  45.3189310  31.8219310  10.3369310  44.7369310  31.3349310
  14.3959310  43.9699310  34.5559310  13.5729310  44.3099310  34.2069310
  14.2519310  43.9139310  35.5009310  14.2729310  44.0059310  34.6319310
   8.3089310  40.6959310  20.8949310   7.4859310  40.9789310  21.2909310
   8.9869310  41.0819310  21.4499310   8.2909310  40.7809310  21.0169310
  10.3279310  45.7969310  24.4429310  10.8729310  46.2979310  25.0499310
   9.6339310  46.4039310  24.1859310  10.3089310  45.9379310  24.4879310
  13.0319310  43.0429310  20.6359310  12.9889310  43.6619310  21.3659310
  12.6659310  42.2319310  20.9879310  12.9799310  43.0189310  20.7749310
   7.7819310  43.9069310  21.1149310   7.1099310  43.2259310  21.1449310
   7.8609310  44.1239310  20.1859310   7.7059310  43.8479310  20.9999310
   3.4019310  42.8809310  34.1839310   3.2869310  42.5969310  33.2769310
   2.5109310  42.9839310  34.5169310   3.2729310  42.8579310  34.1099310
   2.4469310  41.2079310  29.0299310   1.8569310  40.4689310  28.8779310
   3.0589310  41.1799310  28.2949310   2.4499310  41.1099310  28.9159310
   3.8319310  47.3999310  27.0619310   3.7919310  46.4449310  27.0249310
   3.3769310  47.6279310  27.8719310   3.7689310  47.3069310  27.1609310
  11.7969310  44.0529310  33.7439310  11.1059310  43.4129310  33.9119310
  11.5889310  44.4089310  32.8809310  11.6819310  44.0159310  33.6549310
   5.1619310  46.3359310  18.1699310   4.7789310  46.0269310  17.3489310
   5.4009310  47.2469310  17.9949310   5.1439310  46.4129310  18.0429310
   3.9889310  36.6059310  19.8519310   4.2339310  35.7309310  20.1529310
   3.7739310  37.0829310  20.6529310   3.9929310  36.5549310  19.9929310
   9.2209310  38.3549310  22.3899310   8.9269310  39.0699310  21.8259310
   8.9499310  38.6159310  23.2699310   9.1489310  38.4799310  22.4299310
  13.1739310  48.9069310  24.0909310  12.2589310  48.9169310  23.8079310
  13.2959310  48.0389310  24.4759310  13.0719310  48.7969310  24.1039310
   2.7959310  45.2239310  21.1749310   3.6189310  45.7099310  21.1369310
   2.8469310  44.7289310  21.9919310   2.9079310  45.2229310  21.2739310
   5.0909310  46.8609310  21.1769310   4.5679310  47.5639310  21.5629310
   5.1029310  47.0569310  20.2409310   5.0259310  46.9759310  21.1069310
  12.1339310  41.7279310  17.3409310  12.6119310  41.3749310  16.5919310
  12.6359310  42.4999310  17.6039310  12.2589310  41.7819310  17.2789310
   4.9359310  48.9039310  30.7459310   4.1529310  49.3099310  30.3769310
   4.6479310  48.0329310  31.0189310   4.7989310  48.8439310  30.7339310
   3.9619310  44.8609310  29.2249310   4.2869310  44.0579310  29.6319310
   3.0929310  44.6289310  28.8989310   3.8919310  44.7289310  29.2349310
  10.0739310  42.9429310  24.4539310  10.5719310  42.7359310  23.6629310
  10.2579310  43.8679310  24.6179310  10.1609310  43.0349310  24.3739310
   4.6989310  41.6889310  18.1949310   4.2179310  40.8719310  18.0639310
   5.1329310  41.8479310  17.3569310   4.6929310  41.6049310  18.0709310
   7.3949310  43.5389310  25.0769310   6.9879310  44.2989310  24.6609310
   8.2569310  43.4739310  24.6669310   7.4529310  43.6279310  24.9709310
  11.9319310  44.7779310  22.5589310  12.6059310  45.1899310  23.0989310
  11.1219310  45.2239310  22.8049310  11.9149310  44.8879310  22.6589310
  10.3889310  39.2789310  28.6009310   9.9349310  39.7209310  27.8829310
   9.8469310  39.4539310  29.3699310  10.2619310  39.3579310  28.6069310
  15.5539310  44.2069310  27.5449310  15.1649310  43.7329310  28.2809310
  15.0189310  44.9959310  27.4589310  15.4359310  44.2469310  27.6279310
   8.9279310  40.7549310  26.4109310   9.5539310  41.2049310  25.8439310
   8.7859310  39.9079310  25.9869310   8.9899310  40.7039310  26.2839310
   7.4629310  48.6319310  29.9099310   7.8559310  49.4529310  30.2059310
   6.5499310  48.6869310  30.1919310   7.3969310  48.7439310  29.9839310
   8.9519310  37.4999310  19.1669310   8.1929310  37.7479310  18.6389310
   9.5069310  38.2799310  19.1679310   8.9259310  37.6319310  19.0999310
  12.6869310  41.9159310  29.0589310  12.4219310  41.2639310  29.7089310
  12.9059310  41.4029310  28.2809310  12.6809310  41.7669310  29.0429310
   3.4329310  43.7089310  23.2839310   3.6209310  42.9569310  22.7219310
   4.2889310  44.0999310  23.4539310   3.5659310  43.6629310  23.2339310
   5.0889310  38.5689310  32.5239310   6.0109310  38.6449310  32.7679310
   4.6369310  39.1859310  33.0989310   5.1489310  38.6569310  32.6279310
   2.0799310  35.5789310  25.4429310   2.2509310  36.4999310  25.6419310
   2.6459310  35.0949310  26.0439310   2.1739310  35.6349310  25.5449310
   5.8829310  48.9159310  17.5669310   6.7269310  48.8779310  18.0179310
   6.1059310  49.1209310  16.6589310   6.0199310  48.9369310  17.5089310
   2.9339310  44.7059310  25.8359310   3.1909310  44.2879310  25.0139310
   3.0179310  44.0139310  26.4919310   2.9779310  44.5639310  25.8149310
  10.2459310  49.1609310  26.2949310  10.3439310  49.4079310  25.3749310
   9.3919310  49.5109310  26.5469310  10.1489310  49.2369310  26.2099310
  13.7399310  35.4449310  35.2589310  13.1989310  34.9299310  35.8569310
  13.2759310  36.2779310  35.1719310  13.6119310  35.4859310  35.3249310
  15.1089310  42.9959310  30.4569310  14.2129310  42.6709310  30.3699310
  15.0089310  43.8909310  30.7819310  14.9809310  43.0689310  30.4879310
   7.3049310  44.6829310  18.4949310   8.0349310  45.3029310  18.4839310
   6.5229310  45.2339310  18.4639310   7.2979310  44.8329310  18.4889310
   6.9369310  42.0639310  27.6109310   6.4879310  41.3099310  27.9929310
   7.6589310  41.6839310  27.1109310   6.9719310  41.9189310  27.5959310
   8.4719310  46.1879310  29.3229310   8.1959310  47.0119310  29.7249310
   9.4229310  46.1749310  29.4319310   8.5589310  46.2919310  29.3879310
   3.9599310  38.8009310  21.5939310   3.8119310  39.7439310  21.5159310
   3.1679310  38.4689310  22.0179310   3.8399310  38.8789310  21.6379310
   7.6109310  39.1449310  34.0129310   7.1449310  39.7429310  34.5969310
   8.2059310  39.7089310  33.5179310   7.6269310  39.2929310  34.0239310
   3.2159310  39.2899310  18.1889310   2.2989310  39.0749310  18.3549310
   3.6909310  38.9019310  18.9239310   3.1589310  39.2129310  18.3039310
   8.9229310  44.4779310  27.4089310   8.6549310  45.1209310  28.0659310
   8.1239310  44.2959310  26.9129310   8.7859310  44.5369310  27.4289310
   8.8999310  42.8119310  29.9709310   8.7369310  43.1209310  29.0799310
   8.0389310  42.5479310  30.2939310   8.7689310  42.8179310  29.8989310
   9.1219310  37.0329310  34.1089310   9.1189310  36.7429310  33.1969310
   8.4499310  37.7139310  34.1459310   9.0349310  37.0829310  33.9969310
   8.8319310  46.4749310  32.5069310   8.0139310  46.3189310  32.0359310
   8.8799310  47.4269310  32.5959310   8.7339310  46.5769310  32.4579310
  13.1819310  41.1709310  33.7379310  13.8949310  40.5389310  33.8329310
  13.6219310  42.0079310  33.5919310  13.3289310  41.1969310  33.7309310
   2.3069310  47.1099310  24.3659310   2.2199310  47.8899310  24.9149310
   2.3789310  46.3859310  24.9889310   2.3049310  47.1169310  24.5159310
   2.4089310  42.2509310  31.5499310   2.3179310  42.1309310  30.6049310
   1.6849310  42.8289310  31.7879310   2.3049310  42.3099310  31.4589310
   3.4909310  35.7669310  23.0019310   3.0859310  35.4359310  23.8039310
   3.5979310  34.9929310  22.4499310   3.4529310  35.6259310  23.0339310
   4.0339310  41.8129310  20.8879310   4.4069310  41.7479310  20.0089310
   3.1289310  41.5169310  20.7869310   3.9659310  41.7659310  20.7629310
   3.7329310  48.9699310  19.3219310   3.0009310  48.4809310  18.9459310
   4.3929310  48.9829310  18.6299310   3.7229310  48.9089310  19.1859310
   6.1789310  38.7099310  23.2729310   5.3269310  38.5719310  22.8609310
   6.2289310  39.6569310  23.4089310   6.0769310  38.8139310  23.2379310
   7.2239310  42.3809310  16.5119310   7.2049310  43.0309310  17.2139310
   7.5789310  41.5929310  16.9239310   7.2669310  42.3639310  16.6539310
  12.2069310  37.6309310  33.9329310  12.2679310  37.2839310  33.0429310
  11.2669310  37.6789310  34.1069310  12.0939310  37.5929310  33.8409310
   6.8969310  36.8839310  21.3639310   6.6719310  37.6689310  21.8629310
   7.7959310  37.0359310  21.0719310   6.9839310  37.0039310  21.3909310
   9.2319310  36.8709310  31.3679310   8.9719310  36.0949310  30.8709310
  10.1879310  36.8759310  31.3199310   9.3209310  36.7719310  31.2979310
   6.1519310  39.0189310  26.6489310   5.3009310  38.5879310  26.5619310
   6.2509310  39.1659310  27.5899310   6.0549310  38.9829310  26.7579310
   4.7829310  36.0399310  33.7999310   4.2299310  36.3509310  34.5159310
   4.8439310  36.7859310  33.2029310   4.7199310  36.1749310  33.8149310
   3.5739310  48.5529310  22.4849310   2.9379310  48.0979310  23.0359310
   3.0859310  49.2869310  22.1119310   3.4309310  48.5889310  22.5079310
  15.0399310  40.4929310  19.3179310  14.2169310  40.0059310  19.2699310
  14.7879310  41.3569310  19.6459310  14.9029310  40.5409310  19.3539310
  12.0969310  47.8259310  33.3369310  11.4569310  47.2929310  33.8089310
  12.0589310  47.5029310  32.4359310  12.0099310  47.7159310  33.2819310
  14.7639310  45.6629310  31.1539310  13.8729310  45.8789310  31.4319310
  15.0409310  46.4159310  30.6319310  14.6849310  45.7869310  31.1229310
  13.8319310  47.6849310  21.5859310  13.8539310  47.8009310  22.5359310
  14.0049310  48.5579310  21.2349310  13.8569310  47.8119310  21.6629310
   2.2899310  38.4319310  27.5189310   2.7419310  37.8529310  28.1329310
   2.8529310  38.4469310  26.7459310   2.4199310  38.3599310  27.4989310
  12.1909310  46.7019310  30.9379310  11.5809310  45.9659310  30.9939310
  11.7589310  47.3259310  30.3549310  12.0579310  46.6869310  30.8709310
   4.3249310  40.3899310  34.4909310   3.5599310  39.9929310  34.9089310
   4.0709310  41.3009310  34.3429310   4.1939310  40.4559310  34.5259310
  10.1529310  42.4819310  21.9029310  10.7729310  42.9259310  21.3239310
   9.3429310  42.9859310  21.8179310  10.1289310  42.6039310  21.8179310
  11.0459310  48.5609310  28.9569310  10.8729310  48.4839310  28.0189310
  11.8289310  49.1079310  29.0119310  11.1239310  48.6209310  28.8439310
   5.8639310  44.9449310  23.2759310   6.3779310  44.3449310  22.7359310
   5.5899310  45.6349310  22.6719310   5.8939310  44.9559310  23.1299310
  11.9059310  38.1739310  30.8349310  11.6189310  38.9999310  31.2259310
  11.6829310  38.2579310  29.9079310  11.8399310  38.2909310  30.7669310
  10.2999310  46.2859310  34.6289310   9.4889310  46.3239310  34.1219310
  10.6639310  45.4229310  34.4339310  10.2429310  46.1809310  34.5389310
   3.6399310  38.3289310  25.1869310   3.4619310  38.9189310  24.4549310
   4.1249310  37.6019310  24.7969310   3.6789310  38.3119310  25.0439310
  13.6139310  46.0159310  24.5499310  14.4669310  45.6749310  24.2799310
  13.6359310  45.9869310  25.5059310  13.7259310  45.9679310  24.6369310
   6.5439310  42.9269310  32.4549310   5.7899310  42.5969310  31.9659310
   6.3429310  42.7289310  33.3689310   6.4219310  42.8589310  32.5089310
  10.0939310  42.2499310  34.5239310   9.3099310  42.2109310  35.0719310
  10.7309310  41.6989310  34.9779310  10.0749310  42.1749310  34.6519310
  11.7599310  46.6869310  19.7649310  12.1559310  47.0279310  20.5669310
  12.2509310  47.1059310  19.0579310  11.8729310  46.7839310  19.7769310
  11.4889310  40.7729310  31.7269310  12.1819310  40.9669310  32.3589310
  10.8529310  41.4789310  31.8449310  11.4959310  40.8879310  31.8229310
   4.0659310  37.7139310  11.1859310   4.2939310  37.6859310  12.1149310
   3.4369310  37.0019310  11.0729310   4.0149310  37.6189310  11.2909310
   6.2299310  49.3439310   4.6089310   6.0559310  49.5049310   5.5369310
   5.4649310  48.8579310   4.3029310   6.1099310  49.3019310   4.6889310
   6.1959310  39.4499310  10.5449310   5.5929310  38.8089310  10.9199310
   6.9849310  39.3809310  11.0829310   6.2199310  39.3599310  10.6619310
   6.7339310  35.8869310  16.8229310   7.6259310  35.6579310  16.5589310
   6.2119310  35.7659310  16.0299310   6.7819310  35.8429310  16.6879310
   8.6189310  39.2759310  11.8129310   8.7969310  38.3939310  12.1389310
   8.9379310  39.8559310  12.5049310   8.6829310  39.2369310  11.9439310
   8.3069310  47.2719310   4.0589310   7.8809310  46.6649310   3.4549310
   7.6439310  47.9389310   4.2369310   8.1679310  47.2799310   4.0049310
  14.0589310  37.9039310   3.3119310  14.1269310  36.9569310   3.1879310
  14.9279310  38.1689310   3.6129310  14.1789310  37.8169310   3.3349310
  15.1779310  42.1949310   5.1529310  14.3989310  42.3049310   5.6979310
  15.5219310  43.0809310   5.0439310  15.1219310  42.3219310   5.2089310
   6.5089310  45.5109310  12.5849310   6.3809310  44.6459310  12.9739310
   6.9519310  45.3359310  11.7539310   6.5489310  45.3779310  12.5279310
   2.2079310  40.4469310   4.7119310   1.8009310  40.4459310   3.8449310
   1.7219310  41.1099310   5.2029310   2.0939310  40.5319310   4.6639310
   8.6749310  41.3319310  13.7289310   9.2609310  41.6449310  14.4179310
   7.9489310  41.9569310  13.7289310   8.6569310  41.4519310  13.8169310
   6.2949310  41.8329310   3.2609310   5.4699310  41.8149310   2.7759310
   6.0439310  41.6469310   4.1659310   6.1569310  41.8069310   3.3149310
   4.2699310  42.4079310   8.2059310   5.1509310  42.6999310   8.4379310
   4.3559310  42.0739310   7.3129310   4.3939310  42.4029310   8.1209310
   8.5669310  38.2269310   6.3899310   7.6149310  38.1639310   6.4609310
   8.8949310  37.4989310   6.9179310   8.4869310  38.1259310   6.4669310
  13.6959310  46.2349310   8.5119310  14.1359310  46.7419310   9.1949310
  13.0239310  45.7379310   8.9779310  13.6669310  46.2359310   8.6589310
  14.9109310  48.0029310  10.7399310  14.1969310  48.6079310  10.5409310
  15.6269310  48.5659310  11.0369310  14.9119310  48.1519310  10.7529310
   4.2159310  45.7559310  15.5759310   4.0589310  44.8119310  15.5399310
   4.1269310  46.0479310  14.6689310   4.1839310  45.6719310  15.4549310
  13.6879310  40.3999310   7.5809310  14.5999310  40.4109310   7.8739310
  13.6879310  39.8149310   6.8229310  13.8049310  40.3259310   7.5219310
  11.5329310  44.7369310   9.4319310  10.6579310  44.4799310   9.1419310
  11.8849310  43.9539310   9.8559310  11.4659310  44.6039310   9.4489310
   5.8779310  41.2369310   5.8949310   5.9639310  40.4529310   6.4379310
   6.3179310  41.9239310   6.3949310   5.9449310  41.2249310   6.0279310
  14.5399310  38.8549310  15.2349310  13.6409310  38.5269310  15.2299310
  14.8649310  38.6779310  14.3529310  14.4659310  38.7899310  15.1219310
  18.7179310  42.6419310   5.4879310  18.7319310  42.3289310   6.3929310
  18.6689310  43.5949310   5.5649310  18.7139310  42.7239310   5.6139310
   4.8489310  42.2259310  11.4909310   4.0039310  41.9059310  11.8079310
   5.3219310  41.4349310  11.2319310   4.8009310  42.0839310  11.4989310
   1.7759310  47.4119310  15.8249310   2.5869310  46.9239310  15.6829310
   1.5069310  47.6889310  14.9489310   1.8449310  47.3849310  15.6939310
  14.5769310  38.0929310  12.6659310  13.7109310  37.9289310  12.2949310
  15.1589310  37.5009310  12.1879310  14.5409310  37.9959310  12.5569310
   4.0379310  46.4519310  12.8529310   4.9179310  46.0789310  12.8009310
   3.4999310  45.8709310  12.3159310   4.0819310  46.3299310  12.7779310
  12.4079310  39.2599310   4.9599310  13.1039310  38.8739310   4.4269310
  11.7979310  38.5379310   5.1149310  12.4189310  39.1179310   4.9109310
  10.4819310  44.7089310  12.5019310   9.9249310  44.3149310  11.8299310
   9.9059310  45.3189310  12.9619310  10.3369310  44.7369310  12.4749310
  14.3959310  43.9699310  15.6959310  13.5729310  44.3099310  15.3469310
  14.2519310  43.9139310  16.6409310  14.2729310  44.0059310  15.7719310
   8.3089310  40.6959310   2.0349310   7.4859310  40.9789310   2.4309310
   8.9869310  41.0819310   2.5899310   8.2909310  40.7809310   2.1569310
  10.3279310  45.7969310   5.5829310  10.8729310  46.2979310   6.1899310
   9.6339310  46.4039310   5.3259310  10.3089310  45.9379310   5.6279310
  13.0319310  43.0429310   1.7759310  12.9889310  43.6619310   2.5059310
  12.6659310  42.2319310   2.1279310  12.9799310  43.0189310   1.9149310
   3.4019310  42.8809310  15.3239310   3.2869310  42.5969310  14.4169310
   2.5109310  42.9839310  15.6569310   3.2729310  42.8579310  15.2499310
   2.4469310  41.2079310  10.1699310   1.8569310  40.4689310  10.0179310
   3.0589310  41.1799310   9.4349310   2.4499310  41.1099310  10.0559310
   3.8319310  47.3999310   8.2019310   3.7919310  46.4449310   8.1649310
   3.3769310  47.6279310   9.0119310   3.7689310  47.3069310   8.3009310
  11.7969310  44.0529310  14.8839310  11.1059310  43.4129310  15.0519310
  11.5889310  44.4089310  14.0209310  11.6819310  44.0159310  14.7949310
   9.2209310  38.3549310   3.5299310   8.9269310  39.0699310   2.9659310
   8.9499310  38.6159310   4.4099310   9.1489310  38.4799310   3.5699310
  13.1739310  48.9069310   5.2309310  12.2589310  48.9169310   4.9479310
  13.2959310  48.0389310   5.6159310  13.0719310  48.7969310   5.2439310
   2.7959310  45.2239310   2.3149310   3.6189310  45.7099310   2.2769310
   2.8469310  44.7289310   3.1319310   2.9079310  45.2229310   2.4139310
   4.9359310  48.9039310  11.8859310   4.1529310  49.3099310  11.5169310
   4.6479310  48.0329310  12.1589310   4.7989310  48.8439310  11.8739310
  13.9859310  32.8079310   7.8799310  14.1319310  33.2129310   8.7349310
  13.0409310  32.8759310   7.7409310  13.8839310  32.8679310   7.9719310
   3.9619310  44.8609310  10.3649310   4.2869310  44.0579310  10.7719310
   3.0929310  44.6289310  10.0389310   3.8919310  44.7289310  10.3749310
  10.0739310  42.9429310   5.5939310  10.5719310  42.7359310   4.8029310
  10.2579310  43.8679310   5.7579310  10.1609310  43.0349310   5.5139310
   7.3949310  43.5389310   6.2169310   6.9879310  44.2989310   5.8009310
   8.2569310  43.4739310   5.8069310   7.4529310  43.6279310   6.1109310
  11.9319310  44.7779310   3.6989310  12.6059310  45.1899310   4.2389310
  11.1219310  45.2239310   3.9449310  11.9149310  44.8879310   3.7989310
  10.3889310  39.2789310   9.7409310   9.9349310  39.7209310   9.0229310
   9.8469310  39.4539310  10.5099310  10.2619310  39.3579310   9.7469310
  15.5539310  44.2069310   8.6849310  15.1649310  43.7329310   9.4209310
  15.0189310  44.9959310   8.5989310  15.4359310  44.2469310   8.7679310
   8.9279310  40.7549310   7.5509310   9.5539310  41.2049310   6.9839310
   8.7859310  39.9079310   7.1269310   8.9899310  40.7039310   7.4239310
   7.4629310  48.6319310  11.0499310   7.8559310  49.4529310  11.3459310
   6.5499310  48.6869310  11.3319310   7.3969310  48.7439310  11.1239310
  11.0739310  36.6839310   4.8199310  10.4119310  37.0899310   4.2599310
  11.7689310  36.4209310   4.2169310  11.0779310  36.7029310   4.6709310
  12.6869310  41.9159310  10.1989310  12.4219310  41.2639310  10.8489310
  12.9059310  41.4029310   9.4209310  12.6809310  41.7669310  10.1829310
   3.4329310  43.7089310   4.4239310   3.6209310  42.9569310   3.8619310
   4.2889310  44.0999310   4.5939310   3.5659310  43.6629310   4.3739310
   5.0889310  38.5689310  13.6639310   6.0109310  38.6449310  13.9079310
   4.6369310  39.1859310  14.2389310   5.1489310  38.6569310  13.7679310
   2.0799310  35.5789310   6.5829310   2.2509310  36.4999310   6.7819310
   2.6459310  35.0949310   7.1839310   2.1739310  35.6349310   6.6849310
   2.9339310  44.7059310   6.9759310   3.1909310  44.2879310   6.1539310
   3.0179310  44.0139310   7.6319310   2.9779310  44.5639310   6.9549310
  10.2459310  49.1609310   7.4349310  10.3439310  49.4079310   6.5149310
   9.3919310  49.5109310   7.6869310  10.1489310  49.2369310   7.3499310
  15.1089310  42.9959310  11.5969310  14.2129310  42.6709310  11.5099310
  15.0089310  43.8909310  11.9219310  14.9809310  43.0689310  11.6279310
   6.9369310  42.0639310   8.7509310   6.4879310  41.3099310   9.1329310
   7.6589310  41.6839310   8.2509310   6.9719310  41.9189310   8.7359310
   8.4719310  46.1879310  10.4629310   8.1959310  47.0119310  10.8649310
   9.4229310  46.1749310  10.5719310   8.5589310  46.2919310  10.5279310
   3.9599310  38.8009310   2.7339310   3.8119310  39.7439310   2.6559310
   3.1679310  38.4689310   3.1579310   3.8399310  38.8789310   2.7779310
   7.6109310  39.1449310  15.1529310   7.1449310  39.7429310  15.7369310
   8.2059310  39.7089310  14.6579310   7.6269310  39.2929310  15.1639310
   8.9229310  44.4779310   8.5489310   8.6549310  45.1209310   9.2059310
   8.1239310  44.2959310   8.0529310   8.7859310  44.5369310   8.5689310
   8.8999310  42.8119310  11.1109310   8.7369310  43.1209310  10.2199310
   8.0389310  42.5479310  11.4339310   8.7689310  42.8179310  11.0389310
   9.1219310  37.0329310  15.2489310   9.1189310  36.7429310  14.3369310
   8.4499310  37.7139310  15.2859310   9.0349310  37.0829310  15.1369310
   8.8319310  46.4749310  13.6469310   8.0139310  46.3189310  13.1759310
   8.8799310  47.4269310  13.7359310   8.7339310  46.5769310  13.5979310
  13.1819310  41.1709310  14.8779310  13.8949310  40.5389310  14.9729310
  13.6219310  42.0079310  14.7319310  13.3289310  41.1969310  14.8709310
   2.3069310  47.1099310   5.5059310   2.2199310  47.8899310   6.0549310
   2.3789310  46.3859310   6.1289310   2.3049310  47.1169310   5.6559310
   2.4089310  42.2509310  12.6899310   2.3179310  42.1309310  11.7449310
   1.6849310  42.8289310  12.9279310   2.3049310  42.3099310  12.5989310
   3.4909310  35.7669310   4.1419310   3.0859310  35.4359310   4.9439310
   3.5979310  34.9929310   3.5899310   3.4529310  35.6259310   4.1739310
   6.1789310  38.7099310   4.4129310   5.3269310  38.5719310   4.0009310
   6.2289310  39.6569310   4.5489310   6.0769310  38.8139310   4.3779310
   6.8969310  36.8839310   2.5039310   6.6719310  37.6689310   3.0029310
   7.7959310  37.0359310   2.2119310   6.9839310  37.0039310   2.5309310
  12.3239310  36.6039310   7.3739310  13.1949310  36.2109310   7.4309310
  12.2249310  36.8349310   6.4509310  12.4229310  36.5829310   7.2629310
   9.2319310  36.8709310  12.5079310   8.9719310  36.0949310  12.0109310
  10.1879310  36.8759310  12.4599310   9.3209310  36.7719310  12.4379310
  12.3489310  40.4689310   2.6219310  12.1279310  40.2189310   3.5199310
  13.1649310  40.0029310   2.4389310  12.4249310  40.3769310   2.7139310
   6.1519310  39.0189310   7.7889310   5.3009310  38.5879310   7.7019310
   6.2509310  39.1659310   8.7299310   6.0549310  38.9829310   7.8979310
   4.7829310  36.0399310  14.9399310   4.2299310  36.3509310  15.6559310
   4.8439310  36.7859310  14.3429310   4.7199310  36.1749310  14.9549310
   3.5739310  48.5529310   3.6249310   2.9379310  48.0979310   4.1759310
   3.0859310  49.2869310   3.2519310   3.4309310  48.5889310   3.6479310
  12.0969310  47.8259310  14.4769310  11.4569310  47.2929310  14.9489310
  12.0589310  47.5029310  13.5759310  12.0099310  47.7159310  14.4219310
  14.7639310  45.6629310  12.2939310  13.8729310  45.8789310  12.5719310
  15.0409310  46.4159310  11.7719310  14.6849310  45.7869310  12.2629310
  13.8319310  47.6849310   2.7259310  13.8539310  47.8009310   3.6759310
  14.0049310  48.5579310   2.3749310  13.8569310  47.8119310   2.8029310
   2.2899310  38.4319310   8.6589310   2.7419310  37.8529310   9.2729310
   2.8529310  38.4469310   7.8859310   2.4199310  38.3599310   8.6389310
  12.1909310  46.7019310  12.0779310  11.5809310  45.9659310  12.1339310
  11.7589310  47.3259310  11.4949310  12.0579310  46.6869310  12.0109310
   4.3249310  40.3899310  15.6309310   3.5599310  39.9929310  16.0489310
   4.0709310  41.3009310  15.4829310   4.1939310  40.4559310  15.6659310
  10.1529310  42.4819310   3.0429310  10.7729310  42.9259310   2.4639310
   9.3429310  42.9859310   2.9579310  10.1289310  42.6039310   2.9579310
  11.0459310  48.5609310  10.0969310  10.8729310  48.4839310   9.1589310
  11.8289310  49.1079310  10.1519310  11.1239310  48.6209310   9.9839310
   5.8639310  44.9449310   4.4159310   6.3779310  44.3449310   3.8759310
   5.5899310  45.6349310   3.8119310   5.8939310  44.9559310   4.2699310
  11.9059310  38.1739310  11.9749310  11.6189310  38.9999310  12.3659310
  11.6829310  38.2579310  11.0479310  11.8399310  38.2909310  11.9069310
  15.9209310  39.5099310   4.4609310  16.5029310  39.9949310   3.8749310
  15.3549310  40.1799310   4.8439310  15.9229310  39.6579310   4.4349310
  10.2999310  46.2859310  15.7689310   9.4889310  46.3239310  15.2619310
  10.6639310  45.4229310  15.5739310  10.2429310  46.1809310  15.6789310
   3.6399310  38.3289310   6.3269310   3.4619310  38.9189310   5.5949310
   4.1249310  37.6019310   5.9369310   3.6789310  38.3119310   6.1839310
  13.6139310  46.0159310   5.6899310  14.4669310  45.6749310   5.4199310
  13.6359310  45.9869310   6.6459310  13.7259310  45.9679310   5.7769310
   6.5439310  42.9269310  13.5949310   5.7899310  42.5969310  13.1059310
   6.3429310  42.7289310  14.5089310   6.4219310  42.8589310  13.6489310
  10.0939310  42.2499310  15.6639310   9.3099310  42.2109310  16.2119310
  10.7309310  41.6989310  16.1179310  10.0749310  42.1749310  15.7919310
  15.6899310  36.0419310   5.1979310  15.0939310  35.6919310   5.8599310
  16.4079310  35.4099310   5.1629310  15.7059310  35.9169310   5.2779310
  11.4889310  40.7729310  12.8669310  12.1819310  40.9669310  13.4989310
  10.8529310  41.4789310  12.9849310  11.4959310  40.8879310  12.9629310
   4.0659310  18.8469310  48.9059310   4.2939310  18.8189310  49.8349310
   3.4369310  18.1349310  48.7929310   4.0149310  18.7519310  49.0109310
   6.2299310  30.4769310  42.3289310   6.0559310  30.6379310  43.2569310
   5.4649310  29.9909310  42.0229310   6.1099310  30.4349310  42.4089310
   2.8009310  25.3739310  37.6599310   2.6469310  25.8309310  38.4869310
   3.5129310  24.7639310  37.8519310   2.8719310  25.3539310  37.7899310
   6.1959310  20.5829310  48.2649310   5.5929310  19.9419310  48.6399310
   6.9849310  20.5139310  48.8029310   6.2199310  20.4929310  48.3819310
  12.9619310  31.5329310  35.8459310  12.0999310  31.8609310  35.5899310
  12.8659310  30.5809310  35.8449310  12.8389310  31.4529310  35.8129310
   4.3989310  33.4199310  39.3119310   3.5999310  32.8929310  39.3219310
   4.7429310  33.3169310  38.4249310   4.3409310  33.3389310  39.1999310
   8.6189310  20.4089310  49.5329310   8.7969310  19.5269310  49.8589310
   8.9379310  20.9889310  50.2249310   8.6829310  20.3699310  49.6639310
   8.3069310  28.4049310  41.7789310   7.8809310  27.7979310  41.1749310
   7.6439310  29.0719310  41.9569310   8.1679310  28.4129310  41.7249310
  14.0589310  19.0369310  41.0319310  14.1269310  18.0899310  40.9079310
  14.9279310  19.3019310  41.3329310  14.1789310  18.9499310  41.0549310
  15.1779310  23.3279310  42.8729310  14.3989310  23.4379310  43.4179310
  15.5219310  24.2139310  42.7639310  15.1219310  23.4549310  42.9289310
   6.2739310  19.4559310  37.0209310   6.0079310  18.9929310  37.8159310
   6.2899310  18.7789310  36.3449310   6.2419310  19.3099310  37.0369310
   9.3849310  27.5959310  37.3239310  10.1549310  27.6169310  37.8909310
   9.7039310  27.2289310  36.4999310   9.5239310  27.5519310  37.2909310
  15.1209310  27.2329310  39.0539310  14.7549310  27.8739310  39.6639310
  14.3559310  26.8109310  38.6619310  14.9759310  27.2609310  39.0819310
  13.1029310  28.8329310  36.0709310  13.1449310  28.6989310  35.1239310
  13.9889310  29.0999310  36.3139310  13.2219310  28.8499310  35.9809310
  13.4459310  19.2629310  38.1589310  13.5779310  19.1189310  39.0959310
  12.5779310  19.6619310  38.0989310  13.3519310  19.2949310  38.2719310
  10.0959310  30.9999310  42.6599310  10.2719310  31.8499310  42.2569310
   9.3369310  30.6629310  42.1859310  10.0219310  31.0659310  42.5479310
   9.8859310  34.3249310  43.9119310  10.4719310  35.0619310  43.7369310
   9.1039310  34.5109310  43.3929310   9.8609310  34.4429310  43.8229310
   2.2079310  21.5799310  42.4319310   1.8009310  21.5789310  41.5649310
   1.7219310  22.2429310  42.9229310   2.0939310  21.6649310  42.3839310
   6.2949310  22.9659310  40.9809310   5.4699310  22.9479310  40.4959310
   6.0439310  22.7799310  41.8859310   6.1569310  22.9399310  41.0349310
   3.4089310  32.6309310  45.5979310   3.1479310  32.2559310  46.4389310
   4.1399310  32.0859310  45.3089310   3.4689310  32.5129310  45.6679310
   5.5469310  33.0499310  36.9439310   6.0059310  32.2279310  37.1159310
   6.2449310  33.6899310  36.8049310   5.6949310  33.0269310  36.9479310
   4.2699310  23.5409310  45.9259310   5.1509310  23.8329310  46.1579310
   4.3559310  23.2069310  45.0329310   4.3939310  23.5359310  45.8409310
   8.5669310  19.3599310  44.1099310   7.6149310  19.2969310  44.1809310
   8.8949310  18.6319310  44.6379310   8.4869310  19.2589310  44.1869310
  13.6959310  27.3679310  46.2319310  14.1359310  27.8749310  46.9149310
  13.0239310  26.8709310  46.6979310  13.6669310  27.3689310  46.3789310
  14.9109310  29.1359310  48.4599310  14.1969310  29.7409310  48.2609310
  15.6269310  29.6989310  48.7569310  14.9119310  29.2849310  48.4729310
   8.4229310  30.1969310  37.3979310   8.7269310  29.3039310  37.5539310
   8.9499310  30.7369310  37.9869310   8.5289310  30.1519310  37.4929310
  11.0459310  20.6849310  37.9739310  11.1499310  21.0289310  38.8609310
  10.9159310  21.4609310  37.4289310  11.0429310  20.8279310  38.0179310
  13.6879310  21.5329310  45.3009310  14.5999310  21.5439310  45.5939310
  13.6879310  20.9479310  44.5429310  13.8049310  21.4589310  45.2419310
  11.5329310  25.8699310  47.1519310  10.6579310  25.6129310  46.8619310
  11.8849310  25.0869310  47.5759310  11.4659310  25.7369310  47.1689310
   3.2749310  17.8589310  35.9609310   3.6169310  17.8679310  36.8549310
   2.7899310  18.6809310  35.8829310   3.2569310  17.9659310  36.0649310
   5.8779310  22.3699310  43.6149310   5.9639310  21.5859310  44.1579310
   6.3179310  23.0569310  44.1149310   5.9449310  22.3579310  43.7479310
  14.5559310  31.1099310  38.9509310  14.6769310  31.9849310  38.5829310
  14.7649310  30.5159310  38.2299310  14.5979310  31.1459310  38.8109310
  12.9739310  16.5089310  37.8289310  13.1019310  17.4239310  37.5769310
  12.0249310  16.4139310  37.9139310  12.8689310  16.6139310  37.8079310
   5.3059310  30.8579310  44.8239310   4.8259310  30.0499310  45.0009310
   6.0359310  30.8439310  45.4429310   5.3379310  30.7529310  44.9259310
  16.1489310  17.8469310  35.8299310  15.9729310  18.6879310  35.4089310
  15.3399310  17.3479310  35.7159310  16.0229310  17.8909310  35.7619310
  18.7179310  23.7749310  43.2079310  18.7319310  23.4619310  44.1129310
  18.6689310  24.7279310  43.2849310  18.7139310  23.8569310  43.3339310
   8.1109310  21.7109310  37.0909310   7.4849310  20.9869310  37.1149310
   8.3289310  21.8699310  38.0089310   8.0589310  21.6389310  37.2109310
   4.8489310  23.3589310  49.2109310   4.0039310  23.0389310  49.5279310
   5.3219310  22.5679310  48.9519310   4.8009310  23.2169310  49.2189310
  14.5769310  19.2259310  50.3859310  13.7109310  19.0619310  50.0149310
  15.1589310  18.6339310  49.9079310  14.5409310  19.1289310  50.2769310
  14.2829310  24.6759310  37.0919310  13.8259310  24.4349310  37.8979310
  15.2089310  24.5359310  37.2909310  14.3429310  24.6269310  37.2209310
  13.0269310  31.2959310  48.9299310  12.6759310  31.1929310  49.8149310
  13.1749310  32.2379310  48.8399310  13.0009310  31.4029310  49.0319310
  12.4079310  20.3929310  42.6799310  13.1039310  20.0069310  42.1469310
  11.7979310  19.6709310  42.8349310  12.4189310  20.2509310  42.6309310
   8.3089310  21.8289310  39.7549310   7.4859310  22.1119310  40.1509310
   8.9869310  22.2149310  40.3099310   8.2909310  21.9139310  39.8769310
  10.3279310  26.9299310  43.3029310  10.8729310  27.4309310  43.9099310
   9.6339310  27.5369310  43.0459310  10.3089310  27.0709310  43.3479310
  13.0319310  24.1759310  39.4959310  12.9889310  24.7949310  40.2259310
  12.6659310  23.3649310  39.8479310  12.9799310  24.1519310  39.6349310
   7.7819310  25.0399310  39.9749310   7.1099310  24.3589310  40.0049310
   7.8609310  25.2569310  39.0459310   7.7059310  24.9809310  39.8599310
   8.9679310  34.0189310  49.0929310   8.4189310  33.9499310  48.3129310
   9.3319310  33.1419310  49.2089310   8.9449310  33.8979310  49.0079310
   2.4469310  22.3409310  47.8899310   1.8569310  21.6019310  47.7379310
   3.0589310  22.3129310  47.1549310   2.4499310  22.2429310  47.7759310
   3.8319310  28.5329310  45.9219310   3.7919310  27.5779310  45.8849310
   3.3769310  28.7609310  46.7319310   3.7689310  28.4399310  46.0209310
   5.1619310  27.4689310  37.0299310   4.7789310  27.1599310  36.2089310
   5.4009310  28.3799310  36.8549310   5.1439310  27.5459310  36.9029310
   3.9889310  17.7389310  38.7119310   4.2339310  16.8639310  39.0129310
   3.7739310  18.2159310  39.5129310   3.9929310  17.6879310  38.8529310
   9.2209310  19.4879310  41.2499310   8.9269310  20.2029310  40.6859310
   8.9499310  19.7489310  42.1299310   9.1489310  19.6129310  41.2899310
   7.6749310  31.1439310  46.3319310   7.6109310  30.6239310  47.1339310
   8.2199310  31.8929310  46.5749310   7.7359310  31.1729310  46.4659310
  13.1739310  30.0399310  42.9509310  12.2589310  30.0499310  42.6679310
  13.2959310  29.1719310  43.3359310  13.0719310  29.9299310  42.9639310
   2.7959310  26.3569310  40.0349310   3.6189310  26.8429310  39.9969310
   2.8469310  25.8619310  40.8519310   2.9079310  26.3559310  40.1339310
   5.0909310  27.9939310  40.0369310   4.5679310  28.6969310  40.4229310
   5.1029310  28.1899310  39.1009310   5.0259310  28.1089310  39.9669310
  12.1339310  22.8609310  36.2009310  12.6119310  22.5079310  35.4519310
  12.6359310  23.6329310  36.4639310  12.2589310  22.9149310  36.1389310
   4.9359310  30.0369310  49.6059310   4.1529310  30.4429310  49.2369310
   4.6479310  29.1659310  49.8789310   4.7989310  29.9769310  49.5939310
  13.9859310  13.9409310  45.5999310  14.1319310  14.3459310  46.4549310
  13.0409310  14.0089310  45.4609310  13.8839310  14.0009310  45.6919310
   3.9619310  25.9939310  48.0849310   4.2869310  25.1909310  48.4919310
   3.0929310  25.7619310  47.7589310   3.8919310  25.8619310  48.0949310
  10.0739310  24.0759310  43.3139310  10.5719310  23.8689310  42.5229310
  10.2579310  25.0009310  43.4779310  10.1609310  24.1679310  43.2339310
   4.6989310  22.8219310  37.0549310   4.2179310  22.0049310  36.9239310
   5.1329310  22.9809310  36.2169310   4.6929310  22.7379310  36.9309310
  14.7619310  34.8479310  45.3819310  14.6149310  33.9049310  45.4629310
  15.4159310  35.0459310  46.0529310  14.8269310  34.7519310  45.4779310
  16.0949310  31.1259310  44.1679310  15.2509310  31.5389310  44.3519310
  15.9629310  30.2039310  44.3859310  15.9699310  31.0609310  44.2189310
   7.3949310  24.6719310  43.9369310   6.9879310  25.4319310  43.5209310
   8.2569310  24.6069310  43.5269310   7.4529310  24.7609310  43.8309310
  11.9319310  25.9109310  41.4189310  12.6059310  26.3229310  41.9589310
  11.1219310  26.3569310  41.6649310  11.9149310  26.0209310  41.5189310
  10.3889310  20.4119310  47.4609310   9.9349310  20.8539310  46.7429310
   9.8469310  20.5869310  48.2299310  10.2619310  20.4909310  47.4669310
  15.5539310  25.3399310  46.4049310  15.1649310  24.8659310  47.1409310
  15.0189310  26.1289310  46.3189310  15.4359310  25.3799310  46.4879310
   8.9279310  21.8879310  45.2709310   9.5539310  22.3379310  44.7039310
   8.7859310  21.0409310  44.8469310   8.9899310  21.8369310  45.1439310
   7.4629310  29.7649310  48.7699310   7.8559310  30.5859310  49.0659310
   6.5499310  29.8199310  49.0519310   7.3969310  29.8769310  48.8439310
   8.9519310  18.6329310  38.0269310   8.1929310  18.8809310  37.4989310
   9.5069310  19.4129310  38.0279310   8.9259310  18.7649310  37.9599310
  11.0739310  17.8169310  42.5399310  10.4119310  18.2229310  41.9799310
  11.7689310  17.5539310  41.9369310  11.0779310  17.8359310  42.3909310
  12.6869310  23.0489310  47.9189310  12.4219310  22.3969310  48.5689310
  12.9059310  22.5359310  47.1409310  12.6809310  22.8999310  47.9029310
   3.4329310  24.8419310  42.1439310   3.6209310  24.0899310  41.5819310
   4.2889310  25.2329310  42.3139310   3.5659310  24.7959310  42.0939310
   2.0799310  16.7119310  44.3029310   2.2509310  17.6329310  44.5019310
   2.6459310  16.2279310  44.9039310   2.1739310  16.7679310  44.4049310
   5.8829310  30.0489310  36.4269310   6.7269310  30.0109310  36.8779310
   6.1059310  30.2539310  35.5189310   6.0199310  30.0699310  36.3689310
   2.9339310  25.8389310  44.6959310   3.1909310  25.4209310  43.8739310
   3.0179310  25.1469310  45.3519310   2.9779310  25.6969310  44.6749310
  10.2459310  30.2939310  45.1549310  10.3439310  30.5409310  44.2349310
   9.3919310  30.6439310  45.4069310  10.1489310  30.3699310  45.0699310
   7.6359310  34.7079310  42.4939310   7.4509310  33.8809310  42.0479310
   7.3239310  35.3809310  41.8889310   7.5719310  34.6879310  42.3589310
   9.2239310  33.9429310  35.5839310   9.3819310  34.7819310  35.1509310
   9.4859310  34.0899310  36.4929310   9.2779310  34.0689310  35.6449310
  11.3339310  32.7199310  45.6939310  10.7899310  33.3199310  45.1829310
  10.9429310  31.8589310  45.5479310  11.2149310  32.6869310  45.6099310
  15.1089310  24.1289310  49.3169310  14.2129310  23.8039310  49.2299310
  15.0089310  25.0239310  49.6419310  14.9809310  24.2019310  49.3479310
   5.4259310  35.0879310  44.6669310   5.3919310  34.4009310  45.3319310
   5.9019310  34.6929310  43.9369310   5.4819310  34.9499310  44.6589310
   7.3049310  25.8159310  37.3549310   8.0349310  26.4359310  37.3439310
   6.5229310  26.3669310  37.3239310   7.2979310  25.9659310  37.3489310
   6.9369310  23.1969310  46.4709310   6.4879310  22.4429310  46.8529310
   7.6589310  22.8169310  45.9709310   6.9719310  23.0519310  46.4559310
   8.4719310  27.3209310  48.1829310   8.1959310  28.1449310  48.5849310
   9.4229310  27.3079310  48.2919310   8.5589310  27.4249310  48.2479310
   3.9599310  19.9339310  40.4539310   3.8119310  20.8769310  40.3759310
   3.1679310  19.6019310  40.8779310   3.8399310  20.0119310  40.4979310
   7.8279310  34.5439310  46.4319310   8.6179310  35.0819310  46.3779310
   7.2279310  34.9359310  45.7979310   7.8519310  34.6629310  46.3439310
   3.2159310  20.4229310  37.0489310   2.2989310  20.2079310  37.2149310
   3.6909310  20.0349310  37.7839310   3.1589310  20.3459310  37.1639310
  10.8179310  33.1739310  41.2839310  10.4499310  33.7549310  41.9489310
  11.7089310  33.4969310  41.1499310  10.8849310  33.2899310  41.3519310
   8.9229310  25.6109310  46.2689310   8.6549310  26.2539310  46.9259310
   8.1239310  25.4289310  45.7729310   8.7859310  25.6699310  46.2889310
   8.8999310  23.9449310  48.8309310   8.7369310  24.2539310  47.9399310
   8.0389310  23.6809310  49.1539310   8.7689310  23.9509310  48.7589310
  14.6549310  33.5809310  48.1669310  14.9369310  33.4849310  49.0769310
  13.8739310  34.1319310  48.2159310  14.5909310  33.6389310  48.2899310
   2.3069310  28.2429310  43.2259310   2.2199310  29.0229310  43.7749310
   2.3789310  27.5189310  43.8489310   2.3049310  28.2499310  43.3759310
   3.4909310  16.8999310  41.8619310   3.0859310  16.5689310  42.6639310
   3.5979310  16.1259310  41.3099310   3.4529310  16.7589310  41.8939310
  14.5759310  32.3589310  41.6019310  14.6459310  31.7299310  42.3189310
  14.6419310  31.8269310  40.8089310  14.5929310  32.2109310  41.5919310
   4.0339310  22.9459310  39.7479310   4.4069310  22.8809310  38.8689310
   3.1289310  22.6499310  39.6469310   3.9659310  22.8989310  39.6229310
   3.7329310  30.1029310  38.1819310   3.0009310  29.6139310  37.8059310
   4.3929310  30.1159310  37.4899310   3.7229310  30.0419310  38.0459310
   6.1789310  19.8429310  42.1329310   5.3269310  19.7049310  41.7209310
   6.2289310  20.7899310  42.2689310   6.0769310  19.9469310  42.0979310
   7.2239310  23.5139310  35.3719310   7.2049310  24.1639310  36.0739310
   7.5789310  22.7259310  35.7839310   7.2669310  23.4969310  35.5139310
   2.5939310  30.8119310  48.1509310   2.0239310  31.4989310  48.4979310
   2.1419310  29.9959310  48.3649310   2.4629310  30.7959310  48.2229310
   9.1859310  32.3929310  39.2419310   8.5009310  32.3209310  39.9069310
   9.9839310  32.5709310  39.7389310   9.1999310  32.4059310  39.3909310
   6.8969310  18.0169310  40.2239310   6.6719310  18.8019310  40.7229310
   7.7959310  18.1689310  39.9319310   6.9839310  18.1369310  40.2509310
  12.3239310  17.7369310  45.0939310  13.1949310  17.3439310  45.1509310
  12.2249310  17.9679310  44.1709310  12.4229310  17.7159310  44.9829310
   9.2319310  18.0039310  50.2279310   8.9719310  17.2279310  49.7309310
  10.1879310  18.0089310  50.1799310   9.3209310  17.9049310  50.1579310
  12.3489310  21.6019310  40.3419310  12.1279310  21.3519310  41.2399310
  13.1649310  21.1359310  40.1589310  12.4249310  21.5099310  40.4339310
  10.1949310  31.3649310  35.4889310   9.7949310  32.2329310  35.5389310
   9.7189310  30.8439310  36.1359310  10.0829310  31.4099310  35.5779310
   6.1519310  20.1519310  45.5089310   5.3009310  19.7209310  45.4219310
   6.2509310  20.2989310  46.4499310   6.0549310  20.1159310  45.6179310
   3.5739310  29.6859310  41.3449310   2.9379310  29.2309310  41.8959310
   3.0859310  30.4199310  40.9719310   3.4309310  29.7219310  41.3679310
   9.4519310  31.3569310  49.5499310   9.2489310  31.0469310  50.4319310
   9.9659310  30.6489310  49.1599310   9.4919310  31.2259310  49.6129310
  15.0399310  21.6259310  38.1779310  14.2169310  21.1389310  38.1299310
  14.7879310  22.4899310  38.5059310  14.9029310  21.6739310  38.2139310
  14.7639310  26.7959310  50.0139310  13.8729310  27.0119310  50.2919310
  15.0409310  27.5489310  49.4919310  14.6849310  26.9199310  49.9829310
  13.8319310  28.8179310  40.4459310  13.8539310  28.9339310  41.3959310
  14.0049310  29.6909310  40.0949310  13.8569310  28.9449310  40.5229310
  13.2069310  34.7579310  40.7529310  12.9429310  34.7229310  39.8339310
  13.8289310  34.0369310  40.8519310  13.2529310  34.6609310  40.6479310
  10.3809310  34.7539310  38.2639310   9.8649310  34.0689310  38.6899310
   9.8979310  35.5609310  38.4379310  10.2529310  34.7689310  38.3409310
   2.2899310  19.5649310  46.3789310   2.7419310  18.9859310  46.9929310
   2.8529310  19.5799310  45.6059310   2.4199310  19.4929310  46.3589310
  10.1179310  36.2969310  46.5649310  10.8929310  36.1409310  46.0259310
  10.0869310  37.2479310  46.6709310  10.2129310  36.3989310  46.5099310
   6.6879310  32.7089310  40.7939310   6.4499310  31.8959310  41.2379310
   5.8829310  32.9869310  40.3569310   6.5549310  32.6409310  40.7949310
  12.1909310  27.8349310  49.7979310  11.5809310  27.0989310  49.8539310
  11.7589310  28.4589310  49.2149310  12.0579310  27.8199310  49.7309310
  10.1529310  23.6149310  40.7629310  10.7729310  24.0589310  40.1839310
   9.3429310  24.1189310  40.6779310  10.1289310  23.7369310  40.6779310
   2.4449310  31.7509310  39.9949310   1.7449310  32.1489310  39.4779310
   2.8769310  31.1479310  39.3889310   2.4109310  31.7249310  39.8509310
  11.0459310  29.6939310  47.8169310  10.8729310  29.6169310  46.8789310
  11.8289310  30.2409310  47.8719310  11.1239310  29.7539310  47.7039310
   5.8639310  26.0779310  42.1359310   6.3779310  25.4779310  41.5959310
   5.5899310  26.7679310  41.5319310   5.8939310  26.0889310  41.9899310
  11.9059310  19.3069310  49.6949310  11.6189310  20.1329310  50.0859310
  11.6829310  19.3909310  48.7679310  11.8399310  19.4239310  49.6269310
  15.5589310  33.9369310  38.4249310  16.1459310  33.7599310  37.6899310
  14.9679310  34.6169310  38.1009310  15.5579310  34.0009310  38.2889310
  15.9209310  20.6429310  42.1809310  16.5029310  21.1279310  41.5949310
  15.3549310  21.3129310  42.5639310  15.9229310  20.7909310  42.1549310
   3.6399310  19.4619310  44.0469310   3.4619310  20.0519310  43.3149310
   4.1249310  18.7349310  43.6569310   3.6789310  19.4449310  43.9039310
  13.6139310  27.1489310  43.4099310  14.4669310  26.8079310  43.1399310
  13.6359310  27.1199310  44.3659310  13.7259310  27.1009310  43.4969310
  15.6899310  17.1749310  42.9179310  15.0939310  16.8249310  43.5799310
  16.4079310  16.5429310  42.8829310  15.7059310  17.0499310  42.9979310
  11.7599310  27.8199310  38.6249310  12.1559310  28.1609310  39.4269310
  12.2509310  28.2389310  37.9179310  11.8729310  27.9169310  38.6369310
  11.9539310  34.1759310  48.0619310  11.4809310  35.0089310  48.0549310
  11.4229310  33.5949310  47.5179310  11.8249310  34.2079310  47.9919310
   4.0659310  18.8469310  30.0459310   4.2939310  18.8189310  30.9749310
   3.4369310  18.1349310  29.9329310   4.0149310  18.7519310  30.1509310
   6.2299310  30.4769310  23.4689310   6.0559310  30.6379310  24.3969310
   5.4649310  29.9909310  23.1629310   6.1099310  30.4349310  23.5489310
   2.8009310  25.3739310  18.7999310   2.6469310  25.8309310  19.6269310
   3.5129310  24.7639310  18.9919310   2.8719310  25.3539310  18.9299310
   6.1959310  20.5829310  29.4049310   5.5929310  19.9419310  29.7799310
   6.9849310  20.5139310  29.9429310   6.2199310  20.4929310  29.5219310
   6.7339310  17.0199310  35.6829310   7.6259310  16.7909310  35.4189310
   6.2119310  16.8989310  34.8899310   6.7819310  16.9759310  35.5479310
   4.3989310  33.4199310  20.4519310   3.5999310  32.8929310  20.4619310
   4.7429310  33.3169310  19.5649310   4.3409310  33.3389310  20.3399310
   8.6189310  20.4089310  30.6729310   8.7969310  19.5269310  30.9989310
   8.9379310  20.9889310  31.3649310   8.6829310  20.3699310  30.8039310
   8.3069310  28.4049310  22.9189310   7.8809310  27.7979310  22.3149310
   7.6439310  29.0719310  23.0969310   8.1679310  28.4129310  22.8649310
  14.0589310  19.0369310  22.1719310  14.1269310  18.0899310  22.0479310
  14.9279310  19.3019310  22.4729310  14.1789310  18.9499310  22.1949310
  15.1779310  23.3279310  24.0129310  14.3989310  23.4379310  24.5579310
  15.5219310  24.2139310  23.9039310  15.1219310  23.4549310  24.0689310
   6.2739310  19.4559310  18.1609310   6.0079310  18.9929310  18.9559310
   6.2899310  18.7789310  17.4849310   6.2419310  19.3099310  18.1769310
   6.5089310  26.6439310  31.4449310   6.3809310  25.7789310  31.8339310
   6.9519310  26.4689310  30.6139310   6.5489310  26.5109310  31.3879310
   9.3849310  27.5959310  18.4639310  10.1549310  27.6169310  19.0309310
   9.7039310  27.2289310  17.6399310   9.5239310  27.5519310  18.4309310
  13.4459310  19.2629310  19.2989310  13.5779310  19.1189310  20.2359310
  12.5779310  19.6619310  19.2389310  13.3519310  19.2949310  19.4119310
  10.0959310  30.9999310  23.7999310  10.2719310  31.8499310  23.3969310
   9.3369310  30.6629310  23.3259310  10.0219310  31.0659310  23.6879310
   9.8859310  34.3249310  25.0519310  10.4719310  35.0619310  24.8769310
   9.1039310  34.5109310  24.5329310   9.8609310  34.4429310  24.9629310
   2.2079310  21.5799310  23.5719310   1.8009310  21.5789310  22.7049310
   1.7219310  22.2429310  24.0629310   2.0939310  21.6649310  23.5239310
   8.6749310  22.4649310  32.5889310   9.2609310  22.7779310  33.2779310
   7.9489310  23.0899310  32.5889310   8.6569310  22.5849310  32.6769310
   6.2949310  22.9659310  22.1209310   5.4699310  22.9479310  21.6359310
   6.0439310  22.7799310  23.0259310   6.1569310  22.9399310  22.1749310
   3.4089310  32.6309310  26.7379310   3.1479310  32.2559310  27.5789310
   4.1399310  32.0859310  26.4489310   3.4689310  32.5129310  26.8079310
   5.5469310  33.0499310  18.0839310   6.0059310  32.2279310  18.2559310
   6.2449310  33.6899310  17.9449310   5.6949310  33.0269310  18.0879310
   4.2699310  23.5409310  27.0659310   5.1509310  23.8329310  27.2979310
   4.3559310  23.2069310  26.1729310   4.3939310  23.5359310  26.9809310
   3.8609310  33.0349310  34.5349310   4.4349310  32.9479310  35.2959310
   3.8189310  33.9769310  34.3729310   3.9289310  33.1439310  34.6109310
   8.5669310  19.3599310  25.2499310   7.6149310  19.2969310  25.3209310
   8.8949310  18.6319310  25.7779310   8.4869310  19.2589310  25.3269310
  13.6959310  27.3679310  27.3719310  14.1359310  27.8749310  28.0549310
  13.0239310  26.8709310  27.8379310  13.6669310  27.3689310  27.5189310
   4.2159310  26.8889310  34.4359310   4.0589310  25.9449310  34.3999310
   4.1269310  27.1809310  33.5289310   4.1839310  26.8049310  34.3149310
   8.4229310  30.1969310  18.5379310   8.7269310  29.3039310  18.6939310
   8.9499310  30.7369310  19.1269310   8.5289310  30.1519310  18.6329310
  11.0459310  20.6849310  19.1139310  11.1499310  21.0289310  20.0009310
  10.9159310  21.4609310  18.5689310  11.0429310  20.8279310  19.1579310
  13.6879310  21.5329310  26.4409310  14.5999310  21.5439310  26.7339310
  13.6879310  20.9479310  25.6829310  13.8049310  21.4589310  26.3819310
  11.5329310  25.8699310  28.2919310  10.6579310  25.6129310  28.0019310
  11.8849310  25.0869310  28.7159310  11.4659310  25.7369310  28.3089310
   3.2749310  17.8589310  17.1009310   3.6169310  17.8679310  17.9949310
   2.7899310  18.6809310  17.0229310   3.2569310  17.9659310  17.2049310
   5.8779310  22.3699310  24.7549310   5.9639310  21.5859310  25.2979310
   6.3179310  23.0569310  25.2549310   5.9449310  22.3579310  24.8879310
  14.5399310  19.9879310  34.0949310  13.6409310  19.6599310  34.0899310
  14.8649310  19.8109310  33.2129310  14.4659310  19.9229310  33.9819310
  12.9739310  16.5089310  18.9689310  13.1019310  17.4239310  18.7169310
  12.0249310  16.4139310  19.0539310  12.8689310  16.6139310  18.9479310
   9.0039310  30.3939310  33.2249310   9.5859310  30.2299310  33.9659310
   8.4109310  31.0799310  33.5329310   9.0019310  30.4609310  33.3589310
   5.3059310  30.8579310  25.9639310   4.8259310  30.0499310  26.1409310
   6.0359310  30.8439310  26.5829310   5.3379310  30.7529310  26.0659310
  18.7179310  23.7749310  24.3479310  18.7319310  23.4619310  25.2529310
  18.6689310  24.7279310  24.4249310  18.7139310  23.8569310  24.4739310
   8.1109310  21.7109310  18.2309310   7.4849310  20.9869310  18.2549310
   8.3289310  21.8699310  19.1489310   8.0589310  21.6389310  18.3509310
   4.8489310  23.3589310  30.3509310   4.0039310  23.0389310  30.6679310
   5.3219310  22.5679310  30.0919310   4.8009310  23.2169310  30.3589310
   1.7759310  28.5449310  34.6849310   2.5869310  28.0569310  34.5429310
   1.5069310  28.8219310  33.8089310   1.8449310  28.5179310  34.5539310
  14.5769310  19.2259310  31.5259310  13.7109310  19.0619310  31.1549310
  15.1589310  18.6339310  31.0479310  14.5409310  19.1289310  31.4169310
   4.0379310  27.5849310  31.7129310   4.9179310  27.2119310  31.6609310
   3.4999310  27.0039310  31.1759310   4.0819310  27.4629310  31.6379310
  13.0269310  31.2959310  30.0699310  12.6759310  31.1929310  30.9549310
  13.1749310  32.2379310  29.9799310  13.0009310  31.4029310  30.1719310
  12.4079310  20.3929310  23.8199310  13.1039310  20.0069310  23.2869310
  11.7979310  19.6709310  23.9749310  12.4189310  20.2509310  23.7709310
  10.4819310  25.8419310  31.3619310   9.9249310  25.4479310  30.6899310
   9.9059310  26.4519310  31.8219310  10.3369310  25.8699310  31.3349310
  14.3959310  25.1029310  34.5559310  13.5729310  25.4429310  34.2069310
  14.2519310  25.0469310  35.5009310  14.2729310  25.1389310  34.6319310
   8.3089310  21.8289310  20.8949310   7.4859310  22.1119310  21.2909310
   8.9869310  22.2149310  21.4499310   8.2909310  21.9139310  21.0169310
  10.3279310  26.9299310  24.4429310  10.8729310  27.4309310  25.0499310
   9.6339310  27.5369310  24.1859310  10.3089310  27.0709310  24.4879310
   7.7819310  25.0399310  21.1149310   7.1099310  24.3589310  21.1449310
   7.8609310  25.2569310  20.1859310   7.7059310  24.9809310  20.9999310
   8.9679310  34.0189310  30.2329310   8.4189310  33.9499310  29.4529310
   9.3319310  33.1419310  30.3489310   8.9449310  33.8979310  30.1479310
   3.4019310  24.0139310  34.1839310   3.2869310  23.7299310  33.2769310
   2.5109310  24.1169310  34.5169310   3.2729310  23.9909310  34.1099310
   2.4469310  22.3409310  29.0299310   1.8569310  21.6019310  28.8779310
   3.0589310  22.3129310  28.2949310   2.4499310  22.2429310  28.9159310
   3.8319310  28.5329310  27.0619310   3.7919310  27.5779310  27.0249310
   3.3769310  28.7609310  27.8719310   3.7689310  28.4399310  27.1609310
  11.7969310  25.1859310  33.7439310  11.1059310  24.5459310  33.9119310
  11.5889310  25.5419310  32.8809310  11.6819310  25.1489310  33.6549310
   5.1619310  27.4689310  18.1699310   4.7789310  27.1599310  17.3489310
   5.4009310  28.3799310  17.9949310   5.1439310  27.5459310  18.0429310
   3.9889310  17.7389310  19.8519310   4.2339310  16.8639310  20.1529310
   3.7739310  18.2159310  20.6529310   3.9929310  17.6879310  19.9929310
   9.2209310  19.4879310  22.3899310   8.9269310  20.2029310  21.8259310
   8.9499310  19.7489310  23.2699310   9.1489310  19.6129310  22.4299310
   7.6749310  31.1439310  27.4719310   7.6109310  30.6239310  28.2739310
   8.2199310  31.8929310  27.7149310   7.7359310  31.1729310  27.6059310
   2.7959310  26.3569310  21.1749310   3.6189310  26.8429310  21.1369310
   2.8469310  25.8619310  21.9919310   2.9079310  26.3559310  21.2739310
   5.0909310  27.9939310  21.1769310   4.5679310  28.6969310  21.5629310
   5.1029310  28.1899310  20.2409310   5.0259310  28.1089310  21.1069310
  12.1339310  22.8609310  17.3409310  12.6119310  22.5079310  16.5919310
  12.6359310  23.6329310  17.6039310  12.2589310  22.9149310  17.2789310
   4.9359310  30.0369310  30.7459310   4.1529310  30.4429310  30.3769310
   4.6479310  29.1659310  31.0189310   4.7989310  29.9769310  30.7339310
  13.9859310  13.9409310  26.7399310  14.1319310  14.3459310  27.5949310
  13.0409310  14.0089310  26.6009310  13.8839310  14.0009310  26.8319310
   3.9619310  25.9939310  29.2249310   4.2869310  25.1909310  29.6319310
   3.0929310  25.7619310  28.8989310   3.8919310  25.8619310  29.2349310
  10.0739310  24.0759310  24.4539310  10.5719310  23.8689310  23.6629310
  10.2579310  25.0009310  24.6179310  10.1609310  24.1679310  24.3739310
   4.6989310  22.8219310  18.1949310   4.2179310  22.0049310  18.0639310
   5.1329310  22.9809310  17.3569310   4.6929310  22.7379310  18.0709310
   7.3949310  24.6719310  25.0769310   6.9879310  25.4319310  24.6609310
   8.2569310  24.6069310  24.6669310   7.4529310  24.7609310  24.9709310
  11.9319310  25.9109310  22.5589310  12.6059310  26.3229310  23.0989310
  11.1219310  26.3569310  22.8049310  11.9149310  26.0209310  22.6589310
  10.3889310  20.4119310  28.6009310   9.9349310  20.8539310  27.8829310
   9.8469310  20.5869310  29.3699310  10.2619310  20.4909310  28.6069310
  15.5539310  25.3399310  27.5449310  15.1649310  24.8659310  28.2809310
  15.0189310  26.1289310  27.4589310  15.4359310  25.3799310  27.6279310
   8.9279310  21.8879310  26.4109310   9.5539310  22.3379310  25.8439310
   8.7859310  21.0409310  25.9869310   8.9899310  21.8369310  26.2839310
   7.4629310  29.7649310  29.9099310   7.8559310  30.5859310  30.2059310
   6.5499310  29.8199310  30.1919310   7.3969310  29.8769310  29.9839310
   8.9519310  18.6329310  19.1669310   8.1929310  18.8809310  18.6389310
   9.5069310  19.4129310  19.1679310   8.9259310  18.7649310  19.0999310
  11.0739310  17.8169310  23.6799310  10.4119310  18.2229310  23.1199310
  11.7689310  17.5539310  23.0769310  11.0779310  17.8359310  23.5309310
  12.6869310  23.0489310  29.0589310  12.4219310  22.3969310  29.7089310
  12.9059310  22.5359310  28.2809310  12.6809310  22.8999310  29.0429310
   3.4329310  24.8419310  23.2839310   3.6209310  24.0899310  22.7219310
   4.2889310  25.2329310  23.4539310   3.5659310  24.7959310  23.2339310
   5.0889310  19.7019310  32.5239310   6.0109310  19.7779310  32.7679310
   4.6369310  20.3189310  33.0989310   5.1489310  19.7899310  32.6279310
   2.0799310  16.7119310  25.4429310   2.2509310  17.6329310  25.6419310
   2.6459310  16.2279310  26.0439310   2.1739310  16.7679310  25.5449310
   5.8829310  30.0489310  17.5669310   6.7269310  30.0109310  18.0179310
   6.1059310  30.2539310  16.6589310   6.0199310  30.0699310  17.5089310
   2.9339310  25.8389310  25.8359310   3.1909310  25.4209310  25.0139310
   3.0179310  25.1469310  26.4919310   2.9779310  25.6969310  25.8149310
  10.2459310  30.2939310  26.2949310  10.3439310  30.5409310  25.3749310
   9.3919310  30.6439310  26.5469310  10.1489310  30.3699310  26.2099310
   7.6359310  34.7079310  23.6339310   7.4509310  33.8809310  23.1879310
   7.3239310  35.3809310  23.0289310   7.5719310  34.6879310  23.4989310
  13.7399310  16.5779310  35.2589310  13.1989310  16.0629310  35.8569310
  13.2759310  17.4109310  35.1719310  13.6119310  16.6189310  35.3249310
   9.2239310  33.9429310  16.7239310   9.3819310  34.7819310  16.2909310
   9.4859310  34.0899310  17.6329310   9.2779310  34.0689310  16.7849310
  11.3339310  32.7199310  26.8339310  10.7899310  33.3199310  26.3229310
  10.9429310  31.8589310  26.6879310  11.2149310  32.6869310  26.7499310
  15.1089310  24.1289310  30.4569310  14.2129310  23.8039310  30.3699310
  15.0089310  25.0239310  30.7819310  14.9809310  24.2019310  30.4879310
   5.4259310  35.0879310  25.8069310   5.3919310  34.4009310  26.4719310
   5.9019310  34.6929310  25.0769310   5.4819310  34.9499310  25.7989310
   7.3049310  25.8159310  18.4949310   8.0349310  26.4359310  18.4839310
   6.5229310  26.3669310  18.4639310   7.2979310  25.9659310  18.4889310
   6.9369310  23.1969310  27.6109310   6.4879310  22.4429310  27.9929310
   7.6589310  22.8169310  27.1109310   6.9719310  23.0519310  27.5959310
   8.4719310  27.3209310  29.3229310   8.1959310  28.1449310  29.7249310
   9.4229310  27.3079310  29.4319310   8.5589310  27.4249310  29.3879310
   3.9599310  19.9339310  21.5939310   3.8119310  20.8769310  21.5159310
   3.1679310  19.6019310  22.0179310   3.8399310  20.0119310  21.6379310
   7.8279310  34.5439310  27.5719310   8.6179310  35.0819310  27.5179310
   7.2279310  34.9359310  26.9379310   7.8519310  34.6629310  27.4839310
   7.6109310  20.2779310  34.0129310   7.1449310  20.8759310  34.5969310
   8.2059310  20.8419310  33.5179310   7.6269310  20.4259310  34.0239310
   3.2159310  20.4229310  18.1889310   2.2989310  20.2079310  18.3549310
   3.6909310  20.0349310  18.9239310   3.1589310  20.3459310  18.3039310
  10.8179310  33.1739310  22.4239310  10.4499310  33.7549310  23.0889310
  11.7089310  33.4969310  22.2899310  10.8849310  33.2899310  22.4919310
   8.9229310  25.6109310  27.4089310   8.6549310  26.2539310  28.0659310
   8.1239310  25.4289310  26.9129310   8.7859310  25.6699310  27.4289310
   8.8999310  23.9449310  29.9709310   8.7369310  24.2539310  29.0799310
   8.0389310  23.6809310  30.2939310   8.7689310  23.9509310  29.8989310
   9.1219310  18.1659310  34.1089310   9.1189310  17.8759310  33.1969310
   8.4499310  18.8469310  34.1459310   9.0349310  18.2159310  33.9969310
   8.8319310  27.6079310  32.5069310   8.0139310  27.4519310  32.0359310
   8.8799310  28.5599310  32.5959310   8.7339310  27.7099310  32.4579310
  13.1819310  22.3039310  33.7379310  13.8949310  21.6719310  33.8329310
  13.6219310  23.1409310  33.5919310  13.3289310  22.3299310  33.7309310
   2.3069310  28.2429310  24.3659310   2.2199310  29.0229310  24.9149310
   2.3789310  27.5189310  24.9889310   2.3049310  28.2499310  24.5159310
   2.4089310  23.3839310  31.5499310   2.3179310  23.2639310  30.6049310
   1.6849310  23.9619310  31.7879310   2.3049310  23.4429310  31.4589310
   3.4909310  16.8999310  23.0019310   3.0859310  16.5689310  23.8039310
   3.5979310  16.1259310  22.4499310   3.4529310  16.7589310  23.0339310
   4.0339310  22.9459310  20.8879310   4.4069310  22.8809310  20.0089310
   3.1289310  22.6499310  20.7869310   3.9659310  22.8989310  20.7629310
   3.7329310  30.1029310  19.3219310   3.0009310  29.6139310  18.9459310
   4.3929310  30.1159310  18.6299310   3.7229310  30.0419310  19.1859310
   6.1789310  19.8429310  23.2729310   5.3269310  19.7049310  22.8609310
   6.2289310  20.7899310  23.4089310   6.0769310  19.9469310  23.2379310
   7.2239310  23.5139310  16.5119310   7.2049310  24.1639310  17.2139310
   7.5789310  22.7259310  16.9239310   7.2669310  23.4969310  16.6539310
  12.2069310  18.7639310  33.9329310  12.2679310  18.4169310  33.0429310
  11.2669310  18.8119310  34.1069310  12.0939310  18.7259310  33.8409310
   2.5939310  30.8119310  29.2909310   2.0239310  31.4989310  29.6379310
   2.1419310  29.9959310  29.5049310   2.4629310  30.7959310  29.3629310
   6.8969310  18.0169310  21.3639310   6.6719310  18.8019310  21.8629310
   7.7959310  18.1689310  21.0719310   6.9839310  18.1369310  21.3909310
  12.3239310  17.7369310  26.2339310  13.1949310  17.3439310  26.2909310
  12.2249310  17.9679310  25.3109310  12.4229310  17.7159310  26.1229310
   9.2319310  18.0039310  31.3679310   8.9719310  17.2279310  30.8709310
  10.1879310  18.0089310  31.3199310   9.3209310  17.9049310  31.2979310
  12.3489310  21.6019310  21.4819310  12.1279310  21.3519310  22.3799310
  13.1649310  21.1359310  21.2989310  12.4249310  21.5099310  21.5739310
  10.1949310  31.3649310  16.6289310   9.7949310  32.2329310  16.6789310
   9.7189310  30.8439310  17.2759310  10.0829310  31.4099310  16.7179310
   6.1519310  20.1519310  26.6489310   5.3009310  19.7209310  26.5619310
   6.2509310  20.2989310  27.5899310   6.0549310  20.1159310  26.7579310
   4.7829310  17.1729310  33.7999310   4.2299310  17.4839310  34.5159310
   4.8439310  17.9189310  33.2029310   4.7199310  17.3079310  33.8149310
   3.5739310  29.6859310  22.4849310   2.9379310  29.2309310  23.0359310
   3.0859310  30.4199310  22.1119310   3.4309310  29.7219310  22.5079310
   9.4519310  31.3569310  30.6899310   9.2489310  31.0469310  31.5719310
   9.9659310  30.6489310  30.2999310   9.4919310  31.2259310  30.7529310
  12.0969310  28.9589310  33.3369310  11.4569310  28.4259310  33.8089310
  12.0589310  28.6359310  32.4359310  12.0099310  28.8489310  33.2819310
   5.8639310  31.3269310  33.4719310   5.4769310  30.9619310  32.6759310
   5.2159310  31.9559310  33.7869310   5.7309310  31.3599310  33.4109310
   2.2899310  19.5649310  27.5189310   2.7419310  18.9859310  28.1329310
   2.8529310  19.5799310  26.7459310   2.4199310  19.4929310  27.4989310
  10.1179310  36.2969310  27.7049310  10.8929310  36.1409310  27.1659310
  10.0869310  37.2479310  27.8109310  10.2129310  36.3989310  27.6499310
   6.6879310  32.7089310  21.9339310   6.4499310  31.8959310  22.3779310
   5.8829310  32.9869310  21.4969310   6.5549310  32.6409310  21.9349310
  11.8809310  32.1289310  33.2409310  12.1509310  31.2249310  33.4009310
  10.9289310  32.1159310  33.3419310  11.7939310  32.0119310  33.2749310
  12.1909310  27.8349310  30.9379310  11.5809310  27.0989310  30.9939310
  11.7589310  28.4589310  30.3549310  12.0579310  27.8199310  30.8709310
   4.3249310  21.5229310  34.4909310   3.5599310  21.1259310  34.9089310
   4.0709310  22.4339310  34.3429310   4.1939310  21.5889310  34.5259310
  10.1529310  23.6149310  21.9029310  10.7729310  24.0589310  21.3239310
   9.3429310  24.1189310  21.8179310  10.1289310  23.7369310  21.8179310
   2.4449310  31.7509310  21.1349310   1.7449310  32.1489310  20.6179310
   2.8769310  31.1479310  20.5289310   2.4109310  31.7249310  20.9909310
  11.0459310  29.6939310  28.9569310  10.8729310  29.6169310  28.0189310
  11.8289310  30.2409310  29.0119310  11.1239310  29.7539310  28.8439310
   5.8639310  26.0779310  23.2759310   6.3779310  25.4779310  22.7359310
   5.5899310  26.7679310  22.6719310   5.8939310  26.0889310  23.1299310
  12.8919310  34.6449310  32.5669310  13.3009310  34.8169310  33.4149310
  12.6229310  33.7279310  32.6119310  12.9099310  34.5499310  32.6809310
  11.9059310  19.3069310  30.8349310  11.6189310  20.1329310  31.2259310
  11.6829310  19.3909310  29.9079310  11.8399310  19.4239310  30.7669310
  15.9209310  20.6429310  23.3209310  16.5029310  21.1279310  22.7349310
  15.3549310  21.3129310  23.7039310  15.9229310  20.7909310  23.2949310
  10.2999310  27.4189310  34.6289310   9.4889310  27.4569310  34.1219310
  10.6639310  26.5559310  34.4339310  10.2429310  27.3139310  34.5389310
   3.6399310  19.4619310  25.1869310   3.4619310  20.0519310  24.4549310
   4.1249310  18.7349310  24.7969310   3.6789310  19.4449310  25.0439310
  13.6139310  27.1489310  24.5499310  14.4669310  26.8079310  24.2799310
  13.6359310  27.1199310  25.5059310  13.7259310  27.1009310  24.6369310
   6.5439310  24.0599310  32.4549310   5.7899310  23.7299310  31.9659310
   6.3429310  23.8619310  33.3689310   6.4219310  23.9919310  32.5089310
  10.0939310  23.3829310  34.5239310   9.3099310  23.3439310  35.0719310
  10.7309310  22.8319310  34.9779310  10.0749310  23.3079310  34.6519310
  15.6899310  17.1749310  24.0579310  15.0939310  16.8249310  24.7199310
  16.4079310  16.5429310  24.0229310  15.7059310  17.0499310  24.1379310
  11.7599310  27.8199310  19.7649310  12.1559310  28.1609310  20.5669310
  12.2509310  28.2389310  19.0579310  11.8729310  27.9169310  19.7769310
  11.4889310  21.9059310  31.7269310  12.1819310  22.0999310  32.3589310
  10.8529310  22.6119310  31.8449310  11.4959310  22.0209310  31.8229310
  11.9539310  34.1759310  29.2019310  11.4809310  35.0089310  29.1949310
  11.4229310  33.5949310  28.6579310  11.8249310  34.2079310  29.1319310
   4.0659310  18.8469310  11.1859310   4.2939310  18.8189310  12.1149310
   3.4369310  18.1349310  11.0729310   4.0149310  18.7519310  11.2909310
   6.2299310  30.4769310   4.6089310   6.0559310  30.6379310   5.5369310
   5.4649310  29.9909310   4.3029310   6.1099310  30.4349310   4.6889310
   6.1959310  20.5829310  10.5449310   5.5929310  19.9419310  10.9199310
   6.9849310  20.5139310  11.0829310   6.2199310  20.4929310  10.6619310
   6.7339310  17.0199310  16.8229310   7.6259310  16.7909310  16.5589310
   6.2119310  16.8989310  16.0299310   6.7819310  16.9759310  16.6879310
   8.6189310  20.4089310  11.8129310   8.7969310  19.5269310  12.1389310
   8.9379310  20.9889310  12.5049310   8.6829310  20.3699310  11.9439310
   8.3069310  28.4049310   4.0589310   7.8809310  27.7979310   3.4549310
   7.6439310  29.0719310   4.2369310   8.1679310  28.4129310   4.0049310
  14.0589310  19.0369310   3.3119310  14.1269310  18.0899310   3.1879310
  14.9279310  19.3019310   3.6129310  14.1789310  18.9499310   3.3349310
  15.1779310  23.3279310   5.1529310  14.3989310  23.4379310   5.6979310
  15.5219310  24.2139310   5.0439310  15.1219310  23.4549310   5.2089310
   6.5089310  26.6439310  12.5849310   6.3809310  25.7789310  12.9739310
   6.9519310  26.4689310  11.7539310   6.5489310  26.5109310  12.5279310
  10.0959310  30.9999310   4.9399310  10.2719310  31.8499310   4.5369310
   9.3369310  30.6629310   4.4659310  10.0219310  31.0659310   4.8279310
   9.8859310  34.3249310   6.1919310  10.4719310  35.0619310   6.0169310
   9.1039310  34.5109310   5.6729310   9.8609310  34.4429310   6.1029310
   2.2079310  21.5799310   4.7119310   1.8009310  21.5789310   3.8449310
   1.7219310  22.2429310   5.2029310   2.0939310  21.6649310   4.6639310
   8.6749310  22.4649310  13.7289310   9.2609310  22.7779310  14.4179310
   7.9489310  23.0899310  13.7289310   8.6569310  22.5849310  13.8169310
   6.2949310  22.9659310   3.2609310   5.4699310  22.9479310   2.7759310
   6.0439310  22.7799310   4.1659310   6.1569310  22.9399310   3.3149310
   3.4089310  32.6309310   7.8779310   3.1479310  32.2559310   8.7189310
   4.1399310  32.0859310   7.5889310   3.4689310  32.5129310   7.9479310
   4.2699310  23.5409310   8.2059310   5.1509310  23.8329310   8.4379310
   4.3559310  23.2069310   7.3129310   4.3939310  23.5359310   8.1209310
   3.8609310  33.0349310  15.6749310   4.4349310  32.9479310  16.4359310
   3.8189310  33.9769310  15.5129310   3.9289310  33.1439310  15.7509310
   8.5669310  19.3599310   6.3899310   7.6149310  19.2969310   6.4609310
   8.8949310  18.6319310   6.9179310   8.4869310  19.2589310   6.4669310
  14.9109310  29.1359310  10.7399310  14.1969310  29.7409310  10.5409310
  15.6269310  29.6989310  11.0369310  14.9119310  29.2849310  10.7529310
   4.2159310  26.8889310  15.5759310   4.0589310  25.9449310  15.5399310
   4.1269310  27.1809310  14.6689310   4.1839310  26.8049310  15.4549310
  13.6879310  21.5329310   7.5809310  14.5999310  21.5439310   7.8739310
  13.6879310  20.9479310   6.8229310  13.8049310  21.4589310   7.5219310
  11.5329310  25.8699310   9.4319310  10.6579310  25.6129310   9.1419310
  11.8849310  25.0869310   9.8559310  11.4659310  25.7369310   9.4489310
   5.8779310  22.3699310   5.8949310   5.9639310  21.5859310   6.4379310
   6.3179310  23.0569310   6.3949310   5.9449310  22.3579310   6.0279310
   9.0039310  30.3939310  14.3649310   9.5859310  30.2299310  15.1059310
   8.4109310  31.0799310  14.6729310   9.0019310  30.4609310  14.4989310
   5.3059310  30.8579310   7.1039310   4.8259310  30.0499310   7.2809310
   6.0359310  30.8439310   7.7229310   5.3379310  30.7529310   7.2059310
  18.7179310  23.7749310   5.4879310  18.7319310  23.4619310   6.3929310
  18.6689310  24.7279310   5.5649310  18.7139310  23.8569310   5.6139310
   4.8489310  23.3589310  11.4909310   4.0039310  23.0389310  11.8079310
   5.3219310  22.5679310  11.2319310   4.8009310  23.2169310  11.4989310
   1.7759310  28.5449310  15.8249310   2.5869310  28.0569310  15.6829310
   1.5069310  28.8219310  14.9489310   1.8449310  28.5179310  15.6939310
  14.5769310  19.2259310  12.6659310  13.7109310  19.0619310  12.2949310
  15.1589310  18.6339310  12.1879310  14.5409310  19.1289310  12.5569310
   4.0379310  27.5849310  12.8529310   4.9179310  27.2119310  12.8009310
   3.4999310  27.0039310  12.3159310   4.0819310  27.4629310  12.7779310
  13.0269310  31.2959310  11.2099310  12.6759310  31.1929310  12.0949310
  13.1749310  32.2379310  11.1199310  13.0009310  31.4029310  11.3119310
  12.4079310  20.3929310   4.9599310  13.1039310  20.0069310   4.4269310
  11.7979310  19.6709310   5.1149310  12.4189310  20.2509310   4.9109310
  10.4819310  25.8419310  12.5019310   9.9249310  25.4479310  11.8299310
   9.9059310  26.4519310  12.9619310  10.3369310  25.8699310  12.4749310
   8.3089310  21.8289310   2.0349310   7.4859310  22.1119310   2.4309310
   8.9869310  22.2149310   2.5899310   8.2909310  21.9139310   2.1569310
  10.3279310  26.9299310   5.5829310  10.8729310  27.4309310   6.1899310
   9.6339310  27.5369310   5.3259310  10.3089310  27.0709310   5.6279310
  13.0319310  24.1759310   1.7759310  12.9889310  24.7949310   2.5059310
  12.6659310  23.3649310   2.1279310  12.9799310  24.1519310   1.9149310
   8.9679310  34.0189310  11.3729310   8.4189310  33.9499310  10.5929310
   9.3319310  33.1419310  11.4889310   8.9449310  33.8979310  11.2879310
   3.4019310  24.0139310  15.3239310   3.2869310  23.7299310  14.4169310
   2.5109310  24.1169310  15.6569310   3.2729310  23.9909310  15.2499310
   2.4469310  22.3409310  10.1699310   1.8569310  21.6019310  10.0179310
   3.0589310  22.3129310   9.4349310   2.4499310  22.2429310  10.0559310
   3.8319310  28.5329310   8.2019310   3.7919310  27.5779310   8.1649310
   3.3769310  28.7609310   9.0119310   3.7689310  28.4399310   8.3009310
  11.7969310  25.1859310  14.8839310  11.1059310  24.5459310  15.0519310
  11.5889310  25.5419310  14.0209310  11.6819310  25.1489310  14.7949310
   9.2209310  19.4879310   3.5299310   8.9269310  20.2029310   2.9659310
   8.9499310  19.7489310   4.4099310   9.1489310  19.6129310   3.5699310
   7.6749310  31.1439310   8.6119310   7.6109310  30.6239310   9.4139310
   8.2199310  31.8929310   8.8549310   7.7359310  31.1729310   8.7459310
  13.1739310  30.0399310   5.2309310  12.2589310  30.0499310   4.9479310
  13.2959310  29.1719310   5.6159310  13.0719310  29.9299310   5.2439310
   2.7959310  26.3569310   2.3149310   3.6189310  26.8429310   2.2769310
   2.8469310  25.8619310   3.1319310   2.9079310  26.3559310   2.4139310
   4.9359310  30.0369310  11.8859310   4.1529310  30.4429310  11.5169310
   4.6479310  29.1659310  12.1589310   4.7989310  29.9769310  11.8739310
  13.9859310  13.9409310   7.8799310  14.1319310  14.3459310   8.7349310
  13.0409310  14.0089310   7.7409310  13.8839310  14.0009310   7.9719310
   3.9619310  25.9939310  10.3649310   4.2869310  25.1909310  10.7719310
   3.0929310  25.7619310  10.0389310   3.8919310  25.8619310  10.3749310
  10.0739310  24.0759310   5.5939310  10.5719310  23.8689310   4.8029310
  10.2579310  25.0009310   5.7579310  10.1609310  24.1679310   5.5139310
  14.7619310  34.8479310   7.6619310  14.6149310  33.9049310   7.7429310
  15.4159310  35.0459310   8.3329310  14.8269310  34.7519310   7.7579310
  16.0949310  31.1259310   6.4479310  15.2509310  31.5389310   6.6319310
  15.9629310  30.2039310   6.6659310  15.9699310  31.0609310   6.4989310
   7.3949310  24.6719310   6.2169310   6.9879310  25.4319310   5.8009310
   8.2569310  24.6069310   5.8069310   7.4529310  24.7609310   6.1109310
  11.9319310  25.9109310   3.6989310  12.6059310  26.3229310   4.2389310
  11.1219310  26.3569310   3.9449310  11.9149310  26.0209310   3.7989310
  10.3889310  20.4119310   9.7409310   9.9349310  20.8539310   9.0229310
   9.8469310  20.5869310  10.5099310  10.2619310  20.4909310   9.7469310
  15.5539310  25.3399310   8.6849310  15.1649310  24.8659310   9.4209310
  15.0189310  26.1289310   8.5989310  15.4359310  25.3799310   8.7679310
   8.9279310  21.8879310   7.5509310   9.5539310  22.3379310   6.9839310
   8.7859310  21.0409310   7.1269310   8.9899310  21.8369310   7.4239310
   7.4629310  29.7649310  11.0499310   7.8559310  30.5859310  11.3459310
   6.5499310  29.8199310  11.3319310   7.3969310  29.8769310  11.1239310
  11.0739310  17.8169310   4.8199310  10.4119310  18.2229310   4.2599310
  11.7689310  17.5539310   4.2169310  11.0779310  17.8359310   4.6709310
  12.6869310  23.0489310  10.1989310  12.4219310  22.3969310  10.8489310
  12.9059310  22.5359310   9.4209310  12.6809310  22.8999310  10.1829310
   3.4329310  24.8419310   4.4239310   3.6209310  24.0899310   3.8619310
   4.2889310  25.2329310   4.5939310   3.5659310  24.7959310   4.3739310
   5.0889310  19.7019310  13.6639310   6.0109310  19.7779310  13.9079310
   4.6369310  20.3189310  14.2389310   5.1489310  19.7899310  13.7679310
   2.0799310  16.7119310   6.5829310   2.2509310  17.6329310   6.7819310
   2.6459310  16.2279310   7.1839310   2.1739310  16.7679310   6.6849310
   2.9339310  25.8389310   6.9759310   3.1909310  25.4209310   6.1539310
   3.0179310  25.1469310   7.6319310   2.9779310  25.6969310   6.9549310
  10.2459310  30.2939310   7.4349310  10.3439310  30.5409310   6.5149310
   9.3919310  30.6439310   7.6869310  10.1489310  30.3699310   7.3499310
   7.6359310  34.7079310   4.7739310   7.4509310  33.8809310   4.3279310
   7.3239310  35.3809310   4.1689310   7.5719310  34.6879310   4.6389310
  13.7399310  16.5779310  16.3989310  13.1989310  16.0629310  16.9969310
  13.2759310  17.4109310  16.3119310  13.6119310  16.6189310  16.4649310
  11.3339310  32.7199310   7.9739310  10.7899310  33.3199310   7.4629310
  10.9429310  31.8589310   7.8279310  11.2149310  32.6869310   7.8899310
  15.1089310  24.1289310  11.5969310  14.2129310  23.8039310  11.5099310
  15.0089310  25.0239310  11.9219310  14.9809310  24.2019310  11.6279310
   5.4259310  35.0879310   6.9469310   5.3919310  34.4009310   7.6119310
   5.9019310  34.6929310   6.2169310   5.4819310  34.9499310   6.9389310
   6.9369310  23.1969310   8.7509310   6.4879310  22.4429310   9.1329310
   7.6589310  22.8169310   8.2509310   6.9719310  23.0519310   8.7359310
   8.4719310  27.3209310  10.4629310   8.1959310  28.1449310  10.8649310
   9.4229310  27.3079310  10.5719310   8.5589310  27.4249310  10.5279310
   3.9599310  19.9339310   2.7339310   3.8119310  20.8769310   2.6559310
   3.1679310  19.6019310   3.1579310   3.8399310  20.0119310   2.7779310
   7.8279310  34.5439310   8.7119310   8.6179310  35.0819310   8.6579310
   7.2279310  34.9359310   8.0779310   7.8519310  34.6629310   8.6239310
   7.6109310  20.2779310  15.1529310   7.1449310  20.8759310  15.7369310
   8.2059310  20.8419310  14.6579310   7.6269310  20.4259310  15.1639310
  10.8179310  33.1739310   3.5639310  10.4499310  33.7549310   4.2289310
  11.7089310  33.4969310   3.4299310  10.8849310  33.2899310   3.6319310
   8.9229310  25.6109310   8.5489310   8.6549310  26.2539310   9.2059310
   8.1239310  25.4289310   8.0529310   8.7859310  25.6699310   8.5689310
   8.8999310  23.9449310  11.1109310   8.7369310  24.2539310  10.2199310
   8.0389310  23.6809310  11.4339310   8.7689310  23.9509310  11.0389310
   9.1219310  18.1659310  15.2489310   9.1189310  17.8759310  14.3369310
   8.4499310  18.8469310  15.2859310   9.0349310  18.2159310  15.1369310
   8.8319310  27.6079310  13.6469310   8.0139310  27.4519310  13.1759310
   8.8799310  28.5599310  13.7359310   8.7339310  27.7099310  13.5979310
  14.6549310  33.5809310  10.4469310  14.9369310  33.4849310  11.3569310
  13.8739310  34.1319310  10.4959310  14.5909310  33.6389310  10.5699310
   2.3069310  28.2429310   5.5059310   2.2199310  29.0229310   6.0549310
   2.3789310  27.5189310   6.1289310   2.3049310  28.2499310   5.6559310
   2.4089310  23.3839310  12.6899310   2.3179310  23.2639310  11.7449310
   1.6849310  23.9619310  12.9279310   2.3049310  23.4429310  12.5989310
   3.4909310  16.8999310   4.1419310   3.0859310  16.5689310   4.9439310
   3.5979310  16.1259310   3.5899310   3.4529310  16.7589310   4.1739310
  14.5759310  32.3589310   3.8819310  14.6459310  31.7299310   4.5989310
  14.6419310  31.8269310   3.0889310  14.5929310  32.2109310   3.8719310
   6.1789310  19.8429310   4.4129310   5.3269310  19.7049310   4.0009310
   6.2289310  20.7899310   4.5489310   6.0769310  19.9469310   4.3779310
  12.2069310  18.7639310  15.0729310  12.2679310  18.4169310  14.1829310
  11.2669310  18.8119310  15.2469310  12.0939310  18.7259310  14.9809310
   2.5939310  30.8119310  10.4309310   2.0239310  31.4989310  10.7779310
   2.1419310  29.9959310  10.6449310   2.4629310  30.7959310  10.5029310
   6.8969310  18.0169310   2.5039310   6.6719310  18.8019310   3.0029310
   7.7959310  18.1689310   2.2119310   6.9839310  18.1369310   2.5309310
  12.3239310  17.7369310   7.3739310  13.1949310  17.3439310   7.4309310
  12.2249310  17.9679310   6.4509310  12.4229310  17.7159310   7.2629310
   9.2319310  18.0039310  12.5079310   8.9719310  17.2279310  12.0109310
  10.1879310  18.0089310  12.4599310   9.3209310  17.9049310  12.4379310
  12.3489310  21.6019310   2.6219310  12.1279310  21.3519310   3.5199310
  13.1649310  21.1359310   2.4389310  12.4249310  21.5099310   2.7139310
   6.1519310  20.1519310   7.7889310   5.3009310  19.7209310   7.7019310
   6.2509310  20.2989310   8.7299310   6.0549310  20.1159310   7.8979310
   4.7829310  17.1729310  14.9399310   4.2299310  17.4839310  15.6559310
   4.8439310  17.9189310  14.3429310   4.7199310  17.3079310  14.9549310
   3.5739310  29.6859310   3.6249310   2.9379310  29.2309310   4.1759310
   3.0859310  30.4199310   3.2519310   3.4309310  29.7219310   3.6479310
   9.4519310  31.3569310  11.8299310   9.2489310  31.0469310  12.7119310
   9.9659310  30.6489310  11.4399310   9.4919310  31.2259310  11.8929310
  12.0969310  28.9589310  14.4769310  11.4569310  28.4259310  14.9489310
  12.0589310  28.6359310  13.5759310  12.0099310  28.8489310  14.4219310
   5.8639310  31.3269310  14.6119310   5.4769310  30.9619310  13.8159310
   5.2159310  31.9559310  14.9269310   5.7309310  31.3599310  14.5509310
  14.7639310  26.7959310  12.2939310  13.8729310  27.0119310  12.5719310
  15.0409310  27.5489310  11.7719310  14.6849310  26.9199310  12.2629310
  13.8319310  28.8179310   2.7259310  13.8539310  28.9339310   3.6759310
  14.0049310  29.6909310   2.3749310  13.8569310  28.9449310   2.8029310
  13.2069310  34.7579310   3.0329310  12.9429310  34.7229310   2.1139310
  13.8289310  34.0369310   3.1319310  13.2529310  34.6609310   2.9279310
   2.2899310  19.5649310   8.6589310   2.7419310  18.9859310   9.2729310
   2.8529310  19.5799310   7.8859310   2.4199310  19.4929310   8.6389310
  10.1179310  36.2969310   8.8449310  10.8929310  36.1409310   8.3059310
  10.0869310  37.2479310   8.9509310  10.2129310  36.3989310   8.7899310
   6.6879310  32.7089310   3.0739310   6.4499310  31.8959310   3.5179310
   5.8829310  32.9869310   2.6369310   6.5549310  32.6409310   3.0749310
  11.8809310  32.1289310  14.3809310  12.1509310  31.2249310  14.5409310
  10.9289310  32.1159310  14.4819310  11.7939310  32.0119310  14.4149310
  12.1909310  27.8349310  12.0779310  11.5809310  27.0989310  12.1339310
  11.7589310  28.4589310  11.4949310  12.0579310  27.8199310  12.0109310
   4.3249310  21.5229310  15.6309310   3.5599310  21.1259310  16.0489310
   4.0709310  22.4339310  15.4829310   4.1939310  21.5889310  15.6659310
  10.1529310  23.6149310   3.0429310  10.7729310  24.0589310   2.4639310
   9.3429310  24.1189310   2.9579310  10.1289310  23.7369310   2.9579310
   2.4449310  31.7509310   2.2749310   1.7449310  32.1489310   1.7579310
   2.8769310  31.1479310   1.6689310   2.4109310  31.7249310   2.1309310
  11.0459310  29.6939310  10.0969310  10.8729310  29.6169310   9.1589310
  11.8289310  30.2409310  10.1519310  11.1239310  29.7539310   9.9839310
   5.8639310  26.0779310   4.4159310   6.3779310  25.4779310   3.8759310
   5.5899310  26.7679310   3.8119310   5.8939310  26.0889310   4.2699310
  11.9059310  19.3069310  11.9749310  11.6189310  20.1329310  12.3659310
  11.6829310  19.3909310  11.0479310  11.8399310  19.4239310  11.9069310
  15.9209310  20.6429310   4.4609310  16.5029310  21.1279310   3.8749310
  15.3549310  21.3129310   4.8439310  15.9229310  20.7909310   4.4349310
  10.2999310  27.4189310  15.7689310   9.4889310  27.4569310  15.2619310
  10.6639310  26.5559310  15.5739310  10.2429310  27.3139310  15.6789310
   3.6399310  19.4619310   6.3269310   3.4619310  20.0519310   5.5949310
   4.1249310  18.7349310   5.9369310   3.6789310  19.4449310   6.1839310
  13.6139310  27.1489310   5.6899310  14.4669310  26.8079310   5.4199310
  13.6359310  27.1199310   6.6459310  13.7259310  27.1009310   5.7769310
   6.5439310  24.0599310  13.5949310   5.7899310  23.7299310  13.1059310
   6.3429310  23.8619310  14.5089310   6.4219310  23.9919310  13.6489310
  10.0939310  23.3829310  15.6639310   9.3099310  23.3439310  16.2119310
  10.7309310  22.8319310  16.1179310  10.0749310  23.3079310  15.7919310
  15.6899310  17.1749310   5.1979310  15.0939310  16.8249310   5.8599310
  16.4079310  16.5429310   5.1629310  15.7059310  17.0499310   5.2779310
  11.4889310  21.9059310  12.8669310  12.1819310  22.0999310  13.4989310
  10.8529310  22.6119310  12.9849310  11.4959310  22.0209310  12.9629310
  11.9539310  34.1759310  10.3419310  11.4809310  35.0089310  10.3349310
  11.4229310  33.5949310   9.7979310  11.8249310  34.2079310  10.2719310
   6.2299310  11.6099310  42.3289310   6.0559310  11.7709310  43.2569310
   5.4649310  11.1239310  42.0229310   6.1099310  11.5679310  42.4089310
   2.8009310   6.5069310  37.6599310   2.6469310   6.9639310  38.4869310
   3.5129310   5.8969310  37.8519310   2.8719310   6.4869310  37.7899310
  12.9619310  12.6659310  35.8459310  12.0999310  12.9939310  35.5899310
  12.8659310  11.7139310  35.8449310  12.8389310  12.5859310  35.8129310
   4.3989310  14.5529310  39.3119310   3.5999310  14.0259310  39.3219310
   4.7429310  14.4499310  38.4249310   4.3409310  14.4719310  39.1999310
   8.3069310   9.5379310  41.7789310   7.8809310   8.9309310  41.1749310
   7.6439310  10.2049310  41.9569310   8.1679310   9.5459310  41.7249310
  15.1779310   4.4609310  42.8729310  14.3989310   4.5709310  43.4179310
  15.5219310   5.3469310  42.7639310  15.1219310   4.5879310  42.9289310
   9.3849310   8.7289310  37.3239310  10.1549310   8.7499310  37.8909310
   9.7039310   8.3619310  36.4999310   9.5239310   8.6849310  37.2909310
  15.1209310   8.3659310  39.0539310  14.7549310   9.0069310  39.6639310
  14.3559310   7.9439310  38.6619310  14.9759310   8.3939310  39.0819310
  13.1029310   9.9659310  36.0709310  13.1449310   9.8319310  35.1239310
  13.9889310  10.2329310  36.3139310  13.2219310   9.9829310  35.9809310
  10.0959310  12.1329310  42.6599310  10.2719310  12.9829310  42.2569310
   9.3369310  11.7959310  42.1859310  10.0219310  12.1989310  42.5479310
   9.8859310  15.4579310  43.9119310  10.4719310  16.1949310  43.7369310
   9.1039310  15.6439310  43.3929310   9.8609310  15.5759310  43.8229310
   2.2079310   2.7129310  42.4319310   1.8009310   2.7119310  41.5649310
   1.7219310   3.3759310  42.9229310   2.0939310   2.7979310  42.3839310
   6.2949310   4.0989310  40.9809310   5.4699310   4.0809310  40.4959310
   6.0439310   3.9129310  41.8859310   6.1569310   4.0729310  41.0349310
   3.4089310  13.7639310  45.5979310   3.1479310  13.3889310  46.4389310
   4.1399310  13.2189310  45.3089310   3.4689310  13.6459310  45.6679310
   5.5469310  14.1829310  36.9439310   6.0059310  13.3609310  37.1159310
   6.2449310  14.8229310  36.8049310   5.6949310  14.1599310  36.9479310
   4.2699310   4.6739310  45.9259310   5.1509310   4.9659310  46.1579310
   4.3559310   4.3399310  45.0329310   4.3939310   4.6689310  45.8409310
  13.6959310   8.5009310  46.2319310  14.1359310   9.0079310  46.9149310
  13.0239310   8.0039310  46.6979310  13.6669310   8.5019310  46.3789310
  14.9109310  10.2689310  48.4599310  14.1969310  10.8739310  48.2609310
  15.6269310  10.8319310  48.7569310  14.9119310  10.4179310  48.4729310
   8.4229310  11.3299310  37.3979310   8.7269310  10.4369310  37.5539310
   8.9499310  11.8699310  37.9869310   8.5289310  11.2849310  37.4929310
  11.0459310   1.8179310  37.9739310  11.1499310   2.1619310  38.8609310
  10.9159310   2.5939310  37.4289310  11.0429310   1.9609310  38.0179310
  13.6879310   2.6659310  45.3009310  14.5999310   2.6769310  45.5939310
  13.6879310   2.0809310  44.5429310  13.8049310   2.5919310  45.2419310
  11.5329310   7.0029310  47.1519310  10.6579310   6.7459310  46.8619310
  11.8849310   6.2199310  47.5759310  11.4659310   6.8699310  47.1689310
   5.8779310   3.5029310  43.6149310   5.9639310   2.7189310  44.1579310
   6.3179310   4.1899310  44.1149310   5.9449310   3.4909310  43.7479310
  14.5559310  12.2429310  38.9509310  14.6769310  13.1179310  38.5829310
  14.7649310  11.6489310  38.2299310  14.5979310  12.2789310  38.8109310
   5.3059310  11.9909310  44.8239310   4.8259310  11.1829310  45.0009310
   6.0359310  11.9769310  45.4429310   5.3379310  11.8859310  44.9259310
  18.7179310   4.9079310  43.2079310  18.7319310   4.5949310  44.1129310
  18.6689310   5.8609310  43.2849310  18.7139310   4.9899310  43.3339310
   8.1109310   2.8439310  37.0909310   7.4849310   2.1199310  37.1149310
   8.3289310   3.0029310  38.0089310   8.0589310   2.7719310  37.2109310
   4.8489310   4.4919310  49.2109310   4.0039310   4.1719310  49.5279310
   5.3219310   3.7009310  48.9519310   4.8009310   4.3499310  49.2189310
  14.2829310   5.8089310  37.0919310  13.8259310   5.5679310  37.8979310
  15.2089310   5.6689310  37.2909310  14.3429310   5.7599310  37.2209310
  13.0269310  12.4289310  48.9299310  12.6759310  12.3259310  49.8149310
  13.1749310  13.3709310  48.8399310  13.0009310  12.5359310  49.0319310
   8.3089310   2.9619310  39.7549310   7.4859310   3.2449310  40.1509310
   8.9869310   3.3479310  40.3099310   8.2909310   3.0469310  39.8769310
  10.3279310   8.0629310  43.3029310  10.8729310   8.5639310  43.9099310
   9.6339310   8.6699310  43.0459310  10.3089310   8.2039310  43.3479310
  13.0319310   5.3089310  39.4959310  12.9889310   5.9279310  40.2259310
  12.6659310   4.4979310  39.8479310  12.9799310   5.2849310  39.6349310
   7.7819310   6.1729310  39.9749310   7.1099310   5.4919310  40.0049310
   7.8609310   6.3899310  39.0459310   7.7059310   6.1139310  39.8599310
   8.9679310  15.1519310  49.0929310   8.4189310  15.0829310  48.3129310
   9.3319310  14.2749310  49.2089310   8.9449310  15.0309310  49.0079310
   2.4469310   3.4739310  47.8899310   1.8569310   2.7349310  47.7379310
   3.0589310   3.4459310  47.1549310   2.4499310   3.3759310  47.7759310
   3.8319310   9.6659310  45.9219310   3.7919310   8.7109310  45.8849310
   3.3769310   9.8939310  46.7319310   3.7689310   9.5729310  46.0209310
   5.1619310   8.6019310  37.0299310   4.7789310   8.2929310  36.2089310
   5.4009310   9.5129310  36.8549310   5.1439310   8.6789310  36.9029310
   7.6749310  12.2769310  46.3319310   7.6109310  11.7569310  47.1339310
   8.2199310  13.0259310  46.5749310   7.7359310  12.3059310  46.4659310
  13.1739310  11.1729310  42.9509310  12.2589310  11.1829310  42.6679310
  13.2959310  10.3049310  43.3359310  13.0719310  11.0629310  42.9639310
   2.7959310   7.4899310  40.0349310   3.6189310   7.9759310  39.9969310
   2.8469310   6.9949310  40.8519310   2.9079310   7.4889310  40.1339310
   5.0909310   9.1269310  40.0369310   4.5679310   9.8299310  40.4229310
   5.1029310   9.3229310  39.1009310   5.0259310   9.2419310  39.9669310
  12.1339310   3.9939310  36.2009310  12.6119310   3.6409310  35.4519310
  12.6359310   4.7659310  36.4639310  12.2589310   4.0479310  36.1389310
   4.9359310  11.1699310  49.6059310   4.1529310  11.5759310  49.2369310
   4.6479310  10.2989310  49.8789310   4.7989310  11.1099310  49.5939310
   3.9619310   7.1269310  48.0849310   4.2869310   6.3239310  48.4919310
   3.0929310   6.8949310  47.7589310   3.8919310   6.9949310  48.0949310
  10.0739310   5.2089310  43.3139310  10.5719310   5.0019310  42.5229310
  10.2579310   6.1339310  43.4779310  10.1609310   5.3009310  43.2339310
   4.6989310   3.9549310  37.0549310   4.2179310   3.1379310  36.9239310
   5.1329310   4.1139310  36.2169310   4.6929310   3.8709310  36.9309310
  14.7619310  15.9809310  45.3819310  14.6149310  15.0379310  45.4629310
  15.4159310  16.1789310  46.0529310  14.8269310  15.8849310  45.4779310
  16.0949310  12.2589310  44.1679310  15.2509310  12.6719310  44.3519310
  15.9629310  11.3369310  44.3859310  15.9699310  12.1939310  44.2189310
   7.3949310   5.8049310  43.9369310   6.9879310   6.5649310  43.5209310
   8.2569310   5.7399310  43.5269310   7.4529310   5.8939310  43.8309310
  11.9319310   7.0439310  41.4189310  12.6059310   7.4559310  41.9589310
  11.1219310   7.4899310  41.6649310  11.9149310   7.1539310  41.5189310
  15.5539310   6.4729310  46.4049310  15.1649310   5.9989310  47.1409310
  15.0189310   7.2619310  46.3189310  15.4359310   6.5129310  46.4879310
   8.9279310   3.0209310  45.2709310   9.5539310   3.4709310  44.7039310
   8.7859310   2.1739310  44.8469310   8.9899310   2.9699310  45.1439310
   7.4629310  10.8979310  48.7699310   7.8559310  11.7189310  49.0659310
   6.5499310  10.9529310  49.0519310   7.3969310  11.0099310  48.8439310
  12.6869310   4.1819310  47.9189310  12.4219310   3.5299310  48.5689310
  12.9059310   3.6689310  47.1409310  12.6809310   4.0329310  47.9029310
   3.4329310   5.9749310  42.1439310   3.6209310   5.2229310  41.5819310
   4.2889310   6.3659310  42.3139310   3.5659310   5.9289310  42.0939310
   5.8829310  11.1819310  36.4269310   6.7269310  11.1439310  36.8779310
   6.1059310  11.3869310  35.5189310   6.0199310  11.2029310  36.3689310
  10.2459310  11.4269310  45.1549310  10.3439310  11.6739310  44.2349310
   9.3919310  11.7769310  45.4069310  10.1489310  11.5029310  45.0699310
   7.6359310  15.8409310  42.4939310   7.4509310  15.0139310  42.0479310
   7.3239310  16.5139310  41.8889310   7.5719310  15.8209310  42.3589310
   9.2239310  15.0759310  35.5839310   9.3819310  15.9149310  35.1509310
   9.4859310  15.2229310  36.4929310   9.2779310  15.2019310  35.6449310
  11.3339310  13.8529310  45.6939310  10.7899310  14.4529310  45.1829310
  10.9429310  12.9919310  45.5479310  11.2149310  13.8199310  45.6099310
  15.1089310   5.2619310  49.3169310  14.2129310   4.9369310  49.2299310
  15.0089310   6.1569310  49.6419310  14.9809310   5.3349310  49.3479310
   5.4259310  16.2209310  44.6669310   5.3919310  15.5339310  45.3319310
   5.9019310  15.8259310  43.9369310   5.4819310  16.0829310  44.6589310
   7.3049310   6.9489310  37.3549310   8.0349310   7.5689310  37.3439310
   6.5229310   7.4999310  37.3239310   7.2979310   7.0989310  37.3489310
   6.9369310   4.3299310  46.4709310   6.4879310   3.5759310  46.8529310
   7.6589310   3.9499310  45.9709310   6.9719310   4.1849310  46.4559310
   8.4719310   8.4539310  48.1829310   8.1959310   9.2779310  48.5849310
   9.4229310   8.4409310  48.2919310   8.5589310   8.5579310  48.2479310
   7.8279310  15.6769310  46.4319310   8.6179310  16.2149310  46.3779310
   7.2279310  16.0689310  45.7979310   7.8519310  15.7959310  46.3439310
  10.8179310  14.3069310  41.2839310  10.4499310  14.8879310  41.9489310
  11.7089310  14.6299310  41.1499310  10.8849310  14.4229310  41.3519310
   8.9229310   6.7439310  46.2689310   8.6549310   7.3869310  46.9259310
   8.1239310   6.5619310  45.7729310   8.7859310   6.8029310  46.2889310
   8.8999310   5.0779310  48.8309310   8.7369310   5.3869310  47.9399310
   8.0389310   4.8139310  49.1539310   8.7689310   5.0839310  48.7589310
  14.6549310  14.7139310  48.1669310  14.9369310  14.6179310  49.0769310
  13.8739310  15.2649310  48.2159310  14.5909310  14.7719310  48.2899310
   2.3069310   9.3759310  43.2259310   2.2199310  10.1559310  43.7749310
   2.3789310   8.6519310  43.8489310   2.3049310   9.3829310  43.3759310
  14.5759310  13.4919310  41.6019310  14.6459310  12.8629310  42.3189310
  14.6419310  12.9599310  40.8089310  14.5929310  13.3439310  41.5919310
   4.0339310   4.0789310  39.7479310   4.4069310   4.0139310  38.8689310
   3.1289310   3.7829310  39.6469310   3.9659310   4.0319310  39.6229310
   3.7329310  11.2359310  38.1819310   3.0009310  10.7469310  37.8059310
   4.3929310  11.2489310  37.4899310   3.7229310  11.1749310  38.0459310
   7.2239310   4.6469310  35.3719310   7.2049310   5.2969310  36.0739310
   7.5789310   3.8589310  35.7839310   7.2669310   4.6299310  35.5139310
   2.5939310  11.9449310  48.1509310   2.0239310  12.6319310  48.4979310
   2.1419310  11.1289310  48.3649310   2.4629310  11.9289310  48.2229310
   9.1859310  13.5259310  39.2419310   8.5009310  13.4539310  39.9069310
   9.9839310  13.7039310  39.7389310   9.1999310  13.5389310  39.3909310
  12.3489310   2.7349310  40.3419310  12.1279310   2.4849310  41.2399310
  13.1649310   2.2689310  40.1589310  12.4249310   2.6429310  40.4339310
  10.1949310  12.4979310  35.4889310   9.7949310  13.3659310  35.5389310
   9.7189310  11.9769310  36.1359310  10.0829310  12.5429310  35.5779310
   3.5739310  10.8189310  41.3449310   2.9379310  10.3639310  41.8959310
   3.0859310  11.5529310  40.9719310   3.4309310  10.8549310  41.3679310
   9.4519310  12.4899310  49.5499310   9.2489310  12.1799310  50.4319310
   9.9659310  11.7819310  49.1599310   9.4919310  12.3589310  49.6129310
  15.0399310   2.7589310  38.1779310  14.2169310   2.2719310  38.1299310
  14.7879310   3.6229310  38.5059310  14.9029310   2.8069310  38.2139310
  14.7639310   7.9289310  50.0139310  13.8729310   8.1449310  50.2919310
  15.0409310   8.6819310  49.4919310  14.6849310   8.0529310  49.9829310
  13.8319310   9.9509310  40.4459310  13.8539310  10.0669310  41.3959310
  14.0049310  10.8239310  40.0949310  13.8569310  10.0779310  40.5229310
  13.2069310  15.8909310  40.7529310  12.9429310  15.8559310  39.8339310
  13.8289310  15.1699310  40.8519310  13.2529310  15.7939310  40.6479310
  10.3809310  15.8869310  38.2639310   9.8649310  15.2019310  38.6899310
   9.8979310  16.6939310  38.4379310  10.2529310  15.9019310  38.3409310
  10.1179310  17.4299310  46.5649310  10.8929310  17.2739310  46.0259310
  10.0869310  18.3809310  46.6709310  10.2129310  17.5319310  46.5099310
   6.6879310  13.8419310  40.7939310   6.4499310  13.0289310  41.2379310
   5.8829310  14.1199310  40.3569310   6.5549310  13.7739310  40.7949310
  12.1909310   8.9679310  49.7979310  11.5809310   8.2319310  49.8539310
  11.7589310   9.5919310  49.2149310  12.0579310   8.9529310  49.7309310
  10.1529310   4.7479310  40.7629310  10.7729310   5.1919310  40.1839310
   9.3429310   5.2519310  40.6779310  10.1289310   4.8699310  40.6779310
   2.4449310  12.8839310  39.9949310   1.7449310  13.2819310  39.4779310
   2.8769310  12.2809310  39.3889310   2.4109310  12.8579310  39.8509310
  11.0459310  10.8269310  47.8169310  10.8729310  10.7499310  46.8789310
  11.8289310  11.3739310  47.8719310  11.1239310  10.8869310  47.7039310
   5.8639310   7.2109310  42.1359310   6.3779310   6.6109310  41.5959310
   5.5899310   7.9009310  41.5319310   5.8939310   7.2219310  41.9899310
  15.5589310  15.0699310  38.4249310  16.1459310  14.8929310  37.6899310
  14.9679310  15.7499310  38.1009310  15.5579310  15.1339310  38.2889310
  15.9209310   1.7759310  42.1809310  16.5029310   2.2609310  41.5949310
  15.3549310   2.4459310  42.5639310  15.9229310   1.9239310  42.1549310
  13.6139310   8.2819310  43.4099310  14.4669310   7.9409310  43.1399310
  13.6359310   8.2529310  44.3659310  13.7259310   8.2339310  43.4969310
  11.7599310   8.9529310  38.6249310  12.1559310   9.2939310  39.4269310
  12.2509310   9.3719310  37.9179310  11.8729310   9.0499310  38.6369310
  11.9539310  15.3089310  48.0619310  11.4809310  16.1419310  48.0549310
  11.4229310  14.7279310  47.5179310  11.8249310  15.3409310  47.9919310
   6.2299310  11.6099310  23.4689310   6.0559310  11.7709310  24.3969310
   5.4649310  11.1239310  23.1629310   6.1099310  11.5679310  23.5489310
   2.8009310   6.5069310  18.7999310   2.6469310   6.9639310  19.6269310
   3.5129310   5.8969310  18.9919310   2.8719310   6.4869310  18.9299310
  12.9619310  12.6659310  16.9859310  12.0999310  12.9939310  16.7299310
  12.8659310  11.7139310  16.9849310  12.8389310  12.5859310  16.9529310
   4.3989310  14.5529310  20.4519310   3.5999310  14.0259310  20.4619310
   4.7429310  14.4499310  19.5649310   4.3409310  14.4719310  20.3399310
   8.3069310   9.5379310  22.9189310   7.8809310   8.9309310  22.3149310
   7.6439310  10.2049310  23.0969310   8.1679310   9.5459310  22.8649310
  15.1779310   4.4609310  24.0129310  14.3989310   4.5709310  24.5579310
  15.5219310   5.3469310  23.9039310  15.1219310   4.5879310  24.0689310
   6.5089310   7.7769310  31.4449310   6.3809310   6.9119310  31.8339310
   6.9519310   7.6019310  30.6139310   6.5489310   7.6439310  31.3879310
   9.3849310   8.7289310  18.4639310  10.1549310   8.7499310  19.0309310
   9.7039310   8.3619310  17.6399310   9.5239310   8.6849310  18.4309310
  15.1209310   8.3659310  20.1939310  14.7549310   9.0069310  20.8039310
  14.3559310   7.9439310  19.8019310  14.9759310   8.3939310  20.2219310
  13.1029310   9.9659310  17.2109310  13.1449310   9.8319310  16.2639310
  13.9889310  10.2329310  17.4539310  13.2219310   9.9829310  17.1209310
  10.0959310  12.1329310  23.7999310  10.2719310  12.9829310  23.3969310
   9.3369310  11.7959310  23.3259310  10.0219310  12.1989310  23.6879310
   9.8859310  15.4579310  25.0519310  10.4719310  16.1949310  24.8769310
   9.1039310  15.6439310  24.5329310   9.8609310  15.5759310  24.9629310
   2.2079310   2.7129310  23.5719310   1.8009310   2.7119310  22.7049310
   1.7219310   3.3759310  24.0629310   2.0939310   2.7979310  23.5239310
   8.6749310   3.5979310  32.5889310   9.2609310   3.9109310  33.2779310
   7.9489310   4.2229310  32.5889310   8.6569310   3.7179310  32.6769310
   6.2949310   4.0989310  22.1209310   5.4699310   4.0809310  21.6359310
   6.0439310   3.9129310  23.0259310   6.1569310   4.0729310  22.1749310
   5.5469310  14.1829310  18.0839310   6.0059310  13.3609310  18.2559310
   6.2449310  14.8229310  17.9449310   5.6949310  14.1599310  18.0879310
   4.2699310   4.6739310  27.0659310   5.1509310   4.9659310  27.2979310
   4.3559310   4.3399310  26.1729310   4.3939310   4.6689310  26.9809310
   3.8609310  14.1679310  34.5349310   4.4349310  14.0809310  35.2959310
   3.8189310  15.1099310  34.3729310   3.9289310  14.2769310  34.6109310
  13.6959310   8.5009310  27.3719310  14.1359310   9.0079310  28.0549310
  13.0239310   8.0039310  27.8379310  13.6669310   8.5019310  27.5189310
  14.9109310  10.2689310  29.5999310  14.1969310  10.8739310  29.4009310
  15.6269310  10.8319310  29.8969310  14.9119310  10.4179310  29.6129310
   4.2159310   8.0219310  34.4359310   4.0589310   7.0779310  34.3999310
   4.1269310   8.3139310  33.5289310   4.1839310   7.9379310  34.3149310
   8.4229310  11.3299310  18.5379310   8.7269310  10.4369310  18.6939310
   8.9499310  11.8699310  19.1269310   8.5289310  11.2849310  18.6329310
  11.0459310   1.8179310  19.1139310  11.1499310   2.1619310  20.0009310
  10.9159310   2.5939310  18.5689310  11.0429310   1.9609310  19.1579310
  13.6879310   2.6659310  26.4409310  14.5999310   2.6769310  26.7339310
  13.6879310   2.0809310  25.6829310  13.8049310   2.5919310  26.3819310
  11.5329310   7.0029310  28.2919310  10.6579310   6.7459310  28.0019310
  11.8849310   6.2199310  28.7159310  11.4659310   6.8699310  28.3089310
   5.8779310   3.5029310  24.7549310   5.9639310   2.7189310  25.2979310
   6.3179310   4.1899310  25.2549310   5.9449310   3.4909310  24.8879310
  14.5559310  12.2429310  20.0909310  14.6769310  13.1179310  19.7229310
  14.7649310  11.6489310  19.3699310  14.5979310  12.2789310  19.9509310
   9.0039310  11.5269310  33.2249310   9.5859310  11.3629310  33.9659310
   8.4109310  12.2129310  33.5329310   9.0019310  11.5939310  33.3589310
   5.3059310  11.9909310  25.9639310   4.8259310  11.1829310  26.1409310
   6.0359310  11.9769310  26.5829310   5.3379310  11.8859310  26.0659310
  18.7179310   4.9079310  24.3479310  18.7319310   4.5949310  25.2529310
  18.6689310   5.8609310  24.4249310  18.7139310   4.9899310  24.4739310
   8.1109310   2.8439310  18.2309310   7.4849310   2.1199310  18.2549310
   8.3289310   3.0029310  19.1489310   8.0589310   2.7719310  18.3509310
   4.8489310   4.4919310  30.3509310   4.0039310   4.1719310  30.6679310
   5.3219310   3.7009310  30.0919310   4.8009310   4.3499310  30.3589310
   1.7759310   9.6779310  34.6849310   2.5869310   9.1899310  34.5429310
   1.5069310   9.9549310  33.8089310   1.8449310   9.6509310  34.5539310
  14.2829310   5.8089310  18.2319310  13.8259310   5.5679310  19.0379310
  15.2089310   5.6689310  18.4309310  14.3429310   5.7599310  18.3609310
   4.0379310   8.7179310  31.7129310   4.9179310   8.3449310  31.6609310
   3.4999310   8.1369310  31.1759310   4.0819310   8.5959310  31.6379310
  13.0269310  12.4289310  30.0699310  12.6759310  12.3259310  30.9549310
  13.1749310  13.3709310  29.9799310  13.0009310  12.5359310  30.1719310
  15.1639310  14.1959310  31.9489310  15.3619310  13.8009310  32.7989310
  14.4929310  14.8509310  32.1399310  15.1029310  14.2289310  32.0819310
  10.4819310   6.9749310  31.3619310   9.9249310   6.5809310  30.6899310
   9.9059310   7.5849310  31.8219310  10.3369310   7.0029310  31.3349310
  14.3959310   6.2359310  34.5559310  13.5729310   6.5759310  34.2069310
  14.2519310   6.1799310  35.5009310  14.2729310   6.2719310  34.6319310
   8.3089310   2.9619310  20.8949310   7.4859310   3.2449310  21.2909310
   8.9869310   3.3479310  21.4499310   8.2909310   3.0469310  21.0169310
  10.3279310   8.0629310  24.4429310  10.8729310   8.5639310  25.0499310
   9.6339310   8.6699310  24.1859310  10.3089310   8.2039310  24.4879310
  13.0319310   5.3089310  20.6359310  12.9889310   5.9279310  21.3659310
  12.6659310   4.4979310  20.9879310  12.9799310   5.2849310  20.7749310
   7.7819310   6.1729310  21.1149310   7.1099310   5.4919310  21.1449310
   7.8609310   6.3899310  20.1859310   7.7059310   6.1139310  20.9999310
   8.9679310  15.1519310  30.2329310   8.4189310  15.0829310  29.4529310
   9.3319310  14.2749310  30.3489310   8.9449310  15.0309310  30.1479310
   3.4019310   5.1469310  34.1839310   3.2869310   4.8629310  33.2769310
   2.5109310   5.2499310  34.5169310   3.2729310   5.1239310  34.1099310
   2.4469310   3.4739310  29.0299310   1.8569310   2.7349310  28.8779310
   3.0589310   3.4459310  28.2949310   2.4499310   3.3759310  28.9159310
   3.8319310   9.6659310  27.0619310   3.7919310   8.7109310  27.0249310
   3.3769310   9.8939310  27.8719310   3.7689310   9.5729310  27.1609310
  11.7969310   6.3189310  33.7439310  11.1059310   5.6789310  33.9119310
  11.5889310   6.6749310  32.8809310  11.6819310   6.2819310  33.6549310
   5.1619310   8.6019310  18.1699310   4.7789310   8.2929310  17.3489310
   5.4009310   9.5129310  17.9949310   5.1439310   8.6789310  18.0429310
   7.6749310  12.2769310  27.4719310   7.6109310  11.7569310  28.2739310
   8.2199310  13.0259310  27.7149310   7.7359310  12.3059310  27.6059310
  13.1739310  11.1729310  24.0909310  12.2589310  11.1829310  23.8079310
  13.2959310  10.3049310  24.4759310  13.0719310  11.0629310  24.1039310
   2.7959310   7.4899310  21.1749310   3.6189310   7.9759310  21.1369310
   2.8469310   6.9949310  21.9919310   2.9079310   7.4889310  21.2739310
   5.0909310   9.1269310  21.1769310   4.5679310   9.8299310  21.5629310
   5.1029310   9.3229310  20.2409310   5.0259310   9.2419310  21.1069310
  12.1339310   3.9939310  17.3409310  12.6119310   3.6409310  16.5919310
  12.6359310   4.7659310  17.6039310  12.2589310   4.0479310  17.2789310
   4.9359310  11.1699310  30.7459310   4.1529310  11.5759310  30.3769310
   4.6479310  10.2989310  31.0189310   4.7989310  11.1099310  30.7339310
   3.9619310   7.1269310  29.2249310   4.2869310   6.3239310  29.6319310
   3.0929310   6.8949310  28.8989310   3.8919310   6.9949310  29.2349310
  10.0739310   5.2089310  24.4539310  10.5719310   5.0019310  23.6629310
  10.2579310   6.1339310  24.6179310  10.1609310   5.3009310  24.3739310
   4.6989310   3.9549310  18.1949310   4.2179310   3.1379310  18.0639310
   5.1329310   4.1139310  17.3569310   4.6929310   3.8709310  18.0709310
  14.7619310  15.9809310  26.5219310  14.6149310  15.0379310  26.6029310
  15.4159310  16.1789310  27.1929310  14.8269310  15.8849310  26.6179310
  16.0949310  12.2589310  25.3079310  15.2509310  12.6719310  25.4919310
  15.9629310  11.3369310  25.5259310  15.9699310  12.1939310  25.3589310
   7.3949310   5.8049310  25.0769310   6.9879310   6.5649310  24.6609310
   8.2569310   5.7399310  24.6669310   7.4529310   5.8939310  24.9709310
  11.9319310   7.0439310  22.5589310  12.6059310   7.4559310  23.0989310
  11.1219310   7.4899310  22.8049310  11.9149310   7.1539310  22.6589310
  15.5539310   6.4729310  27.5449310  15.1649310   5.9989310  28.2809310
  15.0189310   7.2619310  27.4589310  15.4359310   6.5129310  27.6279310
   8.9279310   3.0209310  26.4109310   9.5539310   3.4709310  25.8439310
   8.7859310   2.1739310  25.9869310   8.9899310   2.9699310  26.2839310
   7.4629310  10.8979310  29.9099310   7.8559310  11.7189310  30.2059310
   6.5499310  10.9529310  30.1919310   7.3969310  11.0099310  29.9839310
  12.6869310   4.1819310  29.0589310  12.4219310   3.5299310  29.7089310
  12.9059310   3.6689310  28.2809310  12.6809310   4.0329310  29.0429310
   3.4329310   5.9749310  23.2839310   3.6209310   5.2229310  22.7219310
   4.2889310   6.3659310  23.4539310   3.5659310   5.9289310  23.2339310
   5.8829310  11.1819310  17.5669310   6.7269310  11.1439310  18.0179310
   6.1059310  11.3869310  16.6589310   6.0199310  11.2029310  17.5089310
   2.9339310   6.9719310  25.8359310   3.1909310   6.5539310  25.0139310
   3.0179310   6.2799310  26.4919310   2.9779310   6.8299310  25.8149310
  10.2459310  11.4269310  26.2949310  10.3439310  11.6739310  25.3749310
   9.3919310  11.7769310  26.5469310  10.1489310  11.5029310  26.2099310
   7.6359310  15.8409310  23.6339310   7.4509310  15.0139310  23.1879310
   7.3239310  16.5139310  23.0289310   7.5719310  15.8209310  23.4989310
   9.2239310  15.0759310  16.7239310   9.3819310  15.9149310  16.2909310
   9.4859310  15.2229310  17.6329310   9.2779310  15.2019310  16.7849310
  11.3339310  13.8529310  26.8339310  10.7899310  14.4529310  26.3229310
  10.9429310  12.9919310  26.6879310  11.2149310  13.8199310  26.7499310
  15.1089310   5.2619310  30.4569310  14.2129310   4.9369310  30.3699310
  15.0089310   6.1569310  30.7819310  14.9809310   5.3349310  30.4879310
   5.4259310  16.2209310  25.8069310   5.3919310  15.5339310  26.4719310
   5.9019310  15.8259310  25.0769310   5.4819310  16.0829310  25.7989310
   7.3049310   6.9489310  18.4949310   8.0349310   7.5689310  18.4839310
   6.5229310   7.4999310  18.4639310   7.2979310   7.0989310  18.4889310
   6.9369310   4.3299310  27.6109310   6.4879310   3.5759310  27.9929310
   7.6589310   3.9499310  27.1109310   6.9719310   4.1849310  27.5959310
   8.4719310   8.4539310  29.3229310   8.1959310   9.2779310  29.7249310
   9.4229310   8.4409310  29.4319310   8.5589310   8.5579310  29.3879310
   7.8279310  15.6769310  27.5719310   8.6179310  16.2149310  27.5179310
   7.2279310  16.0689310  26.9379310   7.8519310  15.7959310  27.4839310
  10.8179310  14.3069310  22.4239310  10.4499310  14.8879310  23.0889310
  11.7089310  14.6299310  22.2899310  10.8849310  14.4229310  22.4919310
   8.9229310   6.7439310  27.4089310   8.6549310   7.3869310  28.0659310
   8.1239310   6.5619310  26.9129310   8.7859310   6.8029310  27.4289310
   8.8999310   5.0779310  29.9709310   8.7369310   5.3869310  29.0799310
   8.0389310   4.8139310  30.2939310   8.7689310   5.0839310  29.8989310
   8.8319310   8.7409310  32.5069310   8.0139310   8.5849310  32.0359310
   8.8799310   9.6929310  32.5959310   8.7339310   8.8429310  32.4579310
  13.1819310   3.4369310  33.7379310  13.8949310   2.8049310  33.8329310
  13.6219310   4.2739310  33.5919310  13.3289310   3.4629310  33.7309310
  14.6549310  14.7139310  29.3069310  14.9369310  14.6179310  30.2169310
  13.8739310  15.2649310  29.3559310  14.5909310  14.7719310  29.4299310
   2.3069310   9.3759310  24.3659310   2.2199310  10.1559310  24.9149310
   2.3789310   8.6519310  24.9889310   2.3049310   9.3829310  24.5159310
   2.4089310   4.5169310  31.5499310   2.3179310   4.3969310  30.6049310
   1.6849310   5.0949310  31.7879310   2.3049310   4.5759310  31.4589310
  14.5759310  13.4919310  22.7419310  14.6459310  12.8629310  23.4589310
  14.6419310  12.9599310  21.9489310  14.5929310  13.3439310  22.7319310
   4.0339310   4.0789310  20.8879310   4.4069310   4.0139310  20.0089310
   3.1289310   3.7829310  20.7869310   3.9659310   4.0319310  20.7629310
   3.7329310  11.2359310  19.3219310   3.0009310  10.7469310  18.9459310
   4.3929310  11.2489310  18.6299310   3.7229310  11.1749310  19.1859310
   7.2239310   4.6469310  16.5119310   7.2049310   5.2969310  17.2139310
   7.5789310   3.8589310  16.9239310   7.2669310   4.6299310  16.6539310
   2.5939310  11.9449310  29.2909310   2.0239310  12.6319310  29.6379310
   2.1419310  11.1289310  29.5049310   2.4629310  11.9289310  29.3629310
   9.1859310  13.5259310  20.3819310   8.5009310  13.4539310  21.0469310
   9.9839310  13.7039310  20.8789310   9.1999310  13.5389310  20.5309310
  12.3489310   2.7349310  21.4819310  12.1279310   2.4849310  22.3799310
  13.1649310   2.2689310  21.2989310  12.4249310   2.6429310  21.5739310
  10.1949310  12.4979310  16.6289310   9.7949310  13.3659310  16.6789310
   9.7189310  11.9769310  17.2759310  10.0829310  12.5429310  16.7179310
   3.5739310  10.8189310  22.4849310   2.9379310  10.3639310  23.0359310
   3.0859310  11.5529310  22.1119310   3.4309310  10.8549310  22.5079310
   9.4519310  12.4899310  30.6899310   9.2489310  12.1799310  31.5719310
   9.9659310  11.7819310  30.2999310   9.4919310  12.3589310  30.7529310
  15.0399310   2.7589310  19.3179310  14.2169310   2.2719310  19.2699310
  14.7879310   3.6229310  19.6459310  14.9029310   2.8069310  19.3539310
  12.0969310  10.0919310  33.3369310  11.4569310   9.5589310  33.8089310
  12.0589310   9.7689310  32.4359310  12.0099310   9.9819310  33.2819310
   5.8639310  12.4599310  33.4719310   5.4769310  12.0949310  32.6759310
   5.2159310  13.0889310  33.7869310   5.7309310  12.4929310  33.4109310
  14.7639310   7.9289310  31.1539310  13.8729310   8.1449310  31.4319310
  15.0409310   8.6819310  30.6319310  14.6849310   8.0529310  31.1229310
  13.8319310   9.9509310  21.5859310  13.8539310  10.0669310  22.5359310
  14.0049310  10.8239310  21.2349310  13.8569310  10.0779310  21.6629310
  13.2069310  15.8909310  21.8929310  12.9429310  15.8559310  20.9739310
  13.8289310  15.1699310  21.9919310  13.2529310  15.7939310  21.7879310
  10.3809310  15.8869310  19.4039310   9.8649310  15.2019310  19.8299310
   9.8979310  16.6939310  19.5779310  10.2529310  15.9019310  19.4809310
  10.1179310  17.4299310  27.7049310  10.8929310  17.2739310  27.1659310
  10.0869310  18.3809310  27.8109310  10.2129310  17.5319310  27.6499310
   6.6879310  13.8419310  21.9339310   6.4499310  13.0289310  22.3779310
   5.8829310  14.1199310  21.4969310   6.5549310  13.7739310  21.9349310
  11.8809310  13.2619310  33.2409310  12.1509310  12.3579310  33.4009310
  10.9289310  13.2489310  33.3419310  11.7939310  13.1449310  33.2749310
  12.1909310   8.9679310  30.9379310  11.5809310   8.2319310  30.9939310
  11.7589310   9.5919310  30.3549310  12.0579310   8.9529310  30.8709310
   4.3249310   2.6559310  34.4909310   3.5599310   2.2589310  34.9089310
   4.0709310   3.5669310  34.3429310   4.1939310   2.7219310  34.5259310
  10.1529310   4.7479310  21.9029310  10.7729310   5.1919310  21.3239310
   9.3429310   5.2519310  21.8179310  10.1289310   4.8699310  21.8179310
   2.4449310  12.8839310  21.1349310   1.7449310  13.2819310  20.6179310
   2.8769310  12.2809310  20.5289310   2.4109310  12.8579310  20.9909310
  11.0459310  10.8269310  28.9569310  10.8729310  10.7499310  28.0189310
  11.8289310  11.3739310  29.0119310  11.1239310  10.8869310  28.8439310
   5.8639310   7.2109310  23.2759310   6.3779310   6.6109310  22.7359310
   5.5899310   7.9009310  22.6719310   5.8939310   7.2219310  23.1299310
  12.8919310  15.7779310  32.5669310  13.3009310  15.9499310  33.4149310
  12.6229310  14.8609310  32.6119310  12.9099310  15.6829310  32.6809310
  15.5589310  15.0699310  19.5649310  16.1459310  14.8929310  18.8299310
  14.9679310  15.7499310  19.2409310  15.5579310  15.1339310  19.4289310
  15.3989310  13.4249310  34.5599310  14.6269310  13.4559310  35.1239310
  16.0159310  14.0349310  34.9659310  15.3789310  13.5069310  34.6849310
  15.9209310   1.7759310  23.3209310  16.5029310   2.2609310  22.7349310
  15.3549310   2.4459310  23.7039310  15.9229310   1.9239310  23.2949310
  13.6139310   8.2819310  24.5499310  14.4669310   7.9409310  24.2799310
  13.6359310   8.2529310  25.5059310  13.7259310   8.2339310  24.6369310
   6.5439310   5.1929310  32.4549310   5.7899310   4.8629310  31.9659310
   6.3429310   4.9949310  33.3689310   6.4219310   5.1249310  32.5089310
  10.0939310   4.5159310  34.5239310   9.3099310   4.4769310  35.0719310
  10.7309310   3.9649310  34.9779310  10.0749310   4.4409310  34.6519310
  11.7599310   8.9529310  19.7649310  12.1559310   9.2939310  20.5669310
  12.2509310   9.3719310  19.0579310  11.8729310   9.0499310  19.7769310
  11.4889310   3.0389310  31.7269310  12.1819310   3.2329310  32.3589310
  10.8529310   3.7449310  31.8449310  11.4959310   3.1539310  31.8229310
  11.9539310  15.3089310  29.2019310  11.4809310  16.1419310  29.1949310
  11.4229310  14.7279310  28.6579310  11.8249310  15.3409310  29.1319310
   6.2299310  11.6099310   4.6089310   6.0559310  11.7709310   5.5369310
   5.4649310  11.1239310   4.3029310   6.1099310  11.5679310   4.6889310
   8.3069310   9.5379310   4.0589310   7.8809310   8.9309310   3.4549310
   7.6439310  10.2049310   4.2369310   8.1679310   9.5459310   4.0049310
  15.1779310   4.4609310   5.1529310  14.3989310   4.5709310   5.6979310
  15.5219310   5.3469310   5.0439310  15.1219310   4.5879310   5.2089310
   6.5089310   7.7769310  12.5849310   6.3809310   6.9119310  12.9739310
   6.9519310   7.6019310  11.7539310   6.5489310   7.6439310  12.5279310
  10.0959310  12.1329310   4.9399310  10.2719310  12.9829310   4.5369310
   9.3369310  11.7959310   4.4659310  10.0219310  12.1989310   4.8279310
   9.8859310  15.4579310   6.1919310  10.4719310  16.1949310   6.0169310
   9.1039310  15.6439310   5.6729310   9.8609310  15.5759310   6.1029310
   2.2079310   2.7129310   4.7119310   1.8009310   2.7119310   3.8449310
   1.7219310   3.3759310   5.2029310   2.0939310   2.7979310   4.6639310
   8.6749310   3.5979310  13.7289310   9.2609310   3.9109310  14.4179310
   7.9489310   4.2229310  13.7289310   8.6569310   3.7179310  13.8169310
   6.2949310   4.0989310   3.2609310   5.4699310   4.0809310   2.7759310
   6.0439310   3.9129310   4.1659310   6.1569310   4.0729310   3.3149310
   3.4089310  13.7639310   7.8779310   3.1479310  13.3889310   8.7189310
   4.1399310  13.2189310   7.5889310   3.4689310  13.6459310   7.9479310
   4.2699310   4.6739310   8.2059310   5.1509310   4.9659310   8.4379310
   4.3559310   4.3399310   7.3129310   4.3939310   4.6689310   8.1209310
   3.8609310  14.1679310  15.6749310   4.4349310  14.0809310  16.4359310
   3.8189310  15.1099310  15.5129310   3.9289310  14.2769310  15.7509310
  13.6959310   8.5009310   8.5119310  14.1359310   9.0079310   9.1949310
  13.0239310   8.0039310   8.9779310  13.6669310   8.5019310   8.6589310
  14.9109310  10.2689310  10.7399310  14.1969310  10.8739310  10.5409310
  15.6269310  10.8319310  11.0369310  14.9119310  10.4179310  10.7529310
   4.2159310   8.0219310  15.5759310   4.0589310   7.0779310  15.5399310
   4.1269310   8.3139310  14.6689310   4.1839310   7.9379310  15.4549310
  13.6879310   2.6659310   7.5809310  14.5999310   2.6769310   7.8739310
  13.6879310   2.0809310   6.8229310  13.8049310   2.5919310   7.5219310
  11.5329310   7.0029310   9.4319310  10.6579310   6.7459310   9.1419310
  11.8849310   6.2199310   9.8559310  11.4659310   6.8699310   9.4489310
   5.8779310   3.5029310   5.8949310   5.9639310   2.7189310   6.4379310
   6.3179310   4.1899310   6.3949310   5.9449310   3.4909310   6.0279310
   9.0039310  11.5269310  14.3649310   9.5859310  11.3629310  15.1059310
   8.4109310  12.2129310  14.6729310   9.0019310  11.5939310  14.4989310
   5.3059310  11.9909310   7.1039310   4.8259310  11.1829310   7.2809310
   6.0359310  11.9769310   7.7229310   5.3379310  11.8859310   7.2059310
  18.7179310   4.9079310   5.4879310  18.7319310   4.5949310   6.3929310
  18.6689310   5.8609310   5.5649310  18.7139310   4.9899310   5.6139310
   4.8489310   4.4919310  11.4909310   4.0039310   4.1719310  11.8079310
   5.3219310   3.7009310  11.2319310   4.8009310   4.3499310  11.4989310
   1.7759310   9.6779310  15.8249310   2.5869310   9.1899310  15.6829310
   1.5069310   9.9549310  14.9489310   1.8449310   9.6509310  15.6939310
   4.0379310   8.7179310  12.8529310   4.9179310   8.3449310  12.8009310
   3.4999310   8.1369310  12.3159310   4.0819310   8.5959310  12.7779310
  13.0269310  12.4289310  11.2099310  12.6759310  12.3259310  12.0949310
  13.1749310  13.3709310  11.1199310  13.0009310  12.5359310  11.3119310
  15.1639310  14.1959310  13.0889310  15.3619310  13.8009310  13.9389310
  14.4929310  14.8509310  13.2799310  15.1029310  14.2289310  13.2219310
  10.4819310   6.9749310  12.5019310   9.9249310   6.5809310  11.8299310
   9.9059310   7.5849310  12.9619310  10.3369310   7.0029310  12.4749310
  14.3959310   6.2359310  15.6959310  13.5729310   6.5759310  15.3469310
  14.2519310   6.1799310  16.6409310  14.2729310   6.2719310  15.7719310
   8.3089310   2.9619310   2.0349310   7.4859310   3.2449310   2.4309310
   8.9869310   3.3479310   2.5899310   8.2909310   3.0469310   2.1569310
  10.3279310   8.0629310   5.5829310  10.8729310   8.5639310   6.1899310
   9.6339310   8.6699310   5.3259310  10.3089310   8.2039310   5.6279310
  13.0319310   5.3089310   1.7759310  12.9889310   5.9279310   2.5059310
  12.6659310   4.4979310   2.1279310  12.9799310   5.2849310   1.9149310
   8.9679310  15.1519310  11.3729310   8.4189310  15.0829310  10.5929310
   9.3319310  14.2749310  11.4889310   8.9449310  15.0309310  11.2879310
   3.4019310   5.1469310  15.3239310   3.2869310   4.8629310  14.4169310
   2.5109310   5.2499310  15.6569310   3.2729310   5.1239310  15.2499310
   2.4469310   3.4739310  10.1699310   1.8569310   2.7349310  10.0179310
   3.0589310   3.4459310   9.4349310   2.4499310   3.3759310  10.0559310
   3.8319310   9.6659310   8.2019310   3.7919310   8.7109310   8.1649310
   3.3769310   9.8939310   9.0119310   3.7689310   9.5729310   8.3009310
  11.7969310   6.3189310  14.8839310  11.1059310   5.6789310  15.0519310
  11.5889310   6.6749310  14.0209310  11.6819310   6.2819310  14.7949310
   7.6749310  12.2769310   8.6119310   7.6109310  11.7569310   9.4139310
   8.2199310  13.0259310   8.8549310   7.7359310  12.3059310   8.7459310
  13.1739310  11.1729310   5.2309310  12.2589310  11.1829310   4.9479310
  13.2959310  10.3049310   5.6159310  13.0719310  11.0629310   5.2439310
   2.7959310   7.4899310   2.3149310   3.6189310   7.9759310   2.2769310
   2.8469310   6.9949310   3.1319310   2.9079310   7.4889310   2.4139310
   4.9359310  11.1699310  11.8859310   4.1529310  11.5759310  11.5169310
   4.6479310  10.2989310  12.1589310   4.7989310  11.1099310  11.8739310
   3.9619310   7.1269310  10.3649310   4.2869310   6.3239310  10.7719310
   3.0929310   6.8949310  10.0389310   3.8919310   6.9949310  10.3749310
  10.0739310   5.2089310   5.5939310  10.5719310   5.0019310   4.8029310
  10.2579310   6.1339310   5.7579310  10.1609310   5.3009310   5.5139310
  14.7619310  15.9809310   7.6619310  14.6149310  15.0379310   7.7429310
  15.4159310  16.1789310   8.3329310  14.8269310  15.8849310   7.7579310
  16.0949310  12.2589310   6.4479310  15.2509310  12.6719310   6.6319310
  15.9629310  11.3369310   6.6659310  15.9699310  12.1939310   6.4989310
   7.3949310   5.8049310   6.2169310   6.9879310   6.5649310   5.8009310
   8.2569310   5.7399310   5.8069310   7.4529310   5.8939310   6.1109310
  11.9319310   7.0439310   3.6989310  12.6059310   7.4559310   4.2389310
  11.1219310   7.4899310   3.9449310  11.9149310   7.1539310   3.7989310
  15.5539310   6.4729310   8.6849310  15.1649310   5.9989310   9.4209310
  15.0189310   7.2619310   8.5989310  15.4359310   6.5129310   8.7679310
   8.9279310   3.0209310   7.5509310   9.5539310   3.4709310   6.9839310
   8.7859310   2.1739310   7.1269310   8.9899310   2.9699310   7.4239310
   7.4629310  10.8979310  11.0499310   7.8559310  11.7189310  11.3459310
   6.5499310  10.9529310  11.3319310   7.3969310  11.0099310  11.1239310
  12.6869310   4.1819310  10.1989310  12.4219310   3.5299310  10.8489310
  12.9059310   3.6689310   9.4209310  12.6809310   4.0329310  10.1829310
   3.4329310   5.9749310   4.4239310   3.6209310   5.2229310   3.8619310
   4.2889310   6.3659310   4.5939310   3.5659310   5.9289310   4.3739310
   2.9339310   6.9719310   6.9759310   3.1909310   6.5539310   6.1539310
   3.0179310   6.2799310   7.6319310   2.9779310   6.8299310   6.9549310
  10.2459310  11.4269310   7.4349310  10.3439310  11.6739310   6.5149310
   9.3919310  11.7769310   7.6869310  10.1489310  11.5029310   7.3499310
   7.6359310  15.8409310   4.7739310   7.4509310  15.0139310   4.3279310
   7.3239310  16.5139310   4.1689310   7.5719310  15.8209310   4.6389310
  11.3339310  13.8529310   7.9739310  10.7899310  14.4529310   7.4629310
  10.9429310  12.9919310   7.8279310  11.2149310  13.8199310   7.8899310
  15.1089310   5.2619310  11.5969310  14.2129310   4.9369310  11.5099310
  15.0089310   6.1569310  11.9219310  14.9809310   5.3349310  11.6279310
   5.4259310  16.2209310   6.9469310   5.3919310  15.5339310   7.6119310
   5.9019310  15.8259310   6.2169310   5.4819310  16.0829310   6.9389310
   6.9369310   4.3299310   8.7509310   6.4879310   3.5759310   9.1329310
   7.6589310   3.9499310   8.2509310   6.9719310   4.1849310   8.7359310
   8.4719310   8.4539310  10.4629310   8.1959310   9.2779310  10.8649310
   9.4229310   8.4409310  10.5719310   8.5589310   8.5579310  10.5279310
   7.8279310  15.6769310   8.7119310   8.6179310  16.2149310   8.6579310
   7.2279310  16.0689310   8.0779310   7.8519310  15.7959310   8.6239310
  10.8179310  14.3069310   3.5639310  10.4499310  14.8879310   4.2289310
  11.7089310  14.6299310   3.4299310  10.8849310  14.4229310   3.6319310
   8.9229310   6.7439310   8.5489310   8.6549310   7.3869310   9.2059310
   8.1239310   6.5619310   8.0529310   8.7859310   6.8029310   8.5689310
   8.8999310   5.0779310  11.1109310   8.7369310   5.3869310  10.2199310
   8.0389310   4.8139310  11.4339310   8.7689310   5.0839310  11.0389310
   8.8319310   8.7409310  13.6469310   8.0139310   8.5849310  13.1759310
   8.8799310   9.6929310  13.7359310   8.7339310   8.8429310  13.5979310
  13.1819310   3.4369310  14.8779310  13.8949310   2.8049310  14.9729310
  13.6219310   4.2739310  14.7319310  13.3289310   3.4629310  14.8709310
  14.6549310  14.7139310  10.4469310  14.9369310  14.6179310  11.3569310
  13.8739310  15.2649310  10.4959310  14.5909310  14.7719310  10.5699310
   2.3069310   9.3759310   5.5059310   2.2199310  10.1559310   6.0549310
   2.3789310   8.6519310   6.1289310   2.3049310   9.3829310   5.6559310
   2.4089310   4.5169310  12.6899310   2.3179310   4.3969310  11.7449310
   1.6849310   5.0949310  12.9279310   2.3049310   4.5759310  12.5989310
  14.5759310  13.4919310   3.8819310  14.6459310  12.8629310   4.5989310
  14.6419310  12.9599310   3.0889310  14.5929310  13.3439310   3.8719310
   2.5939310  11.9449310  10.4309310   2.0239310  12.6319310  10.7779310
   2.1419310  11.1289310  10.6449310   2.4629310  11.9289310  10.5029310
  12.3489310   2.7349310   2.6219310  12.1279310   2.4849310   3.5199310
  13.1649310   2.2689310   2.4389310  12.4249310   2.6429310   2.7139310
   3.5739310  10.8189310   3.6249310   2.9379310  10.3639310   4.1759310
   3.0859310  11.5529310   3.2519310   3.4309310  10.8549310   3.6479310
   9.4519310  12.4899310  11.8299310   9.2489310  12.1799310  12.7119310
   9.9659310  11.7819310  11.4399310   9.4919310  12.3589310  11.8929310
  12.0969310  10.0919310  14.4769310  11.4569310   9.5589310  14.9489310
  12.0589310   9.7689310  13.5759310  12.0099310   9.9819310  14.4219310
   5.8639310  12.4599310  14.6119310   5.4769310  12.0949310  13.8159310
   5.2159310  13.0889310  14.9269310   5.7309310  12.4929310  14.5509310
  14.7639310   7.9289310  12.2939310  13.8729310   8.1449310  12.5719310
  15.0409310   8.6819310  11.7719310  14.6849310   8.0529310  12.2629310
  13.8319310   9.9509310   2.7259310  13.8539310  10.0669310   3.6759310
  14.0049310  10.8239310   2.3749310  13.8569310  10.0779310   2.8029310
  13.2069310  15.8909310   3.0329310  12.9429310  15.8559310   2.1139310
  13.8289310  15.1699310   3.1319310  13.2529310  15.7939310   2.9279310
  10.1179310  17.4299310   8.8449310  10.8929310  17.2739310   8.3059310
  10.0869310  18.3809310   8.9509310  10.2129310  17.5319310   8.7899310
   6.6879310  13.8419310   3.0739310   6.4499310  13.0289310   3.5179310
   5.8829310  14.1199310   2.6369310   6.5549310  13.7739310   3.0749310
  11.8809310  13.2619310  14.3809310  12.1509310  12.3579310  14.5409310
  10.9289310  13.2489310  14.4819310  11.7939310  13.1449310  14.4149310
  12.1909310   8.9679310  12.0779310  11.5809310   8.2319310  12.1339310
  11.7589310   9.5919310  11.4949310  12.0579310   8.9529310  12.0109310
   4.3249310   2.6559310  15.6309310   3.5599310   2.2589310  16.0489310
   4.0709310   3.5669310  15.4829310   4.1939310   2.7219310  15.6659310
  10.1529310   4.7479310   3.0429310  10.7729310   5.1919310   2.4639310
   9.3429310   5.2519310   2.9579310  10.1289310   4.8699310   2.9579310
   2.4449310  12.8839310   2.2749310   1.7449310  13.2819310   1.7579310
   2.8769310  12.2809310   1.6689310   2.4109310  12.8579310   2.1309310
  11.0459310  10.8269310  10.0969310  10.8729310  10.7499310   9.1589310
  11.8289310  11.3739310  10.1519310  11.1239310  10.8869310   9.9839310
   5.8639310   7.2109310   4.4159310   6.3779310   6.6109310   3.8759310
   5.5899310   7.9009310   3.8119310   5.8939310   7.2219310   4.2699310
  12.8919310  15.7779310  13.7069310  13.3009310  15.9499310  14.5549310
  12.6229310  14.8609310  13.7519310  12.9099310  15.6829310  13.8209310
  15.3989310  13.4249310  15.6999310  14.6269310  13.4559310  16.2639310
  16.0159310  14.0349310  16.1059310  15.3789310  13.5069310  15.8249310
  15.9209310   1.7759310   4.4609310  16.5029310   2.2609310   3.8749310
  15.3549310   2.4459310   4.8439310  15.9229310   1.9239310   4.4349310
  10.2999310   8.5519310  15.7689310   9.4889310   8.5899310  15.2619310
  10.6639310   7.6889310  15.5739310  10.2429310   8.4469310  15.6789310
  13.6139310   8.2819310   5.6899310  14.4669310   7.9409310   5.4199310
  13.6359310   8.2529310   6.6459310  13.7259310   8.2339310   5.7769310
   6.5439310   5.1929310  13.5949310   5.7899310   4.8629310  13.1059310
   6.3429310   4.9949310  14.5089310   6.4219310   5.1249310  13.6489310
  10.0939310   4.5159310  15.6639310   9.3099310   4.4769310  16.2119310
  10.7309310   3.9649310  16.1179310  10.0749310   4.4409310  15.7919310
  11.4889310   3.0389310  12.8669310  12.1819310   3.2329310  13.4989310
  10.8529310   3.7449310  12.9849310  11.4959310   3.1539310  12.9629310
  11.9539310  15.3089310  10.3419310  11.4809310  16.1419310  10.3349310
  11.4229310  14.7279310   9.7979310  11.8249310  15.3409310  10.2719310
  51.4498620  51.1198620  52.1618620  90.0000000  90.0000000  90.0000000
